Membrane in water
40155
    1TCq1    O1    1   3.848   4.313  11.286 -0.0130  0.0317  0.5173
    1TCq1    C1    2   3.760   4.285  11.383  0.2590 -0.5768 -0.2098
    1TCq1    O2    3   3.729   4.358  11.477 -0.5258  0.0694  0.3005
    1TCq1    C2    4   3.728   4.145  11.384 -0.1732 -0.4411  0.1023
    1TCq1    C3    5   3.733   4.083  11.265  0.3715 -0.5932 -0.3439
    1TCq1    C4    6   3.716   3.947  11.260 -0.3882  0.1633 -0.0153
    1TCq1    C5    7   3.682   3.874  11.374 -0.1814  0.6603 -0.8484
    1TCq1    C6    8   3.686   3.942  11.490 -0.0106 -0.8299 -0.2127
    1TCq1    C7    9   3.702   4.081  11.504 -0.5156 -0.4024 -0.5654
    1TCq1    C8   10   3.690   3.870  11.618  0.1638 -0.5632 -0.5613
    1TCq1    O4   11   3.635   3.919  11.714  0.2288 -0.0628  0.3417
    1TCq1    C9   12   3.743   3.870  11.140  0.0725  0.0811 -0.5283
    1TCq1    O5   13   3.732   3.746  11.153 -0.0077  0.7063 -0.4084
    1TCq1    O6   14   3.792   3.933  11.045 -0.4588  0.1248 -0.0725
    1TCq1    H1   15   3.883   4.225  11.257  0.2692 -0.1212  1.3401
    1TCq1    H2   16   3.750   4.126  11.167  1.8639  1.6424  0.9086
    1TCq1    H3   17   3.650   3.771  11.371 -0.1127  0.5818  0.8460
    1TCq1    H4   18   3.720   4.122  11.602  2.4803 -2.3518 -0.2970
    2MPD2     C   19   3.769   3.444  11.901 -0.4107  0.4681 -0.1576
    2MPD2    C1   20   3.723   3.576  11.926 -0.1305 -0.2245 -0.1027
    2MPD2    C2   21   3.725   3.665  11.828  0.4984  0.1645  0.5086
    2MPD2    C3   22   3.762   3.637  11.698 -0.3279  0.3961  0.5350
    2MPD2    C4   23   3.812   3.507  11.677  0.0262  0.7780 -0.4601
    2MPD2    C5   24   3.819   3.410  11.775  1.1965 -0.5296 -0.4451
    2MPD2     H   25   3.671   3.752  11.862 -0.9057  1.2162 -4.3587
    2MPD2    H1   26   3.841   3.482  11.575  0.1574 -0.1374 -0.1989
    2MPD2    H2   27   3.778   3.371  11.981 -0.9150  2.2157  1.4853
    2MPD2    H3   28   3.850   3.311  11.745  2.8531  0.4927 -2.1010
    2MPD2     N   29   3.747   3.741  11.595  0.1148  0.3966 -0.2746
    2MPD2    H5   30   3.781   3.713  11.504  3.1589 -0.2747  1.0788
    2MPD2    N1   31   3.687   3.631  12.055 -0.0638 -0.2089 -0.7592
    2MPD2    H7   32   3.659   3.728  12.050  0.0637 -0.0647  1.8167
    3TCq1    O1   33   2.730   4.607  10.249 -0.2722  0.1820 -0.2087
    3TCq1    C1   34   2.701   4.565  10.370 -0.5209 -0.4262 -0.0118
    3TCq1    O2   35   2.602   4.494  10.388  0.6111  0.0577  0.0954
    3TCq1    C2   36   2.763   4.667  10.461 -0.0354 -0.0943 -0.2458
    3TCq1    C3   37   2.881   0.015  10.448 -0.2829 -0.0900 -0.2503
    3TCq1    C4   38   2.915   0.103  10.555 -0.0410  0.5719  0.3266
    3TCq1    C5   39   2.835   0.116  10.659 -0.0168  0.7147  0.0509
    3TCq1    C6   40   2.725   0.032  10.672  0.2632 -0.0512  0.6094
    3TCq1    C7   41   2.690   4.665  10.577 -0.3127 -0.2875  0.5757
    3TCq1    C8   42   2.634   0.041  10.777  0.2787  0.9997  0.1590
    3TCq1    O4   43   2.556   4.671  10.787 -0.3534 -0.1195 -0.0437
    3TCq1    C9   44   3.028   0.198  10.542  0.0585  0.0789  1.1689
    3TCq1    O5   45   3.023   0.299  10.626  0.3309 -0.0748 -0.2976
    3TCq1    O6   46   3.094   0.187  10.437 -0.0043 -0.2495  0.3949
    3TCq1    H1   47   2.791   4.684  10.241 -1.2427  1.0900  1.1021
    3TCq1    H2   48   2.942   0.013  10.358  0.6701 -0.7575  0.4016
    3TCq1    H3   49   2.862   0.188  10.735  1.7384  1.6662 -1.4762
    3TCq1    H4   50   2.599   4.606  10.575 -0.0875 -0.7181  2.4581
    4MPD2     C   51   2.288   0.364  10.979 -0.5162  0.1019 -0.0970
    4MPD2    C1   52   2.407   0.436  10.966  0.3250  0.6691 -0.5463
    4MPD2    C2   53   2.515   0.364  10.908 -0.4989 -0.0858 -0.0355
    4MPD2    C3   54   2.510   0.228  10.867 -0.0268 -0.0444 -0.0704
    4MPD2    C4   55   2.383   0.163  10.876  0.2281 -0.1044  0.0320
    4MPD2    C5   56   2.283   0.233  10.934 -0.2737 -0.2880  0.1366
    4MPD2     H   57   2.613   0.405  10.885  0.1055 -1.6493 -0.2554
    4MPD2    H1   58   2.365   0.066  10.830 -0.6600 -0.5585  1.3194
    4MPD2    H2   59   2.201   0.411  11.023 -1.1918  2.1710 -3.6247
    4MPD2    H3   60   2.190   0.184  10.960 -0.4539 -1.0556 -1.9861
    4MPD2     N   61   2.623   0.172  10.812 -0.2777  0.0021 -0.0641
    4MPD2    H5   62   2.704   0.229  10.787  1.1529 -0.8172  2.6291
    4MPD2    N1   63   2.429   0.569  11.009  0.4139  0.4819  0.5116
    4MPD2    H7   64   2.522   0.608  11.007 -0.1311  1.6538 -1.4857
    5TCq1    O1   65   3.812   1.832  12.172 -0.1904 -0.6475 -0.2890
    5TCq1    C1   66   3.793   1.736  12.087  0.3035 -0.7326 -0.2200
    5TCq1    O2   67   3.884   1.659  12.054  0.5437  0.5185  0.2568
    5TCq1    C2   68   3.661   1.739  12.032 -0.2918 -0.4203 -0.5408
    5TCq1    C3   69   3.549   1.780  12.106 -0.3268 -0.5370  0.2467
    5TCq1    C4   70   3.426   1.784  12.041 -0.2782  0.4407 -0.3067
    5TCq1    C5   71   3.418   1.752  11.908  0.4433  0.2570 -0.0163
    5TCq1    C6   72   3.529   1.718  11.836 -0.0803  0.3423  0.3551
    5TCq1    C7   73   3.645   1.711  11.903  0.3289  0.1504  0.2746
    5TCq1    C8   74   3.534   1.709  11.691 -0.1299  0.9120  0.4107
    5TCq1    O4   75   3.623   1.632  11.651 -0.0845 -0.3626 -0.1206
    5TCq1    C9   76   3.308   1.842  12.104  0.1890  0.8780  0.6331
    5TCq1    O5   77   3.306   1.850  12.230 -0.9222  0.4086 -0.3516
    5TCq1    O6   78   3.213   1.876  12.029 -0.2007  0.1925  0.6054
    5TCq1    H1   79   3.744   1.902  12.183 -1.6301 -1.7329 -2.3359
    5TCq1    H2   80   3.562   1.824  12.204  0.5455 -0.0353 -0.0949
    5TCq1    H3   81   3.319   1.747  11.866 -0.0992 -1.0812  1.4123
    5TCq1    H4   82   3.738   1.699  11.848 -0.3360  0.0869 -0.8324
    6MPD2     C   83   3.350   1.897  11.449  0.0198 -0.0188 -0.6171
    6MPD2    C1   84   3.416   1.785  11.498 -0.7217 -0.9456  0.2554
    6MPD2    C2   85   3.466   1.691  11.411  0.1878  0.0368 -0.1219
    6MPD2    C3   86   3.435   1.691  11.274 -0.3859 -0.5082 -0.2840
    6MPD2    C4   87   3.362   1.796  11.231 -0.3234 -0.5180  1.0416
    6MPD2    C5   88   3.317   1.897  11.317  0.0476  0.0912 -0.6287
    6MPD2     H   89   3.529   1.613  11.454  1.8620  0.2196 -2.2679
    6MPD2    H1   90   3.332   1.805  11.127  2.7618 -0.4023  0.1586
    6MPD2    H2   91   3.331   1.986  11.507 -2.1638  0.0845 -1.4855
    6MPD2    H3   92   3.264   1.982  11.277 -0.5318 -0.5214 -1.1654
    6MPD2     N   93   3.477   1.584  11.198 -0.3727  0.2553 -0.1495
    6MPD2    H5   94   3.528   1.514  11.251 -1.1864 -0.9353 -0.9555
    6MPD2    N1   95   3.440   1.792  11.629  0.5798 -0.2366 -0.3872
    6MPD2    H7   96   3.404   1.871  11.681 -2.6281 -0.7931 -1.7895
    7TCq1    O1   97   0.650   2.056  12.690  0.2585  0.3514 -0.1881
    7TCq1    C1   98   0.673   1.964  12.597  0.1559 -0.7141 -0.2680
    7TCq1    O2   99   0.682   1.990  12.478  0.1620  0.0158  0.4794
    7TCq1    C2  100   0.630   1.832  12.654  0.2521  0.1420 -0.0952
    7TCq1    C3  101   0.537   1.770  12.583 -0.6682 -0.0297  0.5294
    7TCq1    C4  102   0.461   1.668  12.639  0.0994 -0.8078  0.5743
    7TCq1    C5  103   0.476   1.632  12.767  0.1226 -0.0644  0.0525
    7TCq1    C6  104   0.583   1.697  12.836 -0.3972 -0.0477 -0.0022
    7TCq1    C7  105   0.649   1.806  12.785  0.1928 -0.1072 -0.2914
    7TCq1    C8  106   0.623   1.640  12.960  0.1822  0.1197 -0.3630
    7TCq1    O4  107   0.570   1.537  12.997  0.2367 -0.1425  0.0028
    7TCq1    C9  108   0.366   1.595  12.560 -0.1618  0.4409 -0.0998
    7TCq1    O5  109   0.383   1.593  12.434 -0.1562  0.7048 -0.4508
    7TCq1    O6  110   0.262   1.553  12.616  0.0350 -0.4887  0.2466
    7TCq1    H1  111   0.651   2.015  12.779  0.6576  1.3265  0.2521
    7TCq1    H2  112   0.507   1.802  12.484 -2.7756  1.7153  1.7368
    7TCq1    H3  113   0.407   1.561  12.810  1.2559  0.6588  3.1100
    7TCq1    H4  114   0.724   1.862  12.840  0.7999 -0.8443 -0.3728
    8MPD2     C  115   0.951   1.601  13.354 -0.4758 -0.1612  0.3804
    8MPD2    C1  116   0.871   1.508  13.289 -0.5086  0.4757 -0.0513
    8MPD2    C2  117   0.792   1.543  13.185  0.3680  0.2090 -0.3080
    8MPD2    C3  118   0.793   1.675  13.140  0.3082  0.2105 -0.0646
    8MPD2    C4  119   0.879   1.766  13.194  0.1126 -0.0762 -0.1111
    8MPD2    C5  120   0.947   1.731  13.313 -0.6165 -0.3877  0.1238
    8MPD2     H  121   0.729   1.471  13.134  0.2560  0.8902 -1.1302
    8MPD2    H1  122   0.886   1.865  13.150 -3.1215 -1.2730 -3.2812
    8MPD2    H2  123   1.015   1.576  13.438  0.4159 -0.6411 -0.4467
    8MPD2    H3  124   1.009   1.809  13.355 -0.8015 -0.4839  0.5714
    8MPD2     N  125   0.705   1.721  13.042 -0.0991 -0.0438  0.1547
    8MPD2    H5  126   0.709   1.821  13.025 -0.3087 -0.2279 -0.9494
    8MPD2    N1  127   0.872   1.377  13.347 -0.0533 -0.2251 -0.2195
    8MPD2    H7  128   0.925   1.368  13.434  1.4068  1.7907 -0.9093
    9TCq1    O1  129   2.827   3.851  10.802 -0.0698  0.6163 -0.2011
    9TCq1    C1  130   2.873   3.965  10.855  0.7653 -0.7574 -0.0539
    9TCq1    O2  131   2.807   4.048  10.914 -0.3232  0.3667 -0.2302
    9TCq1    C2  132   2.982   4.006  10.770 -0.2190 -0.2992  0.9801
    9TCq1    C3  133   2.977   3.980  10.635  0.2163 -0.0825  0.3529
    9TCq1    C4  134   3.080   4.050  10.564  0.5347 -0.1339  0.0462
    9TCq1    C5  135   3.175   4.133  10.628 -0.3087  0.0705  0.8119
    9TCq1    C6  136   3.173   4.148  10.761  0.6339  0.1662  0.1533
    9TCq1    C7  137   3.064   4.095  10.829  0.3882  0.1807 -0.1898
    9TCq1    C8  138   3.281   4.223  10.825  0.6240  0.2137 -0.3958
    9TCq1    O4  139   3.355   4.281  10.746  0.1690 -0.1681  0.4573
    9TCq1    C9  140   3.089   4.036  10.421 -0.4848  0.3752  0.3675
    9TCq1    O5  141   3.042   3.929  10.374  0.3436 -0.4144  0.6686
    9TCq1    O6  142   3.178   4.106  10.365  0.2137  0.4719 -0.0354
    9TCq1    H1  143   2.902   3.792  10.780  0.2414  1.6044 -1.8324
    9TCq1    H2  144   2.907   3.914  10.585  0.9185 -0.9469  0.5129
    9TCq1    H3  145   3.239   4.194  10.565  1.1749  0.6768  2.9028
    9TCq1    H4  146   3.043   4.115  10.934  1.9919 -0.1779  0.1986
   10MPD2     C  147   3.473   4.363  11.008 -0.2648 -0.3797  0.1292
   10MPD2    C1  148   3.351   4.309  11.047 -0.0770 -0.0135 -0.4021
   10MPD2    C2  149   3.305   4.325  11.178  0.3037  0.2658  0.5853
   10MPD2    C3  150   3.374   4.401  11.260 -0.0822  0.0298  0.4979
   10MPD2    C4  151   3.488   4.454  11.224  0.4474  0.7187  0.8592
   10MPD2    C5  152   3.536   4.436  11.100 -0.6235  0.1397  0.4916
   10MPD2     H  153   3.213   4.278  11.210 -0.0102  0.7146  0.3525
   10MPD2    H1  154   3.547   4.518  11.288 -1.8720  2.6227  1.0805
   10MPD2    H2  155   3.512   4.368  10.907  1.1820 -0.5147  0.6922
   10MPD2    H3  156   3.625   4.492  11.075 -1.2167  1.0489  0.3849
   10MPD2     N  157   3.340   4.419  11.399  0.1598  0.1409  0.2977
   10MPD2    H5  158   3.411   4.468  11.452 -1.0373  0.0844  1.9525
   10MPD2    N1  159   3.271   4.234  10.964 -0.1763  0.1207  0.3560
   10MPD2    H7  160   3.195   4.183  11.008 -0.7200  0.4285 -0.2349
   11TCq1    O1  161   4.436   4.407  14.691 -0.1262 -0.1275 -0.7728
   11TCq1    C1  162   4.346   4.427  14.600  0.1043  0.6440 -0.5318
   11TCq1    O2  163   4.235   4.378  14.606  0.2061  0.6432 -0.1073
   11TCq1    C2  164   4.381   4.520  14.493 -0.9433 -0.0792  0.2552
   11TCq1    C3  165   4.492   4.598  14.492 -0.3717  0.2429  0.1544
   11TCq1    C4  166   4.507   4.708  14.413 -0.0537 -0.2158 -0.4629
   11TCq1    C5  167   4.404   0.015  14.326  0.2582  0.5445  1.0044
   11TCq1    C6  168   4.283   4.670  14.331  0.3418 -0.2624 -0.2553
   11TCq1    C7  169   4.273   4.569  14.428 -0.3833  0.1080 -0.6623
   11TCq1    C8  170   4.176   4.709  14.250 -0.4526 -0.2243  0.2654
   11TCq1    O4  171   4.175   0.096  14.200  0.1616 -0.4354  0.3215
   11TCq1    C9  172   4.618   0.077  14.424  0.5665 -0.4554 -0.6274
   11TCq1    O5  173   4.647   0.111  14.543 -0.0364 -0.0088  0.2732
   11TCq1    O6  174   4.653   0.132  14.319  0.2906  0.3086 -0.2679
   11TCq1    H1  175   4.528   4.439  14.676  0.3216 -1.3788 -0.6703
   11TCq1    H2  176   4.580   4.575  14.551 -1.4732  0.4866  1.8906
   11TCq1    H3  177   4.416   0.108  14.273  0.9585  0.5475  1.1739
   11TCq1    H4  178   4.177   4.520  14.435 -0.1501 -0.3127 -0.3808
   12MPD2     C  179   3.922   0.005  14.109 -0.2960  0.6309 -0.2014
   12MPD2    C1  180   3.994   4.614  14.126 -0.1643 -0.0445 -0.0186
   12MPD2    C2  181   3.958   4.505  14.052 -0.2890 -0.1804 -0.0946
   12MPD2    C3  182   3.852   4.505  13.962  1.0684 -0.3755  0.3202
   12MPD2    C4  183   3.782   4.620  13.947  0.0074  0.1835  1.1259
   12MPD2    C5  184   3.813   0.009  14.021  0.1677  0.5108  0.0568
   12MPD2     H  185   4.011   4.416  14.085 -0.1279 -0.0419  0.0185
   12MPD2    H1  186   3.696   4.611  13.881  0.5400 -1.1722  0.6325
   12MPD2    H2  187   3.940   0.099  14.161  0.2488 -0.1643  1.0294
   12MPD2    H3  188   3.750   0.095  14.040  1.3021  1.4422 -0.4127
   12MPD2     N  189   3.808   4.391  13.890 -0.3354  0.3372  0.1286
   12MPD2    H5  190   3.721   4.399  13.838 -0.1696  0.9260 -0.0647
   12MPD2    N1  191   4.101   4.603  14.215 -0.1760  0.3859 -0.0389
   12MPD2    H7  192   4.130   4.507  14.231 -0.9464  0.2505  0.5609
   13TCq1    O1  193   3.747   4.128  10.887  0.1580 -0.4932 -0.5204
   13TCq1    C1  194   3.653   4.123  10.790 -0.4619  0.2354  0.5869
   13TCq1    O2  195   3.627   4.216  10.712 -0.4605  0.3658  0.8128
   13TCq1    C2  196   3.559   4.016  10.803  0.6057 -0.3952 -0.2981
   13TCq1    C3  197   3.495   3.963  10.691  0.1327  0.4880 -0.6129
   13TCq1    C4  198   3.391   3.882  10.698  0.0590  0.3318 -0.2943
   13TCq1    C5  199   3.344   3.845  10.826 -0.9126  0.7808  0.0780
   13TCq1    C6  200   3.402   3.899  10.937  0.0088 -0.1814  0.0992
   13TCq1    C7  201   3.505   3.988  10.927  0.8085  0.0749 -0.3895
   13TCq1    C8  202   3.315   3.918  11.056  0.1063  0.6195  0.9877
   13TCq1    O4  203   3.348   3.998  11.141  0.0041  0.4369 -0.0111
   13TCq1    C9  204   3.328   3.826  10.579 -0.1267 -0.4727 -0.1872
   13TCq1    O5  205   3.237   3.744  10.606 -0.1742 -0.5456  0.0085
   13TCq1    O6  206   3.365   3.861  10.462  0.0700  0.2383  0.4661
   13TCq1    H1  207   3.753   4.048  10.943 -0.5146 -0.7733 -0.8400
   13TCq1    H2  208   3.523   3.991  10.590  1.0582  1.1785 -0.1698
   13TCq1    H3  209   3.260   3.777  10.827 -1.0129  0.9152  0.7349
   13TCq1    H4  210   3.549   4.034  11.015  2.5075 -2.4907  0.1158
   14MPD2     C  211   2.966   3.782  11.099  0.5730 -0.9342  0.2688
   14MPD2    C1  212   3.075   3.866  11.118 -0.3123  0.3023 -0.6861
   14MPD2    C2  213   3.067   3.971  11.215  0.7249 -0.1370  0.4234
   14MPD2    C3  214   2.943   3.998  11.266 -0.1616  0.0119 -0.1125
   14MPD2    C4  215   2.833   3.917  11.234 -0.2279 -0.6057 -0.2623
   14MPD2    C5  216   2.851   3.807  11.154 -0.5354 -0.0641  0.1593
   14MPD2     H  217   3.147   4.041  11.235  0.4256 -0.0607  1.3578
   14MPD2    H1  218   2.729   3.944  11.251  0.0956  0.2201  0.3966
   14MPD2    H2  219   2.961   3.700  11.028 -1.2064  0.6233 -1.4458
   14MPD2    H3  220   2.762   3.747  11.136 -1.0240  0.9046 -0.7001
   14MPD2     N  221   2.929   4.107  11.357 -0.5462  0.3459 -0.3592
   14MPD2    H5  222   3.001   4.177  11.372 -1.0499 -0.0882  3.8739
   14MPD2    N1  223   3.195   3.847  11.048 -0.2119  0.2637  0.1254
   14MPD2    H7  224   3.208   3.765  10.989 -3.9131 -1.4337  1.7143
   15TCq1    O1  225   4.661   3.713   1.753 -0.1621  0.0269 -0.1347
   15TCq1    C1  226   4.633   3.708   1.629 -0.1831 -0.8054 -0.0966
   15TCq1    O2  227   4.584   3.790   1.557 -0.1854  0.4045 -0.0157
   15TCq1    C2  228   4.649   3.572   1.601 -0.0543  0.6034  0.6894
   15TCq1    C3  229   4.594   3.484   1.694  0.3237  0.1549 -0.2552
   15TCq1    C4  230   4.607   3.351   1.668 -0.1377  0.0602 -0.3918
   15TCq1    C5  231   4.659   3.311   1.545  0.1661  0.5757  0.6511
   15TCq1    C6  232   4.699   3.403   1.449  0.5501 -0.0702  0.2053
   15TCq1    C7  233   4.691   3.539   1.478  0.2263  0.0887  0.1599
   15TCq1    C8  234   0.067   3.362   1.343  0.4752  0.3068 -0.2254
   15TCq1    O4  235   0.132   3.262   1.361  0.5926 -0.0994  0.4309
   15TCq1    C9  236   4.572   3.253   1.771  0.2914 -0.0052  0.5953
   15TCq1    O5  237   4.509   3.294   1.874  0.4931 -0.3801  0.7364
   15TCq1    O6  238   4.607   3.136   1.749 -0.4706  0.1379  0.5009
   15TCq1    H1  239   0.004   3.644   1.775  0.9671  1.4054  0.7045
   15TCq1    H2  240   4.550   3.518   1.787  0.3488  1.3479 -0.6701
   15TCq1    H3  241   4.679   3.210   1.510  0.6045  0.8045  0.2469
   15TCq1    H4  242   0.026   3.608   1.419 -1.9343 -0.9919 -3.2471
   16MPD2     C  243   0.180   3.543   1.042 -0.5348  0.7133 -0.3137
   16MPD2    C1  244   0.169   3.439   1.131  0.0194  0.1508 -0.1337
   16MPD2    C2  245   0.258   3.337   1.130 -0.7911  0.9097 -0.1727
   16MPD2    C3  246   0.346   3.320   1.026 -0.0152 -0.7025 -0.5580
   16MPD2    C4  247   0.360   3.422   0.942  0.2935  0.1899  0.0914
   16MPD2    C5  248   0.278   3.529   0.947  0.2593  0.0887 -0.1905
   16MPD2     H  249   0.272   3.263   1.208 -1.0992  1.5903  0.5282
   16MPD2    H1  250   0.442   3.430   0.871 -2.2023  1.0833 -2.7197
   16MPD2    H2  251   0.125   3.636   1.055 -0.5158  0.4223  1.7981
   16MPD2    H3  252   0.289   3.613   0.879 -3.3364  0.4643 -0.3198
   16MPD2     N  253   0.436   3.206   1.027  0.2804  0.7035 -0.4217
   16MPD2    H5  254   0.437   3.154   1.114 -1.6971 -0.9520 -1.3851
   16MPD2    N1  255   0.079   3.451   1.238 -0.1595 -0.3383  0.5342
   16MPD2    H7  256   0.015   3.530   1.237 -3.1986 -2.8049  1.2866
   17TCq1    O1  257   3.389   3.228  11.882  0.2784 -0.1426  0.2188
   17TCq1    C1  258   3.492   3.168  11.837  0.3743 -0.6987  0.0990
   17TCq1    O2  259   3.569   3.102  11.911 -0.1165 -0.4770 -0.3593
   17TCq1    C2  260   3.524   3.225  11.702  0.0435  0.0648  0.1495
   17TCq1    C3  261   3.495   3.352  11.666 -0.4592 -0.8847  0.0462
   17TCq1    C4  262   3.522   3.391  11.537 -0.1757 -0.1470 -0.0410
   17TCq1    C5  263   3.585   3.312  11.449 -0.8157  0.9615 -0.1258
   17TCq1    C6  264   3.630   3.189  11.495  0.3277 -0.5103 -0.0856
   17TCq1    C7  265   3.599   3.147  11.623  0.4689 -0.3699 -1.0684
   17TCq1    C8  266   3.638   3.083  11.393 -0.1655  0.5713  0.4965
   17TCq1    O4  267   3.576   2.978  11.407 -0.0047 -0.2943  0.0247
   17TCq1    C9  268   3.475   3.521  11.489 -0.2271  0.2522  0.3401
   17TCq1    O5  269   3.360   3.554  11.529 -0.4067 -0.1268  0.3882
   17TCq1    O6  270   3.528   3.565  11.383 -0.5128  0.2747  0.0400
   17TCq1    H1  271   3.325   3.243  11.809 -0.8247  2.1298  1.6677
   17TCq1    H2  272   3.439   3.416  11.732 -0.9526 -1.3973  0.1187
   17TCq1    H3  273   3.600   3.344  11.346 -2.1321 -1.0278 -0.9368
   17TCq1    H4  274   3.618   3.046  11.658  1.3861 -0.3204 -1.4381
   18MPD2     C  275   3.637   2.934  11.127  0.3358 -0.8745  0.0036
   18MPD2    C1  276   3.687   3.058  11.148 -0.0781  0.4583 -0.4196
   18MPD2    C2  277   3.742   3.130  11.039  0.2179 -0.0992 -0.4067
   18MPD2    C3  278   3.755   3.070  10.911  1.0064 -0.2096  0.6397
   18MPD2    C4  279   3.708   2.943  10.895  0.3218 -0.5425 -0.2627
   18MPD2    C5  280   3.658   2.873  11.002 -0.6688  0.2937 -0.2795
   18MPD2     H  281   3.778   3.232  11.051  0.2336 -0.3538  1.5648
   18MPD2    H1  282   3.696   2.897  10.798  0.1425  1.1858 -1.0646
   18MPD2    H2  283   3.594   2.875  11.207 -1.1273 -0.6148 -0.6030
   18MPD2    H3  284   3.605   2.781  10.979 -2.2232  0.1046  4.0388
   18MPD2     N  285   3.806   3.139  10.797  0.0921 -0.4290  0.0288
   18MPD2    H5  286   3.792   3.086  10.711  2.2755  1.9782 -1.8121
   18MPD2    N1  287   3.697   3.123  11.274  0.3081  0.7074 -0.2607
   18MPD2    H7  288   3.758   3.204  11.270  0.1087  0.8219 -1.1001
   19TMC2    C1  289   0.151   4.198  13.966  0.8539 -0.5867  0.4254
   19TMC2    C2  290   0.063   4.281  13.907  0.5710  0.4154  0.2821
   19TMC2    C3  291   4.654   4.237  13.898  0.2287 -0.7123 -0.6769
   19TMC2    C4  292   0.124   4.067  14.004 -0.7761 -0.5111 -0.2703
   19TMC2    C5  293   4.715   4.036  13.998  0.8442  0.0499  0.2583
   19TMC2    C6  294   4.621   4.115  13.944  0.3438  0.2840 -0.1586
   19TMC2     C  295   0.289   4.252  13.969  0.5676 -0.0949 -0.5512
   19TMC2     O  296   0.308   4.349  13.898  0.1846  0.8685 -0.1163
   19TMC2     H  297   0.089   4.385  13.893  0.5678  0.2677 -0.7762
   19TMC2    H1  298   0.204   4.009  14.049 -1.1008 -0.1424  0.7624
   19TMC2    H2  299   4.517   4.085  13.936  0.9987 -1.6811 -1.3719
   19TMC2    C7  300   4.666   3.925  14.078  0.5068 -0.1810 -0.6210
   19TMC2    C8  301   4.563   4.295  13.806  0.1844  0.5670 -0.6190
   19TMC2    O1  302   4.545   3.909  14.069 -0.5496  0.2609 -0.0385
   19TMC2    O2  303   4.473   4.226  13.761 -0.4654 -0.0874  0.1719
   19TMC2    O5  304   4.609   4.410  13.755  0.0304 -0.3336  0.2251
   19TMC2    H5  305   4.673   4.467  13.803  0.1943 -0.9841  0.7675
   20MPD2     C  306   0.576   4.291  13.980  0.5878 -0.0971  0.0652
   20MPD2    C1  307   0.513   4.213  14.070 -0.5263  0.2216  0.4505
   20MPD2    C2  308   0.580   4.159  14.179  0.0349  0.3815 -0.0022
   20MPD2    C3  309   0.717   4.201  14.201  0.5947 -0.3160 -0.4189
   20MPD2    C4  310   0.783   4.274  14.110 -0.3287 -0.0076 -0.2594
   20MPD2    C5  311   0.716   4.307  13.998  0.4524  0.5235  0.0292
   20MPD2     H  312   0.536   4.091  14.251  0.0667 -0.9565 -1.2396
   20MPD2    H1  313   0.888   4.297  14.120  0.0856 -2.4566  1.1459
   20MPD2    H2  314   0.533   4.313  13.883  2.0866 -0.0699 -0.5914
   20MPD2    H3  315   0.771   4.350  13.915  3.7991 -0.7775  1.5350
   20MPD2     N  316   0.793   4.166  14.320 -0.4174  0.3404  0.7550
   20MPD2    H5  317   0.893   4.176  14.305  0.2797 -1.1084  4.3584
   20MPD2    N1  318   0.372   4.186  14.058  0.0849  0.1954 -0.1028
   20MPD2    H7  319   0.339   4.113  14.122 -0.4312  0.9090  0.4454
   21MPD2     C  320   2.862   0.197  14.458 -0.0947  0.1870 -0.2202
   21MPD2    C1  321   2.912   0.131  14.565 -0.0138 -0.4125 -0.7576
   21MPD2    C2  322   2.845   0.142  14.687 -0.5263  0.7888 -0.1983
   21MPD2    C3  323   2.729   0.206  14.706  0.2262  0.3249 -0.4999
   21MPD2    C4  324   2.677   0.282  14.598 -0.1897 -0.2794  0.1336
   21MPD2    C5  325   2.743   0.267  14.474  0.1082  0.2773 -0.1590
   21MPD2     H  326   2.894   0.084  14.764  0.8293  3.4993  0.9831
   21MPD2    H1  327   2.585   0.340  14.604 -0.9376 -1.5248  0.7674
   21MPD2    H2  328   2.911   0.195  14.362 -0.1927 -0.3157 -0.2620
   21MPD2    H3  329   2.713   0.321  14.385  2.8835  1.0006 -0.6721
   21MPD2     N  330   2.666   0.214  14.828  0.0927  0.1528  0.1025
   21MPD2    H5  331   2.577   0.262  14.828  0.0871  0.1440 -0.6138
   21MPD2    N1  332   3.030   0.056  14.564  0.5237 -0.6259  0.0425
   21MPD2    H7  333   3.061   0.020  14.654 -2.9155 -1.6103  0.8137
   22TCq2    C1  334   2.699   0.149  14.943 -0.0462  0.0514  0.7159
   22TCq2    O2  335   2.806   0.107  14.986  0.8754  0.4434 -0.5021
   22TCq2    C2  336   2.603   0.169  15.055 -0.3528 -0.0746 -0.0797
   22TCq2    C3  337   2.665   0.185  15.179  0.2151  0.1675  0.1838
   22TCq2    C4  338   2.570   0.193  15.282  0.8982  0.3981  0.0490
   22TCq2    C5  339   2.438   0.202  15.259 -0.3206  0.0492  0.9421
   22TCq2    C6  340   2.388   0.190  15.132 -0.2502 -0.0276  0.4627
   22TCq2    C7  341   2.473   0.163  15.030  0.3793 -0.2182 -0.0682
   22TCq2    C8  342   2.247   0.163  15.119 -0.1650 -0.0775 -0.0782
   22TCq2    O4  343   2.192   0.101  15.212  0.5200  0.3356  0.0470
   22TCq2    C9  344   2.619   0.238  15.410  0.0883  0.1684  0.2175
   22TCq2    O5  345   2.532   0.307  15.471 -0.0799  0.1177 -0.5391
   22TCq2    O6  346   2.743   0.239  15.427  0.1957  0.3811  0.1395
   22TCq2    H2  347   2.772   0.197  15.187  0.4650  0.0882 -3.0644
   22TCq2    H3  348   2.377   0.217  15.347  1.2510  2.2556  1.6836
   22TCq2    H4  349   2.441   0.156  14.926  2.4761 -0.7244 -0.6867
   23MPD2     C  350   4.328   0.974  15.093 -0.2664  0.3065 -0.6417
   23MPD2    C1  351   4.204   1.020  15.132 -0.8240 -0.6313  0.2035
   23MPD2    C2  352   4.097   1.012  15.042 -0.1113 -0.4498 -0.2126
   23MPD2    C3  353   4.121   0.971  14.911 -0.6108 -0.2891 -0.1402
   23MPD2    C4  354   4.250   0.946  14.872 -0.1335  0.2373 -0.5099
   23MPD2    C5  355   4.351   0.944  14.962 -0.5782  0.7555  0.7702
   23MPD2     H  356   3.998   1.029  15.082  0.7684 -1.2353  2.3606
   23MPD2    H1  357   4.266   0.923  14.767  2.7355  1.7866 -0.4210
   23MPD2    H2  358   4.411   0.962  15.162  0.0759  1.0638 -0.9099
   23MPD2    H3  359   4.452   0.923  14.929 -0.5722 -1.6624  2.3158
   23MPD2     N  360   4.022   0.972  14.817 -0.3186  0.6624  0.5650
   23MPD2    H5  361   4.039   0.946  14.721 -3.4051  0.9993 -0.0787
   23MPD2    N1  362   4.175   1.045  15.268  0.4107 -0.0506 -0.5809
   23MPD2    H7  363   4.078   1.059  15.297  0.4919  0.5994 -0.6257
   24TCq2    C1  364   3.904   1.048  14.822  0.2621 -0.1317 -0.4761
   24TCq2    O2  365   3.855   1.108  14.919  0.2969  0.1349 -0.0131
   24TCq2    C2  366   3.846   1.071  14.691  0.5034  0.2494 -0.0043
   24TCq2    C3  367   3.802   1.196  14.675 -0.5745  0.2856 -0.1333
   24TCq2    C4  368   3.739   1.228  14.557 -0.1785 -0.4487 -0.6412
   24TCq2    C5  369   3.704   1.136  14.459 -0.3472  0.5521 -0.3969
   24TCq2    C6  370   3.751   1.010  14.485 -0.1129  0.6486 -0.5311
   24TCq2    C7  371   3.831   0.974  14.594 -0.0478 -0.4367  0.0286
   24TCq2    C8  372   3.699   0.893  14.418 -0.2465  0.1688  0.0593
   24TCq2    O4  373   3.774   0.802  14.390  0.0952 -0.5312 -0.0048
   24TCq2    C9  374   3.706   1.366  14.530  0.2438  0.1745 -0.1727
   24TCq2    O5  375   3.640   1.396  14.429 -0.3729 -0.1781 -0.4321
   24TCq2    O6  376   3.723   1.444  14.628 -0.4169  0.0166  0.2579
   24TCq2    H2  377   3.831   1.268  14.750  0.4428 -1.7458  1.4221
   24TCq2    H3  378   3.657   1.168  14.366  3.7553  0.3913 -2.5143
   24TCq2    H4  379   3.856   0.870  14.612  0.5849 -0.0756  1.2218
   25TMC2    C1  380   3.426   2.713  11.922 -0.1201  0.5656  0.8556
   25TMC2    C2  381   3.538   2.751  11.994  0.0563 -0.2870 -0.0983
   25TMC2    C3  382   3.530   2.843  12.092  1.0682 -0.1544  0.1351
   25TMC2    C4  383   3.311   2.787  11.940  0.0280 -0.0462 -0.3440
   25TMC2    C5  384   3.321   2.902  12.015  0.4881 -0.5766 -0.1660
   25TMC2    C6  385   3.422   2.926  12.107 -0.2516 -0.1974  1.2477
   25TMC2     C  386   3.439   2.603  11.822  0.3283 -0.0748 -0.3601
   25TMC2     O  387   3.553   2.568  11.799 -0.0405 -0.6414 -0.1537
   25TMC2     H  388   3.633   2.702  11.975  0.3301  0.7980 -1.5613
   25TMC2    H1  389   3.218   2.771  11.887  0.1025  0.0551 -0.5063
   25TMC2    H2  390   3.424   3.006  12.181  0.2342 -0.1809  1.2170
   25TMC2    C7  391   3.203   2.994  12.018 -0.5349  0.0325 -0.1850
   25TMC2    C8  392   3.656   2.874  12.153  0.5209  0.4036 -0.5594
   25TMC2    O1  393   3.174   3.045  12.125  0.1373 -0.6363  0.4846
   25TMC2    O2  394   3.715   2.800  12.229 -0.2182  0.0499 -0.0893
   25TMC2    O5  395   3.671   3.008  12.143 -0.1064  0.3566 -0.5807
   25TMC2    H5  396   3.619   3.046  12.069  0.9861  0.0542 -1.4978
   26MPD2     C  397   3.214   2.280  11.495 -0.1246 -0.4571 -0.8885
   26MPD2    C1  398   3.111   2.359  11.547 -0.0457 -0.3904 -0.2585
   26MPD2    C2  399   3.148   2.460  11.641  0.3949  0.0040  0.0812
   26MPD2    C3  400   3.276   2.471  11.682 -0.1196 -0.1368 -0.1814
   26MPD2    C4  401   3.372   2.403  11.618 -0.1668  0.2822 -0.0463
   26MPD2    C5  402   3.340   2.309  11.529  0.0255  0.1182  0.2997
   26MPD2     H  403   3.077   2.537  11.664  1.3998  1.1906 -0.8050
   26MPD2    H1  404   3.476   2.419  11.644  0.1392 -1.1895 -0.3676
   26MPD2    H2  405   3.198   2.185  11.445 -2.4031 -0.1594 -0.7156
   26MPD2    H3  406   3.411   2.245  11.478  0.0983  1.7941 -1.7466
   26MPD2     N  407   3.309   2.566  11.780  0.0319  0.7252 -0.8322
   26MPD2    H5  408   3.237   2.614  11.833  0.8118 -0.2742  1.1507
   26MPD2    N1  409   2.974   2.335  11.498 -0.6340  0.2734 -0.1037
   26MPD2    H7  410   2.951   2.261  11.432 -0.4845 -0.6194  0.8347
   27TMC2    C1  411   1.569   0.285  11.954 -0.0510  0.8091  0.2167
   27TMC2    C2  412   1.475   0.298  11.854  0.0500 -0.2292  0.5599
   27TMC2    C3  413   1.427   0.428  11.840  0.6404  0.1668  0.1048
   27TMC2    C4  414   1.613   0.390  12.028  0.0163  0.1278 -0.5243
   27TMC2    C5  415   1.576   0.515  11.998  0.1008  0.9889 -0.2744
   27TMC2    C6  416   1.487   0.535  11.899  0.8605 -1.0603  0.1523
   27TMC2     C  417   1.553   0.169  12.035  0.4716 -0.3692  0.3278
   27TMC2     O  418   1.580   0.065  11.983  0.5324  0.0954 -0.3068
   27TMC2     H  419   1.431   0.208  11.813 -0.8129 -1.4985  4.3212
   27TMC2    H1  420   1.691   0.384  12.103 -1.7116 -2.3400  1.0747
   27TMC2    H2  421   1.453   0.638  11.889  0.1277 -1.6156 -3.0184
   27TMC2    C7  422   1.527   0.578  12.122  0.1796  0.3196  0.2935
   27TMC2    C8  423   1.305   0.438  11.762  0.8306  0.3180 -0.4803
   27TMC2    O1  424   1.490   0.500  12.205 -0.4856  0.4002 -0.1939
   27TMC2    O2  425   1.247   0.329  11.737 -0.2010 -0.0518  0.0792
   27TMC2    O5  426   1.342   0.526  11.673  0.5610 -0.0396 -0.0410
   27TMC2    H5  427   1.389   0.602  11.714 -1.4867  1.1150  0.1426
   28MPD2     C  428   1.358   4.659  12.444  0.3134  0.5254 -0.5865
   28MPD2    C1  429   1.341   0.071  12.457 -0.0492 -0.8985 -0.7275
   28MPD2    C2  430   1.394   0.154  12.358 -0.0966 -0.0868 -0.5221
   28MPD2    C3  431   1.454   0.107  12.245  0.0389  1.0122  0.0707
   28MPD2    C4  432   1.464   4.695  12.233  0.1931  0.6806 -0.0172
   28MPD2    C5  433   1.421   4.613  12.331 -0.6747  1.0306  0.7323
   28MPD2     H  434   1.383   0.262  12.358 -1.3220 -0.2105 -0.5662
   28MPD2    H1  435   1.493   4.653  12.137  1.8052 -2.7593  1.9805
   28MPD2    H2  436   1.323   4.585  12.515 -1.4365  0.4302 -1.5383
   28MPD2    H3  437   1.415   4.506  12.315  2.7278  0.9031  0.2860
   28MPD2     N  438   1.496   0.204  12.151  0.7249  0.1884  0.4833
   28MPD2    H5  439   1.486   0.302  12.176  0.4466  0.0493  0.9066
   28MPD2    N1  440   1.267   0.126  12.566  0.2639 -0.1195 -1.0116
   28MPD2    H7  441   1.223   0.056  12.626  1.3970 -0.1119 -0.1643
   29MPD2     C  442   1.565   3.040  14.173  0.8051 -0.4823 -0.0350
   29MPD2    C1  443   1.572   3.014  14.304 -0.7396  0.0359  0.2262
   29MPD2    C2  444   1.590   3.113  14.391  0.1862  0.4752 -0.2388
   29MPD2    C3  445   1.603   3.242  14.350 -0.6005 -0.4680 -0.4428
   29MPD2    C4  446   1.616   3.269  14.216  0.1199  0.5577  0.1733
   29MPD2    C5  447   1.590   3.168  14.125  0.0055 -0.0837  0.0521
   29MPD2     H  448   1.573   3.084  14.494 -0.5025  3.7843  0.5746
   29MPD2    H1  449   1.633   3.370  14.181 -2.0541  1.3570  1.3938
   29MPD2    H2  450   1.539   2.966  14.098  0.2791 -2.6252  2.2569
   29MPD2    H3  451   1.596   3.175  14.017 -2.3044  0.1801 -0.0510
   29MPD2     N  452   1.639   3.344  14.439  0.2603  0.2008  0.0921
   29MPD2    H5  453   1.656   3.438  14.403 -0.3724 -0.0721 -0.8879
   29MPD2    N1  454   1.537   2.884  14.345  0.2808 -0.9850 -0.8168
   29MPD2    H7  455   1.531   2.866  14.444  0.5500 -0.9640 -0.7966
   30TCq2    C1  456   1.658   3.325  14.573 -0.1553  0.6314  0.0434
   30TCq2    O2  457   1.658   3.225  14.639 -0.2429 -0.3197 -0.2217
   30TCq2    C2  458   1.712   3.444  14.637  0.8250  0.2376  0.4655
   30TCq2    C3  459   1.804   3.422  14.736  0.1345 -0.3042 -0.0447
   30TCq2    C4  460   1.871   3.527  14.799  0.6709 -0.7581 -0.3564
   30TCq2    C5  461   1.842   3.654  14.763 -0.3182 -0.1178 -0.8747
   30TCq2    C6  462   1.747   3.674  14.665  0.0370  0.8029 -0.6914
   30TCq2    C7  463   1.675   3.570  14.611  0.1444 -0.0452 -0.0684
   30TCq2    C8  464   1.690   3.810  14.662  0.0823  0.1198 -0.5018
   30TCq2    O4  465   1.577   3.828  14.629 -0.9378  0.1434 -0.0888
   30TCq2    C9  466   1.983   3.492  14.866 -0.0827 -0.0525 -0.3411
   30TCq2    O5  467   1.983   3.382  14.928 -0.8940  0.6355 -0.2117
   30TCq2    O6  468   2.075   3.579  14.874  0.1408 -0.1890 -0.3404
   30TCq2    H2  469   1.829   3.324  14.777 -1.1132 -0.9864 -0.9324
   30TCq2    H3  470   1.913   3.721  14.811  0.5829 -1.4207 -0.4047
   30TCq2    H4  471   1.588   3.587  14.549  0.3296  1.7592  0.1706
   31MPD2     C  472   4.412   1.365  14.619 -0.5497  1.1482  0.2281
   31MPD2    C1  473   4.272   1.385  14.603  0.5485  0.3118  0.5359
   31MPD2    C2  474   4.196   1.374  14.711  0.2128 -0.2930  0.3774
   31MPD2    C3  475   4.245   1.345  14.835  0.1533  0.5849  0.3123
   31MPD2    C4  476   4.380   1.330  14.850 -0.0135  0.5886  0.3520
   31MPD2    C5  477   4.463   1.341  14.741 -0.2553 -0.3368  0.6562
   31MPD2     H  478   4.088   1.368  14.698 -0.0956  0.7889  2.5190
   31MPD2    H1  479   4.431   1.300  14.941  0.0048  2.1654  0.8515
   31MPD2    H2  480   4.482   1.365  14.536  0.6392 -0.1145  1.2409
   31MPD2    H3  481   4.570   1.339  14.754 -0.1245 -2.7221 -0.9618
   31MPD2     N  482   4.164   1.350  14.949 -0.7281  0.0874 -0.9696
   31MPD2    H5  483   4.223   1.317  15.026 -1.1745 -1.5976 -1.3480
   31MPD2    N1  484   4.228   1.427  14.475 -0.8218 -0.7681  0.2652
   31MPD2    H7  485   4.297   1.433  14.401 -1.6376 -1.5249 -0.5536
   32TCq2    C1  486   4.042   1.421  14.954 -0.3513  0.8387  0.9626
   32TCq2    O2  487   3.996   1.498  14.873 -0.2858 -0.1623  0.3670
   32TCq2    C2  488   3.977   1.421  15.085 -0.5071  0.0238 -0.2744
   32TCq2    C3  489   3.860   1.485  15.089  0.2310 -0.2725 -0.3803
   32TCq2    C4  490   3.805   1.511  15.207  0.7420  0.1530  0.0967
   32TCq2    C5  491   3.869   1.493  15.325  0.1315 -0.5922 -0.8197
   32TCq2    C6  492   3.993   1.435  15.316  0.3256  0.7231  0.4059
   32TCq2    C7  493   4.048   1.390  15.199 -0.2831 -0.5625  0.5325
   32TCq2    C8  494   4.097   1.465  15.416  0.5434 -0.2785  0.0936
   32TCq2    O4  495   4.192   1.384  15.428  1.2952 -0.2763 -0.5333
   32TCq2    C9  496   3.671   1.562  15.213  0.0031  1.0583 -0.0332
   32TCq2    O5  497   3.617   1.590  15.103 -0.1911 -0.1894 -0.2240
   32TCq2    O6  498   3.609   1.524  15.319 -0.3451  0.0402  0.1836
   32TCq2    H2  499   3.799   1.516  15.005  1.8752 -1.3994 -1.9916
   32TCq2    H3  500   3.808   1.519  15.411  1.3020  0.2007 -0.2337
   32TCq2    H4  501   4.150   1.354  15.187 -0.4506 -0.7577 -0.3262
   33MPD2     C  502   4.316   3.790  10.542 -0.4980 -0.4223 -0.1192
   33MPD2    C1  503   4.181   3.785  10.518 -0.1718  0.4527 -0.6686
   33MPD2    C2  504   4.103   3.900  10.512 -0.3030 -0.1230  0.2282
   33MPD2    C3  505   4.160   4.029  10.528 -0.0239 -0.1910 -0.4707
   33MPD2    C4  506   4.296   4.034  10.547 -0.1614 -0.3257 -0.1648
   33MPD2    C5  507   4.371   3.913  10.555 -0.3748 -0.0537  0.8766
   33MPD2     H  508   4.002   3.876  10.479 -0.2979  2.1080 -1.4050
   33MPD2    H1  509   4.343   4.128  10.573 -0.2829  0.2271 -1.9521
   33MPD2    H2  510   4.389   3.710  10.533  1.1880  1.1752 -0.8134
   33MPD2    H3  511   4.478   3.925  10.568 -0.2781 -1.1189  1.0233
   33MPD2     N  512   4.083   4.150  10.503  0.0089  0.4426  0.6295
   33MPD2    H5  513   4.135   4.235  10.483  1.3547 -0.4294  0.3913
   33MPD2    N1  514   4.132   3.653  10.508 -0.1144 -0.4762 -0.5225
   33MPD2    H7  515   4.200   3.579  10.523  0.2519  0.1314  0.7787
   34TCq2    C1  516   3.946   4.149  10.490  0.0602  0.2705 -0.6498
   34TCq2    O2  517   3.870   4.053  10.501  0.3619 -0.2506  0.7407
   34TCq2    C2  518   3.879   4.271  10.444 -0.5531 -0.7819 -0.1062
   34TCq2    C3  519   3.747   4.241  10.414 -0.1092 -0.2634 -0.3854
   34TCq2    C4  520   3.683   4.329  10.324 -1.3638 -0.4097 -0.4890
   34TCq2    C5  521   3.746   4.442  10.267  0.0869 -1.0888 -0.0656
   34TCq2    C6  522   3.876   4.447  10.288 -0.1707 -0.1187  0.1843
   34TCq2    C7  523   3.949   4.372  10.378 -0.2867 -0.0355 -0.2152
   34TCq2    C8  524   3.956   4.520  10.185  0.0873 -0.1037  0.4198
   34TCq2    O4  525   4.059   4.568  10.230  0.3047  0.2914  0.0524
   34TCq2    C9  526   3.545   4.304  10.294  0.2054 -0.0315  0.0097
   34TCq2    O5  527   3.483   4.243  10.388  0.0347  0.1550  0.2582
   34TCq2    O6  528   3.545   4.273  10.173  0.2630  0.8726 -0.6483
   34TCq2    H2  529   3.695   4.159  10.462 -2.1396  1.6868  0.7233
   34TCq2    H3  530   3.688   4.520  10.218  0.3323 -0.0082  1.3360
   34TCq2    H4  531   4.053   4.396  10.395 -0.4610 -0.0508  0.9219
   35MPD2     C  532   1.161   0.748  11.847 -0.2160 -0.0513  0.4974
   35MPD2    C1  533   1.137   0.665  11.955  0.2815  1.0959 -0.0796
   35MPD2    C2  534   1.059   0.551  11.938 -0.3217 -0.5097  0.5051
   35MPD2    C3  535   0.994   0.532  11.816 -0.2947 -0.4510  0.8381
   35MPD2    C4  536   1.016   0.616  11.713  0.1328 -0.1161 -0.0437
   35MPD2    C5  537   1.106   0.720  11.730 -0.7076  0.0259  0.4139
   35MPD2     H  538   1.042   0.473  12.012  0.1317  0.1937  1.3530
   35MPD2    H1  539   0.961   0.610  11.620 -1.6761 -0.3970  1.0457
   35MPD2    H2  540   1.211   0.842  11.867  1.2354 -0.7733  0.2639
   35MPD2    H3  541   1.129   0.789  11.649  1.8254  1.9768  2.7858
   35MPD2     N  542   0.887   0.436  11.803  0.3073  0.7220 -0.3239
   35MPD2    H5  543   0.865   0.382  11.887  0.8664  0.0644 -0.5954
   35MPD2    N1  544   1.200   0.691  12.074  0.3089 -0.2435  0.3024
   35MPD2    H7  545   1.220   0.788  12.095 -2.4348 -0.1577  2.5074
   36TCq2    C1  546   0.822   0.403  11.693 -0.9147 -0.3085  0.8823
   36TCq2    O2  547   0.847   0.427  11.574 -0.1503 -0.2908  0.2329
   36TCq2    C2  548   0.714   0.312  11.721  0.6740 -0.3475 -0.2837
   36TCq2    C3  549   0.632   0.343  11.832  0.9612 -0.2652 -0.6608
   36TCq2    C4  550   0.507   0.284  11.838 -0.4953  0.6164 -0.6170
   36TCq2    C5  551   0.473   0.186  11.750 -0.2543  0.1860 -0.3301
   36TCq2    C6  552   0.566   0.153  11.647  0.0780  0.0600  0.8870
   36TCq2    C7  553   0.684   0.216  11.630  0.2133 -0.4391  0.2079
   36TCq2    C8  554   0.533   0.046  11.561  0.4077  0.3283  0.3820
   36TCq2    O4  555   0.426   4.715  11.572  0.6250 -0.0562 -0.2490
   36TCq2    C9  556   0.424   0.305  11.949 -0.2504  0.7869 -0.2081
   36TCq2    O5  557   0.467   0.371  12.050  0.1142 -0.0637 -0.2014
   36TCq2    O6  558   0.310   0.253  11.950 -0.2509  0.8701  0.2980
   36TCq2    H2  559   0.655   0.422  11.903  0.5136  0.0581 -0.8756
   36TCq2    H3  560   0.380   0.131  11.748 -0.4072  0.3883  1.3057
   36TCq2    H4  561   0.754   0.190  11.551 -0.2997  0.2446 -0.4666
   37TMC2    C1  562   2.779   1.028  11.695  0.4231 -0.5614  0.8220
   37TMC2    C2  563   2.776   1.095  11.576  0.2950  1.0204  0.2251
   37TMC2    C3  564   2.903   1.136  11.523  0.2976 -0.3883  0.3617
   37TMC2    C4  565   2.900   0.976  11.741  0.2505  0.1400 -0.1613
   37TMC2    C5  566   3.017   0.998  11.675  0.1364 -0.3264 -0.3659
   37TMC2    C6  567   3.020   1.085  11.575 -0.2576 -0.3333  0.0310
   37TMC2     C  568   2.655   1.027  11.775 -0.2285 -0.0826 -0.2455
   37TMC2     O  569   2.549   1.067  11.727 -0.1675  0.6177  0.4614
   37TMC2     H  570   2.678   1.118  11.534 -0.5626 -0.4692  1.4062
   37TMC2    H1  571   2.901   0.901  11.819  0.6004  1.2274  0.8820
   37TMC2    H2  572   3.115   1.118  11.535 -0.8485  2.2803  0.7839
   37TMC2    C7  573   3.134   0.960  11.750 -0.5506 -0.3224 -0.7767
   37TMC2    C8  574   2.917   1.244  11.428 -0.6308  0.3776 -0.6927
   37TMC2    O1  575   3.118   0.929  11.870  0.1198  0.0795  0.1830
   37TMC2    O2  576   2.994   1.332  11.461  0.5116 -0.2955  0.4016
   37TMC2    O5  577   2.793   1.261  11.374  0.1175  0.0581  0.0200
   37TMC2    H5  578   2.768   1.171  11.346 -1.4465  0.0347  1.4811
   38MPD2     C  579   2.403   0.911  12.216 -0.4171  0.1278 -0.4787
   38MPD2    C1  580   2.540   0.907  12.233  0.5205  0.3504 -1.1187
   38MPD2    C2  581   2.622   0.930  12.126 -0.6702 -0.7691  0.0528
   38MPD2    C3  582   2.582   0.952  11.995  0.3925  0.6176  0.4405
   38MPD2    C4  583   2.445   0.948  11.984  0.1998 -0.7082 -0.9157
   38MPD2    C5  584   2.364   0.939  12.089  0.2940  0.2439  0.7827
   38MPD2     H  585   2.725   0.933  12.159 -0.8429  0.1053  0.5136
   38MPD2    H1  586   2.404   0.946  11.883 -2.3911 -0.1082  0.1417
   38MPD2    H2  587   2.328   0.905  12.295  0.0545 -0.1009 -0.0465
   38MPD2    H3  588   2.258   0.950  12.065  0.5264  0.7637  0.0133
   38MPD2     N  589   2.672   0.975  11.899  0.7168 -0.1453 -0.2453
   38MPD2    H5  590   2.764   0.946  11.931  1.5917  0.6838 -2.0087
   38MPD2    N1  591   2.599   0.887  12.358 -0.2004  0.0363  0.0437
   38MPD2    H7  592   2.699   0.902  12.359 -0.2884  0.4619  3.2790
   39MPD2     C  593   1.389   2.183   1.400  0.4461  0.3048  0.6001
   39MPD2    C1  594   1.279   2.222   1.474 -0.0937  0.6453 -0.1865
   39MPD2    C2  595   1.166   2.265   1.406 -0.0524  0.4673 -0.0685
   39MPD2    C3  596   1.165   2.272   1.266  0.0723 -0.0807 -0.1075
   39MPD2    C4  597   1.280   2.244   1.199  0.3133  0.2803  0.0587
   39MPD2    C5  598   1.394   2.210   1.265 -0.0936  0.2906  0.1117
   39MPD2     H  599   1.077   2.295   1.461 -2.8725 -1.0927 -3.7283
   39MPD2    H1  600   1.298   2.270   1.095 -1.4199  1.0045 -0.0542
   39MPD2    H2  601   1.478   2.145   1.448  0.1788  0.9643  1.6033
   39MPD2    H3  602   1.491   2.203   1.216 -0.6148 -1.2035 -0.7137
   39MPD2     N  603   1.060   2.307   1.189  0.5043 -0.1752  0.2100
   39MPD2    H5  604   1.078   2.327   1.091 -0.9672  3.5408  0.6966
   39MPD2    N1  605   1.288   2.200   1.617 -0.8934 -0.0582 -0.0591
   39MPD2    H7  606   1.381   2.181   1.652 -0.6655 -0.3437 -0.8107
   40TCq2    C1  607   1.179   2.193   1.700 -0.3701  0.2102  0.1474
   40TCq2    O2  608   1.063   2.194   1.679  0.1788 -0.4374  0.1695
   40TCq2    C2  609   1.224   2.186   1.840 -0.5983  0.1033 -0.2491
   40TCq2    C3  610   1.128   2.222   1.933  0.3129  0.0306  0.0027
   40TCq2    C4  611   1.148   2.192   2.067  0.0420 -0.3633 -0.4657
   40TCq2    C5  612   1.257   2.120   2.100 -0.4491 -0.2433  0.0428
   40TCq2    C6  613   1.339   2.071   2.003  0.5494 -0.3648 -0.2546
   40TCq2    C7  614   1.331   2.100   1.869  0.2756 -0.2595 -0.2348
   40TCq2    C8  615   1.454   1.997   2.042 -0.7173 -0.0351  0.1535
   40TCq2    O4  616   1.439   1.955   2.154  0.3305  0.1780  0.2144
   40TCq2    C9  617   1.059   2.243   2.168 -0.4366 -0.2023  0.1040
   40TCq2    O5  618   0.962   2.317   2.129  0.0326 -0.5132 -0.4633
   40TCq2    O6  619   1.074   2.197   2.287  0.0775 -0.4031 -0.2203
   40TCq2    H2  620   1.044   2.284   1.904 -0.1639 -0.2666  0.7437
   40TCq2    H3  621   1.268   2.110   2.208  0.6170  1.0024  0.0560
   40TCq2    H4  622   1.377   2.043   1.789 -1.8590  0.0073 -1.6519
   41TMC2    C1  623   0.340   0.728  14.114 -0.0519 -0.0898  0.6810
   41TMC2    C2  624   0.410   0.843  14.121  0.3721  0.0293 -0.4958
   41TMC2    C3  625   0.418   0.918  14.005 -0.8996  0.3159 -0.3747
   41TMC2    C4  626   0.252   0.694  14.014  0.1994 -1.2901  0.2425
   41TMC2    C5  627   0.256   0.777  13.908  0.8340 -0.8940  0.1404
   41TMC2    C6  628   0.340   0.883  13.901 -0.5826 -0.4273 -0.0650
   41TMC2     C  629   0.309   0.664  14.241 -0.0764  0.0005  0.1176
   41TMC2     O  630   0.277   0.545  14.228 -0.6097 -0.2824  0.0654
   41TMC2     H  631   0.479   0.868  14.201  1.4761 -3.2345 -0.4414
   41TMC2    H1  632   0.183   0.610  14.020 -1.5115  0.1544  0.8066
   41TMC2    H2  633   0.340   0.950  13.815 -0.4028  0.0300  0.2911
   41TMC2    C7  634   0.131   0.793  13.835 -0.3495 -0.7898  0.3251
   41TMC2    C8  635   0.527   1.019  13.996 -0.4284  0.2784 -0.8836
   41TMC2    O1  636   0.029   0.754  13.888  0.4357 -0.6645  0.3271
   41TMC2    O2  637   0.621   1.017  14.078 -0.0883  0.1486 -0.0151
   41TMC2    O5  638   0.490   1.130  13.935  0.2103 -0.2534  0.6919
   41TMC2    H5  639   0.395   1.137  13.911  0.0084 -0.9954  1.2861
   42MPD2     C  640   0.347   0.555  14.510 -0.1827  0.3521  0.0386
   42MPD2    C1  641   0.337   0.692  14.485 -0.4169  0.1940 -0.4560
   42MPD2    C2  642   0.334   0.778  14.591 -0.0184  0.0298 -0.0023
   42MPD2    C3  643   0.314   0.737  14.720  0.4776 -0.4296 -0.0683
   42MPD2    C4  644   0.334   0.600  14.744  0.2241  0.3479  0.2895
   42MPD2    C5  645   0.344   0.509  14.639  0.6608 -0.6656  0.1711
   42MPD2     H  646   0.335   0.885  14.577  2.0477 -0.1607 -1.3003
   42MPD2    H1  647   0.315   0.562  14.843  1.1681  1.8743  1.0495
   42MPD2    H2  648   0.345   0.475  14.437  0.0001 -1.4933  2.0259
   42MPD2    H3  649   0.330   0.406  14.668  0.4785 -0.7812 -0.3217
   42MPD2     N  650   0.284   0.814  14.830  0.0899 -0.1292 -0.0501
   42MPD2    H5  651   0.297   0.782  14.925  0.2635 -0.6956 -0.2662
   42MPD2    N1  652   0.334   0.742  14.350 -0.1263  0.2070 -0.5593
   42MPD2    H7  653   0.353   0.841  14.346 -1.5977  0.4968 -0.2893
   43MPD2     C  654   1.217   3.522   0.725  0.4128  0.0225  0.0552
   43MPD2    C1  655   1.272   3.484   0.848  0.3590  0.7410  0.4172
   43MPD2    C2  656   1.206   3.538   0.964  0.2992  0.2092  0.5504
   43MPD2    C3  657   1.093   3.617   0.949  0.0511  0.0490 -0.0223
   43MPD2    C4  658   1.041   3.645   0.828 -0.9729 -0.2154  0.8205
   43MPD2    C5  659   1.104   3.599   0.720  0.6561 -0.3190  0.3420
   43MPD2     H  660   1.265   3.532   1.055 -0.5384  1.7834  1.1897
   43MPD2    H1  661   0.951   3.702   0.806 -3.1119 -3.8278  0.1672
   43MPD2    H2  662   1.244   3.479   0.629  0.9750 -2.1953  1.2087
   43MPD2    H3  663   1.061   3.611   0.622 -0.2060  3.7854  1.2024
   43MPD2     N  664   1.019   3.663   1.054  0.0214 -0.0055 -0.3445
   43MPD2    H5  665   0.937   3.718   1.031 -0.0168 -1.7699 -4.4800
   43MPD2    N1  666   1.394   3.411   0.863  0.0605 -0.0236  0.1394
   43MPD2    H7  667   1.434   3.412   0.956 -0.1906 -2.6765  0.2729
   44TCq2    C1  668   0.705   3.961   1.300  0.1942 -0.0839  0.0133
   44TCq2    O2  669   0.698   3.967   1.181 -0.4030 -0.1612 -0.0110
   44TCq2    C2  670   0.794   3.856   1.354  0.0515  0.3476  0.0226
   44TCq2    C3  671   0.750   3.773   1.454  0.4527 -0.2482  0.1889
   44TCq2    C4  672   0.813   3.656   1.472 -0.7081 -0.1131 -0.2419
   44TCq2    C5  673   0.886   3.603   1.377  0.5329  0.3125 -0.1587
   44TCq2    C6  674   0.931   3.685   1.276 -0.4057  0.3694 -0.4677
   44TCq2    C7  675   0.890   3.814   1.266 -0.0629  0.0726 -0.0136
   44TCq2    C8  676   1.035   3.630   1.190 -0.3408 -0.6478  0.2194
   44TCq2    O4  677   1.130   3.576   1.245  0.7101  0.0911 -0.6365
   44TCq2    C9  678   0.794   3.581   1.586 -0.8476  0.0883  0.7043
   44TCq2    O5  679   0.702   3.622   1.660 -0.0251  0.1823 -0.1156
   44TCq2    O6  680   0.865   3.482   1.614  0.6442  0.2150  0.2839
   44TCq2    H2  681   0.660   3.800   1.509  0.5069  2.7476 -1.1904
   44TCq2    H3  682   0.918   3.500   1.384 -0.7300 -0.1840 -1.7891
   44TCq2    H4  683   0.921   3.877   1.183  1.1628  0.1383  0.4857
   45TMC2    C1  684   2.283   0.570   9.797 -0.2979  0.0929  0.4714
   45TMC2    C2  685   2.376   0.499   9.853  0.2481  0.6930 -0.1298
   45TMC2    C3  686   2.463   0.559   9.938 -0.4188 -0.0282  0.1086
   45TMC2    C4  687   2.257   0.696   9.845 -0.1418 -0.0004  0.2595
   45TMC2    C5  688   2.348   0.757   9.929 -0.0427  0.1976 -0.4011
   45TMC2    C6  689   2.458   0.688   9.972  0.5316 -0.2805 -0.4378
   45TMC2     C  690   2.184   0.486   9.726  0.1224  0.1999  0.4895
   45TMC2     O  691   2.203   0.365   9.717  0.6861  0.2885  0.4813
   45TMC2     H  692   2.402   0.401   9.813 -0.0862  0.8471 -0.7239
   45TMC2    H1  693   2.163   0.744   9.819  0.7842  0.1746 -2.7308
   45TMC2    H2  694   2.539   0.739  10.024 -1.1223  1.1829  0.6804
   45TMC2    C7  695   2.357   0.895   9.889  0.6187 -0.2163  0.2960
   45TMC2    C8  696   2.549   0.475  10.019  0.6611 -0.7745  0.4181
   45TMC2    O1  697   2.313   0.929   9.780 -0.1123 -0.0246 -0.6074
   45TMC2    O2  698   2.536   0.357  10.028 -0.0346 -1.2234 -0.1183
   45TMC2    O5  699   2.659   0.540   9.990  0.2661 -0.6628 -0.3050
   45TMC2    H5  700   2.659   0.628   9.947 -1.6209 -0.4290  0.1848
   46MPD2     C  701   1.922   0.379   9.602 -0.8791  0.4317 -0.6565
   46MPD2    C1  702   1.978   0.504   9.575 -0.2006 -0.3353 -0.3751
   46MPD2    C2  703   1.928   0.586   9.478  0.4409  0.3559  0.1850
   46MPD2    C3  704   1.816   0.541   9.405  0.0387 -0.9144 -0.7905
   46MPD2    C4  705   1.752   0.429   9.442 -0.6372  0.2280 -0.2949
   46MPD2    C5  706   1.807   0.345   9.541 -0.0177 -0.2317 -0.4182
   46MPD2     H  707   1.967   0.684   9.452  2.9282 -0.9718 -1.1439
   46MPD2    H1  708   1.662   0.389   9.396 -0.3433  0.2680 -0.8988
   46MPD2    H2  709   1.971   0.317   9.676 -3.3122 -0.8516 -0.1465
   46MPD2    H3  710   1.763   0.248   9.563 -1.3963  0.9148  1.8853
   46MPD2     N  711   1.771   0.635   9.307 -0.3491 -0.3432 -0.4889
   46MPD2    H5  712   1.818   0.724   9.300  0.5109 -0.7418  0.2167
   46MPD2    N1  713   2.092   0.552   9.647  0.0650 -0.2672 -0.1873
   46MPD2    H7  714   2.110   0.651   9.634  2.3099 -0.6726 -0.0823
   47TMC2    C1  715   3.174   1.451   9.378 -0.4739  0.1622 -0.2047
   47TMC2    C2  716   3.216   1.326   9.345 -0.2855 -0.0165 -0.0815
   47TMC2    C3  717   3.118   1.229   9.334 -0.0839  0.1965  0.3757
   47TMC2    C4  718   3.041   1.487   9.402 -0.0668  0.5083 -0.0517
   47TMC2    C5  719   2.947   1.382   9.390 -0.0001 -0.4696 -0.5070
   47TMC2    C6  720   2.984   1.253   9.356  0.2336  0.0573 -0.6104
   47TMC2     C  721   3.273   1.560   9.387 -0.0870  0.0644 -0.4813
   47TMC2     O  722   3.238   1.672   9.416 -0.1522 -0.3828 -0.0059
   47TMC2     H  723   3.315   1.295   9.314 -0.7533 -2.9590  1.3712
   47TMC2    H1  724   3.014   1.587   9.433  1.0203  0.8753 -0.2873
   47TMC2    H2  725   2.918   1.167   9.347 -0.3990  0.4662  0.2155
   47TMC2    C7  726   2.807   1.386   9.433  0.1068 -0.5152  0.4903
   47TMC2    C8  727   3.162   1.103   9.289  0.5732  0.0913 -0.4678
   47TMC2    O1  728   2.756   1.279   9.461  0.2123  0.4683 -0.4580
   47TMC2    O2  729   3.280   1.072   9.276  0.2863 -0.6193 -0.7328
   47TMC2    O5  730   3.064   1.056   9.206 -0.4097 -0.9292  0.1805
   47TMC2    H5  731   2.977   1.102   9.202 -0.2157 -0.6002 -0.1451
   48MPD2     C  732   3.526   1.721   9.364  0.0596  0.0041 -0.1961
   48MPD2    C1  733   3.519   1.583   9.385 -0.0903  0.3504 -0.5453
   48MPD2    C2  734   3.635   1.506   9.419  0.4275  0.0437 -0.4253
   48MPD2    C3  735   3.752   1.570   9.445  0.2618 -0.6093  0.3619
   48MPD2    C4  736   3.763   1.711   9.425 -0.7682  0.2504 -0.0228
   48MPD2    C5  737   3.650   1.777   9.385  0.6048  0.0471  0.2844
   48MPD2     H  738   3.627   1.399   9.410 -1.0486  0.0367  1.0167
   48MPD2    H1  739   3.856   1.765   9.439  0.2633 -1.6418  0.4058
   48MPD2    H2  740   3.439   1.784   9.351 -0.7746 -1.1102 -0.0239
   48MPD2    H3  741   3.658   1.883   9.367 -1.3023 -0.1165 -1.4911
   48MPD2     N  742   3.865   1.492   9.466  0.4722  0.3967 -0.5312
   48MPD2    H5  743   3.858   1.392   9.452  1.0482  0.4156 -0.9740
   48MPD2    N1  744   3.397   1.511   9.382 -0.5220  0.0844  0.0103
   48MPD2    H7  745   3.402   1.410   9.389 -3.8306 -0.0267  0.9555
   49MPD2     C  746   2.489   2.960   9.838 -0.3284 -0.7555  0.2295
   49MPD2    C1  747   2.500   2.897   9.961 -0.3653  0.2769 -0.0588
   49MPD2    C2  748   2.560   2.964  10.069 -0.8613  0.8459 -0.2071
   49MPD2    C3  749   2.614   3.090  10.056  0.0295 -0.4230 -0.5889
   49MPD2    C4  750   2.597   3.153   9.937 -0.0835  0.6923 -0.0803
   49MPD2    C5  751   2.536   3.088   9.834 -0.4942 -0.9251  0.0866
   49MPD2     H  752   2.573   2.912  10.163  0.8641  0.7708 -0.4898
   49MPD2    H1  753   2.631   3.255   9.927 -1.9303  1.2406 -0.7863
   49MPD2    H2  754   2.433   2.930   9.750  0.5952  0.1701 -0.6653
   49MPD2    H3  755   2.520   3.146   9.744 -0.8229  0.9496  1.3596
   49MPD2     N  756   2.666   3.162  10.159  0.3171 -0.0715  0.1161
   49MPD2    H5  757   2.699   3.257  10.142  2.9365 -0.7078  1.5498
   49MPD2    N1  758   2.457   2.762   9.979  0.5411  0.6757  0.8755
   49MPD2    H7  759   2.485   2.712  10.063 -2.9058 -2.5878  0.0758
   50TCq2    C1  760   2.390   2.685   9.885  0.0739  0.2251  0.4640
   50TCq2    O2  761   2.367   2.711   9.766 -0.7210 -0.7529 -0.3732
   50TCq2    C2  762   2.373   2.545   9.933 -0.3664 -0.5098 -0.0709
   50TCq2    C3  763   2.377   2.452   9.823 -1.3355  0.3351  0.1751
   50TCq2    C4  764   2.358   2.317   9.854 -0.3364  0.5559 -0.5839
   50TCq2    C5  765   2.335   2.284   9.984 -0.1004 -0.2815 -0.6175
   50TCq2    C6  766   2.339   2.375  10.084  0.3921 -0.3203  0.0597
   50TCq2    C7  767   2.355   2.506  10.059 -1.3137  0.0813 -0.0276
   50TCq2    C8  768   2.326   2.328  10.217 -0.2995  0.1840 -1.0822
   50TCq2    O4  769   2.361   2.211  10.235  0.5853 -0.2570  0.8450
   50TCq2    C9  770   2.357   2.222   9.746  0.3526 -0.7350  0.1511
   50TCq2    O5  771   2.380   2.102   9.768  0.4095 -0.5870 -0.2084
   50TCq2    O6  772   2.331   2.275   9.638  0.0444 -0.4301 -0.2486
   50TCq2    H2  773   2.398   2.478   9.720 -1.1749 -2.8229 -0.5799
   50TCq2    H3  774   2.315   2.179  10.004  0.5359 -0.5696 -1.5253
   50TCq2    H4  775   2.368   2.575  10.142 -1.2067 -2.2287  1.8951
   51MPD2     C  776   3.416   1.890   0.954  0.3062 -0.4763  0.6631
   51MPD2    C1  777   3.329   1.887   0.849 -0.7614  0.1832 -0.3316
   51MPD2    C2  778   3.370   1.862   0.720  0.4467 -0.4843 -0.9077
   51MPD2    C3  779   3.506   1.847   0.693 -0.6350 -0.1691  0.1071
   51MPD2    C4  780   3.594   1.846   0.799  0.1378 -0.7011 -0.2461
   51MPD2    C5  781   3.546   1.863   0.923 -0.2968  0.4309 -0.0729
   51MPD2     H  782   3.300   1.863   0.637 -0.6297  1.1938  0.0319
   51MPD2    H1  783   3.701   1.834   0.783 -0.1222  0.1433 -2.5583
   51MPD2    H2  784   3.384   1.891   1.058 -3.4095 -0.8472 -0.4950
   51MPD2    H3  785   3.619   1.867   1.003  0.4159 -2.0683 -0.5834
   51MPD2     N  786   3.564   1.849   0.562  0.5767 -0.0291 -0.3001
   51MPD2    H5  787   3.664   1.834   0.550  0.6807 -1.0267  1.7811
   51MPD2    N1  788   3.186   1.903   0.856 -0.3867 -0.0412  0.1370
   51MPD2    H7  789   3.127   1.900   0.773 -0.8163 -3.5633  0.5893
   52TCq2    C1  790   3.487   1.853   0.449 -0.0081 -0.0986 -0.2579
   52TCq2    O2  791   3.370   1.825   0.437  0.0644 -0.5679 -0.5107
   52TCq2    C2  792   3.572   1.832   0.328  0.7466  0.0076  0.2989
   52TCq2    C3  793   3.544   1.723   0.243  0.1349 -0.3610 -0.3037
   52TCq2    C4  794   3.650   1.633   0.223 -0.4913  0.1896  0.1912
   52TCq2    C5  795   3.781   1.651   0.269  0.2108 -0.8328 -0.4596
   52TCq2    C6  796   3.807   1.771   0.322 -0.0013  0.4067 -0.2894
   52TCq2    C7  797   3.704   1.859   0.353 -0.0797 -0.2575  0.0727
   52TCq2    C8  798   3.913   1.784   0.425  1.0082  0.5172 -0.5972
   52TCq2    O4  799   3.902   1.867   0.512 -0.4891 -0.4576 -0.3518
   52TCq2    C9  800   3.618   1.501   0.151  0.8226  0.2915 -0.2282
   52TCq2    O5  801   3.707   1.415   0.128 -0.2203 -0.7612 -0.2824
   52TCq2    O6  802   3.504   1.465   0.167  0.4322  0.5642 -0.4703
   52TCq2    H2  803   3.442   1.712   0.209 -0.1440  0.9889  0.0815
   52TCq2    H3  804   3.856   1.576   0.246 -1.8967 -2.7352 -1.0799
   52TCq2    H4  805   3.733   1.954   0.397 -1.3169  0.7340 -1.2694
   53TMC2    C1  806   3.637   0.986  12.276  0.3541 -0.1744 -0.0546
   53TMC2    C2  807   3.749   0.970  12.361 -0.3847  0.0097  0.1095
   53TMC2    C3  808   3.727   0.984  12.496 -0.7710 -0.0698 -0.6767
   53TMC2    C4  809   3.512   0.980  12.327  0.4063 -0.1409 -0.1951
   53TMC2    C5  810   3.491   0.987  12.462 -0.3385 -0.6274  0.3596
   53TMC2    C6  811   3.605   1.000  12.550  0.1889 -1.0344 -0.1094
   53TMC2     C  812   3.652   0.973  12.129  0.3059  0.1604  0.0067
   53TMC2     O  813   3.762   0.926  12.101 -0.4843  0.1551 -0.1284
   53TMC2     H  814   3.848   0.966  12.318 -0.2539  3.0050  0.1362
   53TMC2    H1  815   3.428   0.962  12.260  0.2433 -2.2236  0.5695
   53TMC2    H2  816   3.591   1.000  12.657 -3.1139  0.5555 -0.5679
   53TMC2    C7  817   3.357   1.012  12.504  1.4517  0.2411 -0.1780
   53TMC2    C8  818   3.829   1.014  12.586 -0.5338 -0.0984 -0.1643
   53TMC2    O1  819   3.280   1.032  12.414 -0.2684 -0.8288  0.2716
   53TMC2    O2  820   3.815   1.102  12.675 -0.1070  0.3479 -0.1513
   53TMC2    O5  821   3.897   0.898  12.597 -0.4589 -0.0092 -0.1534
   53TMC2    H5  822   3.890   0.841  12.518 -0.2056 -1.7591  1.0887
   54MPD2     C  823   3.649   0.973  11.830 -0.0360 -0.0420 -0.1548
   54MPD2    C1  824   3.537   0.982  11.910  0.5291  0.4787 -0.4309
   54MPD2    C2  825   3.407   0.986  11.860 -0.0599 -0.5977 -0.3090
   54MPD2    C3  826   3.379   0.968  11.725 -0.0960  0.1742 -0.3037
   54MPD2    C4  827   3.488   0.952  11.642  0.9218 -0.1837  0.0253
   54MPD2    C5  828   3.617   0.968  11.692 -0.0782  0.2119  0.2391
   54MPD2     H  829   3.332   0.992  11.939  0.4149  3.0291 -0.1759
   54MPD2    H1  830   3.474   0.933  11.536 -0.2728  1.5915 -0.1439
   54MPD2    H2  831   3.751   0.958  11.863  0.5722  1.8822 -1.1959
   54MPD2    H3  832   3.697   0.937  11.626  0.8144  1.4862  0.7470
   54MPD2     N  833   3.249   0.971  11.677  0.1870 -0.3540 -0.6404
   54MPD2    H5  834   3.238   0.973  11.576 -1.6303  0.8398 -0.4245
   54MPD2    N1  835   3.539   0.993  12.054 -0.2555 -0.2783 -0.1677
   54MPD2    H7  836   3.457   1.032  12.099 -0.2714 -0.6951  0.1657
   55MPD2     C  837   4.453   3.515  16.985 -0.5305  0.2228  0.3363
   55MPD2    C1  838   4.389   3.403  17.037 -0.2005 -0.0270 -0.3844
   55MPD2    C2  839   4.282   3.415  17.124 -0.1055  0.2981  0.7519
   55MPD2    C3  840   4.234   3.544  17.161 -0.6728  0.3799  0.5089
   55MPD2    C4  841   4.304   3.653  17.118  0.3685  1.1541  0.5543
   55MPD2    C5  842   4.414   3.641  17.035  0.2682 -0.3087 -0.0056
   55MPD2     H  843   4.248   3.326  17.176 -0.7361  1.1835  1.8564
   55MPD2    H1  844   4.271   3.751  17.150 -3.0101 -0.2205  1.2992
   55MPD2    H2  845   4.529   3.507  16.908 -0.4514 -1.2977  0.5845
   55MPD2    H3  846   4.467   3.728  16.997 -1.0766  1.1389  1.4294
   55MPD2     N  847   4.138   3.564  17.259 -0.1216 -0.0000  0.5318
   55MPD2    H5  848   4.128   3.657  17.300  1.7649  0.3579  0.1666
   55MPD2    N1  849   4.451   3.283  16.993  0.1761 -0.2495 -0.1224
   55MPD2    H7  850   4.537   3.297  16.942  0.7593  0.2246  0.9754
   56TCq2    C1  851   4.422   3.150  17.030  0.3231 -0.0917  0.0900
   56TCq2    O2  852   4.331   3.117  17.111 -0.2975 -0.5003 -0.4444
   56TCq2    C2  853   4.520   3.051  16.985  0.1710  0.6505 -0.3553
   56TCq2    C3  854   4.590   3.078  16.874  0.3236  0.1563  0.1557
   56TCq2    C4  855   4.695   2.991  16.849  0.2058  0.0714 -0.3324
   56TCq2    C5  856   0.004   2.880  16.928  0.5911  0.8629  0.1407
   56TCq2    C6  857   4.653   2.862  17.040 -0.0047  0.7199  0.0446
   56TCq2    C7  858   4.545   2.945  17.068 -0.0017 -0.1418  0.5106
   56TCq2    C8  859   4.697   2.773  17.148 -0.3793  0.2204  0.7964
   56TCq2    O4  860   0.067   2.697  17.124  0.2471 -0.9776 -0.6885
   56TCq2    C9  861   0.054   3.022  16.738  0.6516 -0.4816 -0.4012
   56TCq2    O5  862   0.109   2.930  16.679 -0.6484 -0.2800  0.2064
   56TCq2    O6  863   0.054   3.147  16.710  0.1248 -0.7417 -0.1235
   56TCq2    H2  864   4.571   3.168  16.816  0.9302 -0.6849 -1.3509
   56TCq2    H3  865   0.088   2.815  16.909 -0.2911  0.2643 -1.7429
   56TCq2    H4  866   4.485   2.933  17.157 -0.5176 -0.9335  0.0516
   57TMC2    C1  867   3.432   4.588  13.539  0.1850  0.7335 -0.5400
   57TMC2    C2  868   3.473   4.699  13.604  1.1193  0.7182 -0.7910
   57TMC2    C3  869   3.590   0.030  13.566  0.1331 -0.2194 -0.8902
   57TMC2    C4  870   3.514   4.535  13.443  0.1484 -0.4568 -0.2136
   57TMC2    C5  871   3.631   4.589  13.403  0.1216  0.1636  0.3587
   57TMC2    C6  872   3.667   4.710  13.458 -0.3645 -0.4820 -0.0044
   57TMC2     C  873   3.290   4.593  13.518 -0.1961  0.2047 -0.2914
   57TMC2     O  874   3.227   4.689  13.552 -0.2025  0.1802 -0.0909
   57TMC2     H  875   3.406   0.022  13.675  0.7169 -2.8208  1.1696
   57TMC2    H1  876   3.479   4.441  13.402  0.4581 -0.3287 -0.7675
   57TMC2    H2  877   3.760   0.038  13.438 -0.0856 -0.7075  0.6914
   57TMC2    C7  878   3.677   4.561  13.267 -0.1380  0.1274  0.0481
   57TMC2    C8  879   3.650   0.127  13.649 -0.2650  1.5034 -0.1083
   57TMC2    O1  880   3.706   4.662  13.202  0.0433  0.4735  0.5408
   57TMC2    O2  881   3.584   0.207  13.713 -0.2646  0.1155 -0.2041
   57TMC2    O5  882   3.779   0.096  13.668 -0.3789  0.4812 -0.0931
   57TMC2    H5  883   3.798   0.013  13.620 -1.9209 -0.6502  1.2265
   58MPD2     C  884   2.871   4.402  13.281  0.7112 -0.8625 -0.1278
   58MPD2    C1  885   2.905   4.529  13.325  0.3168  0.6538 -0.3151
   58MPD2    C2  886   3.025   4.550  13.376 -0.3212 -0.1307  0.5629
   58MPD2    C3  887   3.116   4.447  13.397 -0.8628  0.4476  0.2158
   58MPD2    C4  888   3.084   4.320  13.354  0.5669 -0.0898  0.4446
   58MPD2    C5  889   2.957   4.294  13.306 -0.4555 -0.8614  0.1820
   58MPD2     H  890   3.050   4.654  13.394 -2.0820  0.3239  0.3124
   58MPD2    H1  891   3.151   4.235  13.360  1.1179  0.2724 -0.6949
   58MPD2    H2  892   2.781   4.384  13.223 -0.3720  0.6412  1.0840
   58MPD2    H3  893   2.929   4.207  13.248  1.9673 -1.7174  0.2710
   58MPD2     N  894   3.246   4.474  13.455 -0.5653 -0.2214 -0.4066
   58MPD2    H5  895   3.316   4.401  13.465 -0.5157  0.0268  1.0140
   58MPD2    N1  896   2.824   4.644  13.297 -0.1844 -0.3254 -0.2270
   58MPD2    H7  897   2.867   0.008  13.324 -1.8749  0.4380 -0.0449
   59MPD2     C  898   0.691   4.639  13.238  0.1685 -0.3553 -0.1093
   59MPD2    C1  899   0.805   4.594  13.183  0.4380 -0.2214  1.0823
   59MPD2    C2  900   0.928   4.619  13.242 -0.5408 -0.2538  0.1633
   59MPD2    C3  901   0.936   4.687  13.366  0.2832  0.4037 -0.2228
   59MPD2    C4  902   0.819   0.014  13.416 -0.2468  0.1345  0.3919
   59MPD2    C5  903   0.696   4.715  13.353 -0.1757  0.3316 -0.0599
   59MPD2     H  904   1.018   4.581  13.196 -0.0841 -1.6670  2.2154
   59MPD2    H1  905   0.821   0.064  13.512  0.3187  2.0564 -0.6352
   59MPD2    H2  906   0.597   4.629  13.185 -1.0305 -0.2979  2.0398
   59MPD2    H3  907   0.610   0.046  13.390 -0.0636 -0.7721  1.8451
   59MPD2     N  908   1.060   4.709  13.427  0.2088 -1.0055 -0.0152
   59MPD2    H5  909   1.081   0.039  13.511  1.5612  0.5942 -1.3723
   59MPD2    N1  910   0.781   4.515  13.070  0.3048 -0.8083  0.4303
   59MPD2    H7  911   0.687   4.500  13.037 -0.5729  1.8991  1.6942
   60TCq2    C1  912   0.880   4.483  12.979 -0.4204 -0.2089  0.3626
   60TCq2    O2  913   1.000   4.508  12.988 -0.5061 -0.0968 -0.6502
   60TCq2    C2  914   0.826   4.417  12.860 -0.1655  0.2142  0.5262
   60TCq2    C3  915   0.698   4.366  12.860 -0.2795  0.5483  0.3622
   60TCq2    C4  916   0.641   4.334  12.742 -0.5151 -0.2509 -0.6701
   60TCq2    C5  917   0.711   4.354  12.623 -0.0923  0.6788 -0.0433
   60TCq2    C6  918   0.834   4.408  12.625 -0.3430  0.5913  0.8202
   60TCq2    C7  919   0.887   4.453  12.742  0.5275 -0.4044  0.0783
   60TCq2    C8  920   0.885   4.450  12.497 -0.0589  0.5475  0.1082
   60TCq2    O4  921   0.858   4.374  12.404  0.2942  0.0380 -0.6125
   60TCq2    C9  922   0.514   4.271  12.735  0.8393 -0.8945 -0.1635
   60TCq2    O5  923   0.441   4.290  12.837  0.0442 -0.0758  0.4067
   60TCq2    O6  924   0.489   4.209  12.630 -0.6015  0.0295 -0.5822
   60TCq2    H2  925   0.657   4.327  12.952 -0.4194  1.6946  0.7789
   60TCq2    H3  926   0.666   4.342  12.525 -0.1238  0.7831 -0.0418
   60TCq2    H4  927   0.978   4.512  12.737  0.5743 -0.6051 -1.5053
   61MPD2     C  928   0.611   1.240  14.324 -0.0745  0.3183  0.2323
   61MPD2    C1  929   0.572   1.261  14.452  0.3693 -0.5307 -0.4542
   61MPD2    C2  930   0.519   1.385  14.475 -0.4705  0.1305  0.9548
   61MPD2    C3  931   0.517   1.485  14.383  0.1884  0.1168  0.4731
   61MPD2    C4  932   0.568   1.455  14.260  0.0585 -0.3780  0.4774
   61MPD2    C5  933   0.611   1.333  14.227  0.0700  0.0603  0.3880
   61MPD2     H  934   0.471   1.414  14.568 -2.1860  0.9525 -0.1907
   61MPD2    H1  935   0.569   1.529  14.180 -0.5820 -1.4956 -0.5655
   61MPD2    H2  936   0.655   1.145  14.294  0.3563 -0.2737  2.7015
   61MPD2    H3  937   0.649   1.312  14.127  0.5971 -0.2492  0.6544
   61MPD2     N  938   0.467   1.616  14.413 -0.8348  0.0294 -0.0010
   61MPD2    H5  939   0.414   1.615  14.499 -1.0231 -2.2047 -0.1275
   61MPD2    N1  940   0.571   1.175  14.563  0.3387 -0.4362  0.7360
   61MPD2    H7  941   0.555   1.211  14.656 -2.4280 -1.8344  0.8199
   62TCq2    C1  942   0.624   1.046  14.564  0.1569 -0.1751  0.1410
   62TCq2    O2  943   0.674   0.981  14.472  0.4321 -0.4588  0.1245
   62TCq2    C2  944   0.633   0.988  14.701 -0.0621  0.4420  0.6661
   62TCq2    C3  945   0.740   0.915  14.729  0.0953  0.0615 -0.1962
   62TCq2    C4  946   0.768   0.891  14.867  0.1778  0.4229  0.3029
   62TCq2    C5  947   0.686   0.939  14.968  0.0977  0.2298 -0.9593
   62TCq2    C6  948   0.576   1.006  14.931  0.4170  0.4453 -0.1668
   62TCq2    C7  949   0.553   1.041  14.799 -0.0289  0.1219  0.1101
   62TCq2    C8  950   0.513   1.106  15.017 -0.4171 -0.2868  0.1312
   62TCq2    O4  951   0.464   1.205  14.957 -0.7632 -0.3456  0.2535
   62TCq2    C9  952   0.887   0.812  14.898 -0.2441 -0.2777  0.0799
   62TCq2    O5  953   0.897   0.771  15.013  0.2660 -0.3049 -0.4322
   62TCq2    O6  954   0.932   0.740  14.803  0.6335  0.3410 -0.0096
   62TCq2    H2  955   0.813   0.880  14.657 -0.2910 -1.3195  0.0701
   62TCq2    H3  956   0.705   0.908  15.070 -0.4287 -0.9936 -1.2338
   62TCq2    H4  957   0.458   1.083  14.766 -0.2219  0.9313  1.7247
   63TMC2    C1  958   0.450   1.092  11.000 -0.1491  0.2283 -0.1664
   63TMC2    C2  959   0.559   1.162  11.039 -0.8048  0.5561 -0.0910
   63TMC2    C3  960   0.597   1.262  10.953 -0.1125  0.6654 -0.1219
   63TMC2    C4  961   0.377   1.129  10.892 -0.0461  0.0457 -0.6282
   63TMC2    C5  962   0.432   1.219  10.805  0.5667 -0.0037 -0.5140
   63TMC2    C6  963   0.547   1.282  10.829  0.1077 -0.2021 -0.4023
   63TMC2     C  964   0.394   0.998  11.093 -0.1761 -0.4947 -0.4687
   63TMC2     O  965   0.427   1.003  11.211 -0.3653  0.5966  0.3050
   63TMC2     H  966   0.620   1.128  11.122  0.2415  0.6095 -0.8378
   63TMC2    H1  967   0.273   1.099  10.884  0.6720 -1.8851 -2.7166
   63TMC2    H2  968   0.597   1.354  10.766 -0.5839  0.8702  0.2823
   63TMC2    C7  969   0.355   1.248  10.682 -0.4803 -0.9378  0.0304
   63TMC2    C8  970   0.709   1.348  10.991  0.1206 -0.3448  0.2869
   63TMC2    O1  971   0.262   1.177  10.664  0.3689 -0.0994  0.2961
   63TMC2    O2  972   0.702   1.467  10.980  0.1486 -0.2495  0.1200
   63TMC2    O5  973   0.775   1.274  11.080 -1.1564  0.3071  0.2440
   63TMC2    H5  974   0.775   1.180  11.053 -1.3832 -0.1365  1.8207
   64MPD2     C  975   0.050   0.625  11.160  0.2884  0.7039  0.3526
   64MPD2    C1  976   0.067   0.643  11.026 -0.1077 -0.0143  0.0031
   64MPD2    C2  977   0.157   0.741  10.997 -0.4950  0.1197 -0.5851
   64MPD2    C3  978   0.226   0.819  11.082  0.4855  0.3813  0.6291
   64MPD2    C4  979   0.206   0.797  11.216 -0.1776 -0.0964  0.5893
   64MPD2    C5  980   0.127   0.690  11.251 -0.4196 -0.6981  0.2302
   64MPD2     H  981   0.181   0.763  10.894 -1.7475 -0.6355 -1.0448
   64MPD2    H1  982   0.270   0.856  11.280  0.4178  0.7123 -0.7472
   64MPD2    H2  983   4.710   0.544  11.194  0.4053 -0.0154 -1.1561
   64MPD2    H3  984   0.120   0.662  11.356  1.8961 -0.0838  0.5573
   64MPD2     N  985   0.305   0.918  11.032 -0.4420  0.9910 -0.6317
   64MPD2    H5  986   0.333   0.901  10.936 -0.6912 -2.8671 -0.0522
   64MPD2    N1  987   0.007   0.573  10.918 -0.1594  0.1734 -0.4716
   64MPD2    H7  988   0.041   0.586  10.824  0.3294  1.7298 -0.0919
   65MPD2     C  989   1.105   0.779  15.480 -0.3095  1.0831  0.6860
   65MPD2    C1  990   1.081   0.765  15.348  0.1466  0.0284  1.5431
   65MPD2    C2  991   1.107   0.640  15.286  0.6503  0.9139  0.5000
   65MPD2    C3  992   1.130   0.528  15.367  0.4126 -0.1368 -0.2044
   65MPD2    C4  993   1.131   0.544  15.503 -0.6969  0.8113  0.3888
   65MPD2    C5  994   1.135   0.671  15.550 -0.3255 -0.4224 -0.4858
   65MPD2     H  995   1.100   0.644  15.178 -0.0138 -0.9320  0.4809
   65MPD2    H1  996   1.144   0.457  15.567  2.0333  1.1121  0.2526
   65MPD2    H2  997   1.110   0.873  15.534  0.5162  0.1982  2.1762
   65MPD2    H3  998   1.149   0.685  15.657  1.2138 -0.9599 -0.6217
   65MPD2     N  999   1.131   0.400  15.304  0.3714  0.3600  0.3467
   65MPD2    H5 1000   1.145   0.325  15.371 -1.7707 -0.3445  0.0252
   65MPD2    N1 1001   1.023   0.870  15.269 -0.2741  0.3368  0.6543
   65MPD2    H7 1002   0.995   0.847  15.174 -0.4514 -1.9441  1.2615
   66TCq2    C1 1003   0.965   0.985  15.320 -0.3413 -0.7959  0.3104
   66TCq2    O2 1004   0.946   1.020  15.436 -0.6298  0.0211 -0.3721
   66TCq2    C2 1005   0.923   1.090  15.224  0.3181  0.9329 -0.0492
   66TCq2    C3 1006   0.968   1.093  15.095 -0.1441  0.2264  0.1002
   66TCq2    C4 1007   0.932   1.207  15.022  0.1392 -0.2097  0.4316
   66TCq2    C5 1008   0.854   1.300  15.075  0.7404  0.5735  0.2325
   66TCq2    C6 1009   0.809   1.286  15.205 -0.1211 -0.4294  0.5270
   66TCq2    C7 1010   0.839   1.181  15.280  0.4110  0.7284 -0.3928
   66TCq2    C8 1011   0.713   1.394  15.248 -0.7427  0.0936 -0.0264
   66TCq2    O4 1012   0.661   1.460  15.163  0.0611 -0.1181 -0.2682
   66TCq2    C9 1013   0.967   1.217  14.882  0.7936  0.6891 -0.2490
   66TCq2    O5 1014   0.885   1.279  14.806  0.2958 -0.1760  0.1595
   66TCq2    O6 1015   1.065   1.147  14.849  0.3737 -0.3210  0.1668
   66TCq2    H2 1016   1.030   1.015  15.052  1.1942  1.2360  0.1913
   66TCq2    H3 1017   0.834   1.384  15.009 -1.2272  0.5176  0.7431
   66TCq2    H4 1018   0.797   1.177  15.380 -0.3975 -0.9764 -0.8022
   67MPD2     C 1019   1.211   4.618  14.179  0.0889  0.4432  0.1563
   67MPD2    C1 1020   1.120   4.695  14.244  0.5843 -0.3062  0.5781
   67MPD2    C2 1021   0.990   4.702  14.190  0.4271  0.0832  0.1579
   67MPD2    C3 1022   0.960   4.632  14.070 -0.3731 -0.1334  0.1507
   67MPD2    C4 1023   1.059   4.567  13.997  0.7369 -0.5459  0.2036
   67MPD2    C5 1024   1.187   4.567  14.052  0.4747  0.4516  0.3345
   67MPD2     H 1025   0.910   0.032  14.240 -0.0592 -1.3114  0.8876
   67MPD2    H1 1026   1.039   4.517  13.903 -2.3468  0.7499  0.1754
   67MPD2    H2 1027   1.313   4.620  14.217  0.8614  3.1847 -2.0680
   67MPD2    H3 1028   1.267   4.524  13.993  0.5972 -0.6719  1.3225
   67MPD2     N 1029   0.829   4.651  14.023  0.0188 -0.0017  0.2119
   67MPD2    H5 1030   0.759   4.683  14.090  0.3549  0.2679  0.4365
   67MPD2    N1 1031   1.146   0.041  14.367 -0.8234 -0.1172 -0.1259
   67MPD2    H7 1032   1.076   0.107  14.398 -0.4554 -0.3103  1.1210
   68TCq2    C1 1033   1.268   0.044  14.436 -0.6093 -0.6915 -0.4483
   68TCq2    O2 1034   1.374   4.712  14.423 -1.2028 -0.2961  1.2994
   68TCq2    C2 1035   1.262   0.155  14.529 -0.4960  0.4645  0.1230
   68TCq2    C3 1036   1.146   0.229  14.564  0.2813  0.1655  0.4313
   68TCq2    C4 1037   1.162   0.330  14.653 -0.0372  0.0625 -0.1269
   68TCq2    C5 1038   1.276   0.370  14.710  0.3915 -0.2052 -0.1054
   68TCq2    C6 1039   1.389   0.299  14.674 -0.7639 -0.0581 -0.6398
   68TCq2    C7 1040   1.380   0.204  14.580 -0.6189  1.0240 -0.0359
   68TCq2    C8 1041   1.516   0.363  14.688  0.1218 -0.2503 -0.0848
   68TCq2    O4 1042   1.599   0.361  14.598 -0.2539  0.2006 -1.0934
   68TCq2    C9 1043   1.057   0.433  14.666  0.0061  0.1928  0.0418
   68TCq2    O5 1044   0.975   0.454  14.573 -0.5659  0.2915 -0.2117
   68TCq2    O6 1045   1.069   0.510  14.766  0.4839  0.0575 -0.6277
   68TCq2    H2 1046   1.045   0.217  14.526  1.2354 -0.5480 -1.8406
   68TCq2    H3 1047   1.283   0.459  14.772  0.6607  0.5509 -1.2313
   68TCq2    H4 1048   1.475   0.157  14.559 -0.3704  0.8315  1.5356
   69TMC2    C1 1049   2.739   1.697  12.240  0.7404 -0.2605 -0.6605
   69TMC2    C2 1050   2.691   1.743  12.120  0.0650 -0.0400  1.7356
   69TMC2    C3 1051   2.776   1.722  12.015 -0.5644  0.2667  0.3881
   69TMC2    C4 1052   2.864   1.650  12.263  0.0414 -0.2379 -0.1121
   69TMC2    C5 1053   2.946   1.631  12.157 -0.2067  0.2780 -0.4898
   69TMC2    C6 1054   2.902   1.666  12.031  0.1126  0.0978 -0.7631
   69TMC2     C 1055   2.651   1.671  12.357  0.4349 -0.1899  0.1740
   69TMC2     O 1056   2.705   1.688  12.464 -0.2311  0.0039 -0.0882
   69TMC2     H 1057   2.591   1.785  12.118  1.2121  2.7264  2.0133
   69TMC2    H1 1058   2.905   1.656  12.363 -0.7499  0.1110  0.1924
   69TMC2    H2 1059   2.967   1.654  11.945  0.9376 -1.1599  0.0434
   69TMC2    C7 1060   3.064   1.554  12.171  0.6568 -0.1981 -0.3684
   69TMC2    C8 1061   2.715   1.727  11.888  0.2785 -0.6485  0.5968
   69TMC2    O1 1062   3.124   1.533  12.069  0.1814  0.1500 -0.5867
   69TMC2    O2 1063   2.595   1.702  11.866 -0.1321 -0.2800 -0.2356
   69TMC2    O5 1064   2.813   1.736  11.793  0.4221 -0.6181  0.2471
   69TMC2    H5 1065   2.893   1.773  11.836 -0.0590  0.6801  0.0243
   70MPD2     C 1066   2.297   1.562  12.391  0.0633  0.1487  0.2829
   70MPD2    C1 1067   2.431   1.575  12.424 -0.0072 -0.2025 -0.1500
   70MPD2    C2 1068   2.466   1.536  12.553  0.3568 -0.9413 -0.2573
   70MPD2    C3 1069   2.372   1.480  12.630  0.1705 -0.6968 -0.8383
   70MPD2    C4 1070   2.240   1.472  12.598  0.7385 -0.3459  0.0349
   70MPD2    C5 1071   2.195   1.509  12.471  0.2116 -0.4566  0.2086
   70MPD2     H 1072   2.570   1.539  12.582  0.1516  0.2391  0.3721
   70MPD2    H1 1073   2.173   1.425  12.669  1.8732 -0.2928  1.1264
   70MPD2    H2 1074   2.261   1.584  12.291 -1.3377  0.4140  0.8564
   70MPD2    H3 1075   2.096   1.498  12.430 -0.3999  2.3222  0.9346
   70MPD2     N 1076   2.407   1.428  12.761  0.0068  0.4444 -0.2946
   70MPD2    H5 1077   2.343   1.369  12.813  2.1155  0.4678  2.3178
   70MPD2    N1 1078   2.526   1.627  12.327 -0.1440 -0.7534  0.1770
   70MPD2    H7 1079   2.491   1.620  12.231  0.3658 -2.3438  0.1032
   71TMC2    C1 1080   1.170   1.793   1.444  0.1260  0.1882 -0.4495
   71TMC2    C2 1081   1.269   1.759   1.532 -0.0279  0.3983  0.6346
   71TMC2    C3 1082   1.226   1.706   1.652  0.9425  0.0609  0.3548
   71TMC2    C4 1083   1.039   1.760   1.466  0.3703 -0.0366 -0.5474
   71TMC2    C5 1084   1.007   1.685   1.580 -0.0821  0.4627  0.4637
   71TMC2    C6 1085   1.098   1.653   1.670  0.5892 -0.0942  0.3770
   71TMC2     C 1086   1.192   1.856   1.315  0.4296 -0.1182 -0.1981
   71TMC2     O 1087   1.095   1.863   1.245 -0.2833 -0.0639  0.3463
   71TMC2     H 1088   1.370   1.797   1.519  0.1957 -0.7208 -0.9325
   71TMC2    H1 1089   0.961   1.784   1.394  0.2415  0.0010 -0.3930
   71TMC2    H2 1090   1.059   1.599   1.756  2.0363 -0.2560  0.9395
   71TMC2    C7 1091   0.872   1.658   1.614 -0.3157 -0.3633  0.3802
   71TMC2    C8 1092   1.323   1.687   1.758  0.1854 -0.2589 -0.5790
   71TMC2    O1 1093   0.839   1.632   1.729  0.5419  0.2154 -0.5029
   71TMC2    O2 1094   1.439   1.651   1.745 -0.0884  0.3184 -0.2763
   71TMC2    O5 1095   1.272   1.757   1.857 -0.1797  0.3905  0.1383
   71TMC2    H5 1096   1.181   1.794   1.848 -0.1910 -0.1251 -1.8512
   72MPD2     C 1097   1.505   1.935   0.923 -0.1514 -0.2760 -0.3916
   72MPD2    C1 1098   1.365   1.944   0.930 -0.1395  0.0576  0.6766
   72MPD2    C2 1099   1.307   1.919   1.051 -0.4255  0.2468  0.7804
   72MPD2    C3 1100   1.380   1.890   1.162 -0.4130  0.6404  0.3522
   72MPD2    C4 1101   1.517   1.883   1.152 -0.3765  0.6323 -0.0827
   72MPD2    C5 1102   1.578   1.910   1.038 -1.0300 -0.2901 -0.1069
   72MPD2     H 1103   1.201   1.940   1.064 -0.4287 -0.0732  1.2453
   72MPD2    H1 1104   1.580   1.855   1.235 -1.7842  0.2600  0.8516
   72MPD2    H2 1105   1.554   1.960   0.829  0.6410  0.7734  0.3003
   72MPD2    H3 1106   1.686   1.910   1.029 -0.7104  0.8769  3.7015
   72MPD2     N 1107   1.322   1.856   1.288 -0.3990 -0.4595 -0.1865
   72MPD2    H5 1108   1.380   1.803   1.353 -0.0746 -0.5534 -0.5567
   72MPD2    N1 1109   1.284   1.979   0.824  0.5756 -0.1864  0.1817
   72MPD2    H7 1110   1.183   1.972   0.837  0.5266  0.4247  0.0908
   73TMC2    C1 1111   0.505   3.779  13.980 -0.1537  0.0490  0.0236
   73TMC2    C2 1112   0.428   3.810  14.091  0.2310 -0.4119  0.7887
   73TMC2    C3 1113   0.489   3.827  14.213  0.0233 -0.6392 -0.3273
   73TMC2    C4 1114   0.636   3.747  13.998  0.0009 -0.5936 -0.4966
   73TMC2    C5 1115   0.698   3.784  14.114 -0.4618  0.3887 -0.6282
   73TMC2    C6 1116   0.628   3.819  14.230  0.0632 -0.2669  0.6429
   73TMC2     C 1117   0.492   3.871  13.873 -0.1986 -0.6539 -0.2983
   73TMC2     O 1118   0.595   3.925  13.839  0.3128 -0.2028  1.0205
   73TMC2     H 1119   0.325   3.838  14.074  0.5239  0.0336 -0.2524
   73TMC2    H1 1120   0.689   3.728  13.905  0.1711  0.1381 -0.5496
   73TMC2    H2 1121   0.669   3.853  14.325  0.6028  0.9547 -0.0269
   73TMC2    C7 1122   0.831   3.843  14.096  1.2877 -0.6895 -0.4381
   73TMC2    C8 1123   0.404   3.885  14.314 -0.8451  0.3448  0.3646
   73TMC2    O1 1124   0.908   3.851  14.190 -0.1072  0.0997 -0.2144
   73TMC2    O2 1125   0.313   3.959  14.279 -0.5527 -0.0711  0.4011
   73TMC2    O5 1126   0.420   3.817  14.428  0.3943 -0.2913 -0.0779
   73TMC2    H5 1127   0.496   3.754  14.437  0.2260 -0.4189  0.4511
   74MPD2     C 1128   0.247   4.162  13.530 -0.0872  0.7055  0.3855
   74MPD2    C1 1129   0.365   4.175  13.591  0.6964 -0.9946 -0.6048
   74MPD2    C2 1130   0.403   4.084  13.688  0.0137  0.7662 -0.4165
   74MPD2    C3 1131   0.326   3.972  13.716 -0.9188 -0.1769 -0.0790
   74MPD2    C4 1132   0.204   3.954  13.647 -0.7328  0.5222  0.2137
   74MPD2    C5 1133   0.166   4.053  13.559 -0.0080  0.0997 -0.3852
   74MPD2     H 1134   0.494   4.103  13.743  0.5292  0.3683 -1.1350
   74MPD2    H1 1135   0.137   3.870  13.654  0.3886 -0.2826  1.1999
   74MPD2    H2 1136   0.210   4.226  13.451 -0.7133  0.1091  0.2033
   74MPD2    H3 1137   0.085   4.038  13.488  0.1526 -1.4026 -0.2629
   74MPD2     N 1138   0.362   3.883  13.825  0.2952  0.2312 -0.1525
   74MPD2    H5 1139   0.289   3.814  13.839 -0.4617  0.9228 -0.7221
   74MPD2    N1 1140   0.455   4.281  13.548 -0.5609 -0.3327 -0.2802
   74MPD2    H7 1141   0.420   4.336  13.471  0.0460  0.9994  0.4002
   75TCq2    C1 1142   0.779   4.650  13.894 -1.0725  0.1770  0.6955
   75TCq2    O2 1143   0.848   4.625  13.797  0.3012  0.3683 -0.5966
   75TCq2    C2 1144   0.640   4.705  13.898  0.0360  0.5608  0.2071
   75TCq2    C3 1145   0.568   4.702  14.019 -0.0936 -0.3599 -0.5026
   75TCq2    C4 1146   0.456   0.044  14.027  0.6737 -0.1345  0.0547
   75TCq2    C5 1147   0.406   0.105  13.921 -0.4070  0.1390  0.2079
   75TCq2    C6 1148   0.469   0.095  13.798 -0.4825 -0.3271 -0.3117
   75TCq2    C7 1149   0.592   0.040  13.786  0.4086  0.0220  0.1397
   75TCq2    C8 1150   0.416   0.178  13.681 -0.2678 -0.1640  0.3454
   75TCq2    O4 1151   0.444   0.156  13.566 -0.2603  0.5162  0.3052
   75TCq2    C9 1152   0.382   0.048  14.146 -0.2134 -0.5149 -0.5825
   75TCq2    O5 1153   0.429   4.709  14.243  0.3489  0.6474 -0.4888
   75TCq2    O6 1154   0.275   0.109  14.147  0.8154 -0.2974 -0.7029
   75TCq2    H2 1155   0.589   4.629  14.096  0.9002 -1.1213 -1.4963
   75TCq2    H3 1156   0.318   0.167  13.936  1.5761  2.5868  1.6354
   75TCq2    H4 1157   0.655   0.051  13.698  1.0777  0.4641  0.6761
   76MPD2     C 1158   4.105   0.998  12.325 -0.4060  0.3367  0.2539
   76MPD2    C1 1159   4.142   1.021  12.190  0.1545 -0.5866 -0.2905
   76MPD2    C2 1160   4.242   0.937  12.137 -0.7288  0.4259  0.3879
   76MPD2    C3 1161   4.295   0.830  12.210  0.0463  0.3217  0.4968
   76MPD2    C4 1162   4.261   0.813  12.344  0.0352  0.1637  0.2665
   76MPD2    C5 1163   4.168   0.896  12.396 -0.5534  0.4803 -0.5663
   76MPD2     H 1164   4.273   0.948  12.034  0.1128  1.5195  0.7565
   76MPD2    H1 1165   4.303   0.730  12.400 -2.5708 -0.4328  1.3127
   76MPD2    H2 1166   4.037   1.062  12.380 -0.6960 -0.4433  0.8087
   76MPD2    H3 1167   4.144   0.869  12.498  0.5561  1.5033 -0.0326
   76MPD2     N 1168   4.384   0.740  12.155  0.0272 -0.0660  0.2636
   76MPD2    H5 1169   4.427   0.678  12.223 -0.5060 -0.9659 -0.2214
   76MPD2    N1 1170   4.075   1.119  12.110 -0.2920 -0.9400  0.4362
   76MPD2    H7 1171   4.116   1.135  12.018  1.1985 -0.6481  1.1558
   77TCq2    C1 1172   4.420   0.729  12.021 -0.4160  0.0681 -0.5678
   77TCq2    O2 1173   4.366   0.768  11.919 -0.1056 -0.3047  0.7894
   77TCq2    C2 1174   4.516   0.621  12.009 -0.6861  0.6677  0.4054
   77TCq2    C3 1175   4.481   0.518  11.928  0.2196  0.6370 -0.5882
   77TCq2    C4 1176   4.528   0.395  11.968 -0.3521 -0.0376  0.6623
   77TCq2    C5 1177   4.613   0.385  12.075 -0.2028 -0.3735 -0.4678
   77TCq2    C6 1178   4.651   0.494  12.156 -0.5953  0.1341 -0.0648
   77TCq2    C7 1179   4.586   0.614  12.132 -0.0916  0.2730  0.1689
   77TCq2    C8 1180   0.008   0.466  12.278  0.1487 -0.3253 -0.2286
   77TCq2    O4 1181   0.078   0.367  12.264 -0.6798 -0.0713 -0.1631
   77TCq2    C9 1182   4.478   0.277  11.914 -0.6438  0.3514  0.3980
   77TCq2    O5 1183   4.497   0.169  11.970 -0.1421 -0.4623  0.1870
   77TCq2    O6 1184   4.435   0.281  11.800  0.3091  0.3972 -0.4240
   77TCq2    H2 1185   4.407   0.530  11.850  0.0965 -0.5773 -0.6567
   77TCq2    H3 1186   4.648   0.284  12.095 -2.0519 -0.1614  3.8664
   77TCq2    H4 1187   4.609   0.709  12.179  2.1131 -0.5183  0.6823
   78MPD1     C 1188   4.600   0.949   0.906 -0.5443 -0.6939 -0.6629
   78MPD1    C1 1189   0.002   0.990   0.864  0.1509  0.3853 -0.3842
   78MPD1    C2 1190   0.102   0.995   0.956 -0.4656 -0.0927  0.2990
   78MPD1    C3 1191   0.090   0.938   1.085 -0.5359  0.4352  0.8295
   78MPD1    C4 1192   4.685   0.898   1.122 -0.0407  0.4628 -0.5301
   78MPD1    C5 1193   4.585   0.904   1.028 -0.3191  0.4735 -0.6473
   78MPD1     H 1194   0.196   1.038   0.924 -1.3218 -0.0246 -2.1180
   78MPD1    H1 1195   4.664   0.849   1.216 -1.2712  2.2179  0.1072
   78MPD1    H2 1196   4.512   0.932   0.845  0.1795  1.0639 -2.1899
   78MPD1    H3 1197   4.489   0.858   1.049  0.0012 -0.6821 -1.6979
   78MPD1     N 1198   0.191   0.931   1.184 -0.1764 -0.5159  0.3499
   78MPD1    H5 1199   0.165   0.892   1.274  0.1385 -0.1406  0.5990
   78MPD1    N1 1200   0.012   1.051   0.742 -0.2291 -0.5871  0.8761
   78MPD1    H6 1201   4.680   1.010   0.668 -0.3828 -0.5052  0.9468
   78MPD1    H7 1202   0.108   1.037   0.712 -0.8622  0.4836 -1.6516
   79TCq2    C1 1203   0.317   0.991   1.172 -0.5022  0.4379 -0.0671
   79TCq2    O2 1204   0.363   1.073   1.094  0.0119  0.3496  0.3097
   79TCq2    C2 1205   0.400   0.976   1.292 -0.3017 -1.1807  0.1217
   79TCq2    C3 1206   0.354   0.911   1.396  0.3682 -0.7537 -0.8675
   79TCq2    C4 1207   0.401   0.937   1.522  0.0672  0.0714 -0.2506
   79TCq2    C5 1208   0.500   1.030   1.540 -0.3733 -0.2626 -0.4804
   79TCq2    C6 1209   0.537   1.105   1.431 -0.1529  0.3395  0.5070
   79TCq2    C7 1210   0.506   1.058   1.302  0.2488  0.1326  0.3481
   79TCq2    C8 1211   0.660   1.182   1.435  0.4309 -0.0278  0.4478
   79TCq2    O4 1212   0.756   1.145   1.503 -0.1295  0.1656  0.0019
   79TCq2    C9 1213   0.362   0.855   1.636 -0.0494 -0.3127 -1.0299
   79TCq2    O5 1214   0.422   0.899   1.738 -0.3981  0.3475 -0.9885
   79TCq2    O6 1215   0.271   0.770   1.618  0.0236  0.6237 -0.0084
   79TCq2    H2 1216   0.283   0.829   1.388  2.0097 -2.1068 -1.4831
   79TCq2    H3 1217   0.534   1.055   1.640  0.2136  1.0341 -0.9910
   79TCq2    H4 1218   0.531   1.127   1.222 -0.0312  1.5008  1.4419
   80MPD2     C 1219   3.451   0.615  12.301  0.1143 -0.5440 -0.5607
   80MPD2    C1 1220   3.337   0.665  12.228 -0.1136  0.2319 -0.2086
   80MPD2    C2 1221   3.220   0.695  12.297 -0.0027 -0.0282  1.0346
   80MPD2    C3 1222   3.209   0.684  12.431  0.4779 -0.2978 -0.2438
   80MPD2    C4 1223   3.317   0.637  12.503 -0.2007 -0.0911  0.2108
   80MPD2    C5 1224   3.437   0.609  12.433 -0.5999  0.0991 -0.7625
   80MPD2     H 1225   3.136   0.733  12.241 -0.7424 -1.0434  1.4575
   80MPD2    H1 1226   3.303   0.615  12.608 -1.5536 -1.8293 -0.3323
   80MPD2    H2 1227   3.544   0.587  12.252 -0.5880 -0.0772 -2.1618
   80MPD2    H3 1228   3.512   0.560  12.494 -0.5044  0.6356 -0.4523
   80MPD2     N 1229   3.085   0.704  12.503 -0.2614  0.1900  0.0214
   80MPD2    H5 1230   3.095   0.682  12.602 -3.0417 -2.4308 -0.2918
   80MPD2    N1 1231   3.335   0.673  12.084 -0.3917  0.2796 -0.2061
   80MPD2    H7 1232   3.247   0.702  12.043 -0.7928  0.4207  0.7558
   81TCq2    C1 1233   3.442   0.655  11.997  0.2780  0.0292  0.4331
   81TCq2    O2 1234   3.562   0.643  12.023  0.1865  0.0947  0.0455
   81TCq2    C2 1235   3.404   0.636  11.861 -0.2857 -0.2069 -0.2591
   81TCq2    C3 1236   3.497   0.614  11.769 -0.3306 -0.3121  0.1784
   81TCq2    C4 1237   3.459   0.613  11.633 -0.0184 -0.6329 -0.3305
   81TCq2    C5 1238   3.326   0.633  11.590 -0.3365 -0.0970 -0.5523
   81TCq2    C6 1239   3.238   0.645  11.688  0.1217 -0.2585  0.5346
   81TCq2    C7 1240   3.270   0.641  11.823  0.0143  0.1061 -0.2754
   81TCq2    C8 1241   3.099   0.624  11.652  0.2724  0.6246  0.1837
   81TCq2    O4 1242   3.053   0.658  11.544  0.2672  0.5110 -0.1946
   81TCq2    C9 1243   3.557   0.593  11.532  0.0054  0.6501 -0.0038
   81TCq2    O5 1244   3.523   0.603  11.411 -1.0250  0.1704  0.4536
   81TCq2    O6 1245   3.676   0.592  11.576  0.0443  0.4200 -0.3102
   81TCq2    H2 1246   3.604   0.617  11.785 -0.2339  0.2092 -0.5341
   81TCq2    H3 1247   3.306   0.624  11.483 -0.3104 -0.0563 -0.5610
   81TCq2    H4 1248   3.186   0.653  11.890  0.0205  0.6255 -0.3603
   82MPD2     C 1249   1.284   0.223  10.408 -0.3046  0.4970  0.8021
   82MPD2    C1 1250   1.250   0.097  10.372  0.1201 -0.2515 -0.1379
   82MPD2    C2 1251   1.339   4.720  10.411  0.2567  0.4700  1.0064
   82MPD2    C3 1252   1.463   0.031  10.467  0.2356 -0.3248 -0.7479
   82MPD2    C4 1253   1.494   0.165  10.503 -0.4740 -0.1091  0.2232
   82MPD2    C5 1254   1.397   0.258  10.479  0.1179 -0.3672 -0.6531
   82MPD2     H 1255   1.309   4.618  10.394  2.5774 -0.1659  0.7373
   82MPD2    H1 1256   1.586   0.200  10.548  1.4135 -0.3929 -3.3956
   82MPD2    H2 1257   1.209   0.301  10.396  0.3286  1.2848  1.9651
   82MPD2    H3 1258   1.406   0.361  10.511 -0.7111 -1.0904  1.9457
   82MPD2     N 1259   1.557   4.657  10.497  0.5069  0.0010 -0.5619
   82MPD2    H5 1260   1.635   4.687  10.555  0.5070  1.8928 -1.5285
   82MPD2    N1 1261   1.120   0.075  10.310  0.6480  0.2708 -0.1999
   82MPD2    H7 1262   1.055   0.152  10.320  0.3786 -0.1647  1.3295
   83TCq2    C1 1263   1.553   4.524  10.444 -0.3967 -0.2649 -0.4157
   83TCq2    O2 1264   1.473   4.468  10.371 -0.2814  0.0685  0.8792
   83TCq2    C2 1265   1.653   4.432  10.503 -0.3570 -0.0547  0.4628
   83TCq2    C3 1266   1.757   4.471  10.582 -0.9268  0.0753  0.1431
   83TCq2    C4 1267   1.820   4.378  10.658  0.9043  0.0516 -0.0926
   83TCq2    C5 1268   1.763   4.254  10.684 -0.2564  0.6732 -0.2845
   83TCq2    C6 1269   1.645   4.223  10.613 -0.1397  0.0058  0.0318
   83TCq2    C7 1270   1.598   4.307  10.516 -0.2553 -0.0452 -0.0887
   83TCq2    C8 1271   1.569   4.114  10.672 -0.2801 -0.3245  0.5004
   83TCq2    O4 1272   1.580   4.110  10.793 -0.7472 -0.4690  0.6266
   83TCq2    C9 1273   1.954   4.399  10.709 -0.3773 -0.4646  0.0070
   83TCq2    O5 1274   1.997   4.318  10.793 -0.1217 -0.3857  0.5138
   83TCq2    O6 1275   2.015   4.491  10.651  0.4008  0.1568 -0.1082
   83TCq2    H2 1276   1.810   4.562  10.558 -0.2419 -0.2144  0.5407
   83TCq2    H3 1277   1.810   4.189  10.756 -1.0676 -1.5431 -1.7572
   83TCq2    H4 1278   1.515   4.277  10.454  0.4971 -1.1590 -0.5531
   84TCq2    C1 1279   2.674   3.124  10.291 -0.4126 -0.5137  0.6104
   84TCq2    O2 1280   2.654   3.017  10.354  0.4977  0.5138  0.5759
   84TCq2    C2 1281   2.730   3.235  10.370 -0.0983 -0.1607  0.1044
   84TCq2    C3 1282   2.810   3.324  10.307  0.2256 -0.3442  0.2781
   84TCq2    C4 1283   2.825   3.445  10.369 -0.5776 -0.9361 -0.4911
   84TCq2    C5 1284   2.778   3.472  10.496  0.2207  0.4441  0.3021
   84TCq2    C6 1285   2.703   3.372  10.555 -1.0551 -0.9840 -0.2032
   84TCq2    C7 1286   2.674   3.255  10.493 -0.1792  0.4457  0.5554
   84TCq2    C8 1287   2.622   3.415  10.666 -0.3284  0.6715 -0.4464
   84TCq2    O4 1288   2.640   3.531  10.699 -0.2237  0.8345  0.0662
   84TCq2    C9 1289   2.927   3.533  10.308 -0.2137  0.4945  0.5618
   84TCq2    O5 1290   2.942   3.646  10.357 -0.4892  0.1327  0.0962
   84TCq2    O6 1291   2.973   3.489  10.199  0.0230 -0.1085  0.3434
   84TCq2    H2 1292   2.869   3.297  10.220 -1.3781  0.2791 -1.0174
   84TCq2    H3 1293   2.801   3.564  10.549  1.3403  0.1053  0.3949
   84TCq2    H4 1294   2.598   3.186  10.529 -0.6737  0.1747 -0.9831
   85MPD2     C 1295   3.196   1.708  16.434  0.3979  0.7512  0.5600
   85MPD2    C1 1296   3.076   1.730  16.371  0.9307  0.3808 -0.8400
   85MPD2    C2 1297   3.071   1.821  16.264  0.0678 -0.2009 -0.1073
   85MPD2    C3 1298   3.177   1.884  16.207  0.1168  0.1309  0.0096
   85MPD2    C4 1299   3.294   1.852  16.269 -0.5979  0.1592 -0.0081
   85MPD2    C5 1300   3.302   1.770  16.385 -0.2563  0.3173  0.2894
   85MPD2     H 1301   2.973   1.856  16.234 -0.2481 -0.6156  0.4301
   85MPD2    H1 1302   3.390   1.876  16.225  0.7645 -0.6296  2.5270
   85MPD2    H2 1303   3.208   1.654  16.528  2.2056  2.5414  1.3743
   85MPD2    H3 1304   3.398   1.752  16.431  0.2272 -1.6126 -1.4585
   85MPD2     N 1305   3.172   1.983  16.109  0.0532 -0.1203 -0.1712
   85MPD2    H5 1306   3.083   2.020  16.075 -0.6592 -0.4531  1.3178
   85MPD2    N1 1307   2.960   1.659  16.409 -0.7575 -0.1857 -0.2350
   85MPD2    H7 1308   2.874   1.688  16.365 -0.3525 -0.4618 -1.1971
   86TCq2    C1 1309   3.281   2.029  16.035  0.0494  0.4322 -0.6884
   86TCq2    O2 1310   3.396   1.985  16.037 -0.0324  0.1712  0.5364
   86TCq2    C2 1311   3.251   2.128  15.933 -0.2427  0.3371 -0.0871
   86TCq2    C3 1312   3.149   2.216  15.955 -0.2559 -0.2355  0.3681
   86TCq2    C4 1313   3.118   2.300  15.851  0.0180  0.4120 -0.2321
   86TCq2    C5 1314   3.198   2.312  15.740  0.7615 -0.2226  0.7743
   86TCq2    C6 1315   3.304   2.224  15.724  0.2836  0.0090 -0.6360
   86TCq2    C7 1316   3.328   2.127  15.817 -0.3814  0.0665  0.2645
   86TCq2    C8 1317   3.403   2.254  15.617  0.1899 -0.3223  0.1889
   86TCq2    O4 1318   3.495   2.172  15.609  1.0000  0.1024  0.0387
   86TCq2    C9 1319   3.024   2.404  15.880  0.4001 -0.6276 -0.0925
   86TCq2    O5 1320   2.987   2.412  16.001  0.3577  0.2548 -0.2039
   86TCq2    O6 1321   3.022   2.504  15.802 -0.0387 -0.0134 -0.5397
   86TCq2    H2 1322   3.099   2.217  16.051 -1.4578  0.1859 -0.2705
   86TCq2    H3 1323   3.175   2.393  15.671  0.3057  0.1523  1.3702
   86TCq2    H4 1324   3.414   2.062  15.802 -0.0759  0.6085 -0.3430
   87MPD2     C 1325   0.801   0.470   1.491 -0.1882  0.5004  0.1907
   87MPD2    C1 1326   0.911   0.466   1.403  0.6062  1.1061 -0.3445
   87MPD2    C2 1327   0.925   0.576   1.319 -0.0682  0.8604  0.4330
   87MPD2    C3 1328   0.831   0.672   1.307 -0.5053 -0.1202 -0.0825
   87MPD2    C4 1329   0.715   0.665   1.383 -0.1283 -0.5646 -0.3449
   87MPD2    C5 1330   0.701   0.563   1.471  0.1418  0.6431 -0.4281
   87MPD2     H 1331   1.014   0.599   1.261  0.3347  0.8465  1.0493
   87MPD2    H1 1332   0.639   0.741   1.369 -0.4804 -0.4139  2.5330
   87MPD2    H2 1333   0.785   0.393   1.565  3.5313  1.9440  2.4974
   87MPD2    H3 1334   0.612   0.556   1.532  1.0250  2.0503  1.0385
   87MPD2     N 1335   0.868   0.783   1.229  0.5155 -0.4574 -0.1466
   87MPD2    H5 1336   0.966   0.798   1.211  0.8753 -0.7279  1.5400
   87MPD2    N1 1337   1.008   0.366   1.417 -0.0231  0.8020  0.0688
   87MPD2    H7 1338   1.012   0.315   1.505  0.2119 -0.0239 -0.4154
   88TCq2    C1 1339   1.102   0.350   1.323  0.3485 -0.0465  0.0671
   88TCq2    O2 1340   1.097   0.363   1.199  0.3970  0.1320  0.3136
   88TCq2    C2 1341   1.209   0.266   1.361 -0.0080  0.2134  0.6429
   88TCq2    C3 1342   1.245   0.252   1.496 -0.5790 -0.3907 -0.7092
   88TCq2    C4 1343   1.350   0.171   1.529  0.1976  0.0897  0.6003
   88TCq2    C5 1344   1.420   0.105   1.431  0.3930 -0.1038 -0.0518
   88TCq2    C6 1345   1.394   0.136   1.302  0.0362 -1.2423  0.5208
   88TCq2    C7 1346   1.287   0.209   1.262  0.5621 -0.1620 -0.5144
   88TCq2    C8 1347   1.446   0.067   1.187  0.0876 -0.0382  0.5110
   88TCq2    O4 1348   1.458   0.133   1.084 -0.2268  0.0455  0.0260
   88TCq2    C9 1349   1.394   0.153   1.665  0.3664  0.0564 -0.0900
   88TCq2    O5 1350   1.488   0.073   1.694  0.0115  0.4826 -0.7645
   88TCq2    O6 1351   1.328   0.219   1.749 -0.5862 -0.5301 -0.4064
   88TCq2    H2 1352   1.186   0.291   1.579 -0.1426  1.0958 -1.0981
   88TCq2    H3 1353   1.497   0.040   1.473 -0.8395 -1.3500  0.2838
   88TCq2    H4 1354   1.275   0.227   1.156  0.2313  0.5112 -0.3654
   89MPD2     C 1355   1.720   1.873   2.086 -0.9777 -0.0440 -0.3303
   89MPD2    C1 1356   1.692   1.975   1.997 -0.1095 -0.0202  0.6649
   89MPD2    C2 1357   1.792   2.057   1.954 -0.4615 -0.1997 -0.0209
   89MPD2    C3 1358   1.924   2.024   1.984 -0.8753  0.2082 -0.4546
   89MPD2    C4 1359   1.947   1.910   2.060  0.3150 -0.7130  0.1608
   89MPD2    C5 1360   1.848   1.842   2.121 -0.2581  0.5619 -0.1938
   89MPD2     H 1361   1.764   2.139   1.890 -1.9740 -0.4584  0.3070
   89MPD2    H1 1362   2.047   1.877   2.086 -0.1542  0.0819  3.0082
   89MPD2    H2 1363   1.639   1.809   2.122  1.1862 -3.2892 -1.2096
   89MPD2    H3 1364   1.868   1.756   2.184 -0.6549  0.4689 -0.1950
   89MPD2     N 1365   2.024   2.109   1.942  0.0460 -0.0125  0.1544
   89MPD2    H5 1366   1.988   2.191   1.895 -0.1268 -1.3367 -2.0465
   89MPD2    N1 1367   1.564   2.018   1.963  0.1082 -0.9157  0.0229
   89MPD2    H7 1368   1.557   2.086   1.888  0.6235 -0.1350  0.6669
   90TCq2    C1 1369   2.158   2.083   1.966 -0.0417 -0.4047 -0.3270
   90TCq2    O2 1370   2.219   1.983   2.004 -0.1208  0.3742  0.0732
   90TCq2    C2 1371   2.241   2.199   1.911  0.0544  0.0221 -0.0459
   90TCq2    C3 1372   2.181   2.321   1.908  0.6390  0.1518 -0.0592
   90TCq2    C4 1373   2.254   2.421   1.854  0.9532  0.0342  0.6126
   90TCq2    C5 1374   2.381   2.407   1.811  1.0072 -0.9628  0.3689
   90TCq2    C6 1375   2.436   2.287   1.840 -0.1546  0.1855  0.1054
   90TCq2    C7 1376   2.375   2.184   1.898 -0.1995  0.2569  0.2956
   90TCq2    C8 1377   2.577   2.280   1.817 -0.0392 -0.2613  0.1885
   90TCq2    O4 1378   2.633   2.182   1.872  0.3456  0.1145 -0.2766
   90TCq2    C9 1379   2.195   2.555   1.836 -1.0259 -0.3089  0.9469
   90TCq2    O5 1380   2.264   2.644   1.784  0.1254  0.5972  0.1772
   90TCq2    O6 1381   2.069   2.560   1.852 -0.0949 -0.7145  0.2033
   90TCq2    H2 1382   2.084   2.335   1.953 -0.2364 -0.2269 -1.8157
   90TCq2    H3 1383   2.432   2.490   1.765  2.0896 -0.7125  2.0158
   90TCq2    H4 1384   2.420   2.086   1.881 -1.6359 -0.8102  2.6179
   91TMC2    C1 1385   3.897   2.900  16.587  0.0367 -0.0340  0.0455
   91TMC2    C2 1386   3.933   3.025  16.549 -0.4313 -0.3395  0.0912
   91TMC2    C3 1387   3.835   3.124  16.560  0.2102 -0.5680 -0.3348
   91TMC2    C4 1388   3.772   2.871  16.630  0.4960  0.5370 -0.8934
   91TMC2    C5 1389   3.677   2.967  16.634  0.0251 -0.1380  0.0377
   91TMC2    C6 1390   3.708   3.095  16.595  0.2729  1.1341 -0.3267
   91TMC2     C 1391   3.964   2.786  16.541 -0.6162  0.2320 -0.0439
   91TMC2     O 1392   3.911   2.675  16.556 -0.3186  0.4475  0.2313
   91TMC2     H 1393   4.036   3.052  16.528 -0.1028 -1.7634 -0.0584
   91TMC2    H1 1394   3.745   2.768  16.650 -0.6829  0.9753 -0.2180
   91TMC2    H2 1395   3.634   3.174  16.591 -1.3135 -0.1829  2.4623
   91TMC2    C7 1396   3.541   2.929  16.672  0.2914 -0.0017  0.6713
   91TMC2    C8 1397   3.874   3.257  16.504  0.0445  0.3471  0.3539
   91TMC2    O1 1398   3.528   2.857  16.768 -0.2302 -0.5756 -0.3188
   91TMC2    O2 1399   3.964   3.280  16.423  0.4768  0.1836 -0.2760
   91TMC2    O5 1400   3.830   3.353  16.591 -0.4127  0.3424  0.1689
   91TMC2    H5 1401   3.771   3.316  16.660 -0.8611  0.0787 -0.3529
   92MPD2     C 1402   4.142   2.598  16.406  0.4916  0.8426 -0.2019
   92MPD2    C1 1403   4.134   2.729  16.373 -0.3488 -0.7991 -0.4951
   92MPD2    C2 1404   4.201   2.782  16.268  0.3772  0.9639  0.6960
   92MPD2    C3 1405   4.284   2.702  16.188  0.2458 -0.0778 -0.4359
   92MPD2    C4 1406   4.276   2.570  16.213 -0.3748 -0.5731  0.1112
   92MPD2    C5 1407   4.212   2.516  16.324  0.1103  0.0373  0.1398
   92MPD2     H 1408   4.184   2.885  16.240  1.5652  1.2743  1.1176
   92MPD2    H1 1409   4.331   2.506  16.145  0.1184 -0.6308  0.5598
   92MPD2    H2 1410   4.099   2.552  16.494 -1.7719  0.3383 -1.5602
   92MPD2    H3 1411   4.208   2.409  16.340 -3.4136  0.1993  0.5357
   92MPD2     N 1412   4.351   2.765  16.081 -0.3877 -0.0395 -0.1272
   92MPD2    H5 1413   4.334   2.862  16.058 -0.9254 -0.2793 -0.7328
   92MPD2    N1 1414   4.048   2.822  16.442 -0.6436  0.1513  0.0410
   92MPD2    H7 1415   4.072   2.918  16.419  3.5031 -0.8484  0.1837
   93MPD2     C 1416   0.440   2.749  13.567 -0.0152 -0.3868 -0.1536
   93MPD2    C1 1417   0.404   2.878  13.608 -0.1676 -0.4141 -0.3868
   93MPD2    C2 1418   0.274   2.896  13.659 -0.0615 -0.4001  0.3277
   93MPD2    C3 1419   0.187   2.795  13.651 -0.3289  0.1520  0.2470
   93MPD2    C4 1420   0.219   2.677  13.601  0.4812 -0.4118  0.0071
   93MPD2    C5 1421   0.347   2.647  13.569  0.5032  0.5382 -0.4849
   93MPD2     H 1422   0.249   2.988  13.710  1.6030 -0.7727  1.8318
   93MPD2    H1 1423   0.152   2.591  13.599 -2.5071  1.9223  0.6662
   93MPD2    H2 1424   0.532   2.729  13.512 -0.3222  0.2664 -0.8999
   93MPD2    H3 1425   0.372   2.547  13.536 -2.3844 -0.5644  0.7000
   93MPD2     N 1426   0.066   2.816  13.713  0.2255 -0.4906  0.9520
   93MPD2    H5 1427   0.039   2.910  13.738  2.5360  0.7655 -1.2793
   93MPD2    N1 1428   0.499   2.979  13.619 -0.4417 -0.3409 -0.2953
   93MPD2    H7 1429   0.470   3.061  13.671 -1.3171  0.4390 -2.0197
   94TCq2    C1 1430   0.637   2.974  13.603  0.3826 -0.1121  0.2328
   94TCq2    O2 1431   0.704   2.878  13.570  0.2529 -0.2283 -0.1032
   94TCq2    C2 1432   0.710   3.084  13.668  0.6513 -0.2257  0.1312
   94TCq2    C3 1433   0.651   3.181  13.743  0.4886  0.2215 -0.1922
   94TCq2    C4 1434   0.721   3.248  13.842  0.6468  0.0911 -0.0175
   94TCq2    C5 1435   0.854   3.228  13.858 -0.4224 -0.2808  0.2021
   94TCq2    C6 1436   0.914   3.139  13.776  0.1933  0.5673 -0.6244
   94TCq2    C7 1437   0.845   3.062  13.686  0.3814  0.0997 -0.0704
   94TCq2    C8 1438   1.055   3.155  13.746  0.7393  0.3270  0.1173
   94TCq2    O4 1439   1.101   3.092  13.652 -0.2286 -0.1657  0.1243
   94TCq2    C9 1440   0.660   3.353  13.925  0.0427 -0.3199 -0.0265
   94TCq2    O5 1441   0.537   3.369  13.906 -0.4256 -0.3076  0.1488
   94TCq2    O6 1442   0.744   3.425  13.993  0.2944 -0.7466 -0.1456
   94TCq2    H2 1443   0.543   3.194  13.742  0.1925 -1.9962  2.7346
   94TCq2    H3 1444   0.912   3.280  13.934 -0.1523 -1.3517  0.7297
   94TCq2    H4 1445   0.897   2.993  13.621  2.6561  0.2082  1.6151
   95TMC2    C1 1446   0.775   4.563  16.012  0.4348 -0.0153  0.1745
   95TMC2    C2 1447   0.741   4.443  16.074 -0.3337  0.4850  0.2126
   95TMC2    C3 1448   0.763   4.431  16.204  0.4700  0.0161 -0.4953
   95TMC2    C4 1449   0.839   4.664  16.088 -0.4620  0.0859 -0.3266
   95TMC2    C5 1450   0.863   4.635  16.218  0.0841  0.5000  0.0586
   95TMC2    C6 1451   0.821   4.522  16.284  0.1705 -0.2411  0.7156
   95TMC2     C 1452   0.793   4.569  15.870 -0.0313 -0.1784 -0.2663
   95TMC2     O 1453   0.878   4.649  15.829 -0.4140  0.2327 -0.2119
   95TMC2     H 1454   0.701   4.359  16.017 -0.1090  1.5287 -1.4655
   95TMC2    H1 1455   0.851   0.041  16.052  0.8108 -0.1698 -0.6365
   95TMC2    H2 1456   0.852   4.509  16.388  0.7631 -1.4321  0.3900
   95TMC2    C7 1457   0.892   0.019  16.312 -0.3511 -0.2828  0.2131
   95TMC2    C8 1458   0.712   4.321  16.280 -0.0887 -0.0427  1.1258
   95TMC2    O1 1459   0.869   0.004  16.431  0.1123  0.0587  0.2932
   95TMC2    O2 1460   0.682   4.324  16.400  0.2811  0.0764 -0.2811
   95TMC2    O5 1461   0.756   4.208  16.210  0.0684  0.3339 -0.2686
   95TMC2    H5 1462   0.796   4.244  16.127 -0.5424 -1.2055 -1.2255
   96MPD2     C 1463   0.635   4.474  15.390 -0.6615 -0.3344 -0.4836
   96MPD2    C1 1464   0.730   4.561  15.435 -0.0189  0.6253  0.4240
   96MPD2    C2 1465   0.752   4.574  15.574 -0.2916 -0.2535  0.3597
   96MPD2    C3 1466   0.682   4.496  15.661  0.0548  0.4492  0.1050
   96MPD2    C4 1467   0.577   4.418  15.614  0.2232 -0.1536 -0.3803
   96MPD2    C5 1468   0.552   4.409  15.475 -0.0600  0.8834  0.6985
   96MPD2     H 1469   0.832   4.637  15.611  1.7209  0.0087 -4.5292
   96MPD2    H1 1470   0.515   4.365  15.685 -0.2384 -1.6398 -1.9129
   96MPD2    H2 1471   0.625   4.450  15.285 -2.1066  0.8609 -0.6200
   96MPD2    H3 1472   0.465   4.359  15.433  0.7346 -1.6527  2.1142
   96MPD2     N 1473   0.703   4.497  15.800 -0.4284  0.2478  0.4728
   96MPD2    H5 1474   0.633   4.448  15.855 -1.6186  2.2012  0.7183
   96MPD2    N1 1475   0.808   4.626  15.332  0.1758 -0.5399 -0.2513
   96MPD2    H7 1476   0.777   4.614  15.237  0.2271 -0.7972 -0.2351
   97MPD2     C 1477   2.970   1.908   1.564  0.1407  0.2948 -0.3489
   97MPD2    C1 1478   2.852   1.955   1.511  0.1576  0.5066 -0.9201
   97MPD2    C2 1479   2.850   2.030   1.395 -0.1996  0.6680 -0.0540
   97MPD2    C3 1480   2.971   2.058   1.331 -0.0649  0.2017  0.3220
   97MPD2    C4 1481   3.089   2.015   1.390  0.1255  0.6776  0.1578
   97MPD2    C5 1482   3.084   1.935   1.498  0.2272  0.1900  0.6890
   97MPD2     H 1483   2.752   2.065   1.365 -0.6964  0.9229  1.9099
   97MPD2    H1 1484   3.184   2.052   1.354  0.4613  0.0152  0.3556
   97MPD2    H2 1485   2.988   1.834   1.641 -5.0542 -1.8714 -1.1668
   97MPD2    H3 1486   3.175   1.895   1.541  0.2642  1.6338  1.9721
   97MPD2     N 1487   2.988   2.131   1.205  0.0633  0.1916  0.2758
   97MPD2    H5 1488   3.083   2.131   1.168 -0.8178 -0.5873 -2.0242
   97MPD2    N1 1489   2.723   1.933   1.573 -0.1352  0.3331 -0.0144
   97MPD2    H7 1490   2.644   1.954   1.512 -0.6740 -1.3647  0.0837
   98TCq2    C1 1491   2.884   2.208   1.161  0.3346  0.4498  0.5403
   98TCq2    O2 1492   2.771   2.232   1.202  0.1469  0.3589  0.0548
   98TCq2    C2 1493   2.917   2.264   1.029  1.0225 -0.4357 -0.3502
   98TCq2    C3 1494   2.819   2.292   0.945  0.3231  0.1764 -0.4964
   98TCq2    C4 1495   2.854   2.337   0.822  0.1668 -0.4826 -0.3063
   98TCq2    C5 1496   2.978   2.342   0.773 -0.0857 -0.6654  0.6834
   98TCq2    C6 1497   3.076   2.320   0.862  0.3982  0.2677 -0.6066
   98TCq2    C7 1498   3.047   2.287   0.994  0.2360 -0.0607 -0.0588
   98TCq2    C8 1499   3.211   2.305   0.812 -0.1997 -0.0386  0.2126
   98TCq2    O4 1500   3.294   2.301   0.904  0.0314 -0.1314 -0.7971
   98TCq2    C9 1501   2.752   2.367   0.726 -0.1886  0.4271 -0.4462
   98TCq2    O5 1502   2.636   2.323   0.753  0.4506 -0.0865 -0.2739
   98TCq2    O6 1503   2.780   2.426   0.621  0.0947 -0.2277  0.1307
   98TCq2    H2 1504   2.713   2.279   0.965  0.0203  1.2716 -1.3880
   98TCq2    H3 1505   2.995   2.382   0.673 -0.9125 -0.7169  0.5213
   98TCq2    H4 1506   3.125   2.274   1.068  0.9068 -0.9622 -0.9130
   99MPD2     C 1507   0.332   4.289   1.371 -0.4626  0.0428  0.2696
   99MPD2    C1 1508   0.368   4.254   1.506 -0.2490  0.2391  0.1098
   99MPD2    C2 1509   0.468   4.153   1.507  0.3917  0.0972  0.8121
   99MPD2    C3 1510   0.520   4.101   1.387 -0.1740  0.0752  0.4268
   99MPD2    C4 1511   0.470   4.135   1.262 -0.5460  0.3142 -0.1749
   99MPD2    C5 1512   0.369   4.223   1.258 -0.6191 -0.4964 -0.6513
   99MPD2     H 1513   0.517   4.119   1.597  1.3297  1.1508  0.6954
   99MPD2    H1 1514   0.497   4.093   1.166 -0.5718  0.8685 -0.4265
   99MPD2    H2 1515   0.262   4.370   1.353  0.8365  1.2304  0.5890
   99MPD2    H3 1516   0.341   4.267   1.162 -2.5334  0.3465  0.3063
   99MPD2     N 1517   0.628   4.014   1.403  0.0165 -0.6004  0.8181
   99MPD2    H5 1518   0.663   4.004   1.498  1.3617  1.5253  0.5518
   99MPD2    N1 1519   0.333   4.322   1.626  0.2807 -0.6354 -0.3316
   99MPD2    H7 1520   0.382   4.291   1.709  0.0816 -1.5401 -0.5532
  100TCq2    C1 1521   0.236   4.420   1.638 -0.1325 -0.0830  0.3041
  100TCq2    O2 1522   0.163   4.462   1.551 -0.1435 -0.3672 -0.1795
  100TCq2    C2 1523   0.214   4.472   1.774  0.6564 -0.3796  0.2029
  100TCq2    C3 1524   0.095   4.547   1.793 -0.5189 -0.2724  0.9112
  100TCq2    C4 1525   0.045   4.550   1.922 -0.0426 -0.3740 -0.6824
  100TCq2    C5 1526   0.113   4.483   2.023  0.2945  0.3370  0.1018
  100TCq2    C6 1527   0.235   4.427   2.004 -0.4576  0.4818  0.4285
  100TCq2    C7 1528   0.286   4.425   1.878  0.9352  0.4460 -0.5395
  100TCq2    C8 1529   0.249   4.291   2.063  0.0840  0.7605 -0.6336
  100TCq2    O4 1530   0.322   4.261   2.158 -0.3232  0.4369  0.6119
  100TCq2    C9 1531   4.638   4.613   1.951 -0.6683  0.7968  0.8456
  100TCq2    O5 1532   4.570   4.667   1.853 -0.4915  0.1509  0.2758
  100TCq2    O6 1533   4.604   4.617   2.074  0.3867  0.4429  0.0632
  100TCq2    H2 1534   0.042   4.600   1.714  0.4614 -0.5468  0.0728
  100TCq2    H3 1535   0.077   4.490   2.125 -0.2315 -1.1080  0.0306
  100TCq2    H4 1536   0.388   4.388   1.877  1.2917  1.3816  0.6317
  101MPD2     C 1537   1.940   0.226  12.970  0.3862 -0.4344 -0.6466
  101MPD2    C1 1538   1.839   0.310  13.010  0.2708 -1.3330  0.3084
  101MPD2    C2 1539   1.750   0.273  13.104  0.4574 -0.0566  0.2199
  101MPD2    C3 1540   1.770   0.149  13.167 -0.5101 -0.2913 -0.1991
  101MPD2    C4 1541   1.865   0.064  13.129 -0.0900  0.2411 -0.2228
  101MPD2    C5 1542   1.950   0.096  13.022  0.5350 -0.3224 -0.3642
  101MPD2     H 1543   1.678   0.341  13.149 -2.2518 -1.5535 -1.8194
  101MPD2    H1 1544   1.881   4.697  13.186  2.8587  1.6187  1.1502
  101MPD2    H2 1545   2.011   0.259  12.896 -0.4743 -0.3542 -1.4396
  101MPD2    H3 1546   2.021   0.029  12.976 -0.2683 -0.7044 -1.0268
  101MPD2     N 1547   1.669   0.114  13.267 -0.0130 -0.1777  0.4368
  101MPD2    H5 1548   1.604   0.188  13.294 -1.2193 -1.3842  0.8011
  101MPD2    N1 1549   1.835   0.436  12.947 -0.0896 -0.3074  0.1206
  101MPD2    H7 1550   1.912   0.454  12.883 -0.1373 -0.8533 -0.0937
  102TCq2    C1 1551   1.878   0.810  12.580  0.3802  0.1067  0.6390
  102TCq2    O2 1552   1.993   0.765  12.585  0.4936  0.2215 -0.4179
  102TCq2    C2 1553   1.793   0.782  12.697 -0.1409  0.0524 -0.1706
  102TCq2    C3 1554   1.737   0.892  12.752  0.3823 -0.3468  0.1322
  102TCq2    C4 1555   1.702   0.889  12.884  0.5560 -0.2486  0.1848
  102TCq2    C5 1556   1.710   0.783  12.960 -0.1017  0.3336 -0.3230
  102TCq2    C6 1557   1.765   0.666  12.900 -0.0731 -0.1465  0.6057
  102TCq2    C7 1558   1.809   0.666  12.773  0.1673 -0.1665  0.5712
  102TCq2    C8 1559   1.767   0.549  12.985 -0.4796 -0.4384  0.5790
  102TCq2    O4 1560   1.699   0.562  13.087 -0.2621  0.2850  0.5326
  102TCq2    C9 1561   1.646   1.009  12.939  0.2023 -0.9309 -0.4229
  102TCq2    O5 1562   1.602   1.005  13.057  0.1276  0.6029 -0.7464
  102TCq2    O6 1563   1.674   1.111  12.877  0.2079 -0.1882 -0.6339
  102TCq2    H2 1564   1.724   0.985  12.698 -0.1149 -0.7205 -0.3862
  102TCq2    H3 1565   1.682   0.791  13.065  1.5426 -1.2504  0.2349
  102TCq2    H4 1566   1.862   0.583  12.730 -1.5398 -1.2267  0.5031
  103TMC2    C1 1567   0.236   0.977  12.854 -0.5364 -0.2096  0.5351
  103TMC2    C2 1568   0.208   1.109  12.838 -0.1413  0.0624 -0.5781
  103TMC2    C3 1569   0.206   1.193  12.942  0.8007  0.0680  0.3385
  103TMC2    C4 1570   0.253   0.932  12.984 -0.6442  0.5247 -0.0227
  103TMC2    C5 1571   0.242   1.018  13.089 -0.7146  0.6181 -0.1951
  103TMC2    C6 1572   0.215   1.146  13.073  0.2550  1.0393  0.2680
  103TMC2     C 1573   0.210   0.884  12.737  0.3866 -1.4665 -0.2767
  103TMC2     O 1574   0.153   0.934  12.644 -0.2977  0.1331 -0.0106
  103TMC2     H 1575   0.203   1.145  12.736 -3.2820 -0.1116 -0.4944
  103TMC2    H1 1576   0.264   0.827  13.009  3.8864  1.7238  3.0219
  103TMC2    H2 1577   0.205   1.211  13.159 -0.4298  1.8037 -0.3912
  103TMC2    C7 1578   0.228   0.963  13.223 -0.1574  0.1515  0.4039
  103TMC2    C8 1579   0.167   1.328  12.906 -0.1702  0.4695 -0.1561
  103TMC2    O1 1580   0.304   0.875  13.255  0.2122 -0.7127 -0.9513
  103TMC2    O2 1581   0.122   1.357  12.798  0.6701 -0.5480 -0.0267
  103TMC2    O5 1582   0.193   1.410  13.006 -0.4260  0.2825  0.2711
  103TMC2    H5 1583   0.231   1.354  13.077  1.3139  2.6810  1.2625
  104MPD2     C 1584   0.273   0.524  12.714  0.5424 -0.3510 -0.3231
  104MPD2    C1 1585   0.218   0.649  12.680  0.0248 -1.0680  0.6154
  104MPD2    C2 1586   0.134   0.659  12.568 -0.8629 -0.0757  0.0496
  104MPD2    C3 1587   0.107   0.552  12.485 -0.5913  0.0394 -0.3058
  104MPD2    C4 1588   0.161   0.427  12.527  0.2654 -0.1412  0.0008
  104MPD2    C5 1589   0.230   0.415  12.648  0.2207 -0.1324  1.2324
  104MPD2     H 1590   0.092   0.753  12.537  0.0393  0.1303 -0.5779
  104MPD2    H1 1591   0.128   0.335  12.482  0.5536  0.1373 -0.7864
  104MPD2    H2 1592   0.343   0.509  12.795 -0.4663 -0.8433  0.4555
  104MPD2    H3 1593   0.266   0.314  12.667 -0.1655 -0.3707  0.7132
  104MPD2     N 1594   0.020   0.563  12.364 -0.3809  0.0351  0.4932
  104MPD2    H5 1595   4.696   0.652  12.357 -0.8328 -0.2731 -0.3499
  104MPD2    N1 1596   0.252   0.759  12.759 -0.4802  0.4197  0.1304
  104MPD2    H7 1597   0.303   0.745  12.846  0.1709  0.3746 -0.2610
  105MPD2     C 1598   2.399   4.462  17.682  0.8677 -0.0581  0.3068
  105MPD2    C1 1599   2.329   4.583  17.674 -0.4632  0.1337 -0.5361
  105MPD2    C2 1600   2.284   4.643   0.085 -0.6755  0.0213  0.3127
  105MPD2    C3 1601   2.306   4.578   0.209  0.0270 -0.3263 -0.1501
  105MPD2    C4 1602   2.387   4.467   0.217  0.3850  0.0952  0.2644
  105MPD2    C5 1603   2.444   4.425   0.107  0.5378  0.2052 -0.2572
  105MPD2     H 1604   2.210   4.720   0.065  0.0111 -0.0614 -2.5169
  105MPD2    H1 1605   2.402   4.420   0.314  1.5537  0.2672  0.1639
  105MPD2    H2 1606   2.448   4.416  17.597  2.4829  1.9156  0.1560
  105MPD2    H3 1607   2.504   4.335   0.115 -0.4648 -0.4823 -0.4185
  105MPD2     N 1608   2.230   4.620   0.317 -0.1508 -0.5563 -0.1180
  105MPD2    H5 1609   2.183   4.710   0.308  1.1724  0.4073  2.4494
  105MPD2    N1 1610   2.303   4.640  17.550 -0.0186 -0.1586 -0.1165
  105MPD2    H7 1611   2.252   0.004  17.557  0.3337 -0.0446  0.9059
  106TCq2    C1 1612   2.203   4.547   0.431  0.2481 -0.1227 -0.1668
  106TCq2    O2 1613   2.234   4.430   0.452 -0.2277 -0.0283  0.0720
  106TCq2    C2 1614   2.113   4.609   0.524  0.3231 -0.1910  0.1454
  106TCq2    C3 1615   2.076   0.021   0.503 -0.0494 -0.2270 -0.2045
  106TCq2    C4 1616   1.963   0.062   0.568 -0.5324 -0.4502 -0.5245
  106TCq2    C5 1617   1.887   4.709   0.654 -0.0248 -0.4405  0.0019
  106TCq2    C6 1618   1.937   4.582   0.685 -0.3299 -0.0407  0.2257
  106TCq2    C7 1619   2.046   4.532   0.613 -0.0266  0.0281  0.5448
  106TCq2    C8 1620   1.876   4.493   0.783  0.7756  0.1091  0.1739
  106TCq2    O4 1621   1.922   4.379   0.791  0.1902 -0.6004 -0.7622
  106TCq2    C9 1622   1.921   0.194   0.537  0.6448  0.2689 -0.1967
  106TCq2    O5 1623   1.965   0.259   0.436 -0.6973 -0.6249  0.0109
  106TCq2    O6 1624   1.825   0.236   0.606  0.3426 -0.4212 -0.2636
  106TCq2    H2 1625   2.128   0.101   0.451 -1.6862  1.4976  0.7907
  106TCq2    H3 1626   1.794   0.027   0.692  0.8767  1.3746  0.2226
  106TCq2    H4 1627   2.067   4.426   0.600  0.3086  0.2434 -0.6085
  107TMC2    C1 1628   2.028   4.068  11.004 -0.4788  0.2247 -0.7169
  107TMC2    C2 1629   2.133   4.137  10.952 -0.1880 -0.4475  0.2467
  107TMC2    C3 1630   2.216   4.065  10.879  0.1405  0.6107 -0.7055
  107TMC2    C4 1631   2.015   3.934  10.999  0.3368  0.5552 -0.4569
  107TMC2    C5 1632   2.106   3.867  10.931 -0.2319  0.4777  0.4849
  107TMC2    C6 1633   2.208   3.931  10.870  0.5322  0.1285  0.2680
  107TMC2     C 1634   1.938   4.138  11.096 -0.9325  0.3856 -0.4519
  107TMC2     O 1635   1.875   4.072  11.180  0.3759  0.2604  0.1330
  107TMC2     H 1636   2.158   4.243  10.959  0.0668 -0.4186 -1.0587
  107TMC2    H1 1637   1.939   3.882  11.055  2.8407 -0.2390  2.2004
  107TMC2    H2 1638   2.298   3.887  10.826 -0.3189 -0.5896 -0.7685
  107TMC2    C7 1639   2.121   3.722  10.959 -0.2454 -0.5569 -0.6113
  107TMC2    C8 1640   2.310   4.131  10.794  0.0666 -0.6151  0.2649
  107TMC2    O1 1641   2.067   3.679  11.058  0.1645  0.0345 -0.5661
  107TMC2    O2 1642   2.401   4.075  10.731  0.2560 -0.1183  0.1691
  107TMC2    O5 1643   2.241   4.238  10.742  0.1712 -0.0263  0.2700
  107TMC2    H5 1644   2.162   4.278  10.785  0.1255 -0.5140  0.6494
  108MPD2     C 1645   1.864   4.489  11.062  0.0981  0.0638  0.6593
  108MPD2    C1 1646   1.879   4.371  11.124  0.2080  0.0641 -0.3203
  108MPD2    C2 1647   1.848   4.359  11.260 -0.1746 -0.3939  0.3994
  108MPD2    C3 1648   1.801   4.471  11.331  0.0127  0.7455 -0.0144
  108MPD2    C4 1649   1.785   4.587  11.261 -0.1310 -0.4491 -0.2233
  108MPD2    C5 1650   1.806   4.600  11.124 -0.1157  0.1514 -0.2702
  108MPD2     H 1651   1.858   4.268  11.318  0.1712 -1.7476 -1.7766
  108MPD2    H1 1652   1.761   4.677  11.315  3.3865  1.6887 -2.1407
  108MPD2    H2 1653   1.891   4.493  10.957  1.6667  2.0304  1.1405
  108MPD2    H3 1654   1.797   4.696  11.076  0.5156  0.4958  0.3104
  108MPD2     N 1655   1.770   4.468  11.471 -0.1006  0.1989 -0.2644
  108MPD2    H5 1656   1.726   4.547  11.517  0.1989  0.7771 -0.9726
  108MPD2    N1 1657   1.928   4.262  11.051  0.4831 -0.1244 -0.4945
  108MPD2    H7 1658   1.953   4.277  10.953  0.7842 -0.1962 -0.4288
  109MPD2     C 1659   1.454   0.877   1.826 -0.2959 -0.0937  0.7683
  109MPD2    C1 1660   1.541   0.980   1.798  0.0155 -0.5082  0.4705
  109MPD2    C2 1661   1.672   0.971   1.841  0.3268 -0.8758 -0.1801
  109MPD2    C3 1662   1.715   0.846   1.891 -0.2096  0.4813 -1.1777
  109MPD2    C4 1663   1.622   0.749   1.932 -0.2760 -0.6745 -0.8920
  109MPD2    C5 1664   1.486   0.775   1.914 -0.1440 -0.0154  0.0049
  109MPD2     H 1665   1.749   1.040   1.807  0.4924  0.1960  2.3767
  109MPD2    H1 1666   1.646   0.652   1.975  0.6192 -0.4080 -0.7785
  109MPD2    H2 1667   1.353   0.879   1.789  0.0604  1.5670 -0.1288
  109MPD2    H3 1668   1.405   0.705   1.931  1.1572 -1.6884 -0.6853
  109MPD2     N 1669   1.853   0.832   1.913  0.1013  0.1146  0.2285
  109MPD2    H5 1670   1.911   0.912   1.890 -2.2253  1.7504 -0.0023
  109MPD2    N1 1671   1.493   1.093   1.725 -0.2082 -0.6855 -0.4301
  109MPD2    H7 1672   1.404   1.078   1.680 -0.9238  0.0770  0.7526
  110TCq2    C1 1673   1.910   0.730   1.990  0.2420 -1.1379 -0.3009
  110TCq2    O2 1674   1.860   0.623   2.029 -0.2263  0.3010  0.4534
  110TCq2    C2 1675   2.054   0.743   2.013  0.0267 -0.1393  0.1970
  110TCq2    C3 1676   2.102   0.646   2.101 -0.1117  0.9168 -0.2437
  110TCq2    C4 1677   2.226   0.671   2.155 -0.3514  0.4261  0.4759
  110TCq2    C5 1678   2.301   0.786   2.125 -0.3389  0.2017  0.1762
  110TCq2    C6 1679   2.235   0.888   2.062  0.5180  0.2792  0.0003
  110TCq2    C7 1680   2.115   0.873   2.007  0.2156  0.7588 -0.1909
  110TCq2    C8 1681   2.291   1.030   2.059  0.1398 -0.2264 -0.2764
  110TCq2    O4 1682   2.219   1.115   2.010  0.0805  0.1839 -0.1881
  110TCq2    C9 1683   2.292   0.568   2.232  0.0205  0.1600  0.1539
  110TCq2    O5 1684   2.216   0.493   2.300  0.1153 -0.1998  0.6210
  110TCq2    O6 1685   2.415   0.559   2.201 -0.4125  0.0408  0.0850
  110TCq2    H2 1686   2.056   0.551   2.124  2.8131 -0.6629 -0.9102
  110TCq2    H3 1687   2.397   0.801   2.173  0.0435  0.0183 -0.5338
  110TCq2    H4 1688   2.057   0.956   1.969 -2.0659 -0.3844  0.7322
  111TMC2    C1 1689   2.509   1.628  11.404  0.8886 -0.5292  0.2676
  111TMC2    C2 1690   2.600   1.686  11.321 -0.2512 -0.4805 -0.5775
  111TMC2    C3 1691   2.731   1.679  11.359  0.5280  0.8437  0.1373
  111TMC2    C4 1692   2.543   1.555  11.509 -0.0986  0.2340  0.3501
  111TMC2    C5 1693   2.675   1.543  11.543 -0.1161  0.3582  0.0689
  111TMC2    C6 1694   2.774   1.615  11.472  0.2939  0.1473  0.1067
  111TMC2     C 1695   2.370   1.670  11.377 -0.0374  0.4855  0.3793
  111TMC2     O 1696   2.348   1.715  11.266 -0.3328 -0.0979 -0.0054
  111TMC2     H 1697   2.571   1.746  11.235 -0.4289 -2.5614 -1.9919
  111TMC2    H1 1698   2.465   1.505  11.566  0.0763 -1.1259 -0.6138
  111TMC2    H2 1699   2.875   1.604  11.509 -0.0849  1.4831  1.5573
  111TMC2    C7 1700   2.701   1.473  11.671  0.5320  0.2087  0.5547
  111TMC2    C8 1701   2.807   1.797  11.314  0.3050 -0.5423  0.0406
  111TMC2    O1 1702   2.606   1.440  11.734  0.3352 -0.0938  0.5471
  111TMC2    O2 1703   2.750   1.901  11.281  0.2139  0.1156  0.0144
  111TMC2    O5 1704   2.919   1.799  11.385 -0.3922  0.0684  0.7346
  111TMC2    H5 1705   2.959   1.709  11.392  0.1551  0.2552  0.0164
  112MPD2     C 1706   1.876   1.725  11.496 -0.1062 -0.6609  0.0206
  112MPD2    C1 1707   1.936   1.709  11.374  0.0729 -0.5458 -0.1935
  112MPD2    C2 1708   2.075   1.691  11.368  0.0023  0.2616  0.3809
  112MPD2    C3 1709   2.153   1.699  11.485 -0.4949  0.5556 -0.8599
  112MPD2    C4 1710   2.090   1.728  11.603 -0.2537  0.5003  0.0493
  112MPD2    C5 1711   1.954   1.748  11.607  0.5431 -0.0401 -0.0034
  112MPD2     H 1712   2.109   1.672  11.267 -0.7163  0.2476  0.1398
  112MPD2    H1 1713   2.151   1.746  11.691 -1.7660  1.6572  0.8719
  112MPD2    H2 1714   1.769   1.743  11.498 -0.6709 -3.9225 -1.2984
  112MPD2    H3 1715   1.921   1.788  11.702  0.2388  2.8974 -1.3414
  112MPD2     N 1716   2.291   1.669  11.488  0.0374 -0.3597  0.6379
  112MPD2    H5 1717   2.328   1.642  11.578  0.2876 -3.7106 -0.4483
  112MPD2    N1 1718   1.859   1.701  11.255  0.3472  0.1873 -0.1788
  112MPD2    H7 1719   1.901   1.677  11.166 -1.4204  0.5301 -1.1135
  113MPD2     C 1720   0.373   4.284   0.877  0.5931 -0.1928 -0.1563
  113MPD2    C1 1721   0.257   4.354   0.868 -0.2590  0.1242 -0.4747
  113MPD2    C2 1722   0.160   4.294   0.781 -0.0402  0.0836  0.6120
  113MPD2    C3 1723   0.182   4.173   0.712  0.1460 -0.0063 -0.0524
  113MPD2    C4 1724   0.307   4.120   0.716 -0.3065  0.0803  0.1606
  113MPD2    C5 1725   0.407   4.175   0.796 -0.0590  0.3444  0.2604
  113MPD2     H 1726   0.062   4.339   0.783 -1.1157 -2.2695  0.8567
  113MPD2    H1 1727   0.340   4.041   0.649 -0.8564  0.0431 -0.0629
  113MPD2    H2 1728   0.457   4.326   0.930  0.4061 -0.8059  0.6291
  113MPD2    H3 1729   0.507   4.133   0.797 -0.5876 -0.9865 -2.5283
  113MPD2     N 1730   0.083   4.101   0.639  0.3662 -0.4480 -0.1498
  113MPD2    H5 1731   0.111   4.011   0.602 -1.1331 -0.9707  0.0081
  113MPD2    N1 1732   0.224   4.476   0.930  0.2480 -0.3124 -0.2909
  113MPD2    H7 1733   0.128   4.505   0.911  0.6631  1.1147 -0.1719
  114TCq2    C1 1734   4.674   4.129   0.652  0.7592  0.1109  0.0673
  114TCq2    O2 1735   4.617   4.210   0.724 -0.4811  0.3003  0.4453
  114TCq2    C2 1736   4.578   4.035   0.594 -0.1968 -0.1394 -0.0705
  114TCq2    C3 1737   4.462   4.026   0.663  0.1587  0.4071  0.6891
  114TCq2    C4 1738   4.404   3.904   0.655  1.1085  0.1659  0.5203
  114TCq2    C5 1739   4.458   3.793   0.597 -0.6754  0.2134  1.3041
  114TCq2    C6 1740   4.575   3.819   0.529  0.0869  0.6064 -0.2100
  114TCq2    C7 1741   4.635   3.938   0.522  0.4161 -0.5026  0.5346
  114TCq2    C8 1742   4.671   3.711   0.530  0.5491  0.4802  0.1197
  114TCq2    O4 1743   0.060   3.739   0.505 -0.0163  0.0914  0.3580
  114TCq2    C9 1744   4.269   3.880   0.707  0.0779  0.3558  0.2928
  114TCq2    O5 1745   4.226   3.977   0.775 -0.4247 -0.6558 -0.4897
  114TCq2    O6 1746   4.225   3.762   0.714  0.5334 -0.4631  0.4385
  114TCq2    H2 1747   4.421   4.107   0.721  1.7393  0.1530  2.1540
  114TCq2    H3 1748   4.402   3.700   0.588  1.4111 -0.7786 -1.3192
  114TCq2    H4 1749   0.010   3.933   0.476  0.9852  0.0605  1.6850
  115TMC2    C1 1750   1.453   2.118   0.331 -0.4129 -0.7240 -0.1213
  115TMC2    C2 1751   1.576   2.145   0.396 -0.1806  0.6511 -0.2772
  115TMC2    C3 1752   1.629   2.268   0.376 -0.4625 -0.2219  0.0168
  115TMC2    C4 1753   1.384   2.213   0.260 -0.7291 -0.2134 -0.0802
  115TMC2    C5 1754   1.437   2.338   0.261 -0.7186 -0.7150 -0.8638
  115TMC2    C6 1755   1.557   2.368   0.318 -0.0724 -0.3468  0.5773
  115TMC2     C 1756   1.399   1.976   0.324  0.6315  0.2109  0.4494
  115TMC2     O 1757   1.301   1.964   0.252  0.5553  0.1676 -0.3057
  115TMC2     H 1758   1.638   2.075   0.452  2.1015  0.9029 -2.4982
  115TMC2    H1 1759   1.286   2.195   0.216  0.9055 -2.6405 -2.7213
  115TMC2    H2 1760   1.584   2.471   0.339  0.4070 -0.4772  0.6105
  115TMC2    C7 1761   1.366   2.444   0.201 -0.4607  0.6108  0.8105
  115TMC2    C8 1762   1.738   2.305   0.461 -0.5029  0.5769  0.3833
  115TMC2    O1 1763   1.240   2.440   0.203 -0.0595  0.4052 -0.8904
  115TMC2    O2 1764   1.770   2.237   0.559 -0.1602  0.2662  0.5544
  115TMC2    O5 1765   1.820   2.384   0.390  0.6880 -0.0340  1.0005
  115TMC2    H5 1766   1.777   2.409   0.305  0.3179 -0.8612  0.9412
  116MPD2     C 1767   1.449   1.480   0.451  0.8438 -0.0175  0.5187
  116MPD2    C1 1768   1.399   1.534   0.341 -0.1508 -0.4786  0.5376
  116MPD2    C2 1769   1.400   1.677   0.326 -0.4157  0.6566 -0.3483
  116MPD2    C3 1770   1.456   1.755   0.428  0.2101  0.4365 -0.3374
  116MPD2    C4 1771   1.515   1.691   0.538  0.0268 -0.1587  0.3263
  116MPD2    C5 1772   1.501   1.558   0.554  0.4455  0.3453 -0.1038
  116MPD2     H 1773   1.360   1.720   0.234  0.1174  1.0446 -0.4040
  116MPD2    H1 1774   1.576   1.753   0.604  0.4838  0.9856 -1.1617
  116MPD2    H2 1775   1.452   1.373   0.464 -0.4708 -0.0722  0.3709
  116MPD2    H3 1776   1.544   1.526   0.649 -1.2781  0.0664  0.5908
  116MPD2     N 1777   1.467   1.894   0.411 -0.0917 -0.5498 -0.4535
  116MPD2    H5 1778   1.521   1.944   0.480  1.1981 -0.3087 -1.6324
  116MPD2    N1 1779   1.345   1.445   0.242  0.0775  0.3787 -0.2651
  116MPD2    H7 1780   1.360   1.345   0.248  1.2358  0.6741  1.8674
  117TMC2    C1 1781   4.126   3.251  14.071 -0.6593 -0.2134 -0.6487
  117TMC2    C2 1782   4.131   3.153  14.162 -0.0954  0.3545  0.0830
  117TMC2    C3 1783   4.202   3.175  14.279  0.1546 -0.6528  0.9658
  117TMC2    C4 1784   4.189   3.369  14.091  0.3639 -0.2486 -0.4119
  117TMC2    C5 1785   4.259   3.385  14.202  0.5432 -0.4191 -0.2975
  117TMC2    C6 1786   4.269   3.288  14.304  0.5789  0.6828  0.9933
  117TMC2     C 1787   4.039   3.236  13.955  0.0132  0.4479  0.2836
  117TMC2     O 1788   4.043   3.132  13.893  0.1265  0.1724 -0.5803
  117TMC2     H 1789   4.060   3.072  14.160 -2.6999  2.6977 -2.1192
  117TMC2    H1 1790   4.179   3.456  14.028  0.3934  1.0367  1.3509
  117TMC2    H2 1791   4.324   3.312  14.394  1.1624  0.7192  0.6277
  117TMC2    C7 1792   4.356   3.493  14.193 -0.1333  0.4254 -0.6884
  117TMC2    C8 1793   4.193   3.085  14.388  1.0305 -0.1581  0.4752
  117TMC2    O1 1794   4.339   3.584  14.112  0.0634  0.2745  0.4026
  117TMC2    O2 1795   4.089   3.033  14.419 -0.8225  0.2155 -1.0236
  117TMC2    O5 1796   4.297   3.110  14.472  0.7114  0.2670  0.5873
  117TMC2    H5 1797   4.383   3.136  14.432  1.0189  1.4045  2.0122
  118MPD2     C 1798   4.704   3.487  14.318 -0.0242 -0.3455  0.0571
  118MPD2    C1 1799   4.596   3.541  14.260  0.1121 -0.5488 -0.7185
  118MPD2    C2 1800   4.610   3.668  14.208  0.4689 -0.2787 -0.5556
  118MPD2    C3 1801   0.010   3.732  14.209 -0.3172  0.2774  0.0083
  118MPD2    C4 1802   0.119   3.672  14.262 -0.3469 -0.4079 -0.6354
  118MPD2    C5 1803   0.102   3.553  14.329 -0.6113 -0.4311 -0.0689
  118MPD2     H 1804   4.517   3.714  14.176 -0.2901  0.6392  3.0218
  118MPD2    H1 1805   0.215   3.721  14.254 -0.8807  0.4969 -1.4814
  118MPD2    H2 1806   4.693   3.394  14.373 -2.9431 -1.0282 -1.7010
  118MPD2    H3 1807   0.191   3.509  14.372 -1.7621 -1.1220  1.5930
  118MPD2     N 1808   0.036   3.852  14.134 -0.1173  0.1091  0.2316
  118MPD2    H5 1809   0.134   3.874  14.120 -0.8740  3.9903  1.0917
  118MPD2    N1 1810   4.474   3.462  14.260  0.7280 -0.0995  0.3446
  118MPD2    H7 1811   4.481   3.370  14.304  0.2070  0.5273  1.7104
  119MPD2     C 1812   2.699   0.180  12.810  0.3433 -0.1443 -0.1377
  119MPD2    C1 1813   2.628   0.212  12.925 -0.5779  0.6144  0.0945
  119MPD2    C2 1814   2.510   0.144  12.949 -0.6242  0.0909 -0.1964
  119MPD2    C3 1815   2.486   0.031  12.868 -0.5377 -0.2693  0.2165
  119MPD2    C4 1816   2.553   4.721  12.752  0.1667 -0.3479  0.0118
  119MPD2    C5 1817   2.664   0.071  12.732  0.1662  0.3321 -0.7760
  119MPD2     H 1818   2.455   0.156  13.042  0.7766  0.7192  0.5527
  119MPD2    H1 1819   2.534   4.639  12.684 -2.5451 -0.1792  0.5787
  119MPD2    H2 1820   2.801   0.204  12.783  0.0413  0.4840 -0.6965
  119MPD2    H3 1821   2.722   0.042  12.645 -0.1320 -3.0199  0.1276
  119MPD2     N 1822   2.381   4.661  12.902 -0.0191  0.2037 -0.5217
  119MPD2    H5 1823   2.363   4.589  12.833  2.9338 -0.2379 -0.8547
  119MPD2    N1 1824   2.661   0.327  13.000 -0.1233 -0.3345  0.0033
  119MPD2    H7 1825   2.706   0.397  12.942  3.9213 -2.5985  0.3893
  120TCq2    C1 1826   2.291   4.664  13.009  0.7220  0.5709  0.4570
  120TCq2    O2 1827   2.279   0.026  13.094 -0.0053 -0.2253 -0.0515
  120TCq2    C2 1828   2.204   4.543  13.014 -0.6470  0.1801 -0.5170
  120TCq2    C3 1829   2.223   4.439  12.929  0.4478 -0.1857  0.4621
  120TCq2    C4 1830   2.163   4.318  12.956  0.5771  0.3598  0.8038
  120TCq2    C5 1831   2.086   4.295  13.071  0.2682  0.7500 -0.0753
  120TCq2    C6 1832   2.083   4.403  13.156  0.5301  0.3178  0.2007
  120TCq2    C7 1833   2.139   4.528  13.131  0.0132 -0.4957  0.3581
  120TCq2    C8 1834   1.987   4.404  13.264  0.1041  0.3604  0.2525
  120TCq2    O4 1835   1.875   4.357  13.250 -0.2777  1.1309 -0.3070
  120TCq2    C9 1836   2.189   4.206  12.873 -0.3320  0.2993 -0.6129
  120TCq2    O5 1837   2.253   4.236  12.766  0.6257 -0.6262  0.0363
  120TCq2    O6 1838   2.128   4.097  12.894  0.1886 -0.2093 -0.7126
  120TCq2    H2 1839   2.277   4.446  12.835  2.0259 -1.1244  1.3061
  120TCq2    H3 1840   2.039   4.200  13.096  0.4931 -0.3714 -3.9349
  120TCq2    H4 1841   2.128   4.610  13.201  0.3632  0.3923 -0.6363
  121TMC2    C1 1842   4.192   1.507  13.973  0.5672 -0.4731 -0.2146
  121TMC2    C2 1843   4.197   1.387  14.039  0.0127 -0.0256 -0.4388
  121TMC2    C3 1844   4.083   1.316  14.061  0.1917 -0.2503  0.5098
  121TMC2    C4 1845   4.075   1.570  13.942  0.4528 -0.7662 -0.0040
  121TMC2    C5 1846   3.965   1.489  13.964  0.1215  0.0577  0.4495
  121TMC2    C6 1847   3.961   1.368  14.026 -0.0458 -0.1333  0.1301
  121TMC2     C 1848   4.315   1.581  13.963  0.0212 -0.2088  0.9462
  121TMC2     O 1849   4.401   1.556  14.044 -0.1761  0.5040  0.4191
  121TMC2     H 1850   4.297   1.352  14.062 -0.2489  0.3094  1.1804
  121TMC2    H1 1851   4.074   1.664  13.887 -0.4090 -1.6656 -1.5444
  121TMC2    H2 1852   3.876   1.302  14.025  0.4782 -0.6982 -3.7596
  121TMC2    C7 1853   3.862   1.523  13.864  0.7847  0.1441  0.6915
  121TMC2    C8 1854   4.094   1.230  14.181 -0.0196  0.1353 -0.7652
  121TMC2    O1 1855   3.913   1.549  13.753 -0.3477  0.2032  0.3118
  121TMC2    O2 1856   4.198   1.232  14.244 -0.0946  0.1952  0.0832
  121TMC2    O5 1857   3.978   1.238  14.246 -0.1725  1.0152  0.1705
  121TMC2    H5 1858   3.908   1.200  14.189 -0.7407  0.6304  1.1222
  122MPD2     C 1859   4.517   1.793  13.925 -0.8807  0.1599 -0.2984
  122MPD2    C1 1860   4.414   1.762  13.833 -0.1431 -0.8201 -0.7772
  122MPD2    C2 1861   4.418   1.839  13.722 -0.5574  0.0698  0.4336
  122MPD2    C3 1862   4.519   1.933  13.700  0.4207 -0.0248  0.0409
  122MPD2    C4 1863   4.615   1.965  13.797 -0.8427  0.3719 -0.0778
  122MPD2    C5 1864   4.612   1.889  13.909  0.7638  0.3720  0.9067
  122MPD2     H 1865   4.355   1.817  13.637 -1.6749  2.7371  0.5799
  122MPD2    H1 1866   4.696   2.036  13.785  0.1750 -0.8395 -0.2703
  122MPD2    H2 1867   4.527   1.749  14.024 -1.3407  2.2865  0.6758
  122MPD2    H3 1868   4.690   1.910  13.982  0.2796 -0.7565  1.7370
  122MPD2     N 1869   4.533   2.007  13.579  0.0123  0.8234  0.5193
  122MPD2    H5 1870   4.617   2.064  13.571  0.2029  0.4968  0.1569
  122MPD2    N1 1871   4.315   1.666  13.854  0.3645 -0.5862  0.3968
  122MPD2    H7 1872   4.247   1.652  13.780  0.6916 -0.0215 -0.0077
  123MPD2     C 1873   2.736   4.253  10.701  0.1098 -0.1740  0.0252
  123MPD2    C1 1874   2.728   4.197  10.573 -0.4500  0.2812 -0.3668
  123MPD2    C2 1875   2.811   4.237  10.473  0.7402  0.2590 -1.0549
  123MPD2    C3 1876   2.902   4.339  10.491  0.2863  0.3805 -0.2292
  123MPD2    C4 1877   2.912   4.395  10.624  0.1545  0.4761 -0.1075
  123MPD2    C5 1878   2.837   4.343  10.724  0.5286  0.3492  0.0799
  123MPD2     H 1879   2.809   4.183  10.378 -1.1729  1.8335 -1.9174
  123MPD2    H1 1880   2.972   4.481  10.653 -0.5375  1.1563 -0.6765
  123MPD2    H2 1881   2.675   4.210  10.779  0.3713  1.6537  1.2130
  123MPD2    H3 1882   2.855   4.382  10.823 -0.6964 -2.9473  1.5959
  123MPD2     N 1883   2.982   4.382  10.389 -0.2425 -0.4132  0.6633
  123MPD2    H5 1884   2.954   4.335  10.303 -0.6609 -0.1128  0.6341
  123MPD2    N1 1885   2.634   4.089  10.548 -0.4279 -0.0830 -0.0715
  123MPD2    H7 1886   2.552   4.084  10.609 -0.7046  0.9360 -0.3583
  124TCq2    C1 1887   3.083   4.477  10.393 -0.0162 -0.2209 -0.1014
  124TCq2    O2 1888   3.129   4.549  10.483  0.3105 -0.2765 -0.6314
  124TCq2    C2 1889   3.138   4.496  10.262 -1.0328 -0.4963  0.2244
  124TCq2    C3 1890   3.168   4.627  10.236 -0.1683 -0.2259  0.3973
  124TCq2    C4 1891   3.173   4.662  10.107  0.2033  0.8839  0.4771
  124TCq2    C5 1892   3.156   4.571  10.009  0.0455 -0.3452  0.1970
  124TCq2    C6 1893   3.114   4.439  10.039 -0.1834  0.2787  0.1555
  124TCq2    C7 1894   3.105   4.401  10.171  0.3480 -0.4596 -0.4903
  124TCq2    C8 1895   3.059   4.347   9.940  0.2442  0.2164 -0.2449
  124TCq2    O4 1896   3.034   4.229   9.964  0.3950  0.1060  0.5103
  124TCq2    C9 1897   3.186   0.079  10.081 -0.1071 -0.3647  0.0238
  124TCq2    O5 1898   3.176   0.155  10.180 -0.1879  0.3982 -0.4643
  124TCq2    O6 1899   3.202   0.118   9.960 -0.1901 -0.8658  0.1552
  124TCq2    H2 1900   3.165   4.705  10.310  3.9952 -0.1967  0.5614
  124TCq2    H3 1901   3.173   4.599   9.906 -1.5004  0.7780  0.2492
  124TCq2    H4 1902   3.090   4.298  10.201 -1.2184  0.5479  2.1567
  125TMC2    C1 1903   1.866   1.240   9.519  0.3650 -0.2524  1.0331
  125TMC2    C2 1904   1.894   1.153   9.622 -0.9017 -0.0358 -0.4506
  125TMC2    C3 1905   2.009   1.169   9.687  0.6730  0.3888 -0.3246
  125TMC2    C4 1906   1.957   1.333   9.480 -0.2277  0.3181 -0.2149
  125TMC2    C5 1907   2.078   1.333   9.536 -0.3645  0.0988 -0.1094
  125TMC2    C6 1908   2.107   1.246   9.639  0.1593 -0.2276  0.0987
  125TMC2     C 1909   1.735   1.228   9.463  0.4802 -0.7478  0.6458
  125TMC2     O 1910   1.662   1.140   9.505  0.3821  0.3053  0.0974
  125TMC2     H 1911   1.818   1.083   9.656  1.0427 -2.6168 -1.4365
  125TMC2    H1 1912   1.940   1.405   9.400 -1.7569 -1.2779 -1.3377
  125TMC2    H2 1913   2.207   1.242   9.681  0.3692 -5.0346 -0.8777
  125TMC2    C7 1914   2.152   1.452   9.546 -0.3654  0.1837  0.6226
  125TMC2    C8 1915   2.034   1.074   9.793  0.3942  0.3924  0.7741
  125TMC2    O1 1916   2.099   1.551   9.502 -0.4789 -0.2411  0.1973
  125TMC2    O2 1917   1.970   0.971   9.792 -0.2509 -0.4786  0.3169
  125TMC2    O5 1918   2.066   1.141   9.905 -0.3763 -0.1122  0.6133
  125TMC2    H5 1919   2.093   1.233   9.884 -3.2986  0.6134 -0.0147
  126MPD1     C 1920   1.326   1.387   9.218  0.1750  0.1712 -0.4783
  126MPD1    C1 1921   1.408   1.497   9.227  0.0440  0.1625 -0.1336
  126MPD1    C2 1922   1.538   1.476   9.263 -0.4445 -0.3188 -0.1209
  126MPD1    C3 1923   1.576   1.351   9.322  0.0236  0.7012 -0.7968
  126MPD1    C4 1924   1.494   1.241   9.304 -0.2723  0.7032  0.8416
  126MPD1    C5 1925   1.367   1.266   9.259 -0.0807 -0.2027  0.0170
  126MPD1     H 1926   1.605   1.561   9.256  0.6660 -1.1726  0.1870
  126MPD1    H1 1927   1.508   1.136   9.326  0.2910  0.5649 -0.1878
  126MPD1    H2 1928   1.227   1.398   9.175 -0.7828 -2.3882  1.0790
  126MPD1    H3 1929   1.292   1.189   9.244 -2.8733  2.4972 -0.0838
  126MPD1     N 1930   1.701   1.335   9.383  0.8885  0.1530 -0.1129
  126MPD1    H5 1931   1.760   1.418   9.388  2.5287 -1.1245  1.4538
  126MPD1    N1 1932   1.369   1.620   9.171  0.1786 -0.1927 -0.3721
  126MPD1    H6 1933   1.413   1.695   9.224 -1.5641 -0.3234  1.2638
  126MPD1    H7 1934   1.268   1.630   9.163  0.5245  2.1057 -1.8425
  127MPD2     C 1935   4.175   0.574   9.279  0.5840  0.3968  0.1857
  127MPD2    C1 1936   4.248   0.612   9.393 -0.1190 -0.6320 -0.8409
  127MPD2    C2 1937   4.254   0.748   9.434 -0.5565 -0.3630 -0.5044
  127MPD2    C3 1938   4.189   0.844   9.363 -0.1495 -0.0845 -0.0056
  127MPD2    C4 1939   4.126   0.804   9.246  0.3233  1.0368  0.8805
  127MPD2    C5 1940   4.118   0.672   9.208 -0.3492 -0.4491 -0.0196
  127MPD2     H 1941   4.307   0.770   9.526 -0.5811 -0.3488 -0.4938
  127MPD2    H1 1942   4.073   0.874   9.183 -2.6884 -0.0789  2.2012
  127MPD2    H2 1943   4.160   0.473   9.245  0.5478 -0.4790  2.8391
  127MPD2    H3 1944   4.062   0.648   9.118 -0.6584 -1.6161  0.4787
  127MPD2     N 1945   4.202   0.980   9.404 -0.1583  0.3317  0.3057
  127MPD2    H5 1946   4.261   0.993   9.485  2.4089  0.5216 -1.6016
  127MPD2    N1 1947   4.295   0.506   9.473  0.0810 -0.3658  0.4502
  127MPD2    H7 1948   4.277   0.411   9.441 -0.2648 -0.4923  1.0342
  128TCq2    C1 1949   4.383   0.521   9.582  0.4661 -0.0942 -1.5966
  128TCq2    O2 1950   4.449   0.616   9.615 -0.0598 -0.0343 -0.5701
  128TCq2    C2 1951   4.430   0.394   9.635 -0.3257 -0.1552 -0.4920
  128TCq2    C3 1952   4.559   0.382   9.686  0.7101 -0.4102  0.3913
  128TCq2    C4 1953   4.599   0.263   9.743  0.9669  0.4174 -0.4519
  128TCq2    C5 1954   4.515   0.154   9.746 -0.3152  0.7149 -0.1525
  128TCq2    C6 1955   4.380   0.176   9.708  0.0259 -0.2980 -0.8517
  128TCq2    C7 1956   4.341   0.292   9.643  0.9303  0.1908  0.1568
  128TCq2    C8 1957   4.282   0.072   9.683 -0.3299  0.1781 -0.9375
  128TCq2    O4 1958   4.245   0.052   9.567 -0.1806  0.2019 -0.4648
  128TCq2    C9 1959   0.007   0.257   9.799 -0.3573  0.4343 -0.2164
  128TCq2    O5 1960   0.074   0.366   9.794  0.6395  0.6048 -0.4231
  128TCq2    O6 1961   0.055   0.143   9.802 -0.0140 -0.1019  0.6541
  128TCq2    H2 1962   4.630   0.463   9.676 -2.2829  2.1250 -0.2924
  128TCq2    H3 1963   4.560   0.059   9.771 -2.5083 -0.1697  0.4402
  128TCq2    H4 1964   4.238   0.289   9.607  1.3099  0.9979 -0.9962
  129MPD2     C 1965   2.411   1.618   1.467 -0.4579  0.1847 -0.0381
  129MPD2    C1 1966   2.530   1.550   1.444 -0.8724 -0.3974 -0.0870
  129MPD2    C2 1967   2.615   1.597   1.343 -0.3036 -0.2366 -0.9815
  129MPD2    C3 1968   2.583   1.714   1.276 -0.1358  0.0957  0.6095
  129MPD2    C4 1969   2.459   1.776   1.297 -0.3893  0.2492  0.2355
  129MPD2    C5 1970   2.369   1.718   1.385 -0.7167  0.0328  0.4467
  129MPD2     H 1971   2.706   1.543   1.319 -1.9263 -2.0013 -3.1198
  129MPD2    H1 1972   2.428   1.860   1.236 -0.2674 -2.0636 -3.0445
  129MPD2    H2 1973   2.342   1.589   1.545  0.2678  1.0983  0.9465
  129MPD2    H3 1974   2.272   1.760   1.409 -0.0316  1.0545  1.3863
  129MPD2     N 1975   2.661   1.754   1.172 -0.6207 -0.4942  0.0471
  129MPD2    H5 1976   2.751   1.709   1.164 -0.6206 -0.3173 -0.8764
  129MPD2    N1 1977   2.570   1.437   1.519  0.0821  0.4428 -0.3905
  129MPD2    H7 1978   2.664   1.400   1.507 -0.1624 -0.3444  0.1446
  130TCq2    C1 1979   2.479   1.349   1.567  1.0233  0.1120 -0.6049
  130TCq2    O2 1980   2.361   1.353   1.558  0.4196 -0.3895 -0.0607
  130TCq2    C2 1981   2.531   1.226   1.627 -0.8679  0.0080 -0.6320
  130TCq2    C3 1982   2.649   1.220   1.696  0.6560  0.3552  1.3913
  130TCq2    C4 1983   2.680   1.113   1.776  0.1456  0.2610 -0.1085
  130TCq2    C5 1984   2.600   1.007   1.780 -0.7777 -0.8812  0.1563
  130TCq2    C6 1985   2.487   1.008   1.704  0.2050  0.2556 -0.4054
  130TCq2    C7 1986   2.444   1.124   1.648 -0.2132 -0.4382  0.1636
  130TCq2    C8 1987   2.400   0.887   1.701 -0.2449  0.3324  0.5032
  130TCq2    O4 1988   2.280   0.901   1.692 -0.8289 -0.1561 -0.1827
  130TCq2    C9 1989   2.807   1.104   1.854 -0.3078  0.2555  0.5223
  130TCq2    O5 1990   2.850   0.990   1.883 -0.1497 -0.1473  0.4386
  130TCq2    O6 1991   2.887   1.198   1.838  0.6679  0.8222 -0.2117
  130TCq2    H2 1992   2.720   1.301   1.682 -1.1938  1.5032 -1.2910
  130TCq2    H3 1993   2.638   0.927   1.842  1.7742  1.2049  1.2362
  130TCq2    H4 1994   2.342   1.131   1.612 -1.1286 -0.0381  2.7914
  131MPD2     C 1995   2.406   4.253   9.655  0.0619 -0.3679  0.5714
  131MPD2    C1 1996   2.481   4.303   9.759  0.0302 -0.1014  1.1011
  131MPD2    C2 1997   2.482   4.225   9.877  0.1317 -0.3162 -0.5613
  131MPD2    C3 1998   2.401   4.114   9.894 -0.3868  0.1709  0.4118
  131MPD2    C4 1999   2.339   4.060   9.787  0.6657  0.5393 -0.3783
  131MPD2    C5 2000   2.343   4.129   9.669  0.4285  0.6500  0.3561
  131MPD2     H 2001   2.542   4.250   9.963 -1.2758  1.2823 -0.0331
  131MPD2    H1 2002   2.281   3.969   9.786 -1.8030  2.1085 -1.4942
  131MPD2    H2 2003   2.407   4.307   9.561  1.4333 -1.7463 -0.1994
  131MPD2    H3 2004   2.286   4.086   9.587  2.2202  0.6813 -0.9112
  131MPD2     N 2005   2.410   4.047  10.019  0.0488  0.3743  0.2298
  131MPD2    H5 2006   2.462   4.101  10.087 -0.1586 -1.4714  1.8574
  131MPD2    N1 2007   2.541   4.433   9.745  0.1562 -0.1506  0.1162
  131MPD2    H7 2008   2.549   4.473   9.652  0.5637  0.1334  0.2774
  132TCq2    C1 2009   2.644   0.186   9.597 -0.4318  0.4884 -0.1930
  132TCq2    O2 2010   2.603   0.143   9.492  0.2845 -0.1196  0.3080
  132TCq2    C2 2011   2.686   0.090   9.707  0.3152 -0.1081 -0.0462
  132TCq2    C3 2012   2.762   0.147   9.810 -0.2101 -0.8156 -0.0297
  132TCq2    C4 2013   2.787   0.072   9.916  0.4122 -0.5615  0.2007
  132TCq2    C5 2014   2.753   4.662   9.921 -0.3232  0.2821  0.0656
  132TCq2    C6 2015   2.681   4.611   9.816  0.3786  0.2602 -0.0512
  132TCq2    C7 2016   2.641   4.684   9.708 -0.0834  0.0568  0.7733
  132TCq2    C8 2017   2.613   4.491   9.848  0.1055 -0.5445  0.4946
  132TCq2    O4 2018   2.628   4.446   9.960  0.4885  0.5133  0.3198
  132TCq2    C9 2019   2.841   0.134  10.036  0.8314  0.3948 -0.2558
  132TCq2    O5 2020   2.890   0.247  10.014 -0.4847 -0.2552  0.3852
  132TCq2    O6 2021   2.857   0.071  10.140  0.0670 -0.0887  0.2279
  132TCq2    H2 2022   2.789   0.252   9.816  1.1544 -1.0724 -1.7712
  132TCq2    H3 2023   2.786   4.615  10.014 -3.5961  1.4390  1.8005
  132TCq2    H4 2024   2.572   4.655   9.630 -0.6510  0.1609  1.2423
  133MPD2     C 2025   1.934   1.493   9.103  0.0524  0.8385  0.0881
  133MPD2    C1 2026   2.006   1.379   9.127  0.5911 -0.0093 -0.2099
  133MPD2    C2 2027   1.939   1.263   9.092 -0.3673  0.3625  0.0376
  133MPD2    C3 2028   1.807   1.265   9.046  0.3559 -0.6529 -0.9236
  133MPD2    C4 2029   1.739   1.382   9.026 -0.2309 -0.1565 -0.7509
  133MPD2    C5 2030   1.806   1.499   9.057  0.2839 -0.1932 -0.1234
  133MPD2     H 2031   1.981   1.168   9.127  0.6369  0.6156 -0.4712
  133MPD2    H1 2032   1.636   1.380   8.995 -0.3645 -0.0782 -0.3103
  133MPD2    H2 2033   1.978   1.592   9.115  1.3004  0.3031 -0.1103
  133MPD2    H3 2034   1.753   1.593   9.052  0.2718 -0.3909 -3.7164
  133MPD2     N 2035   1.739   1.139   9.021  0.1788  0.4010  0.8085
  133MPD2    H5 2036   1.637   1.139   9.030  0.1675  0.3765  0.6767
  133MPD2    N1 2037   2.146   1.380   9.157 -0.2705  0.5699 -0.3953
  133MPD2    H7 2038   2.182   1.474   9.165  1.3058 -0.0821  0.2305
  134TCq2    C1 2039   2.226   1.271   9.165 -0.0238 -0.1536  0.6193
  134TCq2    O2 2040   2.198   1.155   9.162  0.2257 -0.5661 -0.0041
  134TCq2    C2 2041   2.373   1.301   9.154 -0.5032  0.0061 -0.6232
  134TCq2    C3 2042   2.470   1.203   9.155  0.5475  0.0715 -0.2147
  134TCq2    C4 2043   2.601   1.223   9.139  0.0447  0.2634 -0.1707
  134TCq2    C5 2044   2.643   1.352   9.121 -0.3014 -0.1128 -0.2848
  134TCq2    C6 2045   2.550   1.451   9.113  0.5704  0.3293 -0.3398
  134TCq2    C7 2046   2.414   1.433   9.132  0.3098  1.3057 -0.1070
  134TCq2    C8 2047   2.604   1.583   9.088 -0.3069  0.2071  0.6669
  134TCq2    O4 2048   2.725   1.592   9.058 -0.8032  0.8841  0.4165
  134TCq2    C9 2049   2.696   1.118   9.149 -0.5475  0.3690  0.8063
  134TCq2    O5 2050   2.671   1.006   9.200  0.1270  0.1007 -0.2575
  134TCq2    O6 2051   2.814   1.146   9.126 -0.2617 -0.0222 -0.2386
  134TCq2    H2 2052   2.453   1.096   9.151  1.2364 -0.0754  0.6427
  134TCq2    H3 2053   2.749   1.366   9.104  0.0304 -0.8613  1.1811
  134TCq2    H4 2054   2.346   1.517   9.126 -0.0519  0.9969 -0.3682
  135MPD2     C 2055   3.996   2.144   9.747 -0.0449 -0.0603 -0.7049
  135MPD2    C1 2056   3.961   2.010   9.738 -0.3005 -0.2040 -0.1346
  135MPD2    C2 2057   4.024   1.925   9.647 -0.3519 -0.2744 -0.3304
  135MPD2    C3 2058   4.124   1.976   9.562  0.2885  0.3356 -0.2387
  135MPD2    C4 2059   4.162   2.106   9.585 -0.2710  0.7189 -0.0221
  135MPD2    C5 2060   4.104   2.187   9.673  0.3724 -0.5912  0.0737
  135MPD2     H 2061   4.001   1.819   9.655 -2.7355  0.2324 -0.3246
  135MPD2    H1 2062   4.250   2.153   9.541  0.6819 -0.7202  0.3309
  135MPD2    H2 2063   3.936   2.214   9.803 -2.3661 -0.3499 -2.8085
  135MPD2    H3 2064   4.151   2.284   9.692 -0.9477  0.7709 -3.6246
  135MPD2     N 2065   4.179   1.899   9.468 -0.3059  0.1358 -0.6834
  135MPD2    H5 2066   4.137   1.807   9.459 -0.1868  0.0383 -0.2121
  135MPD2    N1 2067   3.851   1.949   9.807 -0.7624 -0.3675  0.2301
  135MPD2    H7 2068   3.839   1.849   9.816 -0.3678 -0.4876 -0.5716
  136TCq2    C1 2069   3.758   2.022   9.880 -0.0963  0.0709  0.3200
  136TCq2    O2 2070   3.726   2.140   9.866 -0.1278 -0.2173 -0.3138
  136TCq2    C2 2071   3.672   1.941   9.970  0.3439 -0.3322  0.0176
  136TCq2    C3 2072   3.543   1.977   9.996  1.0722  0.8701 -0.0735
  136TCq2    C4 2073   3.476   1.909  10.095  0.0116 -0.5175  0.2442
  136TCq2    C5 2074   3.533   1.815  10.178 -0.1131 -0.1865 -0.5101
  136TCq2    C6 2075   3.661   1.795  10.153  0.4137 -0.2502  1.0241
  136TCq2    C7 2076   3.738   1.850  10.054 -0.4392  0.4874  0.5236
  136TCq2    C8 2077   3.743   1.718  10.254 -0.5891  0.3325  0.1081
  136TCq2    O4 2078   3.859   1.766  10.270  0.0617 -0.1903 -0.0215
  136TCq2    C9 2079   3.337   1.948  10.117  0.1289  0.7278 -0.0384
  136TCq2    O5 2080   3.270   1.885  10.209  0.0626  0.1534 -0.3460
  136TCq2    O6 2081   3.283   2.042  10.052 -0.0204 -0.2662 -0.4328
  136TCq2    H2 2082   3.506   2.062   9.940 -1.3307  0.5589  1.0591
  136TCq2    H3 2083   3.483   1.778  10.267  0.4144  0.0042 -0.1296
  136TCq2    H4 2084   3.846   1.842  10.058 -0.5178  0.0430  1.9320
  137MPD2     C 2085   3.968   0.357   9.501  0.1026 -0.1195 -0.0883
  137MPD2    C1 2086   3.938   0.466   9.579 -0.8742  0.5326 -0.3713
  137MPD2    C2 2087   3.919   0.439   9.714 -0.2720  0.5690  0.1580
  137MPD2    C3 2088   3.931   0.313   9.773 -0.3991  0.3195  0.2319
  137MPD2    C4 2089   3.954   0.209   9.688  0.0169 -0.4329 -0.9185
  137MPD2    C5 2090   3.965   0.230   9.552 -0.8214 -0.3577  0.0492
  137MPD2     H 2091   3.902   0.522   9.782  0.3277 -0.2526  1.3313
  137MPD2    H1 2092   3.968   0.109   9.729  2.7662  0.2352 -0.2211
  137MPD2    H2 2093   3.997   0.357   9.396 -0.3681 -1.9888 -0.2119
  137MPD2    H3 2094   3.965   0.147   9.482 -1.5915  0.8490 -1.3758
  137MPD2     N 2095   3.929   0.305   9.917  0.3065 -0.3690 -0.5637
  137MPD2    H5 2096   3.916   0.396   9.962  2.2406 -0.2679 -0.2117
  137MPD2    N1 2097   3.923   0.592   9.523  0.3128  0.2910 -0.1300
  137MPD2    H7 2098   3.935   0.589   9.422 -2.2179 -0.6829 -0.3819
  138TCq2    C1 2099   3.893   0.714   9.590  0.2374  0.1392  0.0796
  138TCq2    O2 2100   3.886   0.736   9.710  0.0145 -0.5919  0.5035
  138TCq2    C2 2101   3.862   0.821   9.496 -0.3051 -0.6166 -0.3143
  138TCq2    C3 2102   3.821   0.781   9.368 -0.0243 -0.0225  0.0158
  138TCq2    C4 2103   3.727   0.859   9.303  0.4978  0.8186  0.0702
  138TCq2    C5 2104   3.694   0.977   9.365 -0.3707  0.1750 -1.0371
  138TCq2    C6 2105   3.744   1.018   9.483 -0.3156 -0.1468 -0.2162
  138TCq2    C7 2106   3.834   0.941   9.550  0.4533  0.2912  0.0166
  138TCq2    C8 2107   3.700   1.140   9.544 -0.8691  0.1081  0.6230
  138TCq2    O4 2108   3.783   1.221   9.578 -0.2301 -0.5959 -0.1996
  138TCq2    C9 2109   3.685   0.826   9.168  0.4755 -0.1465 -0.0172
  138TCq2    O5 2110   3.712   0.710   9.131 -0.0110 -0.1029  0.3130
  138TCq2    O6 2111   3.618   0.917   9.108  0.2554 -0.1996  0.1990
  138TCq2    H2 2112   3.846   0.688   9.318 -0.8434 -1.2702  1.9105
  138TCq2    H3 2113   3.625   1.045   9.316 -0.2161 -0.7947 -2.5913
  138TCq2    H4 2114   3.862   0.970   9.651  0.2284  2.0725 -0.4409
  139TMC2    C1 2115   4.239   4.281  13.173  0.4823 -0.1228 -0.2358
  139TMC2    C2 2116   4.215   4.317  13.045  0.4477 -0.1861  0.2911
  139TMC2    C3 2117   4.198   4.451  13.026 -0.2283 -0.2421  1.0276
  139TMC2    C4 2118   4.232   4.366  13.282 -0.6841 -0.5497  0.2299
  139TMC2    C5 2119   4.220   4.499  13.254  0.5642 -0.2799  0.2727
  139TMC2    C6 2120   4.205   4.547  13.122  0.0986  0.0464  1.1061
  139TMC2     C 2121   4.291   4.145  13.177 -0.2683 -0.7408 -0.3077
  139TMC2     O 2122   4.297   4.077  13.075  0.1747  0.3630  0.4416
  139TMC2     H 2123   4.224   4.251  12.960  0.2801 -0.4512  0.4750
  139TMC2    H1 2124   4.227   4.331  13.385  1.2521 -1.4052  0.0345
  139TMC2    H2 2125   4.201   4.652  13.094  1.6662 -0.5216 -1.2472
  139TMC2    C7 2126   4.214   4.604  13.361  0.5194 -0.1284  0.2297
  139TMC2    C8 2127   4.190   4.488  12.887 -0.3830  0.0281 -0.3021
  139TMC2    O1 2128   4.147   4.706  13.335  0.3458 -0.3134 -0.2991
  139TMC2    O2 2129   4.277   4.442  12.815 -0.0475 -0.1383 -0.0626
  139TMC2    O5 2130   4.137   4.612  12.879  0.2212  0.1541  0.1693
  139TMC2    H5 2131   4.063   4.617  12.943 -0.7130  0.6818 -0.9439
  140MPD2     C 2132   4.408   3.958  13.471 -0.5654  0.5539 -0.3320
  140MPD2    C1 2133   4.392   3.980  13.334  0.2272 -0.4102  0.1854
  140MPD2    C2 2134   4.442   3.884  13.248  0.1658 -0.2432  0.0035
  140MPD2    C3 2135   4.509   3.775  13.295 -0.5370 -0.5338  0.2580
  140MPD2    C4 2136   4.527   3.756  13.429 -0.0429  0.8181 -0.2166
  140MPD2    C5 2137   4.470   3.843  13.513  0.5951 -0.1858  0.3123
  140MPD2     H 2138   4.428   3.903  13.142  0.6810  1.7226  0.2835
  140MPD2    H1 2139   4.579   3.671  13.472  0.4123  0.3797 -1.6355
  140MPD2    H2 2140   4.368   4.027  13.544  1.0193 -0.2030  1.2354
  140MPD2    H3 2141   4.492   3.820  13.617  2.3937 -2.0344 -0.4889
  140MPD2     N 2142   4.562   3.689  13.196  0.7646  0.3781 -0.0826
  140MPD2    H5 2143   4.551   3.709  13.097 -0.6964 -2.0979 -0.4229
  140MPD2    N1 2144   4.332   4.104  13.305 -0.6441 -0.6377  0.6950
  140MPD2    H7 2145   4.309   4.157  13.388  3.8341  0.4915  1.2416
  141TCq2    C1 2146   0.233   0.942  14.818  0.2493  0.0023 -0.4141
  141TCq2    O2 2147   0.237   1.017  14.720  0.0573  0.4757  0.5862
  141TCq2    C2 2148   0.194   1.009  14.942 -0.6034 -0.3120 -0.2522
  141TCq2    C3 2149   0.184   0.930  15.053  0.7608  0.5588 -0.4736
  141TCq2    C4 2150   0.132   0.987  15.165 -0.0939  0.1983  0.9418
  141TCq2    C5 2151   0.069   1.109  15.159  0.9303  0.7231  0.2136
  141TCq2    C6 2152   0.078   1.181  15.037 -0.4009 -0.8278 -0.4838
  141TCq2    C7 2153   0.146   1.134  14.934  0.3144 -0.2136  0.5887
  141TCq2    C8 2154   0.014   1.316  15.027  0.1876  0.5462 -0.7917
  141TCq2    O4 2155   4.638   1.331  15.094  0.6733 -0.2639 -0.3530
  141TCq2    C9 2156   0.107   0.905  15.281 -0.7242 -0.0231 -0.0201
  141TCq2    O5 2157   0.030   0.953  15.370 -0.0493  0.0241  0.0610
  141TCq2    O6 2158   0.173   0.798  15.293 -0.1519  0.4012  0.4460
  141TCq2    H2 2159   0.207   0.824  15.058  0.0373  0.4377  0.3362
  141TCq2    H3 2160   4.717   1.131  15.234 -0.1716  0.4174 -0.8114
  141TCq2    H4 2161   0.148   1.181  14.836 -0.2346 -0.1539  0.6041
  142MPD2     C 2162   2.443   3.476  10.411  0.4801  0.5543 -0.4668
  142MPD2    C1 2163   2.409   3.405  10.295  0.0725 -0.2031  0.2327
  142MPD2    C2 2164   2.446   3.451  10.168  0.0038 -0.4972 -0.0664
  142MPD2    C3 2165   2.512   3.579  10.159  0.4856  0.1835  0.1831
  142MPD2    C4 2166   2.546   3.651  10.275 -0.7272 -0.6992  0.5156
  142MPD2    C5 2167   2.501   3.604  10.400 -0.0014 -0.0527  0.3075
  142MPD2     H 2168   2.431   3.389  10.081 -0.9850 -0.0113 -0.2393
  142MPD2    H1 2169   2.600   3.744  10.265 -1.2460 -0.2074  2.3123
  142MPD2    H2 2170   2.405   3.440  10.505  0.4863 -0.5522 -0.8946
  142MPD2    H3 2171   2.515   3.655  10.494  0.5226  1.7742 -0.7626
  142MPD2     N 2172   2.540   3.635  10.036 -0.3768  0.6355 -0.1145
  142MPD2    H5 2173   2.594   3.721  10.031 -0.5741  0.8832  2.3892
  142MPD2    N1 2174   2.339   3.285  10.314 -0.5547 -0.4609  0.5213
  142MPD2    H7 2175   2.310   3.254  10.406 -2.1709  1.6279  0.7176
  143TCq2    C1 2176   2.483   3.589   9.913 -0.2534  0.0547 -0.5397
  143TCq2    O2 2177   2.401   3.501   9.882 -0.0500 -0.6088  0.4713
  143TCq2    C2 2178   2.520   3.675   9.810 -0.0958  0.4010  0.0467
  143TCq2    C3 2179   2.461   3.669   9.685 -0.1910 -0.0709  0.0005
  143TCq2    C4 2180   2.503   3.746   9.576  0.5080  0.1602  0.3210
  143TCq2    C5 2181   2.578   3.849   9.582  0.8466 -0.2222 -0.2100
  143TCq2    C6 2182   2.618   3.874   9.712 -0.1415  0.8209 -0.3546
  143TCq2    C7 2183   2.601   3.792   9.818  0.2351 -0.1889 -0.0156
  143TCq2    C8 2184   2.707   3.984   9.738 -0.3712 -0.0724 -0.7186
  143TCq2    O4 2185   2.786   3.969   9.834 -0.2094 -0.0143 -0.3386
  143TCq2    C9 2186   2.449   3.710   9.449  0.1170 -0.3284  0.0058
  143TCq2    O5 2187   2.446   3.802   9.362  0.5696  0.0907 -0.0900
  143TCq2    O6 2188   2.429   3.581   9.439 -0.7306 -0.0733 -0.3005
  143TCq2    H2 2189   2.388   3.590   9.669 -1.9735  1.8130 -1.1437
  143TCq2    H3 2190   2.617   3.902   9.495 -1.4982  2.5009  0.3861
  143TCq2    H4 2191   2.644   3.821   9.913  1.5476 -1.4549 -0.2272
  144MPD2     C 2192   0.389   3.528   0.346 -0.5388  0.3630  0.3067
  144MPD2    C1 2193   0.413   3.396   0.335 -0.2111 -0.7346  0.0459
  144MPD2    C2 2194   0.524   3.343   0.402  0.5913  0.0251 -0.1978
  144MPD2    C3 2195   0.615   3.427   0.461 -0.7157  0.5732 -0.0258
  144MPD2    C4 2196   0.590   3.563   0.476  0.7008  0.2091  0.0069
  144MPD2    C5 2197   0.475   3.610   0.422 -0.1351  0.3828 -0.6551
  144MPD2     H 2198   0.538   3.236   0.398  3.7301  0.5457 -3.4573
  144MPD2    H1 2199   0.657   3.628   0.530 -0.4171  2.7121 -1.6263
  144MPD2    H2 2200   0.305   3.576   0.297 -0.0113  0.6875 -0.2766
  144MPD2    H3 2201   0.448   3.715   0.428 -0.0661  0.2867  1.3003
  144MPD2     N 2202   0.722   3.382   0.539 -0.6291 -0.2526 -0.7009
  144MPD2    H5 2203   0.769   3.446   0.602 -3.0172  0.8347 -0.0241
  144MPD2    N1 2204   0.323   3.305   0.271 -0.3387  0.0073  0.0192
  144MPD2    H7 2205   0.354   3.209   0.263  0.9759  0.3938  0.4402
  145TCq2    C1 2206   0.786   3.263   0.533  0.0564 -0.1796 -0.0370
  145TCq2    O2 2207   0.768   3.162   0.468 -0.3423 -0.7046  0.3050
  145TCq2    C2 2208   0.886   3.265   0.636  0.1534 -0.2329  0.5789
  145TCq2    C3 2209   0.986   3.180   0.609 -0.2010 -0.5887 -0.2866
  145TCq2    C4 2210   1.076   3.166   0.708  0.4877 -0.1157  0.1825
  145TCq2    C5 2211   1.052   3.220   0.830  0.0301 -0.2133  0.4197
  145TCq2    C6 2212   0.936   3.292   0.854 -0.7322 -1.1421  0.6483
  145TCq2    C7 2213   0.845   3.314   0.756 -0.2574 -0.6015 -0.1591
  145TCq2    C8 2214   0.903   3.312   0.990 -0.2921  0.2106  0.0128
  145TCq2    O4 2215   0.958   3.244   1.079  0.0857  0.5169  0.3375
  145TCq2    C9 2216   1.185   3.065   0.689  0.5126 -0.3503 -0.6958
  145TCq2    O5 2217   1.210   3.018   0.575  1.0968 -0.1488  0.4456
  145TCq2    O6 2218   1.244   3.032   0.790 -0.0472  0.0751  0.0855
  145TCq2    H2 2219   1.003   3.142   0.509  0.0546 -4.7114  1.3208
  145TCq2    H3 2220   1.126   3.207   0.908 -0.2143 -0.1638  0.6610
  145TCq2    H4 2221   0.741   3.333   0.779  0.5950  4.1484 -0.2367
  146TMC2    C1 2222   1.390   2.048  12.627 -0.4431  0.1525 -0.2598
  146TMC2    C2 2223   1.448   2.075  12.509 -0.6584  0.5714  0.1820
  146TMC2    C3 2224   1.426   1.989  12.406 -0.4706  0.6655  0.1839
  146TMC2    C4 2225   1.332   1.921  12.650 -0.3030 -0.2809 -0.2479
  146TMC2    C5 2226   1.312   1.842  12.540 -0.1714  0.5061  0.4319
  146TMC2    C6 2227   1.369   1.871  12.417  0.2056  0.8590  0.0320
  146TMC2     C 2228   1.380   2.151  12.731 -0.4608 -0.0294 -0.4491
  146TMC2     O 2229   1.397   2.266  12.683  0.3909  0.2082  0.3433
  146TMC2     H 2230   1.512   2.162  12.498 -1.1418  0.7559 -1.0840
  146TMC2    H1 2231   1.292   1.895  12.747 -0.8332 -0.6506 -0.5735
  146TMC2    H2 2232   1.375   1.804  12.333  0.0612  1.7391 -0.6810
  146TMC2    C7 2233   1.291   1.701  12.556 -0.0024 -0.1449 -0.5444
  146TMC2    C8 2234   1.501   2.015  12.290  0.1312  0.0244  0.1747
  146TMC2    O1 2235   1.272   1.626  12.455  1.1617  0.1147  0.6960
  146TMC2    O2 2236   1.590   2.100  12.281 -0.9225 -0.7638 -0.3946
  146TMC2    O5 2237   1.435   1.969  12.177 -0.2653  0.4237 -0.2867
  146TMC2    H5 2238   1.358   1.912  12.198  0.3772 -0.8459 -1.3817
  147MPD2     C 2239   1.337   1.278  12.842 -0.2271 -0.2656  0.2973
  147MPD2    C1 2240   1.417   1.375  12.893 -0.2672  0.8045  0.0823
  147MPD2    C2 2241   1.407   1.503  12.843 -0.5971  0.4963 -0.4852
  147MPD2    C3 2242   1.330   1.527  12.729 -0.1620  0.5800  0.3603
  147MPD2    C4 2243   1.257   1.428  12.665  0.5583 -0.9611  0.0830
  147MPD2    C5 2244   1.260   1.303  12.726  1.0360 -0.1960  0.5556
  147MPD2     H 2245   1.480   1.580  12.866 -1.4199  1.0945  0.1137
  147MPD2    H1 2246   1.197   1.443  12.576  1.3309  4.2940  0.4517
  147MPD2    H2 2247   1.354   1.175  12.874 -1.5767 -0.1263  1.4810
  147MPD2    H3 2248   1.213   1.217  12.679  0.7027 -0.7641  1.9232
  147MPD2     N 2249   1.336   1.657  12.677  0.1319  0.4279  0.0562
  147MPD2    H5 2250   1.393   1.721  12.732 -0.1818  1.5969 -0.9651
  147MPD2    N1 2251   1.512   1.342  12.993 -0.4732  0.8457  0.6026
  147MPD2    H7 2252   1.541   1.244  12.990 -2.3396  0.3643 -1.6102
  148MPD2     C 2253   1.978   0.409  10.515  0.2504  0.1477 -0.3625
  148MPD2    C1 2254   2.018   0.307  10.432 -0.3114 -0.7542 -0.4538
  148MPD2    C2 2255   1.921   0.260  10.345 -0.7028 -0.6984  0.6542
  148MPD2    C3 2256   1.789   0.307  10.347  0.0296  0.4809 -0.3339
  148MPD2    C4 2257   1.748   0.402  10.439 -0.2562  0.0445 -0.1180
  148MPD2    C5 2258   1.848   0.456  10.517  0.0776 -0.0660  0.6118
  148MPD2     H 2259   1.953   0.193  10.266  1.0464  0.9039  0.0032
  148MPD2    H1 2260   1.650   0.450  10.442  0.6001  1.7927  0.2438
  148MPD2    H2 2261   2.045   0.454  10.588  0.5303 -2.4672  0.9879
  148MPD2    H3 2262   1.814   0.531  10.587 -0.3540  0.8714 -0.5967
  148MPD2     N 2263   1.699   0.257  10.250  0.6717  0.3317 -0.4047
  148MPD2    H5 2264   1.730   0.171  10.206  0.4042  1.3687 -2.6324
  148MPD2    N1 2265   2.147   0.257  10.427  0.1673  0.0285 -0.2601
  148MPD2    H7 2266   2.156   0.183  10.359  0.6849 -0.4804  0.3631
  149TCq2    C1 2267   2.247   0.287  10.512  0.1054  0.1101  0.1463
  149TCq2    O2 2268   2.263   0.382  10.586 -0.1500  0.3026 -0.2846
  149TCq2    C2 2269   2.372   0.208  10.480 -0.9997 -0.1191  0.1093
  149TCq2    C3 2270   2.487   0.287  10.481  0.1642 -0.2311  0.5693
  149TCq2    C4 2271   2.592   0.254  10.396 -0.4309  0.0423  1.1420
  149TCq2    C5 2272   2.569   0.168  10.291 -0.2029  0.3705 -0.0443
  149TCq2    C6 2273   2.454   0.092  10.289 -0.2739  0.5797 -0.3984
  149TCq2    C7 2274   2.359   0.110  10.381  0.0137 -0.3984  0.2936
  149TCq2    C8 2275   2.441   4.714  10.191 -0.1746 -0.3771 -0.1827
  149TCq2    O4 2276   2.375   4.613  10.225 -0.4931 -1.0458 -0.0356
  149TCq2    C9 2277   2.694   0.354  10.392  0.0394  0.0447  0.0546
  149TCq2    O5 2278   2.688   0.459  10.470  0.4970 -0.1354 -0.0115
  149TCq2    O6 2279   2.793   0.332  10.317  0.3011 -0.1193 -0.1780
  149TCq2    H2 2280   2.512   0.352  10.564  0.8259 -1.8802  1.6496
  149TCq2    H3 2281   2.644   0.149  10.215  0.3926  1.6318  0.2331
  149TCq2    H4 2282   2.268   0.053  10.377 -0.6972  0.7298  0.2961
  150MPD2     C 2283   3.190   0.234  12.052  0.1265  0.8232  0.2334
  150MPD2    C1 2284   3.271   0.162  11.965 -0.0147 -0.0573  0.0812
  150MPD2    C2 2285   3.408   0.181  11.973  0.5459 -0.0661  0.7412
  150MPD2    C3 2286   3.469   0.258  12.069 -0.4775  0.4107  0.7421
  150MPD2    C4 2287   3.390   0.320  12.161 -0.4186 -0.0615  0.6618
  150MPD2    C5 2288   3.255   0.302  12.153  0.0270 -0.1398 -0.2245
  150MPD2     H 2289   3.482   0.138  11.905 -1.0038  1.6617 -2.0334
  150MPD2    H1 2290   3.418   0.381  12.246  0.4102 -0.6813  0.8337
  150MPD2    H2 2291   3.082   0.232  12.048  0.1209  2.0849 -0.2536
  150MPD2    H3 2292   3.197   0.347  12.233  0.6487  0.3997 -0.0725
  150MPD2     N 2293   3.606   0.266  12.065 -0.8680  0.2732  0.5124
  150MPD2    H5 2294   3.648   0.222  11.984  1.6192  1.8381  0.9364
  150MPD2    N1 2295   3.213   0.069  11.875 -0.1193 -0.4409  1.0330
  150MPD2    H7 2296   3.112   0.063  11.873 -0.3082  2.6356  1.9878
  151TCq2    C1 2297   3.689   0.329  12.164 -0.3840 -0.3310 -0.1146
  151TCq2    O2 2298   3.668   0.393  12.267  0.1661 -0.0411  0.1710
  151TCq2    C2 2299   3.832   0.307  12.135  0.8068 -0.2944 -0.0105
  151TCq2    C3 2300   3.876   0.220  12.035 -0.6273  0.6773  0.2230
  151TCq2    C4 2301   4.014   0.219  12.009  0.0306 -0.2807 -0.6691
  151TCq2    C5 2302   4.103   0.289  12.087  0.0339 -0.2003  0.1599
  151TCq2    C6 2303   4.056   0.379  12.173  0.0513  0.1203 -0.1625
  151TCq2    C7 2304   3.926   0.391  12.202 -0.7278  0.5251 -0.2480
  151TCq2    C8 2305   4.148   0.425  12.273  0.2878  0.0349  0.0319
  151TCq2    O4 2306   4.106   0.524  12.334  0.0008  0.1408 -0.1632
  151TCq2    C9 2307   4.048   0.131  11.898 -0.1776 -1.0031  0.8993
  151TCq2    O5 2308   3.952   0.073  11.844 -0.3057 -0.6591  0.4829
  151TCq2    O6 2309   4.163   0.141  11.844 -0.0877  0.5786  0.6188
  151TCq2    H2 2310   3.811   0.147  11.988 -1.6909  0.4359  2.0563
  151TCq2    H3 2311   4.207   0.277  12.059  0.3169 -0.6430  1.4037
  151TCq2    H4 2312   3.890   0.469  12.267 -0.8351  0.8024 -0.6407
  152MPD2     C 2313   3.198   0.267  12.591 -0.3422 -0.0744 -0.0359
  152MPD2    C1 2314   3.266   0.170  12.516 -0.7136 -0.0082  0.1534
  152MPD2    C2 2315   3.194   0.084  12.436  0.0121  0.2903  0.1370
  152MPD2    C3 2316   3.055   0.100  12.417 -0.0528  0.6333 -0.4761
  152MPD2    C4 2317   2.993   0.196  12.493 -0.1678 -0.1709 -0.1837
  152MPD2    C5 2318   3.061   0.284  12.573  0.1226 -0.6523  0.6369
  152MPD2     H 2319   3.236   4.723  12.382 -0.2489 -0.6110  1.3443
  152MPD2    H1 2320   2.886   0.207  12.496 -0.1820 -0.6243  1.0201
  152MPD2    H2 2321   3.254   0.338  12.651 -0.0617 -0.5031  0.2060
  152MPD2    H3 2322   3.008   0.354  12.636 -0.4256 -0.3463 -0.1572
  152MPD2     N 2323   2.982   0.013  12.330 -0.1915 -0.7864  0.0571
  152MPD2    H5 2324   3.039   4.670  12.279  0.2076  0.2073 -0.7817
  152MPD2    N1 2325   3.413   0.171  12.513  0.0736  0.2847 -0.0028
  152MPD2    H7 2326   3.467   0.233  12.572  1.8571 -0.1137 -1.1965
  153TCq2    C1 2327   3.499   0.078  12.448  0.0894 -0.8788  0.7878
  153TCq2    O2 2328   3.479   4.704  12.381 -0.4138 -0.4706  0.4187
  153TCq2    C2 2329   3.639   0.114  12.451  0.8970 -0.0773  0.9801
  153TCq2    C3 2330   3.723   0.039  12.376  0.7161  0.2011 -0.1517
  153TCq2    C4 2331   3.853   0.074  12.380 -0.2863  0.0405 -0.6213
  153TCq2    C5 2332   3.891   0.172  12.461 -0.2843 -1.3687 -0.0386
  153TCq2    C6 2333   3.803   0.251  12.533 -1.3021  0.8801  0.6686
  153TCq2    C7 2334   3.672   0.232  12.514  0.2942  0.1297 -0.1803
  153TCq2    C8 2335   3.839   0.371  12.609  0.6162  0.0150 -0.0360
  153TCq2    O4 2336   3.768   0.468  12.605 -0.1332 -0.5358  0.7458
  153TCq2    C9 2337   3.955   4.720  12.312 -0.2103 -0.4338  0.4706
  153TCq2    O5 2338   4.074   0.027  12.331  0.1950  0.3395  0.0349
  153TCq2    O6 2339   3.918   4.608  12.275 -0.2517  0.6341 -0.3328
  153TCq2    H2 2340   3.699   4.666  12.335  0.6564 -0.0625  0.5027
  153TCq2    H3 2341   3.998   0.190  12.468 -0.4949 -1.5353  3.5539
  153TCq2    H4 2342   3.606   0.309  12.552  0.6111 -0.2680  1.1579
  154MPD2     C 2343   0.441   0.017  17.425  0.1823  0.5858 -0.8704
  154MPD2    C1 2344   0.483   4.710  17.549  0.4222 -0.1373  0.4842
  154MPD2    C2 2345   0.495   0.087  17.645  0.5480 -0.4296  0.1769
  154MPD2    C3 2346   0.479   0.217  17.612  0.6622 -0.0269 -0.3389
  154MPD2    C4 2347   0.448   0.249  17.481  0.0160 -0.0392 -0.4112
  154MPD2    C5 2348   0.432   0.149  17.388  0.3286 -0.6724 -0.3897
  154MPD2     H 2349   0.515   0.061   0.052 -0.6566  1.6990  0.9427
  154MPD2    H1 2350   0.442   0.349  17.439  1.0139  0.3785  0.4433
  154MPD2    H2 2351   0.439   4.660  17.353  2.6610  1.5257 -1.9901
  154MPD2    H3 2352   0.398   0.176  17.288  1.4463 -0.3761 -0.6891
  154MPD2     N 2353   0.471   0.312   0.018  0.2551  0.4223 -0.0169
  154MPD2    H5 2354   0.485   0.280   0.113 -1.2476 -0.4096 -0.0721
  154MPD2    N1 2355   0.482   4.574  17.589  0.6481  1.3213  0.0801
  154MPD2    H7 2356   0.446   4.507  17.521  1.0457  1.3808 -0.1974
  155TCq2    C1 2357   0.522   4.529   0.017  0.6301  0.2153 -0.6562
  155TCq2    O2 2358   0.589   4.591   0.101  0.0673 -0.0734 -0.0362
  155TCq2    C2 2359   0.504   4.391   0.025  0.2617 -0.2154 -0.3341
  155TCq2    C3 2360   0.382   4.343   0.022 -0.2720 -0.2482  0.2066
  155TCq2    C4 2361   0.363   4.219   0.064  0.3379 -0.1288 -0.6546
  155TCq2    C5 2362   0.468   4.145   0.115 -0.2780  0.2061 -0.2216
  155TCq2    C6 2363   0.590   4.206   0.132 -0.0807  0.4391  0.7412
  155TCq2    C7 2364   0.610   4.325   0.079 -0.0614 -0.0194  0.0994
  155TCq2    C8 2365   0.698   4.134   0.206  0.4404  1.1148  0.1529
  155TCq2    O4 2366   0.676   4.019   0.235  0.0349  0.6453 -0.7178
  155TCq2    C9 2367   0.238   4.161   0.055 -0.4854 -0.1611  0.2378
  155TCq2    O5 2368   0.139   4.233   0.028 -0.4638 -0.0254  0.2238
  155TCq2    O6 2369   0.236   4.041   0.095  0.0980 -0.4599  0.4634
  155TCq2    H2 2370   0.292   4.401   0.005 -0.0106 -0.3201 -1.4435
  155TCq2    H3 2371   0.459   4.039   0.138  1.5403  0.6708  2.5853
  155TCq2    H4 2372   0.706   4.374   0.086  1.5120 -3.2434  1.3162
  156MPD2     C 2373   4.672   1.920  11.732  0.1850 -0.3110 -0.5702
  156MPD2    C1 2374   4.578   1.987  11.660  0.3748  0.9149 -0.2880
  156MPD2    C2 2375   4.540   2.117  11.702 -0.0019  0.0889 -0.3821
  156MPD2    C3 2376   4.587   2.167  11.823  0.0095  0.1148 -0.3245
  156MPD2    C4 2377   4.679   2.096  11.902  0.5631 -0.3196 -0.3945
  156MPD2    C5 2378   4.710   1.972  11.850  0.2830  0.6497 -0.3581
  156MPD2     H 2379   4.453   2.162  11.653  0.8176  0.6065 -1.3642
  156MPD2    H1 2380   0.006   2.124  11.993  1.4741 -0.4216 -0.8681
  156MPD2    H2 2381   4.686   1.814  11.716  0.0649 -0.2225 -1.2877
  156MPD2    H3 2382   0.052   1.904  11.903 -0.4219 -0.3350 -0.7592
  156MPD2     N 2383   4.533   2.290  11.866  0.3848  0.4070  0.5942
  156MPD2    H5 2384   4.455   2.317  11.808 -0.4312 -0.8759  1.0834
  156MPD2    N1 2385   4.509   1.920  11.557  0.0720  0.0970 -0.4232
  156MPD2    H7 2386   4.529   1.821  11.552  1.7444  0.4065  0.2813
  157TCq2    C1 2387   4.432   1.980  11.461 -0.2195  0.1968  0.2208
  157TCq2    O2 2388   4.424   2.097  11.433  0.3969  0.6217 -0.2103
  157TCq2    C2 2389   4.351   1.886  11.384 -0.3604 -0.3469  0.0645
  157TCq2    C3 2390   4.305   1.788  11.463 -0.2276  0.6979 -0.4023
  157TCq2    C4 2391   4.173   1.743  11.447 -0.1260 -0.5319 -1.3020
  157TCq2    C5 2392   4.086   1.817  11.376  0.8662 -0.0111 -0.1974
  157TCq2    C6 2393   4.137   1.907  11.289  0.4375  1.0082  0.2716
  157TCq2    C7 2394   4.263   1.946  11.296 -0.1056  1.0144  0.6998
  157TCq2    C8 2395   4.046   2.020  11.260 -0.3990 -0.0861  0.9056
  157TCq2    O4 2396   4.094   2.109  11.195  0.3664 -0.2270  0.8027
  157TCq2    C9 2397   4.133   1.619  11.516 -0.1502 -0.2093  0.0401
  157TCq2    O5 2398   4.206   1.562  11.598 -0.5640 -0.5104 -0.4733
  157TCq2    O6 2399   4.009   1.594  11.496 -0.0416  0.1452 -0.0471
  157TCq2    H2 2400   4.362   1.724  11.528 -0.7806  1.4053  0.7946
  157TCq2    H3 2401   3.985   1.779  11.363  0.4008  1.3335 -0.5028
  157TCq2    H4 2402   4.300   2.033  11.244  0.1064  0.7280  0.3707
  158TMC2    C1 2403   0.047   1.225  13.774  0.0911 -0.4813 -0.1531
  158TMC2    C2 2404   0.109   1.260  13.656 -1.1919 -0.2429 -0.1092
  158TMC2    C3 2405   0.034   1.316  13.553  1.0313  0.6795 -0.1142
  158TMC2    C4 2406   4.636   1.240  13.789  0.8039  1.0410 -0.6813
  158TMC2    C5 2407   4.570   1.295  13.687  0.0005  0.0554 -0.2486
  158TMC2    C6 2408   4.624   1.331  13.574 -0.0167 -0.5613  0.4119
  158TMC2     C 2409   0.125   1.200  13.890 -0.7376 -0.1594 -0.4314
  158TMC2     O 2410   0.247   1.210  13.877  0.0788 -0.4295 -0.2185
  158TMC2     H 2411   0.216   1.247  13.649 -1.1096  0.8775 -0.8864
  158TMC2    H1 2412   4.584   1.223  13.882 -0.1206 -0.2822 -1.4445
  158TMC2    H2 2413   4.560   1.389  13.507  0.1094 -2.4690 -1.3618
  158TMC2    C7 2414   4.427   1.275  13.682  0.3868  0.0150 -0.2411
  158TMC2    C8 2415   0.097   1.327  13.427 -0.1246  0.4330  0.2144
  158TMC2    O1 2416   4.366   1.368  13.633 -0.2674 -0.2673 -0.6254
  158TMC2    O2 2417   0.219   1.316  13.419  0.1897 -0.1179 -0.0767
  158TMC2    O5 2418   0.007   1.331  13.322  0.1446 -0.1738  0.4661
  158TMC2    H5 2419   4.638   1.332  13.354  0.0564 -1.0757  0.2400
  159MPD2     C 2420   0.194   1.059  14.375 -0.6353 -0.5637  0.6776
  159MPD2    C1 2421   0.100   0.985  14.329 -0.6556  0.5956 -0.3445
  159MPD2    C2 2422   0.056   1.021  14.203  0.2543  0.1384  0.2659
  159MPD2    C3 2423   0.109   1.116  14.124 -0.1088 -0.8937  0.1221
  159MPD2    C4 2424   0.218   1.177  14.166  0.0721  0.0324 -0.0080
  159MPD2    C5 2425   0.259   1.152  14.293 -0.5051  0.1720  0.1069
  159MPD2     H 2426   4.705   0.960  14.153 -0.1223  1.3097 -0.5902
  159MPD2    H1 2427   0.268   1.258  14.113  0.8424 -1.1893 -1.1402
  159MPD2    H2 2428   0.228   1.031  14.475  3.0937 -1.0424 -0.7308
  159MPD2    H3 2429   0.338   1.212  14.337  0.2519 -0.0500 -0.9666
  159MPD2     N 2430   0.060   1.132  13.989 -0.3497 -0.1426 -0.3446
  159MPD2    H5 2431   4.698   1.085  13.962 -2.2786  3.4877 -0.5251
  159MPD2    N1 2432   0.048   0.874  14.405 -1.2298 -0.2908 -0.3703
  159MPD2    H7 2433   0.101   0.862  14.491 -2.1614 -0.7329  0.1424
  160TMC2    C1 2434   3.783   3.881   0.675 -0.2299 -0.3595  0.3770
  160TMC2    C2 2435   3.680   3.810   0.613  0.1502 -0.1360 -0.0799
  160TMC2    C3 2436   3.702   3.789   0.481  0.9998  0.4861  0.3579
  160TMC2    C4 2437   3.893   3.929   0.620 -0.4705 -0.3760  0.5436
  160TMC2    C5 2438   3.907   3.900   0.483 -0.2804 -0.0720  0.7086
  160TMC2    C6 2439   3.810   3.836   0.412 -0.8331 -1.0415  0.5999
  160TMC2     C 2440   3.770   3.901   0.817 -0.6766 -0.2534  0.7537
  160TMC2     O 2441   3.874   3.920   0.879  0.0309 -0.2118 -0.0823
  160TMC2     H 2442   3.608   3.754   0.672 -0.5793 -0.3882 -1.2189
  160TMC2    H1 2443   3.971   3.972   0.682  0.3191  1.0944 -1.4390
  160TMC2    H2 2444   3.831   3.800   0.312 -1.9681 -2.3017  0.8149
  160TMC2    C7 2445   4.031   3.926   0.416 -0.6300  0.0024 -1.1266
  160TMC2    C8 2446   3.603   3.714   0.407 -0.7712  0.2526 -0.1087
  160TMC2    O1 2447   4.041   3.877   0.307  1.0498  0.0112  0.0503
  160TMC2    O2 2448   3.485   3.720   0.440 -0.3713  0.5707  0.3564
  160TMC2    O5 2449   3.663   3.601   0.365  0.2614  0.3409 -0.4874
  160TMC2    H5 2450   3.760   3.596   0.377  0.2001 -0.6012 -0.3119
  161MPD2     C 2451   3.664   3.800   1.081 -0.0664 -0.1639  0.0380
  161MPD2    C1 2452   3.599   3.890   0.996  0.2788  0.2643 -0.0098
  161MPD2    C2 2453   3.485   3.957   1.039  0.3250 -0.3986 -0.6027
  161MPD2    C3 2454   3.433   3.938   1.170 -0.5674  0.2976  0.0232
  161MPD2    C4 2455   3.490   3.847   1.255  0.1226  0.2605  0.2535
  161MPD2    C5 2456   3.605   3.779   1.211 -0.9931  0.6217 -0.1648
  161MPD2     H 2457   3.438   4.025   0.970  0.1136  1.1199  1.0511
  161MPD2    H1 2458   3.442   3.819   1.349 -2.8033  1.2540 -0.9562
  161MPD2    H2 2459   3.755   3.745   1.061 -1.0500 -1.0545 -1.8857
  161MPD2    H3 2460   3.646   3.703   1.276 -0.9186  0.6643 -0.1616
  161MPD2     N 2461   3.310   4.006   1.204 -0.4062  0.0267  0.7098
  161MPD2    H5 2462   3.270   3.972   1.291  2.0575 -2.1740  1.0099
  161MPD2    N1 2463   3.638   3.908   0.863 -0.2105 -0.0607 -0.3329
  161MPD2    H7 2464   3.559   3.942   0.810  1.3792  2.0478 -1.3105
  162TMC2    C1 2465   1.550   0.878   0.914  0.2941 -0.3515 -0.6409
  162TMC2    C2 2466   1.482   0.834   0.800 -0.2319 -0.0958 -0.4412
  162TMC2    C3 2467   1.350   0.815   0.822  0.5695  0.5398 -0.0867
  162TMC2    C4 2468   1.503   0.861   1.046 -0.1954 -0.7362 -0.4556
  162TMC2    C5 2469   1.367   0.832   1.059  0.4566  0.0563  0.0040
  162TMC2    C6 2470   1.291   0.815   0.945  0.5625  0.0777  0.0822
  162TMC2     C 2471   1.696   0.890   0.897  0.3231 -0.6585  0.2508
  162TMC2     O 2472   1.736   0.877   0.781  0.4371 -0.8278  0.1364
  162TMC2     H 2473   1.521   0.836   0.699  2.7641 -0.2866  0.6945
  162TMC2    H1 2474   1.552   0.890   1.138 -1.5110  0.8256 -0.2447
  162TMC2    H2 2475   1.185   0.791   0.953  1.2995 -3.3289 -0.4579
  162TMC2    C7 2476   1.292   0.814   1.183 -0.8371 -0.3039 -0.6328
  162TMC2    C8 2477   1.270   0.760   0.715 -0.8937  0.0145 -0.4713
  162TMC2    O1 2478   1.170   0.829   1.191  0.1052 -0.2959 -0.1763
  162TMC2    O2 2479   1.152   0.734   0.732 -0.3179  0.6802  0.5545
  162TMC2    O5 2480   1.350   0.686   0.638 -0.3457 -0.6415 -0.1372
  162TMC2    H5 2481   1.444   0.680   0.664 -1.1154 -1.4654  2.4621
  163MPD2     C 2482   2.173   0.937   1.086  0.2279  0.1677 -0.0035
  163MPD2    C1 2483   2.124   0.921   0.957 -0.1168 -0.1106 -0.8884
  163MPD2    C2 2484   1.990   0.918   0.927  0.0586  0.7918 -0.0207
  163MPD2    C3 2485   1.907   0.919   1.029 -0.0826 -0.3806 -0.7700
  163MPD2    C4 2486   1.946   0.939   1.159 -0.1500  0.4574 -0.7808
  163MPD2    C5 2487   2.079   0.944   1.187 -0.4350 -0.5187 -0.3914
  163MPD2     H 2488   1.954   0.919   0.825 -0.9300  0.4720  0.3235
  163MPD2    H1 2489   1.875   0.933   1.241 -1.7873  1.3393 -2.1336
  163MPD2    H2 2490   2.280   0.949   1.103 -0.1256  2.1415  0.7657
  163MPD2    H3 2491   2.115   0.968   1.286  0.1618 -2.9526 -0.0350
  163MPD2     N 2492   1.771   0.910   1.013  0.4668  0.6601  0.3459
  163MPD2    H5 2493   1.720   0.921   1.100  0.8549 -0.8153  0.7501
  163MPD2    N1 2494   2.216   0.904   0.855 -0.1196  0.8919 -0.2947
  163MPD2    H7 2495   2.311   0.889   0.887 -0.4605 -1.3561 -0.3202
  164TCq2    C1 2496   2.332   0.647  11.059  0.1290  0.2009 -0.2116
  164TCq2    O2 2497   2.215   0.625  11.067 -0.5280  0.1750 -0.2147
  164TCq2    C2 2498   2.380   0.764  11.115  0.9239  0.3526 -0.3487
  164TCq2    C3 2499   2.515   0.774  11.149  0.6665  0.2310 -0.1555
  164TCq2    C4 2500   2.555   0.887  11.222  0.6451  0.3908  0.1704
  164TCq2    C5 2501   2.472   0.993  11.247  0.0382 -0.7121  0.3612
  164TCq2    C6 2502   2.346   0.981  11.206 -0.3765 -0.6897 -0.5429
  164TCq2    C7 2503   2.292   0.868  11.136  0.2592  0.2057  0.9154
  164TCq2    C8 2504   2.263   1.083  11.262  0.4050  0.0569  0.3809
  164TCq2    O4 2505   2.312   1.142  11.357 -0.2492 -0.0576  0.2780
  164TCq2    C9 2506   2.691   0.908  11.264 -0.0525 -0.2966 -0.7563
  164TCq2    O5 2507   2.735   1.027  11.271 -0.5748  0.0060  0.4354
  164TCq2    O6 2508   2.762   0.807  11.251  0.6727 -0.1657  0.2010
  164TCq2    H2 2509   2.586   0.695  11.129  0.8837  0.5604 -0.6924
  164TCq2    H3 2510   2.511   1.074  11.308 -2.9146 -1.3777  3.1300
  164TCq2    H4 2511   2.185   0.861  11.119  0.3288 -1.4965  1.1795
  165MPD2     C 2512   4.210   1.568   0.454  0.4330 -0.2923 -0.5849
  165MPD2    C1 2513   4.115   1.657   0.497  0.3689 -0.4789 -0.7756
  165MPD2    C2 2514   4.123   1.702   0.628  1.0619  0.4498 -0.5482
  165MPD2    C3 2515   4.228   1.676   0.717 -0.4836  0.1392  0.0058
  165MPD2    C4 2516   4.319   1.577   0.675  0.2429  0.1404 -0.3406
  165MPD2    C5 2517   4.310   1.528   0.545 -0.2241  0.3991 -0.9651
  165MPD2     H 2518   4.041   1.762   0.665 -1.0119 -2.7149 -0.0239
  165MPD2    H1 2519   4.398   1.534   0.736 -0.0679 -2.1253 -1.5541
  165MPD2    H2 2520   4.201   1.529   0.353  1.9640  1.5248 -1.4372
  165MPD2    H3 2521   4.378   1.451   0.511 -1.8170 -0.9879 -0.9913
  165MPD2     N 2522   4.251   1.727   0.850 -0.4921 -0.1853  0.3870
  165MPD2    H5 2523   4.343   1.714   0.893  0.1621 -0.1815 -1.0191
  165MPD2    N1 2524   4.011   1.690   0.411  0.2077 -0.5592  0.7438
  165MPD2    H7 2525   4.000   1.653   0.317 -0.5651 -0.9516  0.9958
  166TCq2    C1 2526   4.172   1.818   0.910 -0.6403  0.4417 -0.5995
  166TCq2    O2 2527   4.076   1.880   0.866  0.1736 -0.5443  0.3808
  166TCq2    C2 2528   4.233   1.876   1.030 -0.0892  0.0045 -0.5472
  166TCq2    C3 2529   4.331   1.800   1.099 -0.4587 -0.5348 -0.6499
  166TCq2    C4 2530   4.413   1.873   1.178 -0.1578 -0.4732 -0.1049
  166TCq2    C5 2531   4.399   2.009   1.204 -0.4972  0.8299  0.0746
  166TCq2    C6 2532   4.287   2.068   1.149  0.1057 -0.0039 -0.2062
  166TCq2    C7 2533   4.202   2.005   1.060  0.3882  0.0942  1.2202
  166TCq2    C8 2534   4.283   2.211   1.179  0.0094  0.6210  0.1490
  166TCq2    O4 2535   4.387   2.267   1.205  0.3141  0.6874 -0.6307
  166TCq2    C9 2536   4.527   1.810   1.244  0.4616 -0.2930 -1.0269
  166TCq2    O5 2537   4.570   1.862   1.348 -0.0437 -0.5443 -0.1813
  166TCq2    O6 2538   4.578   1.716   1.184  0.3534 -0.1206 -0.2234
  166TCq2    H2 2539   4.359   1.699   1.074 -2.0292 -1.4257  1.1738
  166TCq2    H3 2540   4.463   2.054   1.279  2.2429 -1.4778 -0.8931
  166TCq2    H4 2541   4.142   2.067   0.995  0.8862  1.0868  1.7072
  167TMC2    C1 2542   1.392   0.777  12.817 -0.1778  0.8236  0.9637
  167TMC2    C2 2543   1.378   0.851  12.927  0.7317 -0.2833 -0.6904
  167TMC2    C3 2544   1.375   0.781  13.046  0.2752 -0.0504  0.4949
  167TMC2    C4 2545   1.409   0.636  12.811  0.3028 -0.1600 -0.3851
  167TMC2    C5 2546   1.408   0.578  12.936 -0.5334  0.0634  0.3415
  167TMC2    C6 2547   1.395   0.646  13.052 -0.5176  0.4879  0.2113
  167TMC2     C 2548   1.403   0.852  12.700  0.4489  0.4561 -0.0353
  167TMC2     O 2549   1.359   0.963  12.705 -0.1485  0.0078 -0.8913
  167TMC2     H 2550   1.371   0.959  12.931 -1.2811 -0.4417 -0.2667
  167TMC2    H1 2551   1.419   0.590  12.713 -1.0835  1.7287 -1.3992
  167TMC2    H2 2552   1.387   0.601  13.150 -1.0948 -0.3418 -0.2209
  167TMC2    C7 2553   1.439   0.439  12.958 -0.2297  0.5300 -0.1002
  167TMC2    C8 2554   1.309   0.840  13.159  0.2751 -0.1278 -0.0439
  167TMC2    O1 2555   1.383   0.385  13.056  0.0168 -0.0715  0.9331
  167TMC2    O2 2556   1.190   0.813  13.176 -0.7664  0.4022  0.7127
  167TMC2    O5 2557   1.356   0.968  13.160 -0.0823 -0.1098  0.5528
  167TMC2    H5 2558   1.450   0.975  13.133  0.1233 -1.4802  0.9520
  168MPD2     C 2559   1.432   0.976  12.427  0.4289 -0.7382  0.4366
  168MPD2    C1 2560   1.441   0.841  12.453 -0.2254  0.5430 -0.3202
  168MPD2    C2 2561   1.463   0.755  12.351 -0.6022  0.2914 -0.2752
  168MPD2    C3 2562   1.489   0.801  12.225 -0.1059  0.0334 -0.3839
  168MPD2    C4 2563   1.497   0.933  12.205 -0.1430 -0.4034 -0.7501
  168MPD2    C5 2564   1.468   1.015  12.305 -0.4725  0.4039 -0.6166
  168MPD2     H 2565   1.467   0.649  12.374  2.2023 -0.0838 -2.6301
  168MPD2    H1 2566   1.533   0.984  12.117 -1.7405 -2.4420 -2.5688
  168MPD2    H2 2567   1.428   1.054  12.502 -3.5638  0.4774 -1.0680
  168MPD2    H3 2568   1.485   1.122  12.296  2.0048 -0.2289 -3.5246
  168MPD2     N 2569   1.526   0.716  12.116  0.0934  0.7168 -0.6128
  168MPD2    H5 2570   1.563   0.764  12.035  1.9247 -0.8756 -0.7193
  168MPD2    N1 2571   1.437   0.784  12.585 -0.1352  0.1081  0.0529
  168MPD2    H7 2572   1.449   0.685  12.600  0.4670 -0.1311 -2.0442
  169MPD1     C 2573   3.853   4.671   8.094  0.7429 -0.3682  0.5474
  169MPD1    C1 2574   3.866   0.057   8.171 -0.2590  0.0133 -0.1770
  169MPD1    C2 2575   3.834   0.053   8.307 -0.6975  0.1595  0.3253
  169MPD1    C3 2576   3.795   4.665   8.366 -0.5743  0.4570  0.3765
  169MPD1    C4 2577   3.773   4.557   8.286 -0.1023 -0.1916  0.0496
  169MPD1    C5 2578   3.808   4.558   8.156  0.5635  0.0314 -0.0239
  169MPD1     H 2579   3.846   0.143   8.367 -1.8842  0.0371  0.7504
  169MPD1    H1 2580   3.729   4.462   8.312 -0.9099  0.1472 -0.0956
  169MPD1    H2 2581   3.887   4.661   7.991  2.3079  0.4677  0.9908
  169MPD1    H3 2582   3.799   4.470   8.095  0.6739  0.1286 -0.1804
  169MPD1     N 2583   3.772   4.674   8.509  0.0314 -0.4905  0.0944
  169MPD1    H5 2584   3.791   0.043   8.546  0.1829 -0.4132 -0.1770
  169MPD1    N1 2585   3.936   0.165   8.118  0.1199 -0.2779 -0.1331
  169MPD1    H6 2586   3.918   0.255   8.163 -0.4394 -0.4878  0.0625
  169MPD1    H7 2587   3.931   0.166   8.017  2.0232  1.8368 -0.1969
  170MPD1     C 2588   3.284   2.430  12.712 -0.4258  0.1403  0.0523
  170MPD1    C1 2589   3.338   2.423  12.839  0.6052 -0.1510 -0.2501
  170MPD1    C2 2590   3.281   2.506  12.935  0.0667 -0.7503  0.1323
  170MPD1    C3 2591   3.168   2.585  12.912  0.1147  0.3327  0.0267
  170MPD1    C4 2592   3.125   2.593  12.778 -0.3291  0.3475 -0.2266
  170MPD1    C5 2593   3.181   2.519  12.683 -0.3920  0.1510  0.3214
  170MPD1     H 2594   3.305   2.494  13.040 -0.6657 -0.8613  0.2835
  170MPD1    H1 2595   3.046   2.656  12.740  0.9967  1.3668 -1.2923
  170MPD1    H2 2596   3.328   2.367  12.635  1.3324  3.2273 -1.4526
  170MPD1    H3 2597   3.142   2.534  12.583 -0.0484  2.0182  0.4788
  170MPD1     N 2598   3.121   2.666  13.018 -0.4746 -0.2420  0.0677
  170MPD1    H5 2599   3.168   2.654  13.107 -0.6173  0.0618  0.1857
  170MPD1    N1 2600   3.464   2.365  12.864 -0.1007 -0.6089  0.2477
  170MPD1    H6 2601   3.492   2.304  12.788  0.4543 -0.0286 -0.0176
  170MPD1    H7 2602   3.455   2.309  12.949 -0.4277 -0.1630  0.5050
  171MPD1     C 2603   1.399   4.037  15.086 -0.3438 -0.0679  0.5495
  171MPD1    C1 2604   1.381   3.911  15.046 -1.0128  0.9719 -0.2858
  171MPD1    C2 2605   1.409   3.812  15.142 -0.1401 -0.0873 -0.3776
  171MPD1    C3 2606   1.459   3.844  15.270 -0.1405 -0.1487 -0.1947
  171MPD1    C4 2607   1.462   3.974  15.307  0.8535  0.9350 -0.5351
  171MPD1    C5 2608   1.440   4.068  15.212  0.2054 -0.2932  0.9571
  171MPD1     H 2609   1.410   3.711  15.102 -1.9672 -1.0743  2.0594
  171MPD1    H1 2610   1.475   4.014  15.407  1.0887 -1.3564  0.3376
  171MPD1    H2 2611   1.376   4.124  15.025 -1.2772 -0.7724 -0.0906
  171MPD1    H3 2612   1.440   4.172  15.241 -0.6924 -0.0559  0.1136
  171MPD1     N 2613   1.479   3.744  15.372 -0.4401  0.2077 -0.3717
  171MPD1    H5 2614   1.493   3.768  15.469  0.1096 -1.1873 -0.1159
  171MPD1    N1 2615   1.323   3.883  14.915 -0.4776  0.1820  0.4550
  171MPD1    H6 2616   1.318   3.783  14.894 -2.2922 -0.1633  2.5055
  171MPD1    H7 2617   1.360   3.938  14.837 -0.2200 -0.7900 -0.1097
  172MPD1     C 2618   0.409   2.583   0.049 -0.1051  0.0873 -0.7394
  172MPD1    C1 2619   0.379   2.688   0.126  0.8500 -0.6977  0.6274
  172MPD1    C2 2620   0.460   2.802   0.115 -0.1478 -0.5844  0.2006
  172MPD1    C3 2621   0.561   2.807   0.023  1.4761 -0.0605  0.0533
  172MPD1    C4 2622   0.584   2.691  17.644  0.0461  0.9278  0.1675
  172MPD1    C5 2623   0.504   2.580  17.653 -0.3484  0.1335  0.6050
  172MPD1     H 2624   0.436   2.894   0.168  0.9214 -1.4316  2.1758
  172MPD1    H1 2625   0.665   2.686  17.573  0.2552 -1.0233  0.5569
  172MPD1    H2 2626   0.345   2.497   0.061 -2.1453  1.9673  1.7773
  172MPD1    H3 2627   0.527   2.488  17.600  1.3291  0.2169  1.1990
  172MPD1     N 2628   0.648   2.914   0.002 -0.5505 -0.5657  0.0795
  172MPD1    H5 2629   0.732   2.901  17.642 -2.9643 -0.0207 -3.6572
  172MPD1    N1 2630   0.291   2.670   0.236  0.1701 -0.0284 -0.9003
  172MPD1    H6 2631   0.228   2.749   0.237  1.6546  1.1222  1.5916
  172MPD1    H7 2632   0.246   2.580   0.219  0.9150 -1.0406  2.4930
  173MPD1     C 2633   2.461   3.660  14.545  0.4057  1.1604 -0.6992
  173MPD1    C1 2634   2.448   3.590  14.665  0.2377 -0.6151  0.5308
  173MPD1    C2 2635   2.364   3.472  14.662  0.3142  0.0519  0.2467
  173MPD1    C3 2636   2.286   3.440  14.550  0.6171  0.6432  0.2603
  173MPD1    C4 2637   2.301   3.514  14.436  0.3967 -0.6669 -0.3474
  173MPD1    C5 2638   2.387   3.621  14.433 -0.4606 -0.7137 -0.0112
  173MPD1     H 2639   2.374   3.401  14.743  1.5215 -3.7106 -3.2435
  173MPD1    H1 2640   2.246   3.484  14.348 -0.5087 -0.3458  0.1069
  173MPD1    H2 2641   2.520   3.750  14.539  1.8481  0.1857 -1.2024
  173MPD1    H3 2642   2.389   3.670  14.337 -2.6067  0.8561  0.7482
  173MPD1     N 2643   2.202   3.323  14.565 -0.2214 -0.0400 -0.5907
  173MPD1    H5 2644   2.194   3.286  14.659  0.5559  0.7973 -0.1965
  173MPD1    N1 2645   2.521   3.639  14.777 -0.0004 -0.6944 -0.3421
  173MPD1    H6 2646   2.531   3.739  14.767  0.6386 -0.8664 -1.4776
  173MPD1    H7 2647   2.471   3.612  14.862 -1.1034 -0.9967 -1.0801
  174MPD1     C 2648   1.965   2.744  13.846 -0.2691 -0.4540 -0.2746
  174MPD1    C1 2649   1.930   2.661  13.953 -0.0461  0.4450  0.7233
  174MPD1    C2 2650   1.909   2.716  14.074 -0.3353  0.4666 -0.3299
  174MPD1    C3 2651   1.932   2.856  14.091  0.3242 -0.3296 -0.3844
  174MPD1    C4 2652   1.978   2.940  13.987 -0.2884 -0.4104 -0.5496
  174MPD1    C5 2653   1.989   2.880  13.868 -0.4781  0.0069 -0.1613
  174MPD1     H 2654   1.879   2.656  14.159 -0.5401 -0.7365 -1.2456
  174MPD1    H1 2655   1.996   3.045  14.012 -0.5424 -0.5164  0.0948
  174MPD1    H2 2656   1.980   2.709  13.744  3.5985  1.9826 -0.5615
  174MPD1    H3 2657   2.034   2.935  13.787 -0.5196 -1.2043 -0.9976
  174MPD1     N 2658   1.914   2.930  14.210  0.2700 -0.4970  0.5138
  174MPD1    H5 2659   1.922   3.031  14.202 -0.1217 -0.6210 -1.2550
  174MPD1    N1 2660   1.893   2.523  13.927 -0.3916  0.2514  0.1627
  174MPD1    H6 2661   1.943   2.486  13.846 -0.9263 -0.0089 -0.0487
  174MPD1    H7 2662   1.913   2.461  14.005  0.5006 -2.0940 -1.8956
  175MPD1     C 2663   0.517   4.020  15.224 -0.4268  0.3402 -0.3429
  175MPD1    C1 2664   0.647   4.014  15.284 -0.9975 -0.4058 -0.5064
  175MPD1    C2 2665   0.651   4.013  15.423  1.4427 -0.0835 -0.1956
  175MPD1    C3 2666   0.532   4.027  15.492  0.7830  1.1099 -0.6124
  175MPD1    C4 2667   0.404   4.045  15.432  0.1767  0.6615 -0.3220
  175MPD1    C5 2668   0.398   4.048  15.295 -0.0789  0.2382 -0.3458
  175MPD1     H 2669   0.745   3.983  15.468  0.6979  0.9692  2.0778
  175MPD1    H1 2670   0.312   4.063  15.486  0.6381 -0.3332  0.7950
  175MPD1    H2 2671   0.511   4.012  15.116  0.0481 -3.3197 -0.1162
  175MPD1    H3 2672   0.298   4.046  15.252 -0.5831  0.4289  0.8202
  175MPD1     N 2673   0.526   4.023  15.636 -0.0246 -0.0262 -0.6130
  175MPD1    H5 2674   0.438   4.020  15.685  0.6061  1.9270  0.6730
  175MPD1    N1 2675   0.756   3.983  15.204 -0.5664 -0.0915  0.0699
  175MPD1    H6 2676   0.842   4.013  15.250 -0.3860 -0.5780  0.0445
  175MPD1    H7 2677   0.753   4.004  15.105  0.9157  0.9890  0.2609
  176MPD1     C 2678   2.020   0.689  16.587 -0.5331 -1.0049 -0.2432
  176MPD1    C1 2679   2.063   0.808  16.648  0.4517 -0.2119 -0.5026
  176MPD1    C2 2680   2.014   0.839  16.775  0.1907 -0.1442  0.3708
  176MPD1    C3 2681   1.966   0.735  16.853  0.1314  0.5385  1.0610
  176MPD1    C4 2682   1.956   0.610  16.802  0.3821  0.1006 -0.2730
  176MPD1    C5 2683   1.973   0.589  16.668 -0.3658  0.1408 -0.5857
  176MPD1     H 2684   2.029   0.938  16.817 -2.2351  0.8212 -1.0985
  176MPD1    H1 2685   1.907   0.534  16.862  2.0530 -1.2283 -0.6108
  176MPD1    H2 2686   2.043   0.656  16.486  0.6906  0.5439 -0.4781
  176MPD1    H3 2687   1.956   0.490  16.627 -4.4281  0.6819 -0.1774
  176MPD1     N 2688   1.924   0.768  16.986 -0.4825 -0.1021 -0.2431
  176MPD1    H5 2689   1.931   0.869  16.996 -0.8715  0.0780 -1.7229
  176MPD1    N1 2690   2.127   0.906  16.581 -0.6867 -0.2937 -0.0386
  176MPD1    H6 2691   2.182   0.861  16.507 -0.0107 -2.7059  1.9138
  176MPD1    H7 2692   2.191   0.963  16.636  1.1413 -2.5062  0.1288
  177MPD1     C 2693   0.226   1.287   9.571 -0.3891  0.2585 -0.6089
  177MPD1    C1 2694   0.164   1.181   9.519  0.5174  0.5739  1.1168
  177MPD1    C2 2695   0.025   1.194   9.492 -0.2404 -0.2531 -0.6500
  177MPD1    C3 2696   4.683   1.316   9.510  0.7251 -0.4907 -0.5193
  177MPD1    C4 2697   0.039   1.425   9.536 -0.6326  0.1255 -0.7193
  177MPD1    C5 2698   0.175   1.412   9.566  0.3198  0.2719  0.1833
  177MPD1     H 2699   4.689   1.109   9.461 -1.5839  0.3445  0.2767
  177MPD1    H1 2700   4.715   1.521   9.548 -0.8363  0.0430 -0.8677
  177MPD1    H2 2701   0.329   1.271   9.599 -0.9599  0.1046  1.4269
  177MPD1    H3 2702   0.244   1.491   9.591  0.3833  0.0128  0.8297
  177MPD1     N 2703   4.537   1.321   9.493  0.2957  0.1208 -0.2927
  177MPD1    H5 2704   4.493   1.231   9.477  1.6613 -0.7523  0.9588
  177MPD1    N1 2705   0.222   1.055   9.517  0.2481  0.3269 -0.7182
  177MPD1    H6 2706   0.323   1.063   9.511  0.2565  0.2861 -0.6324
  177MPD1    H7 2707   0.184   1.000   9.440 -0.6847  0.6327 -0.4697
  178MPD1     C 2708   2.468   2.383   0.195  0.1157 -0.3497  0.4437
  178MPD1    C1 2709   2.463   2.252   0.169 -0.0333 -0.2312  0.0308
  178MPD1    C2 2710   2.498   2.202   0.043 -0.4912  0.2483 -0.2984
  178MPD1    C3 2711   2.553   2.282  17.647  0.3982 -0.9888 -0.4925
  178MPD1    C4 2712   2.576   2.412  17.674  0.0754 -0.8806 -0.2037
  178MPD1    C5 2713   2.530   2.460   0.100  0.1886  0.1053  0.3334
  178MPD1     H 2714   2.490   2.099   0.011 -2.0191 -0.0308  0.9843
  178MPD1    H1 2715   2.639   2.469  17.607 -1.2801 -0.6283 -1.2546
  178MPD1    H2 2716   2.429   2.433   0.283 -0.8186  0.6927 -0.5523
  178MPD1    H3 2717   2.527   2.568   0.114 -1.9385  0.2236 -0.9524
  178MPD1     N 2718   2.600   2.236  17.523  0.6408  0.2409  0.0910
  178MPD1    H5 2719   2.639   2.303  17.458  0.6455  0.1062 -0.0434
  178MPD1    N1 2720   2.397   2.180   0.272 -0.6295  0.0901  1.1325
  178MPD1    H6 2721   2.437   2.205   0.363 -0.6792 -0.0725  1.1974
  178MPD1    H7 2722   2.415   2.083   0.248 -2.3715  0.3409 -1.2247
  179MPD1     C 2723   2.665   4.258  15.386  0.3494 -0.5874 -0.3975
  179MPD1    C1 2724   2.762   4.343  15.416  1.1179 -0.0202 -0.0265
  179MPD1    C2 2725   2.740   4.426  15.525 -0.1438  0.4592  0.7150
  179MPD1    C3 2726   2.613   4.449  15.582  0.1860 -0.3862  0.1250
  179MPD1    C4 2727   2.512   4.375  15.533 -0.0222 -0.0850  0.7781
  179MPD1    C5 2728   2.542   4.281  15.437  0.5985  0.0817  0.0881
  179MPD1     H 2729   2.830   4.469  15.569  0.2044  0.8786 -0.4173
  179MPD1    H1 2730   2.407   4.391  15.557 -0.2636 -1.2986  0.5540
  179MPD1    H2 2731   2.682   4.176  15.318 -2.3359 -0.0707 -1.7058
  179MPD1    H3 2732   2.457   4.225  15.400  1.1073 -1.4295  1.2318
  179MPD1     N 2733   2.583   4.550  15.677 -0.1698  0.0860 -0.2912
  179MPD1    H5 2734   2.484   4.560  15.695  0.4920  1.5675  2.5660
  179MPD1    N1 2735   2.897   4.325  15.374 -1.0001 -0.0880  0.2075
  179MPD1    H6 2736   2.947   4.413  15.382  0.6687 -0.8999 -1.3096
  179MPD1    H7 2737   2.904   4.289  15.279  1.2183 -0.8490  0.6470
  180MPD1     C 2738   2.592   1.607  15.535 -0.0117 -0.1257  0.1967
  180MPD1    C1 2739   2.490   1.691  15.509 -0.7135 -0.1691  0.2679
  180MPD1    C2 2740   2.450   1.704  15.378  0.2658 -0.1070 -0.1057
  180MPD1    C3 2741   2.489   1.622  15.277  0.1817 -0.5294 -0.4582
  180MPD1    C4 2742   2.587   1.530  15.309  0.3880  0.0224 -0.0440
  180MPD1    C5 2743   2.633   1.523  15.434 -0.5319  0.0452  0.4071
  180MPD1     H 2744   2.373   1.779  15.363  1.6435  0.9096 -2.1146
  180MPD1    H1 2745   2.637   1.468  15.235 -1.3685 -0.6835 -0.6568
  180MPD1    H2 2746   2.656   1.612  15.622 -0.6002 -0.0938  0.6209
  180MPD1    H3 2747   2.707   1.445  15.450 -0.8371 -0.0488  1.3283
  180MPD1     N 2748   2.450   1.639  15.142  0.4259 -0.5416  0.3597
  180MPD1    H5 2749   2.391   1.721  15.129  2.3747  0.9486  0.8791
  180MPD1    N1 2750   2.461   1.790  15.607 -0.2344  0.2554  0.0641
  180MPD1    H6 2751   2.454   1.747  15.698 -0.7526 -0.0965 -0.1414
  180MPD1    H7 2752   2.369   1.829  15.584 -1.5612 -2.7765  0.2404
  181MPD1     C 2753   3.402   2.578  10.634 -0.2480 -0.2464  0.9460
  181MPD1    C1 2754   3.431   2.703  10.674 -0.5155 -0.7053 -0.1701
  181MPD1    C2 2755   3.528   2.764  10.601  0.2747  0.1508 -0.1983
  181MPD1    C3 2756   3.585   2.702  10.490 -0.0990  0.1551 -0.7621
  181MPD1    C4 2757   3.538   2.582  10.444 -0.0471  0.1250 -0.3317
  181MPD1    C5 2758   3.450   2.520  10.523 -0.5675 -0.2674 -0.1787
  181MPD1     H 2759   3.569   2.856  10.642 -1.3037  1.3006 -1.2014
  181MPD1    H1 2760   3.576   2.534  10.354  0.6636  1.6250 -0.8329
  181MPD1    H2 2761   3.332   2.524  10.697  0.5961 -1.6196  0.7013
  181MPD1    H3 2762   3.416   2.424  10.484 -0.9587  0.0914 -0.7237
  181MPD1     N 2763   3.686   2.757  10.413 -0.0600  0.0952 -0.2037
  181MPD1    H5 2764   3.705   2.716  10.323 -0.5910  0.9621 -0.7122
  181MPD1    N1 2765   3.397   2.760  10.794 -0.8493 -0.3948 -0.2057
  181MPD1    H6 2766   3.308   2.731  10.834 -0.2261  1.2271  2.3938
  181MPD1    H7 2767   3.392   2.861  10.782  0.8867 -0.3759 -0.7614
  182MPD1     C 2768   0.699   2.024   1.196  1.2581 -0.0890 -0.5074
  182MPD1    C1 2769   0.747   1.995   1.068 -0.5131  0.1394  0.8268
  182MPD1    C2 2770   0.663   2.031   0.958  0.4902  0.0300 -0.2005
  182MPD1    C3 2771   0.552   2.107   0.982  0.4232  0.0660 -0.4198
  182MPD1    C4 2772   0.507   2.138   1.111 -0.2997 -0.4210 -0.1984
  182MPD1    C5 2773   0.574   2.082   1.218  0.1782  0.2075 -0.1391
  182MPD1     H 2774   0.672   2.002   0.854  1.7902 -0.4968  0.0597
  182MPD1    H1 2775   0.418   2.197   1.126  0.2520  0.0650  1.1633
  182MPD1    H2 2776   0.758   1.991   1.281 -0.7003 -0.0597  0.8812
  182MPD1    H3 2777   0.543   2.096   1.321 -0.7963  0.9148 -0.5294
  182MPD1     N 2778   0.470   2.157   0.879  0.1598  0.1237 -0.4693
  182MPD1    H5 2779   0.384   2.206   0.901  0.2571  0.0668  0.0398
  182MPD1    N1 2780   0.861   1.912   1.055  0.1530 -0.5344  0.2939
  182MPD1    H6 2781   0.917   1.909   1.140 -0.9766  1.8663  1.1295
  182MPD1    H7 2782   0.916   1.949   0.978 -1.1050  0.7172  0.0002
  183MPD1     C 2783   0.949   2.958   9.179  0.7457  0.5055  0.4440
  183MPD1    C1 2784   0.927   2.875   9.283 -0.4614 -0.5690  0.1988
  183MPD1    C2 2785   0.795   2.890   9.336  0.4435 -0.4818  0.8341
  183MPD1    C3 2786   0.716   2.997   9.304 -0.7232 -1.0736 -0.7474
  183MPD1    C4 2787   0.755   3.093   9.213  0.0087  0.9949  0.0868
  183MPD1    C5 2788   0.869   3.061   9.148  0.4066  0.1676  0.1857
  183MPD1     H 2789   0.765   2.821   9.413  0.2049  1.1607  2.2209
  183MPD1    H1 2790   0.695   3.177   9.182  2.3469  2.7617  0.3828
  183MPD1    H2 2791   1.041   2.943   9.123  0.2162  1.9785 -0.8215
  183MPD1    H3 2792   0.905   3.126   9.069  2.0061  0.6587  1.3039
  183MPD1     N 2793   0.602   3.016   9.390  1.2371 -0.0154  0.6780
  183MPD1    H5 2794   0.590   2.945   9.461  1.9739 -1.4725 -0.6508
  183MPD1    N1 2795   1.007   2.758   9.304  0.4924  0.2150 -0.3676
  183MPD1    H6 2796   1.104   2.779   9.287  0.6889  1.3336  2.0684
  183MPD1    H7 2797   0.995   2.723   9.399 -0.1525  1.3847 -0.0173
  184MPD1     C 2798   4.700   0.152  10.211  0.7209  0.5334  0.9778
  184MPD1    C1 2799   4.571   0.119  10.166 -0.1901 -0.1435 -0.6548
  184MPD1    C2 2800   4.488   0.209  10.103 -0.3724 -0.6508  0.0150
  184MPD1    C3 2801   4.539   0.342  10.086  0.5574  0.2299  0.0610
  184MPD1    C4 2802   4.664   0.371  10.139  0.8984  1.0200  0.1694
  184MPD1    C5 2803   0.018   0.282  10.198 -0.0000  0.2039 -0.6133
  184MPD1     H 2804   4.391   0.172  10.070 -0.2192  0.0297 -1.2069
  184MPD1    H1 2805   4.707   0.470  10.127 -1.5871  1.7259 -2.5653
  184MPD1    H2 2806   0.031   0.078  10.268 -0.8553 -1.0453  0.4271
  184MPD1    H3 2807   0.117   0.312  10.228  0.0956  0.1374 -0.8573
  184MPD1     N 2808   4.467   0.436  10.022 -0.3964  0.8249 -0.2080
  184MPD1    H5 2809   4.516   0.524  10.009 -0.0854  0.5769 -0.6979
  184MPD1    N1 2810   4.530   4.709  10.173  0.0005 -0.4674  0.1223
  184MPD1    H6 2811   4.586   4.653  10.237  1.1272  1.0793  0.4741
  184MPD1    H7 2812   4.431   4.705  10.200 -0.4085  1.8015 -1.0688
  185MPD1     C 2813   3.558   0.909  10.216 -0.4491  0.2599  0.6297
  185MPD1    C1 2814   3.570   0.790  10.151  0.0726  0.3126 -0.4584
  185MPD1    C2 2815   3.686   0.762  10.081 -0.0038  0.1685 -0.1246
  185MPD1    C3 2816   3.792   0.854  10.081 -0.2221 -0.7243  0.4628
  185MPD1    C4 2817   3.777   0.970  10.141  0.0424 -0.0662  0.1225
  185MPD1    C5 2818   3.666   1.000  10.217  0.0857  0.6987  0.4506
  185MPD1     H 2819   3.696   0.673  10.021 -2.2316 -0.7908  0.9179
  185MPD1    H1 2820   3.856   1.041  10.160  0.9497 -0.9891 -0.1916
  185MPD1    H2 2821   3.470   0.947  10.266  0.2354  1.6650  0.7498
  185MPD1    H3 2822   3.663   1.085  10.283  1.1107 -0.0904  1.5130
  185MPD1     N 2823   3.919   0.836  10.027  0.3553  0.6820 -0.0856
  185MPD1    H5 2824   3.972   0.919  10.005 -2.1708  2.5246  0.7010
  185MPD1    N1 2825   3.471   0.694  10.163 -0.2774  0.9153  0.7266
  185MPD1    H6 2826   3.450   0.630  10.087 -2.5440  4.0602 -1.3162
  185MPD1    H7 2827   3.382   0.732  10.196 -0.6214 -0.5745  1.4931
  186MPD1     C 2828   2.087   0.490  15.611 -0.1326 -0.7098 -0.1039
  186MPD1    C1 2829   2.221   0.458  15.605 -0.1003 -0.6511 -0.0608
  186MPD1    C2 2830   2.297   0.460  15.725  0.2165  0.2744 -0.1008
  186MPD1    C3 2831   2.243   0.501  15.851  0.0430 -0.3913  0.1567
  186MPD1    C4 2832   2.110   0.535  15.846 -0.0288  0.2455 -0.3694
  186MPD1    C5 2833   2.036   0.508  15.735  0.2738 -0.2629 -0.1248
  186MPD1     H 2834   2.405   0.448  15.722  0.1274 -0.4547 -0.4153
  186MPD1    H1 2835   2.059   0.577  15.932 -0.0982  1.3557 -0.9536
  186MPD1    H2 2836   2.026   0.480  15.522  1.7188 -0.7261 -1.3723
  186MPD1    H3 2837   1.928   0.511  15.741  0.3002 -1.0105  0.7399
  186MPD1     N 2838   2.324   0.503  15.969 -0.3927 -0.3420  0.2396
  186MPD1    H5 2839   2.279   0.534  16.055  0.5840  1.0140  0.2658
  186MPD1    N1 2840   2.283   0.443  15.481 -0.6082 -0.7745  0.0256
  186MPD1    H6 2841   2.358   0.375  15.490  0.2115 -0.1935 -2.5732
  186MPD1    H7 2842   2.217   0.421  15.407  0.7147 -2.6393 -0.5852
  187MPD1     C 2843   1.827   3.041   0.330 -0.5784  1.2833 -0.1784
  187MPD1    C1 2844   1.751   2.985   0.234  0.5501 -0.3040  0.1954
  187MPD1    C2 2845   1.816   2.891   0.155 -0.2112  0.8769  0.0693
  187MPD1    C3 2846   1.948   2.873   0.151 -0.4064  0.1336 -0.8920
  187MPD1    C4 2847   2.028   2.954   0.226  0.5038  0.3542 -1.0358
  187MPD1    C5 2848   1.963   3.029   0.321  0.2600  0.1242 -0.0148
  187MPD1     H 2849   1.758   2.827   0.089 -0.9750  0.7458  0.8730
  187MPD1    H1 2850   2.136   2.945   0.218  0.8724  0.4098  3.6185
  187MPD1    H2 2851   1.786   3.094   0.416  2.1723  1.9609  0.7040
  187MPD1    H3 2852   2.028   3.083   0.389  0.7406 -1.2899  0.6454
  187MPD1     N 2853   2.016   2.787   0.064  0.3856  0.4173 -0.5263
  187MPD1    H5 2854   2.117   2.783   0.067  0.4307  1.7006 -0.2734
  187MPD1    N1 2855   1.612   2.984   0.238 -0.0101 -0.6990 -0.5121
  187MPD1    H6 2856   1.578   3.072   0.275  2.0787  0.4342 -1.3126
  187MPD1    H7 2857   1.571   2.967   0.147 -0.9656 -2.8144  0.3007
  188MPD1     C 2858   2.029   1.894  10.631 -0.3613 -0.0152  0.3278
  188MPD1    C1 2859   2.136   1.855  10.552  1.1700  0.3692  0.3740
  188MPD1    C2 2860   2.121   1.734  10.487  0.3164 -0.2851  0.3745
  188MPD1    C3 2861   2.001   1.666  10.487 -0.1311 -0.0837 -0.5019
  188MPD1    C4 2862   1.894   1.720  10.544  0.9653 -0.3540 -0.2552
  188MPD1    C5 2863   1.905   1.838  10.615 -0.2838  0.3761 -0.6640
  188MPD1     H 2864   2.209   1.699  10.434  0.4712 -0.3322  0.6651
  188MPD1    H1 2865   1.793   1.683  10.534  0.9697 -0.2556 -0.6653
  188MPD1    H2 2866   2.024   1.990  10.681 -0.6726  0.3057 -0.3173
  188MPD1    H3 2867   1.816   1.871  10.668  1.2763  0.2263  2.0509
  188MPD1     N 2868   1.980   1.540  10.418  0.3349 -0.4429 -0.2040
  188MPD1    H5 2869   1.888   1.497  10.428 -0.4507  1.1858 -0.5206
  188MPD1    N1 2870   2.258   1.917  10.577  0.4009 -0.1342  0.4478
  188MPD1    H6 2871   2.315   1.906  10.494 -2.4737 -3.2924 -1.1293
  188MPD1    H7 2872   2.240   2.015  10.595  0.1694 -0.0760 -0.1086
  189MPD1     C 2873   4.198   2.639  17.414  0.4277 -0.1597  0.3329
  189MPD1    C1 2874   4.094   2.687  17.336 -0.3212  0.3900 -0.7003
  189MPD1    C2 2875   3.970   2.662  17.386 -0.2660 -0.0433  0.6509
  189MPD1    C3 2876   3.951   2.569  17.489  0.5932 -0.0224 -0.5086
  189MPD1    C4 2877   4.059   2.518  17.561 -0.0482  0.2628 -0.0750
  189MPD1    C5 2878   4.181   2.564  17.523  0.0126 -0.0800 -0.3494
  189MPD1     H 2879   3.888   2.718  17.341  0.3961 -1.4338 -2.2654
  189MPD1    H1 2880   4.055   2.454  17.648 -2.2458  0.8594  0.2727
  189MPD1    H2 2881   4.302   2.656  17.387  0.8888 -2.3668  0.7845
  189MPD1    H3 2882   4.275   2.536  17.571  0.0261  0.8721  0.1736
  189MPD1     N 2883   3.815   2.534  17.518  0.8544 -0.1842 -1.1284
  189MPD1    H5 2884   3.740   2.574  17.463  1.2516 -0.3120 -1.7554
  189MPD1    N1 2885   4.112   2.783  17.231  0.3231 -0.2652  0.5230
  189MPD1    H6 2886   4.195   2.770  17.174 -1.0636 -2.0779 -1.0650
  189MPD1    H7 2887   4.038   2.779  17.161 -2.0686  0.0062  3.0648
  190MPD1     C 2888   1.809   1.233  16.336  0.9416  0.3414 -0.3102
  190MPD1    C1 2889   1.831   1.368  16.321  0.3339  0.9457  0.4164
  190MPD1    C2 2890   1.927   1.415  16.244 -0.5169 -0.0259  0.4081
  190MPD1    C3 2891   2.020   1.323  16.187 -0.2141 -0.3459  0.5522
  190MPD1    C4 2892   2.013   1.192  16.213  0.0684 -0.6761  0.9031
  190MPD1    C5 2893   1.909   1.149  16.289  0.4311 -0.3150 -0.2162
  190MPD1     H 2894   1.938   1.522  16.229 -0.9786  0.3657  2.9743
  190MPD1    H1 2895   2.092   1.120  16.193 -0.6963 -1.5952  1.1829
  190MPD1    H2 2896   1.729   1.187  16.392  0.4900 -0.5611 -1.6925
  190MPD1    H3 2897   1.898   1.042  16.306 -2.7861  0.0685  0.1219
  190MPD1     N 2898   2.121   1.387  16.101 -0.0199 -0.6214  0.3150
  190MPD1    H5 2899   2.119   1.487  16.089  0.4760 -0.7906 -1.1336
  190MPD1    N1 2900   1.733   1.458  16.365  0.4864  0.0596 -0.4287
  190MPD1    H6 2901   1.769   1.553  16.378 -1.0309  0.6432 -0.4712
  190MPD1    H7 2902   1.691   1.425  16.451  0.4525  0.5238 -0.2649
  191MPD1     C 2903   1.481   3.618  12.688  0.5696  0.4282  0.0487
  191MPD1    C1 2904   1.605   3.552  12.661  0.7051 -0.4876 -0.8550
  191MPD1    C2 2905   1.660   3.561  12.533 -0.8793  0.3306 -0.3737
  191MPD1    C3 2906   1.611   3.639  12.433  0.5719  1.5368 -0.1921
  191MPD1    C4 2907   1.499   3.711  12.466  0.6284  0.3538  0.3045
  191MPD1    C5 2908   1.435   3.695  12.586  0.1030 -0.4221 -0.6428
  191MPD1     H 2909   1.741   3.495  12.502 -0.0982  1.3742 -0.5799
  191MPD1    H1 2910   1.457   3.779  12.392 -0.3466 -1.7473 -1.0814
  191MPD1    H2 2911   1.432   3.617  12.785  2.5312  0.7142  1.0413
  191MPD1    H3 2912   1.343   3.751  12.601  0.5587  0.8846 -2.7221
  191MPD1     N 2913   1.682   3.651  12.308  0.0307 -0.0254  0.5361
  191MPD1    H5 2914   1.772   3.608  12.289  1.7298  2.7140  2.4271
  191MPD1    N1 2915   1.659   3.469  12.758 -0.1460  0.4317  0.1708
  191MPD1    H6 2916   1.653   3.498  12.856 -1.9032  1.3999 -0.2188
  191MPD1    H7 2917   1.750   3.432  12.734  0.5936  2.0678  0.4186
  192MPD1     C 2918   1.253   3.342  11.557 -0.4188 -0.1427  0.7027
  192MPD1    C1 2919   1.365   3.384  11.489 -0.2648 -0.2779 -0.1438
  192MPD1    C2 2920   1.464   3.460  11.557 -0.3950  0.1117 -0.5964
  192MPD1    C3 2921   1.432   3.505  11.685  0.0506  0.5346  0.3550
  192MPD1    C4 2922   1.304   3.490  11.733  0.0348  0.0801  0.3925
  192MPD1    C5 2923   1.218   3.405  11.670 -0.2443 -0.5851 -0.4421
  192MPD1     H 2924   1.563   3.471  11.517 -0.5585  2.3820 -0.3519
  192MPD1    H1 2925   1.273   3.523  11.832 -0.9619  0.1316  0.0609
  192MPD1    H2 2926   1.181   3.275  11.511 -0.1600 -0.4602  0.7631
  192MPD1    H3 2927   1.125   3.380  11.720  0.7862 -0.3547  1.5545
  192MPD1     N 2928   1.526   3.586  11.765  0.6079 -0.0704  0.3173
  192MPD1    H5 2929   1.495   3.601  11.860 -1.8766 -1.8016 -0.2066
  192MPD1    N1 2930   1.407   3.330  11.369 -0.0549 -0.5087  0.1027
  192MPD1    H6 2931   1.330   3.297  11.311 -1.2609  2.6740 -0.0941
  192MPD1    H7 2932   1.453   3.406  11.319 -0.5183 -1.0694 -1.1949
  193MPD1     C 2933   1.341   3.592  16.960 -0.1611  0.2620  0.1487
  193MPD1    C1 2934   1.405   3.603  16.841  0.4833  0.4875  0.1879
  193MPD1    C2 2935   1.534   3.657  16.846 -0.3068  0.0558  0.1156
  193MPD1    C3 2936   1.585   3.702  16.967 -0.0533  0.2143 -0.2985
  193MPD1    C4 2937   1.515   3.686  17.084  0.0453  0.3368 -0.3287
  193MPD1    C5 2938   1.392   3.637  17.079 -0.6604  0.6148  0.4378
  193MPD1     H 2939   1.583   3.673  16.751  0.3983 -2.3184  0.0699
  193MPD1    H1 2940   1.547   3.723  17.181  1.1030 -1.1379 -0.1112
  193MPD1    H2 2941   1.239   3.555  16.968 -0.1215 -0.1154 -1.1125
  193MPD1    H3 2942   1.332   3.633  17.169  0.3716 -0.2426  1.0960
  193MPD1     N 2943   1.706   3.776  16.975  0.1049  0.7354  0.8811
  193MPD1    H5 2944   1.729   3.809  17.068  0.9357 -0.1740  0.9967
  193MPD1    N1 2945   1.336   3.575  16.729  0.0854 -0.2218  0.4033
  193MPD1    H6 2946   1.399   3.525  16.667  0.4334 -1.2517  1.5893
  193MPD1    H7 2947   1.259   3.510  16.749 -0.0356 -0.1588  0.1416
  194MPD1     C 2948   3.930   1.573  16.314 -0.2220  0.1370  0.2016
  194MPD1    C1 2949   3.986   1.469  16.237 -0.0054 -0.3020 -0.3012
  194MPD1    C2 2950   4.042   1.361  16.304 -0.7012  0.4303 -0.5698
  194MPD1    C3 2951   4.065   1.373  16.442  0.2629 -1.4315 -0.3057
  194MPD1    C4 2952   4.041   1.489  16.513  0.0379 -0.4570  0.0495
  194MPD1    C5 2953   3.961   1.581  16.453  0.2635 -0.6835  0.1782
  194MPD1     H 2954   4.066   1.270  16.249  0.2888 -0.5157  1.4241
  194MPD1    H1 2955   4.063   1.503  16.619  0.8854  0.3815 -0.2308
  194MPD1    H2 2956   3.864   1.645  16.266 -0.9377 -0.4653  0.2827
  194MPD1    H3 2957   3.930   1.666  16.513 -1.0165 -1.3031  0.4030
  194MPD1     N 2958   4.126   1.272  16.525  0.0478 -0.3215 -0.1418
  194MPD1    H5 2959   4.141   1.293  16.623  0.8901  1.1886 -0.6039
  194MPD1    N1 2960   3.951   1.471  16.100  0.1610  1.3849  1.0317
  194MPD1    H6 2961   3.942   1.566  16.063 -0.4412 -0.2721 -3.0766
  194MPD1    H7 2962   4.017   1.414  16.048 -3.7028 -0.6504 -1.6305
  195MPD1     C 2963   1.063   2.434  17.598 -0.4283 -0.1596 -0.1729
  195MPD1    C1 2964   1.180   2.441  17.538  0.0580 -0.1381  0.1577
  195MPD1    C2 2965   1.255   2.324  17.531  0.5537 -0.9846 -0.1630
  195MPD1    C3 2966   1.215   2.210  17.590  0.5601 -0.9107  0.0699
  195MPD1    C4 2967   1.101   2.210  17.663 -0.3159 -0.4910  0.7125
  195MPD1    C5 2968   1.024   2.324  17.659  0.5633  0.5254  0.8836
  195MPD1     H 2969   1.350   2.317  17.480 -0.2571  0.0954 -1.8408
  195MPD1    H1 2970   1.069   2.123   0.023 -3.1349  0.8283  1.1447
  195MPD1    H2 2971   0.992   2.516  17.603 -1.2320 -0.8506 -0.2388
  195MPD1    H3 2972   0.937   2.330   0.028  0.1376 -0.6746  0.4295
  195MPD1     N 2973   1.283   2.085  17.586 -0.1727 -0.0594  0.0930
  195MPD1    H5 2974   1.243   1.998  17.621  0.7377  0.8304  3.3661
  195MPD1    N1 2975   1.209   2.558  17.460  0.0506  0.5165  0.1647
  195MPD1    H6 2976   1.198   2.639  17.521  0.1554  2.1547 -1.9878
  195MPD1    H7 2977   1.310   2.558  17.442 -0.0726  0.0252 -0.4915
  196MPD1     C 2978   0.921   1.480   0.154  0.7994  0.5241 -0.1287
  196MPD1    C1 2979   0.900   1.608   0.098 -0.5963  0.1208 -1.1371
  196MPD1    C2 2980   0.933   1.719   0.172  0.3104  0.0352  0.1644
  196MPD1    C3 2981   0.984   1.711   0.304  0.8142  0.0806 -0.7708
  196MPD1    C4 2982   1.003   1.584   0.355  0.3730  0.0851 -0.5263
  196MPD1    C5 2983   0.980   1.472   0.278 -0.4213 -0.2030 -0.7846
  196MPD1     H 2984   0.923   1.816   0.126 -0.8893 -0.7738 -1.2668
  196MPD1    H1 2985   1.022   1.582   0.462 -2.5211 -0.5101 -0.0283
  196MPD1    H2 2986   0.902   1.381   0.115  0.2633 -0.0239  1.5198
  196MPD1    H3 2987   0.994   1.379   0.333  1.7159 -1.2143 -3.0524
  196MPD1     N 2988   1.011   1.822   0.388  0.1236  0.2254  0.0346
  196MPD1    H5 2989   1.060   1.797   0.473  1.8774  1.2412 -0.6779
  196MPD1    N1 2990   0.870   1.617  17.661 -1.0483 -0.4865  0.6648
  196MPD1    H6 2991   0.831   1.706  17.633 -1.0105 -0.7519 -0.2306
  196MPD1    H7 2992   0.812   1.537  17.636  0.4425 -0.6068 -2.4806
  197MPD1     C 2993   0.345   3.641  17.242 -0.4412  0.3456 -0.1476
  197MPD1    C1 2994   0.278   3.715  17.150 -0.0964 -0.5635 -0.3293
  197MPD1    C2 2995   0.343   3.827  17.102 -0.5999  0.0405  0.4512
  197MPD1    C3 2996   0.465   3.878  17.143  0.2551  0.3531  0.1910
  197MPD1    C4 2997   0.534   3.799  17.232 -0.7485  0.1677 -0.3839
  197MPD1    C5 2998   0.468   3.689  17.281 -0.1100 -0.4413  0.4539
  197MPD1     H 2999   0.302   3.879  17.016 -0.5472  1.8956  1.5437
  197MPD1    H1 3000   0.628   3.838  17.268 -2.1341 -0.5950  4.0620
  197MPD1    H2 3001   0.314   3.547  17.286  1.0352 -0.3894 -0.6840
  197MPD1    H3 3002   0.522   3.625  17.350  1.1431  1.3964  1.1792
  197MPD1     N 3003   0.517   4.000  17.095  0.1552  0.1549  0.5192
  197MPD1    H5 3004   0.608   4.028  17.132  0.2821 -0.3372  0.5821
  197MPD1    N1 3005   0.170   3.660  17.080  0.1737  0.0930  0.0466
  197MPD1    H6 3006   0.112   3.733  17.039 -1.4217 -0.3382  1.5247
  197MPD1    H7 3007   0.115   3.591  17.132 -0.0430 -0.6525 -1.1655
  198MPD1     C 3008   1.991   3.277  16.082  0.2491 -0.5181 -0.0706
  198MPD1    C1 3009   2.074   3.203  16.000  0.3396 -0.7968 -0.6560
  198MPD1    C2 3010   2.207   3.195  16.030 -0.2833  0.1400 -0.5470
  198MPD1    C3 3011   2.259   3.228  16.145  0.5343  0.6818 -0.8932
  198MPD1    C4 3012   2.182   3.293  16.236 -0.3376  0.5377 -0.2163
  198MPD1    C5 3013   2.047   3.318  16.201  0.5527  0.0646  0.1740
  198MPD1     H 3014   2.273   3.148  15.958  0.5025  0.5298 -0.0816
  198MPD1    H1 3015   2.222   3.336  16.328  0.5497  1.7798 -1.1928
  198MPD1    H2 3016   1.884   3.287  16.066  0.5223  1.3928 -0.6974
  198MPD1    H3 3017   1.991   3.364  16.282  1.4363  1.8936 -0.2640
  198MPD1     N 3018   2.394   3.194  16.164 -0.2803 -0.2100 -0.8457
  198MPD1    H5 3019   2.445   3.140  16.095  0.2071  0.1328 -0.7553
  198MPD1    N1 3020   2.018   3.149  15.879 -0.2182  0.1092  0.7016
  198MPD1    H6 3021   1.917   3.168  15.877 -0.4709 -1.4990 -1.3792
  198MPD1    H7 3022   2.023   3.050  15.900  0.2197 -0.1074 -0.4515
  199MPD1     C 3023   0.081   4.114   9.721  0.1825  0.1385  0.5001
  199MPD1    C1 3024   4.714   4.126   9.617  0.1898 -0.7616 -0.5519
  199MPD1    C2 3025   4.577   4.112   9.646  0.2439  0.3965  0.0871
  199MPD1    C3 3026   4.534   4.058   9.766  0.0555  0.2742  0.5141
  199MPD1    C4 3027   4.627   4.038   9.865  0.0384  0.9805 -0.5607
  199MPD1    C5 3028   0.036   4.067   9.832 -0.2539  0.3063 -0.2675
  199MPD1     H 3029   4.505   4.134   9.568  1.4783 -1.0159 -1.4371
  199MPD1    H1 3030   4.595   4.000   9.962 -0.7149 -0.2466 -1.2866
  199MPD1    H2 3031   0.188   4.129   9.717  0.6115 -3.2391 -0.2626
  199MPD1    H3 3032   0.118   4.055   9.902  0.3871 -1.4720 -1.3124
  199MPD1     N 3033   4.399   4.013   9.785 -0.3073 -0.2020 -0.0331
  199MPD1    H5 3034   4.389   3.973   9.878 -3.2680  0.0841 -0.2289
  199MPD1    N1 3035   0.038   4.173   9.494 -0.3369 -0.1558  0.1954
  199MPD1    H6 3036   4.704   4.147   9.414  0.5508  0.5086 -0.6576
  199MPD1    H7 3037   0.128   4.128   9.478 -0.1766  1.3514 -3.0837
  200MPD1     C 3038   2.637   3.342  14.335 -0.0919 -0.0629  0.3517
  200MPD1    C1 3039   2.721   3.320  14.441 -0.1261  0.0795 -0.2239
  200MPD1    C2 3040   2.857   3.335  14.418 -0.4438 -0.1300 -0.4908
  200MPD1    C3 3041   2.916   3.369  14.299  0.4076  0.0625 -0.0707
  200MPD1    C4 3042   2.832   3.396  14.193 -0.2190 -0.1320  0.8072
  200MPD1    C5 3043   2.697   3.370  14.216  0.2296  0.0672  0.6609
  200MPD1     H 3044   2.919   3.317  14.505 -1.6106 -0.1176  0.3559
  200MPD1    H1 3045   2.874   3.439  14.102 -1.3785 -4.3875 -1.7233
  200MPD1    H2 3046   2.534   3.309  14.331 -0.5071  1.1382  1.3904
  200MPD1    H3 3047   2.634   3.380  14.128  1.3250  0.4671 -0.0914
  200MPD1     N 3048   3.049   3.406  14.306  0.0865 -0.5055 -0.1989
  200MPD1    H5 3049   3.090   3.392  14.398 -0.4479 -1.4132 -0.0949
  200MPD1    N1 3050   2.662   3.294  14.561 -0.0202 -0.0788 -0.7932
  200MPD1    H6 3051   2.563   3.269  14.555  0.5767 -1.9919 -2.4528
  200MPD1    H7 3052   2.712   3.236  14.628 -0.9790 -0.7156 -0.6341
  201MPD1     C 3053   0.461   2.959  13.127 -0.3881 -0.0373  0.2401
  201MPD1    C1 3054   0.473   2.840  13.050  0.3407  0.5067 -0.2043
  201MPD1    C2 3055   0.590   2.769  13.060 -0.5946 -0.3476  0.2192
  201MPD1    C3 3056   0.699   2.821  13.133 -0.0147 -0.0866  0.3702
  201MPD1    C4 3057   0.680   2.931  13.216  0.0613 -0.5882  0.0984
  201MPD1    C5 3058   0.564   2.999  13.208  0.2640 -0.1529  0.3349
  201MPD1     H 3059   0.602   2.681  12.997 -0.1497 -0.2928  0.2276
  201MPD1    H1 3060   0.754   2.963  13.289 -1.3564 -2.0510  2.1778
  201MPD1    H2 3061   0.375   3.025  13.132 -1.7203 -1.6455 -1.2675
  201MPD1    H3 3062   0.543   3.075  13.283 -1.0160 -0.5058  0.3343
  201MPD1     N 3063   0.823   2.744  13.136  0.0170 -0.7242 -0.5475
  201MPD1    H5 3064   0.808   2.662  13.078 -1.8441 -0.9549  0.2542
  201MPD1    N1 3065   0.369   2.794  12.967  0.4066  0.2206  0.2100
  201MPD1    H6 3066   0.386   2.701  12.929  0.1472  0.9105 -1.5825
  201MPD1    H7 3067   0.273   2.816  12.993  0.0290 -1.0188 -0.1193
  202MPD1     C 3068   1.085   2.241   9.104 -0.0107 -0.2326 -0.3449
  202MPD1    C1 3069   1.054   2.348   9.192 -0.1585 -0.5184 -0.4373
  202MPD1    C2 3070   1.046   2.310   9.321 -0.2452  0.4712 -0.5534
  202MPD1    C3 3071   1.025   2.177   9.360  0.2048 -0.3383  0.1496
  202MPD1    C4 3072   1.037   2.079   9.267  0.1079 -0.1356 -0.3743
  202MPD1    C5 3073   1.076   2.111   9.139  0.9631  0.8877 -0.0103
  202MPD1     H 3074   1.038   2.392   9.392  2.4615  1.0763 -0.9563
  202MPD1    H1 3075   1.051   1.973   9.286 -2.9347 -0.3370  0.5795
  202MPD1    H2 3076   1.105   2.263   9.000 -1.7306 -0.8425 -0.8035
  202MPD1    H3 3077   1.081   2.033   9.063 -0.0554  0.0505  0.7764
  202MPD1     N 3078   1.003   2.144   9.494 -0.4437 -0.3929  0.1662
  202MPD1    H5 3079   0.994   2.046   9.516 -2.0010 -0.0459  1.0928
  202MPD1    N1 3080   1.093   2.480   9.156  0.3431  0.0188 -0.0218
  202MPD1    H6 3081   1.052   2.554   9.213  0.1986 -0.4028  0.4168
  202MPD1    H7 3082   1.081   2.499   9.057 -0.1861 -0.2413 -0.0046
  203MPD1     C 3083   4.044   3.207  12.783  0.6382 -0.0492 -0.3176
  203MPD1    C1 3084   4.065   3.191  12.653  0.7127 -0.0675 -1.2482
  203MPD1    C2 3085   4.193   3.144  12.613  0.0222 -0.6247  0.5260
  203MPD1    C3 3086   4.284   3.101  12.708  0.7303 -0.0174 -0.3705
  203MPD1    C4 3087   4.256   3.122  12.841  0.4615  0.3656 -0.1084
  203MPD1    C5 3088   4.138   3.175  12.874  0.5224 -0.0836 -0.1180
  203MPD1     H 3089   4.214   3.126  12.508  1.5510 -2.0728  1.0862
  203MPD1    H1 3090   4.322   3.106  12.925 -1.0659 -3.1605  0.4156
  203MPD1    H2 3091   3.951   3.249  12.818 -0.8361 -3.3447 -0.2746
  203MPD1    H3 3092   4.124   3.196  12.979  1.0256  0.0916 -0.0833
  203MPD1     N 3093   4.411   3.050  12.675 -0.3155  0.8111  0.0116
  203MPD1    H5 3094   4.484   3.037  12.744  0.7757  2.4416 -0.8444
  203MPD1    N1 3095   3.979   3.244  12.554 -0.1195  0.2491 -0.1908
  203MPD1    H6 3096   3.881   3.229  12.576  0.1110  0.2114  0.8023
  203MPD1    H7 3097   3.992   3.219  12.456 -1.0425 -2.8207  0.4975
  204MPD1     C 3098   3.713   3.829  17.454  0.0927 -0.8227  0.3942
  204MPD1    C1 3099   3.845   3.874  17.408  0.2425  0.3993 -0.1701
  204MPD1    C2 3100   3.880   3.839  17.282  0.2711 -0.9185 -0.1966
  204MPD1    C3 3101   3.810   3.758  17.201 -0.0711  0.0278  0.1280
  204MPD1    C4 3102   3.685   3.718  17.235  0.9929  0.2331 -0.4509
  204MPD1    C5 3103   3.644   3.751  17.364  0.4130 -0.8480  0.3905
  204MPD1     H 3104   3.973   3.885  17.250 -0.3729  1.6613  1.6399
  204MPD1    H1 3105   3.629   3.644  17.180  0.0540  1.0914 -0.6555
  204MPD1    H2 3106   3.683   3.843  17.557  0.6569 -0.1720  0.4667
  204MPD1    H3 3107   3.554   3.704  17.404 -0.6709  0.2556 -0.7532
  204MPD1     N 3108   3.872   3.722  17.079 -0.6182 -0.1526 -0.2793
  204MPD1    H5 3109   3.966   3.759  17.068 -0.3874 -0.8205 -0.5477
  204MPD1    N1 3110   3.920   3.967  17.478 -0.7375  0.4887  0.3142
  204MPD1    H6 3111   4.019   3.965  17.453 -0.6290  0.5564  0.7448
  204MPD1    H7 3112   3.901   3.951  17.577  1.0946  1.1127  0.7771
  205MPD1     C 3113   0.090   3.274  15.919  0.0443  0.3052 -0.4923
  205MPD1    C1 3114   0.129   3.142  15.896  0.5916 -0.8881  0.3535
  205MPD1    C2 3115   0.081   3.043  15.988 -0.0070 -0.1335  0.6357
  205MPD1    C3 3116   4.702   3.072  16.083  0.2331  0.4681 -0.4279
  205MPD1    C4 3117   4.672   3.203  16.095  0.5888  0.4686 -0.3375
  205MPD1    C5 3118   0.004   3.306  16.019  0.4389  0.1335  0.5393
  205MPD1     H 3119   0.128   2.946  15.990 -0.3308 -0.3002 -0.0394
  205MPD1    H1 3120   4.600   3.236  16.169  1.8843 -0.9000  1.5064
  205MPD1    H2 3121   0.130   3.364  15.874 -1.7539  0.0268 -2.6274
  205MPD1    H3 3122   4.706   3.412  16.031  0.8860  0.4160 -1.1426
  205MPD1     N 3123   4.653   2.983  16.180  0.4884  0.6376 -0.5544
  205MPD1    H5 3124   4.595   3.020  16.254  2.0213 -0.6823  1.2993
  205MPD1    N1 3125   0.240   3.118  15.810 -0.6194 -0.4982 -0.1725
  205MPD1    H6 3126   0.242   3.179  15.729 -1.9255 -0.3931 -0.1150
  205MPD1    H7 3127   0.255   3.020  15.786  0.0106 -0.0217 -1.7193
  206MPD1     C 3128   4.382   1.649  16.842  0.1820 -0.5630 -0.0356
  206MPD1    C1 3129   4.449   1.528  16.843 -0.1361 -0.5843 -0.7294
  206MPD1    C2 3130   4.463   1.455  16.718  0.3729  0.2432 -0.2529
  206MPD1    C3 3131   4.403   1.508  16.605 -0.8509 -0.3512  0.5945
  206MPD1    C4 3132   4.332   1.625  16.608  0.8082 -0.1137 -0.1347
  206MPD1    C5 3133   4.315   1.688  16.733  0.3142  0.1279 -0.1071
  206MPD1     H 3134   4.528   1.368  16.718  1.4180  1.0305  0.3078
  206MPD1    H1 3135   4.287   1.669  16.520  0.2800 -0.8346 -0.2258
  206MPD1    H2 3136   4.358   1.705  16.932  0.5378  1.8462 -1.4316
  206MPD1    H3 3137   4.252   1.775  16.749  0.9055  0.4319  0.5345
  206MPD1     N 3138   4.398   1.444  16.482 -0.2000 -0.0004  0.2972
  206MPD1    H5 3139   4.351   1.492  16.406  0.5797  0.9150  0.3918
  206MPD1    N1 3140   4.518   1.486  16.966  0.2036  0.1331  0.1863
  206MPD1    H6 3141   4.486   1.535  17.050 -1.2397 -1.4625  0.5770
  206MPD1    H7 3142   4.509   1.386  16.978  1.5441 -0.2026 -1.6887
  207MPD1     C 3143   1.877   2.571   9.746 -0.3046 -0.3845  0.2743
  207MPD1    C1 3144   1.931   2.503   9.851 -1.1875 -0.9931 -0.4285
  207MPD1    C2 3145   2.004   2.577   9.946 -0.4020  0.1026  0.9210
  207MPD1    C3 3146   2.028   2.713   9.939 -0.0296  0.3349  0.4797
  207MPD1    C4 3147   1.982   2.780   9.828 -0.1559  1.0195 -0.0508
  207MPD1    C5 3148   1.903   2.707   9.737  0.1109 -0.4609  0.7754
  207MPD1     H 3149   2.050   2.521  10.027  0.5158 -1.4482 -0.6735
  207MPD1    H1 3150   1.990   2.888   9.821 -2.8719  1.3316  1.3435
  207MPD1    H2 3151   1.843   2.523   9.655 -2.6530  2.9199 -0.5797
  207MPD1    H3 3152   1.873   2.746   9.640 -0.2716 -0.3944  0.9177
  207MPD1     N 3153   2.089   2.788  10.041  0.5631 -0.0785  0.5255
  207MPD1    H5 3154   2.101   2.887  10.018 -0.4547  0.1503  1.0116
  207MPD1    N1 3155   1.929   2.363   9.858 -0.6101 -0.3121  0.0216
  207MPD1    H6 3156   1.954   2.323   9.948 -0.6581  0.2082  0.2623
  207MPD1    H7 3157   1.835   2.335   9.829 -0.3781 -0.8174 -0.2639
  208MPD1     C 3158   0.816   2.930  17.355 -0.6864 -0.0943  0.3560
  208MPD1    C1 3159   0.878   2.813  17.373  0.3925 -0.8872 -0.0798
  208MPD1    C2 3160   0.803   2.695  17.358  0.0202  0.1769 -0.3565
  208MPD1    C3 3161   0.683   2.695  17.295 -0.3890  0.4275 -0.2482
  208MPD1    C4 3162   0.625   2.812  17.258  0.1478 -0.1161  0.1280
  208MPD1    C5 3163   0.689   2.929  17.297  0.4563 -0.3400  0.2060
  208MPD1     H 3164   0.839   2.598  17.390 -1.4881 -0.3992 -0.3835
  208MPD1    H1 3165   0.521   2.821  17.232 -0.1110  0.9086  1.4743
  208MPD1    H2 3166   0.862   3.023  17.385 -1.5264  0.4930 -0.1731
  208MPD1    H3 3167   0.639   3.025  17.286 -0.6440 -1.0457 -0.8295
  208MPD1     N 3168   0.623   2.568  17.267 -0.0206 -0.4400 -0.1209
  208MPD1    H5 3169   0.640   2.495  17.335 -0.8835 -0.3428  0.1978
  208MPD1    N1 3170   0.993   2.818  17.453 -0.6630 -0.3675  0.6506
  208MPD1    H6 3171   1.042   2.729  17.449 -1.5625 -0.8101 -0.8104
  208MPD1    H7 3172   1.057   2.892  17.423  1.0317 -2.2323 -0.2824
  209MPD1     C 3173   2.100   2.815  12.063  0.4712  0.3014 -0.2105
  209MPD1    C1 3174   2.058   2.929  12.011  0.4188 -0.4855 -0.2814
  209MPD1    C2 3175   2.105   2.959  11.885 -0.6538  0.1460 -0.5903
  209MPD1    C3 3176   2.180   2.865  11.810  0.4437 -0.0693 -0.2451
  209MPD1    C4 3177   2.205   2.737  11.854  0.5998 -0.2133 -0.0445
  209MPD1    C5 3178   2.166   2.720  11.987 -0.3511  0.0809 -0.6869
  209MPD1     H 3179   2.079   3.057  11.847  0.8026  0.4066 -0.9159
  209MPD1    H1 3180   2.241   2.648  11.803  0.0299 -0.1568 -0.5429
  209MPD1    H2 3181   2.078   2.784  12.164  3.1281  1.0988  0.6270
  209MPD1    H3 3182   2.190   2.629  12.040 -3.1326 -0.4522 -0.3524
  209MPD1     N 3183   2.224   2.907  11.679  0.6948 -0.3021 -0.9993
  209MPD1    H5 3184   2.202   3.002  11.650  1.3321  0.4187  0.9173
  209MPD1    N1 3185   2.009   3.031  12.097 -0.0670  0.2981  0.4621
  209MPD1    H6 3186   1.944   2.990  12.164 -2.1093  0.2265 -1.5911
  209MPD1    H7 3187   1.965   3.106  12.044  0.6448  0.6329  0.3332
  210MPD1     C 3188   2.539   3.732  11.283  0.1306 -0.0575  0.3270
  210MPD1    C1 3189   2.616   3.662  11.376 -0.6107 -0.2544  0.6769
  210MPD1    C2 3190   2.584   3.527  11.384 -0.4989  0.5433  0.6105
  210MPD1    C3 3191   2.503   3.464  11.292 -0.0650 -0.4610 -0.3725
  210MPD1    C4 3192   2.442   3.534  11.197  0.0505  0.4948 -0.1773
  210MPD1    C5 3193   2.460   3.669  11.194  1.0615  0.1791  0.2535
  210MPD1     H 3194   2.605   3.461  11.468 -1.7202 -0.6539 -0.0354
  210MPD1    H1 3195   2.383   3.488  11.118  0.1854  0.7777 -0.4434
  210MPD1    H2 3196   2.539   3.840  11.270  0.9358 -0.3300 -1.8113
  210MPD1    H3 3197   2.392   3.730  11.136 -0.3347 -0.8231  0.8257
  210MPD1     N 3198   2.468   3.331  11.300 -0.8075  0.1164  0.3777
  210MPD1    H5 3199   2.426   3.295  11.215 -0.8241  1.1931 -0.0649
  210MPD1    N1 3200   2.686   3.726  11.477 -0.1744 -0.3839 -0.1792
  210MPD1    H6 3201   2.768   3.675  11.509 -0.8827 -1.9596 -0.8485
  210MPD1    H7 3202   2.720   3.818  11.449  1.4728 -1.2913 -1.1757
  211MPD1     C 3203   0.414   2.426  15.495  0.5126 -0.5380  0.2055
  211MPD1    C1 3204   0.299   2.366  15.518  0.0685  0.0064  0.1716
  211MPD1    C2 3205   0.201   2.447  15.565  0.3653 -0.0179 -0.2779
  211MPD1    C3 3206   0.193   2.580  15.577 -0.0197  0.5764  1.2370
  211MPD1    C4 3207   0.317   2.641  15.540 -0.6311 -0.4776  0.1090
  211MPD1    C5 3208   0.426   2.565  15.499 -0.4029  0.4771 -0.1179
  211MPD1     H 3209   0.106   2.400  15.589  0.5518 -1.1595 -1.7786
  211MPD1    H1 3210   0.324   2.749  15.543 -3.6675 -0.3303  2.1623
  211MPD1    H2 3211   0.498   2.369  15.458  0.2829 -1.0534  0.4811
  211MPD1    H3 3212   0.523   2.603  15.468  0.3294 -1.3948 -0.1198
  211MPD1     N 3213   0.080   2.641  15.636 -0.1072 -0.0478 -0.1970
  211MPD1    H5 3214   0.002   2.579  15.651 -1.0954  1.3232  0.3564
  211MPD1    N1 3215   0.291   2.229  15.518  0.0152 -1.2103  0.3559
  211MPD1    H6 3216   0.193   2.210  15.495 -0.7893  1.4101  1.6832
  211MPD1    H7 3217   0.346   2.196  15.439 -1.1759 -0.6983 -0.6973
  212MPD1     C 3218   3.637   1.629  16.495 -0.3078  0.0028 -1.0511
  212MPD1    C1 3219   3.580   1.667  16.620 -0.0590 -0.5485  0.1905
  212MPD1    C2 3220   3.504   1.574  16.690  0.2467 -0.1919  0.2783
  212MPD1    C3 3221   3.457   1.464  16.619 -0.2206 -0.3232 -0.6776
  212MPD1    C4 3222   3.498   1.445  16.485 -0.0034 -0.0680 -0.3350
  212MPD1    C5 3223   3.584   1.528  16.425 -0.1019 -0.9100 -0.1804
  212MPD1     H 3224   3.470   1.587  16.792 -3.1950 -1.2033 -0.7274
  212MPD1    H1 3225   3.469   1.357  16.429  0.9970 -0.2546 -0.5609
  212MPD1    H2 3226   3.723   1.686  16.461  0.9417  0.4270  2.8603
  212MPD1    H3 3227   3.625   1.498  16.329 -0.5054 -2.4280  0.1118
  212MPD1     N 3228   3.367   1.360  16.663 -0.2835  0.4073  0.5803
  212MPD1    H5 3229   3.346   1.290  16.592  0.3826  0.9256 -0.1375
  212MPD1    N1 3230   3.638   1.769  16.697  0.7261 -0.2603 -0.0587
  212MPD1    H6 3231   3.568   1.801  16.763 -0.2659 -2.0040 -0.2705
  212MPD1    H7 3232   3.685   1.844  16.647 -1.7862  1.7890  0.6818
  213MPD1     C 3233   1.751   2.100  16.152  0.8265 -0.2026 -0.6763
  213MPD1    C1 3234   1.646   2.016  16.162 -0.4013  0.7132 -0.7460
  213MPD1    C2 3235   1.598   1.976  16.033 -0.4048 -0.1849  0.1046
  213MPD1    C3 3236   1.631   2.047  15.918  0.0603 -0.3243  0.5716
  213MPD1    C4 3237   1.733   2.140  15.924 -0.0134  0.2598 -0.4115
  213MPD1    C5 3238   1.793   2.168  16.042  0.5658  0.3173  0.2331
  213MPD1     H 3239   1.520   1.902  16.022 -0.5729 -0.0392  0.2877
  213MPD1    H1 3240   1.771   2.193  15.838  2.1786 -1.1622 -0.3393
  213MPD1    H2 3241   1.785   2.139  16.247  0.6243 -0.3586 -0.5393
  213MPD1    H3 3242   1.866   2.245  16.062  1.8011 -0.1251 -2.6683
  213MPD1     N 3243   1.555   2.011  15.806  0.0735  0.0430  0.4440
  213MPD1    H5 3244   1.493   1.931  15.805  1.2691 -0.8886  2.2598
  213MPD1    N1 3245   1.641   1.923  16.266  0.1875 -0.3816  0.2205
  213MPD1    H6 3246   1.661   1.975  16.351  0.7643 -0.7661  0.3186
  213MPD1    H7 3247   1.545   1.888  16.271 -0.2352  0.5454 -1.3772
  214MPD1     C 3248   1.462   1.218  15.508 -0.3026  0.0021 -0.2636
  214MPD1    C1 3249   1.439   1.293  15.390 -0.5447 -0.0543 -0.5135
  214MPD1    C2 3250   1.410   1.428  15.391 -0.4182 -0.9335 -0.0317
  214MPD1    C3 3251   1.396   1.491  15.520  1.0145  0.8147 -0.0691
  214MPD1    C4 3252   1.411   1.417  15.632 -0.6074 -0.3811 -0.3332
  214MPD1    C5 3253   1.442   1.285  15.628  0.3337 -0.6297  0.8401
  214MPD1     H 3254   1.417   1.485  15.299  2.6427  1.0432  1.4364
  214MPD1    H1 3255   1.396   1.459  15.731  1.8104  1.0994 -0.6099
  214MPD1    H2 3256   1.505   1.118  15.506  1.2173  0.6942 -2.2748
  214MPD1    H3 3257   1.477   1.239  15.720  0.1517 -0.8103  0.8198
  214MPD1     N 3258   1.380   1.632  15.539 -0.4899 -0.4387  0.3052
  214MPD1    H5 3259   1.400   1.670  15.631  1.7065 -0.5506 -0.1129
  214MPD1    N1 3260   1.473   1.229  15.272 -0.1476  0.3117  0.5822
  214MPD1    H6 3261   1.429   1.137  15.275  1.4129 -0.4065  1.3798
  214MPD1    H7 3262   1.435   1.262  15.183 -1.4738  0.5840  1.2535
  215MPD1     C 3263   2.135   1.972  11.076  0.0204 -0.3181 -0.1868
  215MPD1    C1 3264   2.241   2.056  11.103 -0.7131 -0.3009 -0.0596
  215MPD1    C2 3265   2.216   2.190  11.113 -0.1350 -1.0778 -0.1108
  215MPD1    C3 3266   2.090   2.243  11.080 -0.8660  0.7293 -0.0722
  215MPD1    C4 3267   1.985   2.158  11.044  0.2744  0.0899  0.0076
  215MPD1    C5 3268   2.012   2.024  11.045  0.1346  0.5300 -0.2411
  215MPD1     H 3269   2.289   2.263  11.144 -0.9713 -0.5478  0.6256
  215MPD1    H1 3270   1.888   2.194  11.012  0.0033 -1.6795 -1.1857
  215MPD1    H2 3271   2.150   1.866  11.064 -2.2656 -0.8176  1.4047
  215MPD1    H3 3272   1.939   1.957  11.000  0.5332  0.2798 -0.5160
  215MPD1     N 3273   2.074   2.387  11.084  0.5513 -0.6040 -1.3052
  215MPD1    H5 3274   2.150   2.438  11.128 -0.0928 -1.2439  0.5417
  215MPD1    N1 3275   2.369   2.002  11.131 -0.1246 -0.5929  0.1756
  215MPD1    H6 3276   2.374   1.908  11.091 -0.5324 -1.6114  2.5446
  215MPD1    H7 3277   2.445   2.056  11.089  0.8439 -1.8352  0.3054
  216MPD1     C 3278   3.680   4.685  16.481 -0.2285  0.1935 -0.2806
  216MPD1    C1 3279   3.649   4.640  16.608  0.3869 -0.0802  0.9034
  216MPD1    C2 3280   3.744   4.657  16.709  0.6629  0.7853 -0.4725
  216MPD1    C3 3281   3.871   4.719  16.684 -0.0510 -0.0104 -0.3475
  216MPD1    C4 3282   3.891   0.049  16.563  0.2274 -0.4863 -0.1837
  216MPD1    C5 3283   3.796   0.031  16.463  0.5571  0.2832  0.2036
  216MPD1     H 3284   3.713   4.632  16.810 -0.3052 -3.0175 -1.6911
  216MPD1    H1 3285   3.970   0.119  16.537 -0.0085 -0.3297 -0.4849
  216MPD1    H2 3286   3.616   4.660  16.397 -0.0999 -3.0437  0.6009
  216MPD1    H3 3287   3.827   0.072  16.368  1.1633  0.9266  0.6796
  216MPD1     N 3288   3.957   0.017  16.793  0.0885  0.3495 -0.2227
  216MPD1    H5 3289   3.933   4.690  16.878 -0.7752  0.9592 -0.1040
  216MPD1    N1 3290   3.540   4.556  16.631 -0.2309 -0.2875 -0.2866
  216MPD1    H6 3291   3.497   4.567  16.723 -2.1226  1.3615 -1.3602
  216MPD1    H7 3292   3.462   4.579  16.570  0.7156 -0.5294 -1.6025
  217MPD1     C 3293   3.695   1.337   9.043  0.2344  0.4287  0.0747
  217MPD1    C1 3294   3.806   1.271   9.099  0.3560 -0.7473 -0.0560
  217MPD1    C2 3295   3.918   1.347   9.129  0.2786  0.3225 -0.2102
  217MPD1    C3 3296   3.916   1.483   9.130  0.3346  0.5326  0.2712
  217MPD1    C4 3297   3.801   1.548   9.089  0.0612  0.1908  0.7106
  217MPD1    C5 3298   3.694   1.474   9.048  0.2986  0.0026 -0.5758
  217MPD1     H 3299   4.004   1.286   9.154  0.2333  0.4725  0.3105
  217MPD1    H1 3300   3.787   1.655   9.073  1.2791 -0.1395 -2.6662
  217MPD1    H2 3301   3.608   1.284   9.005  1.3254 -0.2335 -1.5112
  217MPD1    H3 3302   3.603   1.521   9.012 -0.3425 -0.0722  0.9268
  217MPD1     N 3303   4.034   1.559   9.156  0.0591 -0.4479 -0.9039
  217MPD1    H5 3304   4.029   1.661   9.156 -0.4807 -0.4736  1.3389
  217MPD1    N1 3305   3.821   1.128   9.086  0.2670  0.3890 -0.1309
  217MPD1    H6 3306   3.881   1.099   9.163  0.8605 -0.4880 -0.9350
  217MPD1    H7 3307   3.734   1.078   9.100  0.4743 -0.5418 -2.2523
  218MPD1     C 3308   0.800   2.848  12.742  0.1873 -0.2676 -0.0487
  218MPD1    C1 3309   0.874   2.737  12.717  0.0279 -0.3748 -0.0926
  218MPD1    C2 3310   1.006   2.751  12.667 -0.3869 -0.0729  0.6395
  218MPD1    C3 3311   1.064   2.872  12.649  0.5618  0.3375  0.5237
  218MPD1    C4 3312   0.988   2.987  12.675  0.5117  0.9647  0.3107
  218MPD1    C5 3313   0.860   2.976  12.727  0.4931 -0.5145  0.8691
  218MPD1     H 3314   1.056   2.657  12.649 -0.1869  0.0351  0.6418
  218MPD1    H1 3315   1.020   3.090  12.671  1.7077  0.6330  1.4393
  218MPD1    H2 3316   0.702   2.852  12.787 -0.0564  2.4455 -0.7969
  218MPD1    H3 3317   0.791   3.056  12.749 -0.8864 -1.9279  1.6338
  218MPD1     N 3318   1.195   2.880  12.597 -0.2088  0.2354 -0.8884
  218MPD1    H5 3319   1.247   2.793  12.600 -0.0017  0.3819 -0.3312
  218MPD1    N1 3320   0.823   2.607  12.713  0.4722 -0.1619 -0.1004
  218MPD1    H6 3321   0.902   2.547  12.731  1.5840  1.2409 -0.2900
  218MPD1    H7 3322   0.759   2.594  12.791  2.8534 -1.4360  1.6237
  219MPD1     C 3323   1.692   3.320  11.900 -0.2084  0.9499  1.4348
  219MPD1    C1 3324   1.791   3.294  11.987 -0.2099  0.1450  0.6454
  219MPD1    C2 3325   1.766   3.242  12.120  0.2794  0.0440  1.0265
  219MPD1    C3 3326   1.637   3.243  12.162 -0.3577 -0.5416  0.0473
  219MPD1    C4 3327   1.534   3.276  12.076  0.1409  0.8680  0.3604
  219MPD1    C5 3328   1.563   3.316  11.946 -0.0463 -0.5063 -0.1486
  219MPD1     H 3329   1.842   3.204  12.188 -0.5332 -0.1953  1.7883
  219MPD1    H1 3330   1.430   3.256  12.102  0.1010 -0.4551 -0.7903
  219MPD1    H2 3331   1.703   3.338  11.793 -1.4917  0.1862  1.1715
  219MPD1    H3 3332   1.488   3.345  11.873 -0.6022 -0.7739  0.3209
  219MPD1     N 3333   1.597   3.193  12.288 -0.1532 -0.5170  0.1124
  219MPD1    H5 3334   1.496   3.197  12.300 -0.0734 -0.6897  0.8369
  219MPD1    N1 3335   1.915   3.287  11.930  0.1950  0.5631  0.8292
  219MPD1    H6 3336   1.996   3.301  11.989  1.4204  0.5527 -0.8399
  219MPD1    H7 3337   1.922   3.328  11.837  3.6139 -2.1914 -0.1170
  220MPD1     C 3338   1.672   1.821  10.132 -0.8804  0.1672 -0.0790
  220MPD1    C1 3339   1.636   1.865  10.006 -0.0324 -0.8206  0.3521
  220MPD1    C2 3340   1.624   2.000   9.970  0.0146  0.3058  0.4185
  220MPD1    C3 3341   1.640   2.093  10.076 -0.1472 -0.0265 -0.2327
  220MPD1    C4 3342   1.671   2.053  10.200 -1.1002 -0.0629 -0.3775
  220MPD1    C5 3343   1.691   1.919  10.227 -0.2903  0.3221 -0.1062
  220MPD1     H 3344   1.612   2.029   9.867 -2.1268 -1.7434  0.0884
  220MPD1    H1 3345   1.697   2.115  10.286 -1.4366 -0.3578 -0.0620
  220MPD1    H2 3346   1.689   1.719  10.162  0.4683  0.4172 -0.0066
  220MPD1    H3 3347   1.717   1.890  10.328 -0.0829 -0.7209 -0.4606
  220MPD1     N 3348   1.634   2.234  10.029  0.3972 -0.0739 -0.2905
  220MPD1    H5 3349   1.604   2.263   9.936 -0.5265 -0.2425 -0.0503
  220MPD1    N1 3350   1.649   1.770   9.902  0.1382 -0.0609  1.0180
  220MPD1    H6 3351   1.598   1.686   9.928 -1.5610  1.2196  1.8300
  220MPD1    H7 3352   1.607   1.799   9.814 -0.9841  0.2174  1.6466
  221MPD1     C 3353   3.681   2.748  15.588  0.1561 -0.4260  0.4193
  221MPD1    C1 3354   3.817   2.767  15.581  0.1871  0.5681  0.0058
  221MPD1    C2 3355   3.899   2.679  15.657 -0.2154  0.0938  0.5904
  221MPD1    C3 3356   3.843   2.575  15.722  0.1663 -0.1081 -0.1367
  221MPD1    C4 3357   3.706   2.549  15.703 -0.5330  0.6367  0.1183
  221MPD1    C5 3358   3.627   2.642  15.648  0.5697  0.1778 -0.1341
  221MPD1     H 3359   4.006   2.687  15.664 -0.3003  4.2135 -3.1307
  221MPD1    H1 3360   3.662   2.456  15.736 -0.9674  0.0483 -2.1068
  221MPD1    H2 3361   3.612   2.825  15.554  0.2883 -0.6124 -0.2632
  221MPD1    H3 3362   3.520   2.634  15.637  0.7479 -1.7953 -0.4803
  221MPD1     N 3363   3.920   2.474  15.775 -0.4579  0.1181 -0.2923
  221MPD1    H5 3364   3.870   2.387  15.791  1.2058 -1.2550 -2.4685
  221MPD1    N1 3365   3.863   2.887  15.533  0.6137  0.2361  0.0245
  221MPD1    H6 3366   3.813   2.947  15.468  0.7371 -0.2606 -0.5316
  221MPD1    H7 3367   3.958   2.879  15.498  0.7296  1.1216  0.1525
  222MPD1     C 3368   3.184   0.774  17.658 -0.2996  0.1413 -0.0854
  222MPD1    C1 3369   3.172   0.753  17.520  0.2087  0.6920  0.4275
  222MPD1    C2 3370   3.227   0.849  17.435  0.1324 -0.4353  0.1021
  222MPD1    C3 3371   3.298   0.957  17.486  0.6767 -0.7729  0.3888
  222MPD1    C4 3372   3.305   0.973  17.624  0.1745 -0.1161  0.5298
  222MPD1    C5 3373   3.242   0.890   0.006  0.1000 -0.2707 -0.0343
  222MPD1     H 3374   3.221   0.831  17.329 -0.1257  0.4003 -0.0273
  222MPD1    H1 3375   3.357   1.062  17.660  1.5769 -1.4034  1.7070
  222MPD1    H2 3376   3.142   0.703   0.032  0.8035 -0.5723 -0.1469
  222MPD1    H3 3377   3.227   0.927   0.107 -0.1722  1.5732 -0.7589
  222MPD1     N 3378   3.355   1.057  17.404 -0.2008 -0.1819 -0.0545
  222MPD1    H5 3379   3.386   1.137  17.458 -0.1816 -0.8635  0.9666
  222MPD1    N1 3380   3.086   0.650  17.475  0.5939  0.0758 -0.3728
  222MPD1    H6 3381   3.105   0.624  17.378 -0.7708 -2.3464  0.0389
  222MPD1    H7 3382   3.087   0.571  17.538 -1.3350 -1.1927 -1.9460
  223MPD1     C 3383   3.694   1.050  16.453 -0.6624 -0.6032 -0.4847
  223MPD1    C1 3384   3.647   0.954  16.531  0.4224  1.0323  0.8832
  223MPD1    C2 3385   3.626   0.983  16.663  0.3202 -0.3618 -0.4576
  223MPD1    C3 3386   3.645   1.109  16.712  0.8853  1.1336  0.7194
  223MPD1    C4 3387   3.683   1.209  16.625  0.4865 -0.3044 -0.0072
  223MPD1    C5 3388   3.713   1.174  16.501 -0.0832  0.1329  0.2755
  223MPD1     H 3389   3.593   0.904  16.729  0.9824 -0.0388  0.2639
  223MPD1    H1 3390   3.685   1.314  16.652  0.7191 -0.5241  0.8327
  223MPD1    H2 3391   3.716   1.027  16.349 -1.8155 -0.0709 -0.8490
  223MPD1    H3 3392   3.742   1.250  16.429 -0.5156  0.8750  0.8858
  223MPD1     N 3393   3.607   1.140  16.844 -0.2252  0.0424  0.0388
  223MPD1    H5 3394   3.560   1.072  16.902  0.2994  2.7190  3.6052
  223MPD1    N1 3395   3.654   0.819  16.490 -0.0546 -0.3034  0.6418
  223MPD1    H6 3396   3.588   0.750  16.526 -0.8596 -0.7549 -1.6835
  223MPD1    H7 3397   3.644   0.815  16.389  2.8230  1.3775  0.3044
  224MPD1     C 3398   0.269   2.980   9.116 -0.3730 -0.4809  0.3312
  224MPD1    C1 3399   0.136   2.992   9.157  0.1392 -0.6028 -0.9002
  224MPD1    C2 3400   0.083   2.903   9.248 -0.2914  0.0114  0.0157
  224MPD1    C3 3401   0.164   2.805   9.311 -0.3931 -0.0040 -0.1049
  224MPD1    C4 3402   0.296   2.788   9.266  0.2841 -0.4269 -0.1551
  224MPD1    C5 3403   0.349   2.885   9.183  0.5408  0.1925  0.4499
  224MPD1     H 3404   4.701   2.908   9.269 -0.2631 -1.5281  0.5061
  224MPD1    H1 3405   0.373   2.735   9.321  1.1008  2.6745  1.6517
  224MPD1    H2 3406   0.305   3.055   9.047 -1.8545  0.6873  0.8132
  224MPD1    H3 3407   0.451   2.875   9.149  0.2915 -0.6574 -0.0433
  224MPD1     N 3408   0.120   2.707   9.411  0.0406 -0.6118  0.3735
  224MPD1    H5 3409   0.182   2.627   9.423  1.0235 -0.0435 -0.8467
  224MPD1    N1 3410   0.066   3.099   9.101 -0.2704  0.2985 -0.4492
  224MPD1    H6 3411   4.719   3.137   9.164  2.9836  1.5436  2.4571
  224MPD1    H7 3412   0.129   3.175   9.079 -1.9492  1.4326 -1.3237
  225MPD1     C 3413   1.655   4.043  11.839  0.2579  0.0050  0.2764
  225MPD1    C1 3414   1.577   4.043  11.725  0.2921 -0.6532 -0.0582
  225MPD1    C2 3415   1.437   4.038  11.730  0.1930 -0.7455  0.9184
  225MPD1    C3 3416   1.372   4.061  11.852  0.0033  0.0627  0.3295
  225MPD1    C4 3417   1.452   4.055  11.962 -0.2282  0.0877  0.7544
  225MPD1    C5 3418   1.589   4.036  11.954 -0.9678  0.1231 -0.5689
  225MPD1     H 3419   1.380   4.029  11.638 -0.9894  0.9031  1.4923
  225MPD1    H1 3420   1.406   4.070  12.059 -0.7875 -1.5620  0.7493
  225MPD1    H2 3421   1.761   4.020  11.835 -0.2288 -2.2107 -0.2253
  225MPD1    H3 3422   1.640   4.024  12.049  1.7600  0.9065 -1.9309
  225MPD1     N 3423   1.229   4.058  11.861  0.3067 -0.4149 -0.0957
  225MPD1    H5 3424   1.193   4.082  11.953 -0.2654 -1.6249 -0.0040
  225MPD1    N1 3425   1.639   4.031  11.601 -0.3877  0.3162  0.0453
  225MPD1    H6 3426   1.722   4.089  11.611  0.0563 -0.5262  1.2289
  225MPD1    H7 3427   1.575   4.051  11.524 -1.2176 -0.5113  0.5200
  226MPD1     C 3428   3.545   3.731   9.516  0.1672 -0.7543  0.1269
  226MPD1    C1 3429   3.630   3.626   9.547 -0.4121 -0.0951  0.0563
  226MPD1    C2 3430   3.770   3.642   9.517  0.3583  0.0933  0.6934
  226MPD1    C3 3431   3.822   3.753   9.459  0.0124  0.4044  0.4332
  226MPD1    C4 3432   3.741   3.860   9.430  0.0096 -0.6574  0.6780
  226MPD1    C5 3433   3.600   3.838   9.450 -0.0320 -0.0099 -0.3706
  226MPD1     H 3434   3.835   3.556   9.526 -0.3644 -0.7623 -2.2137
  226MPD1    H1 3435   3.780   3.954   9.393  0.1853 -1.1288 -0.3227
  226MPD1    H2 3436   3.437   3.730   9.526  0.3143 -0.0662  1.6425
  226MPD1    H3 3437   3.532   3.921   9.436 -1.3714 -1.2227 -1.1352
  226MPD1     N 3438   3.963   3.752   9.430  1.0468  0.3669  0.0622
  226MPD1    H5 3439   4.011   3.663   9.437  2.0093  0.7233 -2.2125
  226MPD1    N1 3440   3.580   3.508   9.606  0.4111  0.3196 -0.4925
  226MPD1    H6 3441   3.501   3.526   9.667 -0.1459  0.4463 -1.2620
  226MPD1    H7 3442   3.647   3.457   9.664 -0.3009  0.4679  0.4709
  227MPD1     C 3443   4.572   4.434   8.984 -0.9464 -0.1810  0.1127
  227MPD1    C1 3444   4.453   4.381   8.952  0.4383 -0.1056  1.2993
  227MPD1    C2 3445   4.395   4.282   9.027  0.1487 -0.3480 -0.4918
  227MPD1    C3 3446   4.453   4.240   9.145 -0.4448  0.7301 -0.4592
  227MPD1    C4 3447   4.569   4.297   9.180  0.4863  0.2059 -0.8652
  227MPD1    C5 3448   4.629   4.389   9.100 -0.3732 -0.3820  0.2801
  227MPD1     H 3449   4.295   4.244   9.006 -0.3686  0.9779 -0.3854
  227MPD1    H1 3450   4.621   4.277   9.273  0.1556  0.6242 -0.5862
  227MPD1    H2 3451   4.628   4.509   8.930 -3.0754  1.2206 -0.1442
  227MPD1    H3 3452   4.709   4.447   9.144 -0.9015  0.4322  0.1717
  227MPD1     N 3453   4.401   4.129   9.213 -0.4681 -0.4837 -0.7642
  227MPD1    H5 3454   4.308   4.097   9.190 -0.9586  0.3763  0.0511
  227MPD1    N1 3455   4.386   4.424   8.836 -0.6119  0.5946  0.1846
  227MPD1    H6 3456   4.411   4.518   8.806  1.0588 -0.2638 -1.1327
  227MPD1    H7 3457   4.287   4.423   8.859 -0.5500 -0.3438  0.4194
  228MPD1     C 3458   2.346   1.828  12.789  0.6881  0.3364  0.1009
  228MPD1    C1 3459   2.233   1.802  12.711 -0.2392 -0.2797  0.4836
  228MPD1    C2 3460   2.130   1.723  12.764 -0.3586 -0.6625 -0.0302
  228MPD1    C3 3461   2.137   1.678  12.894 -0.2146 -0.7694  0.0758
  228MPD1    C4 3462   2.242   1.713  12.977  0.3608 -0.2442 -0.0115
  228MPD1    C5 3463   2.344   1.785  12.919 -0.2671  0.2931 -0.2889
  228MPD1     H 3464   2.050   1.698  12.694 -0.3493  0.2958 -0.3821
  228MPD1    H1 3465   2.263   1.683  13.079 -0.0057  0.9035  0.4035
  228MPD1    H2 3466   2.424   1.898  12.763  1.1347  0.3280  1.4413
  228MPD1    H3 3467   2.429   1.807  12.983 -1.0772  1.3119  0.4294
  228MPD1     N 3468   2.039   1.591  12.950  0.0369 -0.1391 -0.2732
  228MPD1    H5 3469   1.956   1.580  12.892 -1.8022  2.4218  1.8810
  228MPD1    N1 3470   2.217   1.855  12.582 -0.1671  0.3820  0.1256
  228MPD1    H6 3471   2.303   1.878  12.533 -0.2141 -0.5925 -0.4000
  228MPD1    H7 3472   2.161   1.795  12.522  0.8521 -0.3042 -0.1252
  229MPD1     C 3473   2.741   1.127  14.459  0.3871  0.1557  0.1587
  229MPD1    C1 3474   2.669   1.062  14.554 -0.7736 -0.5112 -0.1711
  229MPD1    C2 3475   2.701   0.938  14.590 -0.4074  0.2765  0.1532
  229MPD1    C3 3476   2.816   0.873  14.538  0.0961  0.4326 -0.4229
  229MPD1    C4 3477   2.893   0.944  14.443 -0.4307 -0.4285 -0.5185
  229MPD1    C5 3478   2.852   1.068  14.406  0.1953 -0.1000  0.6811
  229MPD1     H 3479   2.643   0.885  14.664  1.5075  0.3732  1.7239
  229MPD1    H1 3480   2.984   0.904  14.399 -0.7568 -2.1210  0.3730
  229MPD1    H2 3481   2.705   1.222  14.422 -0.4106 -0.2047  0.0054
  229MPD1    H3 3482   2.906   1.121  14.328  2.8886 -3.2667  0.4175
  229MPD1     N 3483   2.859   0.741  14.566 -0.5903 -0.1525 -0.9973
  229MPD1    H5 3484   2.939   0.715  14.508  0.6116  0.8750  0.1861
  229MPD1    N1 3485   2.542   1.116  14.595  0.0583 -0.2262  0.5504
  229MPD1    H6 3486   2.523   1.098  14.693 -2.9402  0.1484  0.0548
  229MPD1    H7 3487   2.549   1.218  14.602 -0.3700 -0.1000 -0.7444
  230MPD1     C 3488   3.199   0.181  15.416 -0.6610 -0.5094  0.0508
  230MPD1    C1 3489   3.231   0.105  15.303  1.1779 -0.6104 -0.4543
  230MPD1    C2 3490   3.174   0.146  15.186  0.4673  0.1515  0.8796
  230MPD1    C3 3491   3.098   0.260  15.173 -0.3849  0.8909  0.2810
  230MPD1    C4 3492   3.066   0.332  15.284  0.5696 -0.7894  0.5614
  230MPD1    C5 3493   3.118   0.294  15.403 -0.5333  0.5955 -0.0790
  230MPD1     H 3494   3.189   0.091  15.094 -0.3617  0.0264  0.8165
  230MPD1    H1 3495   2.985   0.404  15.290  1.0536 -0.1616 -0.4497
  230MPD1    H2 3496   3.252   0.157  15.507 -0.7891 -0.5936  0.1041
  230MPD1    H3 3497   3.099   0.348  15.495  0.3310 -0.9067  0.9753
  230MPD1     N 3498   3.060   0.303  15.045  0.7530 -0.5685 -0.4929
  230MPD1    H5 3499   3.104   0.256  14.967  0.4963 -3.8885  1.3878
  230MPD1    N1 3500   3.298   4.703  15.322 -0.1700 -0.7389 -0.1631
  230MPD1    H6 3501   3.350   4.705  15.410 -1.3663 -0.8797  0.5351
  230MPD1    H7 3502   3.358   4.681  15.242  0.7861  1.7078 -0.1357
  231MPD1     C 3503   0.888   1.846  15.407  0.6248  0.3373 -0.3459
  231MPD1    C1 3504   0.901   1.845  15.274  0.0589  0.2960  0.4644
  231MPD1    C2 3505   0.949   1.964  15.219  1.0453 -0.3716 -0.6325
  231MPD1    C3 3506   0.974   2.080  15.296 -1.4720  0.5104  0.1395
  231MPD1    C4 3507   0.952   2.071  15.437 -0.1678  0.1827 -0.1030
  231MPD1    C5 3508   0.918   1.947  15.492 -0.0982 -0.5701  0.2403
  231MPD1     H 3509   0.965   1.969  15.112  0.7907  0.9611 -0.6000
  231MPD1    H1 3510   0.987   2.149  15.504 -2.6603  0.1586  1.2275
  231MPD1    H2 3511   0.868   1.750  15.454 -0.7746  0.0355 -1.5868
  231MPD1    H3 3512   0.918   1.936  15.600 -1.7883  0.7746  0.3794
  231MPD1     N 3513   1.014   2.202  15.231  0.1912 -0.2361  0.5668
  231MPD1    H5 3514   1.014   2.196  15.130 -1.4285 -2.9914  0.7162
  231MPD1    N1 3515   0.891   1.721  15.204  0.2220 -0.2786 -0.1415
  231MPD1    H6 3516   0.833   1.647  15.243  0.5344  0.4026  1.5986
  231MPD1    H7 3517   0.892   1.719  15.102  2.1329 -0.1367 -0.1174
  232MPD1     C 3518   2.920   3.484   0.543 -0.2716 -0.3151 -0.1281
  232MPD1    C1 3519   2.896   3.363   0.601 -0.2151 -0.1350 -0.7485
  232MPD1    C2 3520   2.765   3.333   0.638  0.2366  0.5175  0.0709
  232MPD1    C3 3521   2.672   3.433   0.636  0.0799  0.7257  0.4349
  232MPD1    C4 3522   2.697   3.563   0.590  0.2810  0.0985 -0.1553
  232MPD1    C5 3523   2.825   3.588   0.542  0.1102  0.2845 -0.0160
  232MPD1     H 3524   2.739   3.233   0.669  0.3777  0.5500  0.2937
  232MPD1    H1 3525   2.619   3.637   0.571  0.0739  0.2138  1.1775
  232MPD1    H2 3526   3.018   3.497   0.499 -0.3157 -1.0944 -0.4418
  232MPD1    H3 3527   2.845   3.684   0.495 -0.7563  0.1829 -0.5942
  232MPD1     N 3528   2.545   3.394   0.692  0.4673 -0.5724 -0.0670
  232MPD1    H5 3529   2.539   3.297   0.721 -0.3890 -0.5021 -0.0182
  232MPD1    N1 3530   2.999   3.263   0.596  0.3422  0.2170  0.3452
  232MPD1    H6 3531   2.992   3.193   0.670  0.6895 -2.5324 -2.2320
  232MPD1    H7 3532   3.097   3.290   0.599  0.0494  1.4754 -1.1982
  233MPD1     C 3533   3.548   2.812   0.615 -0.3622 -0.1473 -0.1798
  233MPD1    C1 3534   3.626   2.916   0.651  0.4757 -0.5635 -0.0935
  233MPD1    C2 3535   3.763   2.892   0.669  0.6600  0.4596 -0.3477
  233MPD1    C3 3536   3.821   2.770   0.639  1.2305  0.3748  0.0645
  233MPD1    C4 3537   3.734   2.673   0.602 -0.0564  0.6849 -0.4871
  233MPD1    C5 3538   3.602   2.689   0.588  0.4325  0.0921 -0.3608
  233MPD1     H 3539   3.826   2.978   0.691 -1.2871  1.7167  0.2893
  233MPD1    H1 3540   3.765   2.573   0.574  0.2136  0.7194 -0.3170
  233MPD1    H2 3541   3.444   2.840   0.604  0.1677  2.8885  2.2561
  233MPD1    H3 3542   3.543   2.606   0.551  0.5926  0.4741 -1.4996
  233MPD1     N 3543   3.951   2.742   0.649  0.4961  0.4018 -1.0996
  233MPD1    H5 3544   3.977   2.645   0.645  0.9063  0.3941  1.4520
  233MPD1    N1 3545   3.566   3.037   0.694 -0.4538  0.8228  1.0815
  233MPD1    H6 3546   3.473   3.063   0.663 -1.0000 -0.6812  1.4735
  233MPD1    H7 3547   3.623   3.122   0.690  1.0038 -0.1021  2.3921
  234MPD1     C 3548   1.340   1.420   9.659  0.0520 -0.3307 -0.7005
  234MPD1    C1 3549   1.277   1.523   9.727  0.0469 -0.1329 -0.3154
  234MPD1    C2 3550   1.152   1.556   9.698  0.3455 -0.4600 -0.4958
  234MPD1    C3 3551   1.077   1.480   9.617 -0.0137  0.3217 -0.6877
  234MPD1    C4 3552   1.123   1.366   9.559 -0.6887 -0.0900  0.1744
  234MPD1    C5 3553   1.258   1.333   9.585  0.0154  0.4113  0.5196
  234MPD1     H 3554   1.110   1.636   9.757 -1.3507 -1.0071 -0.9751
  234MPD1    H1 3555   1.064   1.294   9.504  1.7184  0.7196 -3.4873
  234MPD1    H2 3556   1.446   1.401   9.671  0.2685  0.8668 -0.7213
  234MPD1    H3 3557   1.300   1.242   9.544 -1.2904  0.5153 -1.0471
  234MPD1     N 3558   0.939   1.523   9.602  0.2871  0.1958 -0.2290
  234MPD1    H5 3559   0.905   1.602   9.657 -0.5096  0.0467 -0.5049
  234MPD1    N1 3560   1.353   1.610   9.808 -0.3109 -0.9382 -0.2606
  234MPD1    H6 3561   1.418   1.554   9.863  1.3618 -1.8336 -3.1436
  234MPD1    H7 3562   1.278   1.643   9.868  0.8148 -1.2761  1.3289
  235MPD1     C 3563   1.821   3.413  10.485  0.4087  0.6354 -0.4558
  235MPD1    C1 3564   1.872   3.410  10.354  0.3562  0.0029 -0.2804
  235MPD1    C2 3565   1.986   3.488  10.338  0.2250 -0.2882 -0.1161
  235MPD1    C3 3566   2.045   3.567  10.443  0.2236  0.0271 -0.1137
  235MPD1    C4 3567   2.001   3.545  10.575 -0.1148 -0.0742 -0.1167
  235MPD1    C5 3568   1.895   3.460  10.593 -0.4163 -0.3603 -0.0446
  235MPD1     H 3569   2.023   3.507  10.238 -2.2048 -1.8639 -1.3247
  235MPD1    H1 3570   2.046   3.602  10.656 -0.1856 -0.2934  0.0783
  235MPD1    H2 3571   1.729   3.359  10.505 -0.4903  2.2389 -0.2264
  235MPD1    H3 3572   1.855   3.444  10.692  1.8478 -0.0480  0.9209
  235MPD1     N 3573   2.135   3.670  10.409 -0.6565 -0.2868  0.3973
  235MPD1    H5 3574   2.143   3.676  10.308 -0.0192  0.4929  0.4911
  235MPD1    N1 3575   1.800   3.370  10.240 -0.7717  0.2245 -0.8669
  235MPD1    H6 3576   1.749   3.283  10.259 -0.4547  0.8116  2.6137
  235MPD1    H7 3577   1.859   3.354  10.159 -2.3884 -0.3856 -1.9390
  236MPD1     C 3578   0.776   0.247   9.648  0.0495  0.0450  0.5725
  236MPD1    C1 3579   0.791   0.306   9.769  0.5271  0.2953  0.9932
  236MPD1    C2 3580   0.914   0.290   9.832 -0.2811 -0.2221 -0.2236
  236MPD1    C3 3581   1.012   0.205   9.785  0.3809 -0.0273 -0.6699
  236MPD1    C4 3582   0.993   0.149   9.659  0.1229 -0.6094 -0.2894
  236MPD1    C5 3583   0.874   0.166   9.598  0.2660  0.7075 -0.0539
  236MPD1     H 3584   0.926   0.349   9.922  2.1963 -0.4351 -0.4147
  236MPD1    H1 3585   1.057   0.074   9.615 -0.3130 -1.7429  1.0228
  236MPD1    H2 3586   0.689   0.265   9.586  1.2420  1.9380 -0.5768
  236MPD1    H3 3587   0.858   0.137   9.494  0.0455  0.0160  0.1744
  236MPD1     N 3588   1.132   0.174   9.860 -0.1582  0.1342 -0.6939
  236MPD1    H5 3589   1.194   0.101   9.827 -1.8626  0.1697 -3.9591
  236MPD1    N1 3590   0.704   0.408   9.814 -0.0446  0.0505 -1.1924
  236MPD1    H6 3591   0.609   0.401   9.779 -0.8407  1.7702  0.5905
  236MPD1    H7 3592   0.706   0.431   9.913 -0.1030  0.3443 -1.2591
  237MPD1     C 3593   1.556   3.235  15.991  0.1187 -0.0447  0.1419
  237MPD1    C1 3594   1.592   3.127  15.910  0.0508 -0.3205  0.0418
  237MPD1    C2 3595   1.529   3.129  15.782 -0.7031  0.0293  0.1505
  237MPD1    C3 3596   1.438   3.228  15.747  0.5748  0.3097  0.3471
  237MPD1    C4 3597   1.409   3.330  15.828  0.0549 -0.5306  0.4842
  237MPD1    C5 3598   1.479   3.336  15.940  0.2359  0.3002 -0.5557
  237MPD1     H 3599   1.547   3.047  15.713  1.1784 -0.2497  0.9577
  237MPD1    H1 3600   1.353   3.421  15.808 -0.8963 -0.8190  1.8585
  237MPD1    H2 3601   1.613   3.246  16.083  1.0737  2.2112 -0.7106
  237MPD1    H3 3602   1.482   3.429  15.995  1.4581 -0.1830  0.1918
  237MPD1     N 3603   1.356   3.232  15.633 -0.2594 -0.9148  0.4586
  237MPD1    H5 3604   1.293   3.312  15.632 -1.7186 -2.0676 -2.5547
  237MPD1    N1 3605   1.707   3.057  15.950 -0.4394  0.2526  0.0299
  237MPD1    H6 3606   1.717   2.965  15.908 -1.5423  0.3888 -0.5382
  237MPD1    H7 3607   1.714   3.050  16.051  0.1988  0.3417 -0.0104
  238MPD1     C 3608   3.381   1.764  15.017  0.0436 -0.0245 -0.0853
  238MPD1    C1 3609   3.271   1.710  15.080 -0.4744  0.4434  0.5525
  238MPD1    C2 3610   3.143   1.738  15.037  0.1790  0.1736 -0.2371
  238MPD1    C3 3611   3.123   1.843  14.957 -0.8211  0.4063 -0.3642
  238MPD1    C4 3612   3.230   1.901  14.890  0.6561 -0.4097  0.1702
  238MPD1    C5 3613   3.360   1.853  14.917  0.0842 -0.0878 -0.4855
  238MPD1     H 3614   3.059   1.691  15.088  2.5092 -1.8578  1.7385
  238MPD1    H1 3615   3.218   1.974  14.810 -1.7659 -0.2722  0.6392
  238MPD1    H2 3616   3.484   1.755  15.049  0.4464  1.6717 -0.9119
  238MPD1    H3 3617   3.442   1.912  14.877  0.3865 -2.0241 -2.7193
  238MPD1     N 3618   2.994   1.899  14.932 -0.6161  0.1316  0.2484
  238MPD1    H5 3619   2.984   1.981  14.873 -0.9693 -1.2633 -1.6275
  238MPD1    N1 3620   3.293   1.599  15.165 -0.3440 -0.2076 -0.1555
  238MPD1    H6 3621   3.217   1.572  15.227 -0.1718  2.4790  1.2571
  238MPD1    H7 3622   3.377   1.613  15.222 -1.6650  1.5076  1.3558
  239MPD1     C 3623   3.010   2.601  14.800  0.5182 -0.5332 -0.4342
  239MPD1    C1 3624   2.959   2.730  14.801  0.0013 -0.2478 -0.1010
  239MPD1    C2 3625   2.969   2.805  14.680  0.0519 -0.1796 -0.1262
  239MPD1    C3 3626   2.999   2.752  14.559  0.0970  0.5294  0.0359
  239MPD1    C4 3627   3.044   2.619  14.554  0.0556  0.5066  0.3165
  239MPD1    C5 3628   3.046   2.552  14.674  0.0684  0.7542 -0.4336
  239MPD1     H 3629   2.938   2.907  14.699  0.7047  0.0569 -0.3508
  239MPD1    H1 3630   3.071   2.564  14.465  1.5474  3.5447 -1.0866
  239MPD1    H2 3631   3.020   2.542  14.890  0.5412 -1.6018 -1.1426
  239MPD1    H3 3632   3.095   2.456  14.668 -1.8526 -0.1847 -1.4082
  239MPD1     N 3633   3.010   2.826  14.439 -0.1733  0.0036 -0.3676
  239MPD1    H5 3634   3.024   2.772  14.354  1.0934 -1.0615  0.5056
  239MPD1    N1 3635   2.918   2.796  14.916 -0.1995  0.0859  0.0917
  239MPD1    H6 3636   2.842   2.858  14.890  0.0807  0.8384  1.0498
  239MPD1    H7 3637   2.882   2.729  14.983 -1.9138  1.7178  0.7957
  240MPD1     C 3638   2.465   2.572  13.805 -0.7021 -0.8542 -0.1910
  240MPD1    C1 3639   2.354   2.588  13.888 -0.3111 -0.5583 -0.3457
  240MPD1    C2 3640   2.366   2.576  14.027  0.3027  0.2620  0.1305
  240MPD1    C3 3641   2.492   2.573  14.084  0.3884 -0.0517  0.2549
  240MPD1    C4 3642   2.604   2.559  14.008  0.0500 -0.2878  0.4655
  240MPD1    C5 3643   2.589   2.557  13.865 -0.0897  0.5291  0.7043
  240MPD1     H 3644   2.280   2.574  14.093  2.1241  0.0493  2.4664
  240MPD1    H1 3645   2.705   2.561  14.046  0.9380 -1.9936 -1.8238
  240MPD1    H2 3646   2.454   2.566  13.697  0.6266  2.8716 -0.5356
  240MPD1    H3 3647   2.678   2.552  13.803 -1.2002  1.6635 -0.9932
  240MPD1     N 3648   2.501   2.569  14.224  0.5659  0.4507 -0.2411
  240MPD1    H5 3649   2.414   2.567  14.275  0.7088 -0.9765 -0.0273
  240MPD1    N1 3650   2.230   2.601  13.823  0.2947 -0.0001 -0.2154
  240MPD1    H6 3651   2.162   2.640  13.888 -0.8252 -3.0727  0.4486
  240MPD1    H7 3652   2.228   2.644  13.731  0.3346 -0.1857 -0.3035
  241MPD1     C 3653   2.468   3.119  15.095  0.5074 -0.0813  0.0854
  241MPD1    C1 3654   2.523   3.160  14.972 -0.1672 -0.1149  0.4332
  241MPD1    C2 3655   2.562   3.056  14.885  0.9600  0.2946 -0.0750
  241MPD1    C3 3656   2.551   2.921  14.923 -0.0585 -0.2250  0.0431
  241MPD1    C4 3657   2.501   2.894  15.048  0.4263 -0.2516  0.0448
  241MPD1    C5 3658   2.457   2.994  15.131 -0.1618  0.0776 -0.3308
  241MPD1     H 3659   2.584   3.066  14.779  2.0431  0.4191  0.1623
  241MPD1    H1 3660   2.481   2.791  15.075 -0.0229 -0.2932 -0.4434
  241MPD1    H2 3661   2.422   3.191  15.162  1.9796  1.4438 -0.5465
  241MPD1    H3 3662   2.401   2.983  15.224  0.2925 -0.3383 -0.1065
  241MPD1     N 3663   2.592   2.807  14.845  0.1542 -0.3299  0.1623
  241MPD1    H5 3664   2.579   2.716  14.890  1.3712 -0.1096  0.9625
  241MPD1    N1 3665   2.498   3.294  14.926 -0.4927 -0.4259  0.5726
  241MPD1    H6 3666   2.562   3.317  14.851  0.7772 -0.7145  1.5573
  241MPD1    H7 3667   2.516   3.357  15.004 -0.7677  0.5103 -0.1234
  242MPD1     C 3668   2.140   1.738  15.599  0.5047  0.1341  0.5049
  242MPD1    C1 3669   2.127   1.776  15.466  0.1487 -0.1848  0.0356
  242MPD1    C2 3670   2.131   1.675  15.370 -0.0452 -0.3732  0.0739
  242MPD1    C3 3671   2.146   1.543  15.408  0.5881  0.1823 -0.6290
  242MPD1    C4 3672   2.148   1.508  15.539 -0.2213  0.0487  0.0543
  242MPD1    C5 3673   2.142   1.609  15.633 -0.7561 -0.0949 -0.3506
  242MPD1     H 3674   2.137   1.699  15.264 -0.4530  0.5687  0.2615
  242MPD1    H1 3675   2.154   1.406  15.574  2.1877 -0.0394 -0.6089
  242MPD1    H2 3676   2.146   1.807  15.682 -0.9514  2.4232 -1.2833
  242MPD1    H3 3677   2.142   1.584  15.738 -0.2150  2.5899  0.2778
  242MPD1     N 3678   2.170   1.433  15.318 -0.3641 -0.2313  0.3162
  242MPD1    H5 3679   2.225   1.355  15.351  0.2534 -0.7514 -1.9143
  242MPD1    N1 3680   2.133   1.909  15.442  0.1053 -0.6057 -0.3388
  242MPD1    H6 3681   2.109   1.949  15.352 -1.4267 -0.2782  0.2145
  242MPD1    H7 3682   2.090   1.966  15.515 -2.8786 -1.1262 -1.7188
  243MPD1     C 3683   4.341   4.409  17.231 -0.5315 -0.5397  0.1081
  243MPD1    C1 3684   4.221   4.338  17.208 -0.3955 -0.5627 -0.3399
  243MPD1    C2 3685   4.183   4.337  17.075 -0.3901 -0.1587 -0.1792
  243MPD1    C3 3686   4.246   4.419  16.979  0.4549 -0.0707 -0.3479
  243MPD1    C4 3687   4.366   4.482  17.005 -0.4836 -0.2303  0.8856
  243MPD1    C5 3688   4.415   4.476  17.133 -0.2287 -0.4114 -0.3602
  243MPD1     H 3689   4.100   4.279  17.037  0.9994 -0.7498 -2.2924
  243MPD1    H1 3690   4.427   4.544  16.940  1.2937 -3.2077 -0.2827
  243MPD1    H2 3691   4.385   4.407  17.330 -2.3834  1.9715  0.9671
  243MPD1    H3 3692   4.499   4.539  17.159 -1.0277  0.4477  0.1564
  243MPD1     N 3693   4.197   4.413  16.850 -0.0708  0.5636 -0.6181
  243MPD1    H5 3694   4.124   4.343  16.840  1.0414 -0.6114 -0.5318
  243MPD1    N1 3695   4.179   4.247  17.302  0.1623 -0.0252 -0.2526
  243MPD1    H6 3696   4.079   4.231  17.292 -0.1912  2.2492 -0.1919
  243MPD1    H7 3697   4.205   4.282  17.394 -0.2197  1.7411 -0.8242
  244MPD1     C 3698   3.955   3.681  16.517  0.2681  0.3391 -0.3182
  244MPD1    C1 3699   3.890   3.775  16.599 -0.3982 -0.3871  0.8055
  244MPD1    C2 3700   3.923   3.912  16.596  0.6299  0.3233 -0.3385
  244MPD1    C3 3701   4.018   3.946  16.503  0.0646  0.2676 -0.1093
  244MPD1    C4 3702   4.078   3.860  16.417 -0.9167  0.0083  0.3762
  244MPD1    C5 3703   4.049   3.724  16.428  0.9282 -0.2263 -0.3955
  244MPD1     H 3704   3.862   3.982  16.652  0.9784 -0.2507  0.7754
  244MPD1    H1 3705   4.156   3.884  16.346 -1.5421 -1.0873 -0.6812
  244MPD1    H2 3706   3.939   3.574  16.527  1.5674  0.5059  3.3305
  244MPD1    H3 3707   4.093   3.651  16.361  0.5343  1.6262 -2.6676
  244MPD1     N 3708   4.046   4.087  16.495 -0.2849  0.7807  0.0634
  244MPD1    H5 3709   4.011   4.144  16.571  2.3594  2.2001  0.2116
  244MPD1    N1 3710   3.777   3.720  16.662  0.5121 -0.0314 -0.4756
  244MPD1    H6 3711   3.754   3.769  16.748 -1.2918  2.0084 -2.1235
  244MPD1    H7 3712   3.810   3.626  16.680 -1.2736 -0.8218 -1.3202
  245MPD1     C 3713   0.896   0.296  13.106  0.0069 -0.3098  0.2370
  245MPD1    C1 3714   1.025   0.349  13.125  0.1285  0.4940  0.1343
  245MPD1    C2 3715   1.033   0.481  13.150  0.0282  0.4196 -0.1265
  245MPD1    C3 3716   0.923   0.559  13.166  0.4442  0.6972  0.5549
  245MPD1    C4 3717   0.795   0.504  13.150  0.5009  0.2578 -0.1095
  245MPD1    C5 3718   0.785   0.370  13.120 -0.1121  0.2425  0.5510
  245MPD1     H 3719   1.127   0.529  13.172 -0.5335  1.7122 -0.5098
  245MPD1    H1 3720   0.704   0.563  13.145  1.1894  1.5367  2.8013
  245MPD1    H2 3721   0.881   0.190  13.093  0.0769 -0.1857 -0.8263
  245MPD1    H3 3722   0.688   0.326  13.106  0.1188 -1.1038  3.2243
  245MPD1     N 3723   0.936   0.693  13.205 -0.0800  0.8817  0.2218
  245MPD1    H5 3724   1.029   0.733  13.206  0.5059 -0.4895  0.5355
  245MPD1    N1 3725   1.131   0.258  13.142  0.3829  0.0587  0.7890
  245MPD1    H6 3726   1.219   0.301  13.112  0.4280  0.7603  1.9118
  245MPD1    H7 3727   1.128   0.161  13.113  0.8732 -0.0946  1.2466
  246MPD1     C 3728   2.548   2.082   9.046  0.4774 -0.7902 -0.4785
  246MPD1    C1 3729   2.460   2.037   9.145 -0.6413  0.3359  0.1420
  246MPD1    C2 3730   2.463   1.900   9.182 -0.5193 -0.0605  0.3546
  246MPD1    C3 3731   2.553   1.815   9.122  0.4094 -0.2755 -0.4579
  246MPD1    C4 3732   2.654   1.869   9.039 -0.1296 -0.1069 -0.1239
  246MPD1    C5 3733   2.643   2.003   8.992 -0.2754 -0.5140 -0.2070
  246MPD1     H 3734   2.395   1.845   9.246  0.1863 -1.9916 -0.5678
  246MPD1    H1 3735   2.731   1.809   8.993 -0.8295 -1.3635  0.3210
  246MPD1    H2 3736   2.541   2.181   9.002  2.1805 -0.6247 -0.3857
  246MPD1    H3 3737   2.714   2.040   8.919 -1.2849 -0.6493 -1.2517
  246MPD1     N 3738   2.526   1.679   9.141 -0.1573  0.0724 -0.6218
  246MPD1    H5 3739   2.438   1.655   9.186  0.5916 -0.4983  0.5332
  246MPD1    N1 3740   2.354   2.117   9.185 -0.1860  0.4516  0.0149
  246MPD1    H6 3741   2.313   2.097   9.276 -1.4125 -2.3860 -1.1417
  246MPD1    H7 3742   2.372   2.217   9.187 -2.1979  0.8154  0.2419
  247MPD1     C 3743   1.043   0.514  16.377  0.5237 -0.2386  0.0643
  247MPD1    C1 3744   1.010   0.422  16.468  0.6314 -0.6053  0.8146
  247MPD1    C2 3745   0.971   0.299  16.425  0.0679 -0.2889 -0.3280
  247MPD1    C3 3746   0.969   0.258  16.294  1.1258 -0.0406 -0.0085
  247MPD1    C4 3747   0.999   0.361  16.202 -0.2095  0.9201  0.2293
  247MPD1    C5 3748   1.039   0.483  16.247  0.1481  0.2259  0.0983
  247MPD1     H 3749   0.926   0.235  16.500  0.1187 -1.4452 -1.2837
  247MPD1    H1 3750   1.008   0.338  16.097 -1.0884  0.8057  0.1792
  247MPD1    H2 3751   1.070   0.615  16.404  0.8812  0.1473 -1.6998
  247MPD1    H3 3752   1.070   0.560  16.177  1.9632  0.1003  0.7681
  247MPD1     N 3753   0.930   0.130  16.242 -0.5885  0.2403  0.2940
  247MPD1    H5 3754   0.945   0.120  16.142 -0.6525  0.4839  0.2601
  247MPD1    N1 3755   1.001   0.459  16.605  0.2992 -0.0210  0.0703
  247MPD1    H6 3756   0.967   0.386  16.667  0.0436 -1.2991 -1.5716
  247MPD1    H7 3757   1.085   0.504  16.640  0.5350 -0.6173  0.2731
  248MPD1     C 3758   1.205   4.110   0.264 -0.2807  0.0463 -1.1267
  248MPD1    C1 3759   1.162   4.239   0.289 -0.1694  1.0953 -0.0950
  248MPD1    C2 3760   1.030   4.276   0.283  0.3821  0.1156  0.3458
  248MPD1    C3 3761   0.936   4.176   0.268  0.0807 -0.2043 -0.5903
  248MPD1    C4 3762   0.974   4.044   0.255  0.1064  0.0153  0.3670
  248MPD1    C5 3763   1.108   4.018   0.243 -0.5210 -0.3115 -0.8320
  248MPD1     H 3764   0.992   4.377   0.287  0.1764  0.0902 -0.9526
  248MPD1    H1 3765   0.904   3.963   0.241 -0.2956  0.4204  0.0578
  248MPD1    H2 3766   1.307   4.079   0.281 -0.9735 -1.8202 -0.3012
  248MPD1    H3 3767   1.139   3.915   0.228  1.5930  0.4036 -1.2899
  248MPD1     N 3768   0.806   4.217   0.237 -0.2201  0.0678  0.1703
  248MPD1    H5 3769   0.795   4.317   0.226 -2.0464 -0.0575  0.7904
  248MPD1    N1 3770   1.262   4.341   0.297  0.4789  0.4115 -0.4188
  248MPD1    H6 3771   1.349   4.304   0.335 -0.5016  1.0708  2.4891
  248MPD1    H7 3772   1.238   4.427   0.346  0.7231 -0.3864  1.1005
  249MPD1     C 3773   2.145   2.322  10.705 -0.3269 -0.2403  0.0861
  249MPD1    C1 3774   2.080   2.417  10.630  0.3665 -0.9193 -0.9036
  249MPD1    C2 3775   2.132   2.456  10.507  0.3761 -0.9426  0.1527
  249MPD1    C3 3776   2.234   2.383  10.445  0.4411  0.2087  0.7053
  249MPD1    C4 3777   2.288   2.276  10.518  0.5194 -0.1383  0.0552
  249MPD1    C5 3778   2.252   2.260  10.647 -1.0079  1.1133  0.9025
  249MPD1     H 3779   2.091   2.540  10.451  1.1626  0.1854  1.2759
  249MPD1    H1 3780   2.351   2.198  10.476 -1.6884 -2.0805  0.3828
  249MPD1    H2 3781   2.112   2.286  10.802 -0.9806  0.1405  0.0104
  249MPD1    H3 3782   2.281   2.175  10.707  0.8166  0.2404 -1.2396
  249MPD1     N 3783   2.257   2.406  10.305  0.3969  0.0087 -0.0520
  249MPD1    H5 3784   2.224   2.491  10.261 -0.3800 -0.5799 -0.6010
  249MPD1    N1 3785   1.972   2.488  10.681  0.3407 -0.7721  0.6735
  249MPD1    H6 3786   1.933   2.445  10.764  1.2749  1.7465  2.4425
  249MPD1    H7 3787   1.906   2.496  10.604 -0.0393 -2.9610  0.7771
  250MPD2     C 3788   3.598   3.384  13.306  0.2322  0.5408  0.8468
  250MPD2    C1 3789   3.715   3.377  13.231  0.9698  0.0390 -0.4392
  250MPD2    C2 3790   3.773   3.249  13.210  0.4584 -0.6104 -0.3778
  250MPD2    C3 3791   3.718   3.128  13.254  0.5378 -0.1999 -0.1701
  250MPD2    C4 3792   3.605   3.140  13.331  0.2947 -0.3635 -0.2570
  250MPD2    C5 3793   3.549   3.262  13.359 -0.5591  0.2599 -0.2006
  250MPD2     H 3794   3.845   3.237  13.130  0.2714  1.9345 -0.9299
  250MPD2    H1 3795   3.551   3.051  13.362 -1.9008  0.3985 -1.8533
  250MPD2    H2 3796   3.549   3.481  13.310  2.4374  1.6225  1.5991
  250MPD2    H3 3797   3.457   3.266  13.416 -0.2473 -2.7437  0.5275
  250MPD2     N 3798   3.767   3.000  13.215 -0.4658 -0.2911 -0.2347
  250MPD2    H5 3799   3.708   2.920  13.234 -2.5663  1.6481  1.3914
  250MPD2    N1 3800   3.773   3.493  13.183 -0.0150 -0.0120  0.2579
  250MPD2    H7 3801   3.721   3.579  13.196 -0.9679 -0.6255  0.5370
  251TMC3    C1 3802   3.932   3.612  13.058 -0.3462  0.1147 -0.7576
  251TMC3    C2 3803   3.858   3.728  13.065 -0.0964 -0.0175 -0.2674
  251TMC3    C3 3804   3.924   3.840  13.025  0.4971 -0.2495  0.0882
  251TMC3    C4 3805   4.051   3.610  12.987 -0.3673  0.0115  0.4419
  251TMC3    C5 3806   4.116   3.726  12.960 -0.5060  0.1531  0.0293
  251TMC3    C6 3807   4.052   3.841  12.984 -0.1084 -0.2917  0.0262
  251TMC3     C 3808   3.904   3.492  13.135 -0.5772 -0.5456 -0.0519
  251TMC3     O 3809   3.998   3.415  13.147  0.3612  0.0357  0.0867
  251TMC3     H 3810   3.760   3.737  13.111 -0.4038  2.2505 -1.3395
  251TMC3    H1 3811   4.102   3.514  12.979  0.3765  0.6829 -2.5942
  251TMC3    H2 3812   4.107   3.932  12.960 -0.2928  0.1517  1.2522
  251TMC3    C7 3813   4.251   3.709  12.906  0.1563  0.2938  0.0755
  251TMC3    C8 3814   3.868   3.957  13.081 -0.5881  0.4655 -0.0170
  251TMC3    O1 3815   4.294   3.594  12.906 -0.3520 -0.1375 -0.5236
  251TMC3    O2 3816   3.829   3.952  13.199 -0.6260 -0.3525  0.2464
  252TMC3    C1 3817   3.765   4.597   8.729 -0.0606 -0.3313 -0.0672
  252TMC3    C2 3818   3.866   4.685   8.759 -0.6468  0.1708 -0.0810
  252TMC3    C3 3819   3.934   4.674   8.871  0.3667 -0.1220  0.3332
  252TMC3    C4 3820   3.740   4.494   8.814 -0.1469  0.5516  0.2560
  252TMC3    C5 3821   3.801   4.490   8.936  0.4853  0.3323  0.3867
  252TMC3    C6 3822   3.897   4.582   8.972  0.1314  0.4946 -0.3849
  252TMC3     C 3823   3.745   4.566   8.589  0.4223  0.3908  0.8234
  252TMC3     O 3824   3.711   4.455   8.560 -0.3273  0.5847  0.7027
  252TMC3     H 3825   3.903   0.030   8.684 -0.0036 -2.3663 -2.0874
  252TMC3    H1 3826   3.682   4.410   8.777 -1.4570  2.4113 -1.9499
  252TMC3    H2 3827   3.923   4.591   9.077 -1.0511  2.5174 -0.2695
  252TMC3    C7 3828   3.718   4.427   9.046 -0.2692  0.4878 -0.3325
  252TMC3    C8 3829   4.071   0.005   8.869  0.5770  0.1470 -0.4614
  252TMC3    O1 3830   3.601   4.414   9.016 -0.1080  0.7534  0.2290
  252TMC3    O2 3831   4.106   0.065   8.767  0.1253  0.7265 -0.3363
  253MPD2     C 3832   0.259   3.080  14.949 -0.3042  0.1882 -0.2840
  253MPD2    C1 3833   0.147   3.157  14.981 -0.2927 -0.2310 -0.3087
  253MPD2    C2 3834   0.160   3.265  15.062  0.8370 -0.7231  0.0946
  253MPD2    C3 3835   0.284   3.313  15.099  0.4686  0.1959  0.6228
  253MPD2    C4 3836   0.399   3.239  15.062 -0.0884 -0.1660  0.3168
  253MPD2    C5 3837   0.381   3.121  14.991 -1.1219  0.0259 -0.1745
  253MPD2     H 3838   0.074   3.324  15.090  1.7355  0.6620 -0.0900
  253MPD2    H1 3839   0.498   3.254  15.104 -0.1719  0.0401  0.4409
  253MPD2    H2 3840   0.248   2.989  14.891 -1.9704 -0.2398  0.7007
  253MPD2    H3 3841   0.469   3.064  14.964  0.8557  2.1864  1.7032
  253MPD2     N 3842   0.296   3.431  15.178 -0.6903  0.0585 -0.2589
  253MPD2    H5 3843   0.211   3.479  15.205  1.2970  2.3820  1.7988
  253MPD2    N1 3844   0.012   3.128  14.939 -0.1286  0.6099  0.3123
  253MPD2    H7 3845   4.660   3.179  14.985  0.0488 -0.7249  2.1140
  254TMC3    C1 3846   0.407   3.594  15.326  0.5316  0.2014 -0.6843
  254TMC3    C2 3847   0.296   3.666  15.331 -0.0199 -0.1245  0.5683
  254TMC3    C3 3848   0.275   3.729  15.456  0.6697  0.4014  0.0178
  254TMC3    C4 3849   0.509   3.611  15.417  0.0008 -0.7884  0.1750
  254TMC3    C5 3850   0.489   3.685  15.533 -0.0148  0.6351 -0.0245
  254TMC3    C6 3851   0.368   3.744  15.551  0.0744 -0.2041  0.3939
  254TMC3     C 3852   0.421   3.491  15.220  0.3863  0.1117  0.7829
  254TMC3     O 3853   0.536   3.457  15.202  0.3855 -0.0016  0.6600
  254TMC3     H 3854   0.220   3.669  15.254  1.4365  2.1968 -0.7830
  254TMC3    H1 3855   0.593   3.543  15.414  0.3854 -0.2809 -0.4055
  254TMC3    H2 3856   0.360   3.811  15.636 -0.0395 -0.4067  0.5451
  254TMC3    C7 3857   0.576   3.661  15.646  0.2982  0.1767  0.0882
  254TMC3    C8 3858   0.145   3.782  15.486 -0.1161  1.2553 -0.1336
  254TMC3    O1 3859   0.524   3.665  15.754 -0.5313 -0.5866 -0.3411
  254TMC3    O2 3860   0.075   3.815  15.387  0.3236 -0.0937 -0.4863
  255MPD2     C 3861   3.372   0.298  10.651 -0.2461 -0.3227  0.3640
  255MPD2    C1 3862   3.462   0.396  10.607 -0.1182 -0.2064  0.2159
  255MPD2    C2 3863   3.583   0.343  10.561  0.1794 -0.7226 -0.2047
  255MPD2    C3 3864   3.613   0.213  10.546  0.1321  0.1169  0.1837
  255MPD2    C4 3865   3.518   0.122  10.585 -0.3419 -0.4817 -0.1477
  255MPD2    C5 3866   3.401   0.166  10.645 -0.3494  0.5055 -0.5479
  255MPD2     H 3867   3.661   0.396  10.508  1.5687 -0.7287  1.8282
  255MPD2    H1 3868   3.531   0.015  10.586 -0.7265 -0.5079  1.7885
  255MPD2    H2 3869   3.273   0.337  10.672 -0.3720 -2.0401  2.8838
  255MPD2    H3 3870   3.333   0.092  10.688 -0.5328  1.1891  0.3404
  255MPD2     N 3871   3.742   0.188  10.491  0.1246 -0.5874 -0.0466
  255MPD2    H5 3872   3.803   0.268  10.476  2.3165 -2.1515  0.6065
  255MPD2    N1 3873   3.429   0.531  10.609  0.3745  0.9147 -0.2602
  255MPD2    H7 3874   3.334   0.564  10.617 -0.2299 -1.0484  0.6559
  256TMC3    C1 3875   3.475   0.769  10.598  0.1254  0.4698 -0.2851
  256TMC3    C2 3876   3.564   0.868  10.639  0.8231 -0.0489  0.2995
  256TMC3    C3 3877   3.529   0.995  10.599  0.1010 -0.0613  0.2238
  256TMC3    C4 3878   3.353   0.801  10.547 -0.3206  0.0737  1.3427
  256TMC3    C5 3879   3.321   0.931  10.526 -0.5180  0.0871 -0.3828
  256TMC3    C6 3880   3.411   1.028  10.543  0.0068 -0.0397  0.1289
  256TMC3     C 3881   3.527   0.632  10.605 -0.2323 -0.5338 -0.5103
  256TMC3     O 3882   3.646   0.615  10.598  0.1653 -0.1073  0.4441
  256TMC3     H 3883   3.663   0.835  10.669  0.1541 -1.2619  1.1821
  256TMC3    H1 3884   3.278   0.730  10.515 -1.1477  0.6333  2.0447
  256TMC3    H2 3885   3.385   1.129  10.513 -2.2634 -0.6185  0.2014
  256TMC3    C7 3886   3.191   0.963  10.475  0.0924 -0.2711 -0.2989
  256TMC3    C8 3887   3.635   1.094  10.603  0.0521  0.0234 -0.1717
  256TMC3    O1 3888   3.119   0.873  10.428  0.3596  0.2230  0.9001
  256TMC3    O2 3889   3.738   1.064  10.659 -0.1879  0.1852  0.1176
  257MPD2     C 3890   2.387   3.468  13.279 -0.6141 -0.0983 -0.0009
  257MPD2    C1 3891   2.478   3.462  13.180 -0.0781  0.2643  0.8959
  257MPD2    C2 3892   2.581   3.362  13.201  0.2248  0.6919  0.6071
  257MPD2    C3 3893   2.592   3.270  13.299 -0.0761 -0.7017 -0.5139
  257MPD2    C4 3894   2.498   3.282  13.399  0.3598 -0.1267  0.2405
  257MPD2    C5 3895   2.401   3.387  13.387  0.5063  0.4686 -0.2296
  257MPD2     H 3896   2.665   3.366  13.133 -1.1588 -1.1366 -1.1995
  257MPD2    H1 3897   2.502   3.213  13.483 -1.2480  0.4869  0.8197
  257MPD2    H2 3898   2.294   3.524  13.271  0.4856  1.7524  0.2541
  257MPD2    H3 3899   2.326   3.395  13.464  0.4860  0.1790 -0.2201
  257MPD2     N 3900   2.686   3.165  13.308 -0.7516  0.1954 -0.2121
  257MPD2    H5 3901   2.691   3.113  13.395  0.6812  0.8845  0.1232
  257MPD2    N1 3902   2.459   3.546  13.068 -0.2638  0.8220  0.3892
  257MPD2    H7 3903   2.384   3.613  13.061 -0.0941  0.9297 -0.4668
  258TMC3    C1 3904   2.850   3.009  13.224 -0.4711  0.2982  0.4346
  258TMC3    C2 3905   2.901   2.943  13.115  0.0467 -0.5496  0.7467
  258TMC3    C3 3906   2.995   2.843  13.133  0.0768  0.1407  0.4071
  258TMC3    C4 3907   2.892   2.983  13.352 -0.3280  0.1958 -0.5833
  258TMC3    C5 3908   2.985   2.878  13.361 -0.2696  0.5644 -0.0089
  258TMC3    C6 3909   3.039   2.802  13.258  0.8280  0.1411 -0.8885
  258TMC3     C 3910   2.771   3.127  13.200 -0.2640  0.2168 -0.4653
  258TMC3     O 3911   2.780   3.169  13.088  0.3876 -0.4855  0.1245
  258TMC3     H 3912   2.862   2.960  13.015 -1.3563  1.5090  1.6589
  258TMC3    H1 3913   2.864   3.046  13.437 -2.1512  3.8828 -3.8897
  258TMC3    H2 3914   3.113   2.725  13.279  1.0808  1.3836  2.8269
  258TMC3    C7 3915   3.026   2.833  13.493 -0.1156  0.2820  0.2031
  258TMC3    C8 3916   3.029   2.767  13.008  0.1381 -0.7789 -0.2978
  258TMC3    O1 3917   3.130   2.768  13.499  0.6359  0.3512 -0.6306
  258TMC3    O2 3918   2.956   2.800  12.919  0.8867  0.0081 -0.9804
  259MPD2     C 3919   0.749   4.301   1.210  0.3006 -0.0356 -0.2287
  259MPD2    C1 3920   0.844   4.240   1.269  0.2494 -0.3513  0.2771
  259MPD2    C2 3921   0.948   4.185   1.195 -0.3790 -0.2828  0.4710
  259MPD2    C3 3922   0.939   4.198   1.057  0.0486 -0.4950 -0.1372
  259MPD2    C4 3923   0.837   4.262   0.993 -0.0865  0.0885 -0.4325
  259MPD2    C5 3924   0.744   4.324   1.078  0.5565 -0.2409  0.7301
  259MPD2     H 3925   1.024   4.120   1.238 -0.4467 -0.1144  0.8473
  259MPD2    H1 3926   0.832   4.279   0.886 -2.1522 -0.3072 -0.4178
  259MPD2    H2 3927   0.664   4.345   1.261 -0.7484 -1.4715 -0.7568
  259MPD2    H3 3928   0.670   4.388   1.031  0.4837 -2.2169 -1.8988
  259MPD2     N 3929   1.049   4.138   0.991  0.0618 -0.8254  0.2937
  259MPD2    H5 3930   1.127   4.104   1.046  0.8822  0.5060 -0.0562
  259MPD2    N1 3931   0.848   4.251   1.411  0.3165 -0.6597 -0.3031
  259MPD2    H7 3932   0.785   4.310   1.465  0.6484 -0.6151  0.0388
  260TMC3    C1 3933   1.176   4.070   0.801 -1.1167  0.3777  0.2930
  260TMC3    C2 3934   1.215   3.955   0.858 -0.0211 -0.1053 -0.2272
  260TMC3    C3 3935   1.344   3.915   0.821 -0.3236 -0.4333 -0.9581
  260TMC3    C4 3936   1.253   4.135   0.705  0.1839  0.4692  0.9279
  260TMC3    C5 3937   1.381   4.090   0.676  0.2290  0.1082  0.1117
  260TMC3    C6 3938   1.425   3.975   0.726  0.0823  0.4649 -0.0999
  260TMC3     C 3939   1.064   4.149   0.855 -0.4533 -0.3085  0.6624
  260TMC3     O 3940   1.011   4.211   0.769 -0.5390  0.0968  0.4642
  260TMC3     H 3941   1.158   3.901   0.932  0.3109 -1.4716 -0.9675
  260TMC3    H1 3942   1.228   4.228   0.656 -0.2408 -0.2611 -0.2473
  260TMC3    H2 3943   1.526   3.939   0.708  0.2328  0.6574  0.3546
  260TMC3    C7 3944   1.443   4.128   0.547 -0.4086  0.1513  0.7182
  260TMC3    C8 3945   1.409   3.828   0.923  0.3993 -0.2332 -0.0451
  260TMC3    O1 3946   1.486   4.038   0.475 -0.2345 -0.3770  0.1893
  260TMC3    O2 3947   1.338   3.804   1.022 -0.3378 -0.0322 -0.8074
  261MPD2     C 3948   3.416   3.248  12.960 -0.4379  0.5381  1.0727
  261MPD2    C1 3949   3.476   3.188  12.848  0.6811 -0.2165 -0.4608
  261MPD2    C2 3950   3.486   3.263  12.728 -0.2458 -0.4922 -0.4592
  261MPD2    C3 3951   3.419   3.387  12.724  0.6372 -0.5363  0.2487
  261MPD2    C4 3952   3.355   3.430  12.833 -0.2889  1.0087  0.2930
  261MPD2    C5 3953   3.354   3.364  12.953  0.4218  0.3251 -0.3848
  261MPD2     H 3954   3.557   3.220  12.658  0.8682 -0.5722  0.7302
  261MPD2    H1 3955   3.300   3.523  12.826 -2.2541 -0.2967 -1.5688
  261MPD2    H2 3956   3.413   3.196  13.056 -3.4195 -1.9831 -0.3831
  261MPD2    H3 3957   3.323   3.416  13.043  1.0972 -1.3512  0.8190
  261MPD2     N 3958   3.447   3.465  12.605  0.0194 -0.6371  0.0028
  261MPD2    H5 3959   3.494   3.421  12.527 -0.7620  0.4798 -1.1223
  261MPD2    N1 3960   3.553   3.066  12.868  0.3539  0.4810  0.0172
  261MPD2    H7 3961   3.540   3.012  12.952 -1.1015  0.9985  0.1197
  262TMC3    C1 3962   3.487   3.657  12.461 -0.4251  0.0572  0.4039
  262TMC3    C2 3963   3.423   3.765  12.417 -0.2844  0.2252  0.5869
  262TMC3    C3 3964   3.474   3.829  12.304 -0.3034  0.5693  0.8220
  262TMC3    C4 3965   3.584   3.596  12.390 -0.5893 -1.0046  0.7795
  262TMC3    C5 3966   3.627   3.654  12.277  0.1194 -0.4760 -0.0334
  262TMC3    C6 3967   3.576   3.780  12.230 -0.0630  0.1947  0.0590
  262TMC3     C 3968   3.432   3.603  12.586  0.5503  0.6371 -0.1835
  262TMC3     O 3969   3.368   3.682  12.656 -0.7223 -0.8263 -0.0134
  262TMC3     H 3970   3.333   3.802  12.466 -1.8765 -0.7214 -1.6401
  262TMC3    H1 3971   3.631   3.507  12.430 -1.7639 -1.8951  0.2067
  262TMC3    H2 3972   3.626   3.841  12.156 -1.9060 -0.8783 -2.0687
  262TMC3    C7 3973   3.676   3.562  12.175  0.4733 -0.1268  0.4190
  262TMC3    C8 3974   3.393   3.931  12.231 -0.1714 -0.6937 -0.3427
  262TMC3    O1 3975   3.679   3.443  12.197  0.2059 -0.5843  0.6455
  262TMC3    O2 3976   3.432   3.967  12.120 -0.5999 -0.3999 -0.3437
  263MPD2     C 3977   4.515   2.211  11.152  0.4073 -0.5017  0.1264
  263MPD2    C1 3978   4.528   2.340  11.196 -0.4506 -0.1810  0.1231
  263MPD2    C2 3979   4.483   2.443  11.124 -0.0334  0.0379 -0.1136
  263MPD2    C3 3980   4.439   2.417  10.994 -0.0648  0.6602  0.2672
  263MPD2    C4 3981   4.417   2.290  10.950  0.2128  0.2382 -0.0466
  263MPD2    C5 3982   4.450   2.181  11.032 -0.9683 -0.2878 -0.4709
  263MPD2     H 3983   4.484   2.544  11.163 -1.0052  0.1760 -0.4428
  263MPD2    H1 3984   4.369   2.264  10.856 -1.9660  2.0980  0.5516
  263MPD2    H2 3985   4.554   2.131  11.214 -0.4834  0.7494  2.3205
  263MPD2    H3 3986   4.438   2.075  11.018  0.9288 -0.6971  0.9814
  263MPD2     N 3987   4.406   2.531  10.922 -0.4872  0.0787 -0.2114
  263MPD2    H5 3988   4.417   2.620  10.970 -3.2811 -0.3291  1.1636
  263MPD2    N1 3989   4.592   2.356  11.318  0.5867 -0.3474 -0.2465
  263MPD2    H7 3990   4.612   2.272  11.371  2.6829  0.3896  0.1368
  264TMC3    C1 3991   4.368   2.669  10.737  0.4908  0.4638 -0.8355
  264TMC3    C2 3992   4.352   2.773  10.823  0.7456  0.0340  0.0445
  264TMC3    C3 3993   4.347   2.897  10.766  0.4748  0.4931  0.5976
  264TMC3    C4 3994   4.417   2.669  10.613 -0.3503  0.1193  0.8156
  264TMC3    C5 3995   4.439   2.793  10.568  0.4771  0.0331  0.1509
  264TMC3    C6 3996   4.382   2.900  10.636  0.2818  0.2599 -0.4441
  264TMC3     C 3997   4.372   2.534  10.788 -0.5049  0.4446  0.1796
  264TMC3     O 3998   4.359   2.440  10.716 -0.1770  0.4326  0.3741
  264TMC3     H 3999   4.318   2.761  10.925 -0.7846  0.3445 -0.4191
  264TMC3    H1 4000   4.456   2.580  10.564  2.0182 -0.1441  3.1763
  264TMC3    H2 4001   4.382   2.999  10.592  1.5282 -0.1320 -1.3311
  264TMC3    C7 4002   4.553   2.810  10.473  0.5504  0.9100 -0.0440
  264TMC3    C8 4003   4.398   3.014  10.832 -0.0236 -0.1131  0.2378
  264TMC3    O1 4004   4.584   2.713  10.405  0.0999 -0.5533 -0.3927
  264TMC3    O2 4005   4.472   3.088  10.768  0.4390 -0.0068  0.1234
  265MPD2     C 4006   1.836   3.049  15.608  0.5659 -0.1778 -0.2029
  265MPD2    C1 4007   1.853   3.124  15.496  0.3066  0.8224 -0.2420
  265MPD2    C2 4008   1.914   3.070  15.384 -0.0270  0.4894 -0.2368
  265MPD2    C3 4009   1.953   2.942  15.384  0.8076  0.9907  0.3440
  265MPD2    C4 4010   1.951   2.870  15.501  0.2182  0.5109 -0.2811
  265MPD2    C5 4011   1.896   2.925  15.609  0.5549  0.4549 -0.2708
  265MPD2     H 4012   1.919   3.124  15.290 -0.9294 -0.6752 -0.9679
  265MPD2    H1 4013   2.000   2.774  15.516  0.8234  0.7127 -0.9481
  265MPD2    H2 4014   1.785   3.082  15.698 -0.2209 -0.1446 -0.6557
  265MPD2    H3 4015   1.883   2.867  15.699  0.7459 -2.5904 -2.2132
  265MPD2     N 4016   2.018   2.881  15.269  0.0848  0.1955  0.5432
  265MPD2    H5 4017   2.026   2.780  15.266 -0.8534  0.1437 -0.2955
  265MPD2    N1 4018   1.811   3.260  15.492  0.1245  0.6497 -0.0316
  265MPD2    H7 4019   1.806   3.291  15.395 -1.4520  0.1205 -0.1239
  266TMC3    C1 4020   1.706   3.451  15.585  0.1312  0.7578  0.3294
  266TMC3    C2 4021   1.687   3.514  15.697  0.3907 -0.2015  0.1073
  266TMC3    C3 4022   1.589   3.610  15.701  0.3979  0.3281  0.7574
  266TMC3    C4 4023   1.625   3.460  15.473 -0.2818  0.0081 -0.2623
  266TMC3    C5 4024   1.515   3.543  15.480 -0.0985 -0.1499 -0.2966
  266TMC3    C6 4025   1.506   3.621  15.590  0.2694  0.3743 -0.4438
  266TMC3     C 4026   1.782   3.333  15.608 -0.0646  0.0261 -0.4988
  266TMC3     O 4027   1.829   3.318  15.718  0.1389  0.0412 -0.2839
  266TMC3     H 4028   1.749   3.499  15.785  0.2361  1.8076  0.5660
  266TMC3    H1 4029   1.631   3.392  15.388  1.0641 -0.6728  0.3854
  266TMC3    H2 4030   1.422   3.689  15.595 -0.8184 -0.9839 -0.1358
  266TMC3    C7 4031   1.493   3.613  15.352 -1.0924  0.4466 -0.4739
  266TMC3    C8 4032   1.534   3.660  15.827  0.4602 -0.4340  0.1289
  266TMC3    O1 4033   1.491   3.549  15.250  0.2249  0.3824  0.0857
  266TMC3    O2 4034   1.427   3.713  15.822  0.9418  0.3898 -0.1820
  267MPD2     C 4035   0.138   0.526  16.920  0.4720  0.1555  0.4565
  267MPD2    C1 4036   0.102   0.472  17.040  1.3196 -0.3456 -0.5671
  267MPD2    C2 4037   4.716   0.393  17.044  0.1509 -0.2945 -0.3024
  267MPD2    C3 4038   4.644   0.359  16.929  0.0127  0.0212 -0.2829
  267MPD2    C4 4039   4.689   0.411  16.815  0.3664 -0.0891  0.5131
  267MPD2    C5 4040   0.068   0.499  16.810  0.0881 -0.3695  0.2431
  267MPD2     H 4041   4.685   0.348  17.138  3.0815 -2.3868 -0.3288
  267MPD2    H1 4042   4.647   0.383  16.720  1.9061 -1.4183  0.2233
  267MPD2    H2 4043   0.208   0.608  16.910 -0.2562  0.8201  0.8227
  267MPD2    H3 4044   0.100   0.551  16.720  0.5758 -1.3396 -0.1591
  267MPD2     N 4045   4.528   0.284  16.926  0.0073  0.4587 -0.0800
  267MPD2    H5 4046   4.473   0.281  16.841 -1.8698  1.1887  1.1321
  267MPD2    N1 4047   0.167   0.521  17.162 -0.0878  0.0763 -0.2085
  267MPD2    H7 4048   0.242   0.588  17.152 -1.0590  0.9434 -1.7031
  268TMC3    C1 4049   0.206   0.556  17.400 -0.5663  0.8601  0.1360
  268TMC3    C2 4050   0.184   0.687  17.368  0.1120 -0.3336 -0.0802
  268TMC3    C3 4051   0.144   0.770  17.470 -0.5668 -0.1148 -0.2974
  268TMC3    C4 4052   0.189   0.497  17.520  0.5961  0.1787 -0.4196
  268TMC3    C5 4053   0.141   0.580  17.620  0.1316  0.0738 -0.4895
  268TMC3    C6 4054   0.126   0.718  17.597  0.3286 -0.1141 -0.3191
  268TMC3     C 4055   0.169   0.466  17.288 -0.1575 -0.1575  0.3873
  268TMC3     O 4056   0.113   0.359  17.315  0.0662  0.5112  0.7742
  268TMC3     H 4057   0.191   0.724  17.267 -1.4309 -3.3152 -1.2918
  268TMC3    H1 4058   0.205   0.390  17.528 -3.3571 -0.5014 -1.5485
  268TMC3    H2 4059   0.104   0.792  17.674 -0.6971 -1.5505  0.7627
  268TMC3    C7 4060   0.094   0.523   0.046 -0.1620 -0.0316 -0.0085
  268TMC3    C8 4061   0.096   0.902  17.435  0.5705  0.0437  0.5831
  268TMC3    O1 4062   0.132   0.408   0.066  0.8325  0.4930 -0.2774
  268TMC3    O2 4063   0.107   0.990  17.516  0.0400 -0.2665  0.0905
  269MPD2     C 4064   4.233   3.994  15.472  0.0687  0.1132  0.2234
  269MPD2    C1 4065   4.102   3.997  15.498  0.7126  0.5151  1.0441
  269MPD2    C2 4066   4.031   4.117  15.507 -1.3256 -0.4204 -0.0189
  269MPD2    C3 4067   4.106   4.232  15.501  0.3638  0.3401  0.4794
  269MPD2    C4 4068   4.240   4.226  15.461 -0.0724 -0.5983  0.1966
  269MPD2    C5 4069   4.305   4.103  15.454 -0.1269  0.1333  0.4401
  269MPD2     H 4070   3.928   4.118  15.540 -1.9867  2.3150 -2.1966
  269MPD2    H1 4071   4.298   4.315  15.436 -1.6834  0.1348 -0.9313
  269MPD2    H2 4072   4.289   3.901  15.475  0.1119  0.1072 -0.8396
  269MPD2    H3 4073   4.411   4.095  15.438  0.0995  0.5083  1.7663
  269MPD2     N 4074   4.042   4.356  15.522 -0.4189  0.2297 -0.1296
  269MPD2    H5 4075   3.942   4.355  15.505 -0.6366 -0.5742  1.1722
  269MPD2    N1 4076   4.041   3.870  15.523 -0.0876 -0.1012  0.6369
  269MPD2    H7 4077   4.110   3.796  15.532  2.7633  2.1939 -2.8821
  270TMC3    C1 4078   3.895   3.698  15.573  0.3432  1.0629  0.1925
  270TMC3    C2 4079   3.770   3.646  15.572 -0.1712 -0.4625 -0.4387
  270TMC3    C3 4080   3.751   3.508  15.604 -0.6355 -0.1970 -0.1536
  270TMC3    C4 4081   4.003   3.622  15.612 -0.3836  0.3258 -0.0943
  270TMC3    C5 4082   3.980   3.495  15.655 -0.0278 -0.5198  0.3033
  270TMC3    C6 4083   3.856   3.434  15.652  0.6517 -0.1586 -0.7655
  270TMC3     C 4084   3.909   3.838  15.547 -0.3554  0.7804 -0.5133
  270TMC3     O 4085   3.807   3.904  15.529  0.0037  0.1114  0.0276
  270TMC3     H 4086   3.690   3.701  15.525  0.6247  1.8938  0.9520
  270TMC3    H1 4087   4.091   3.678  15.643 -0.9552  1.6711 -0.8901
  270TMC3    H2 4088   3.835   3.332  15.682 -1.9304  0.3441 -0.8923
  270TMC3    C7 4089   4.091   3.407  15.614 -0.4187  0.7078  0.3861
  270TMC3    C8 4090   3.715   3.435  15.485 -0.1463 -0.4216  0.0667
  270TMC3    O1 4091   4.200   3.465  15.608 -0.1871  0.3070 -0.0550
  270TMC3    O2 4092   3.774   3.330  15.467  0.3728  0.1214 -0.7190
  271MPD2     C 4093   3.481   3.327  13.714  0.1705 -0.2980  0.6390
  271MPD2    C1 4094   3.397   3.306  13.821 -0.1016 -0.0683 -0.3763
  271MPD2    C2 4095   3.276   3.373  13.838  0.5511 -0.5713  0.9821
  271MPD2    C3 4096   3.251   3.485  13.757  0.2967  0.6822 -0.4319
  271MPD2    C4 4097   3.337   3.510  13.654  0.7342  0.4424  0.1386
  271MPD2    C5 4098   3.449   3.431  13.631 -0.3929 -0.1166 -0.5117
  271MPD2     H 4099   3.215   3.349  13.924  0.3513 -2.0679  0.4121
  271MPD2    H1 4100   3.324   3.595  13.587  0.6863  2.9495  3.2895
  271MPD2    H2 4101   3.570   3.271  13.686 -0.3301 -0.5890 -0.3672
  271MPD2    H3 4102   3.519   3.461  13.553  2.3536 -2.1249  1.1379
  271MPD2     N 4103   3.139   3.556  13.789  0.1958 -0.2932  0.3298
  271MPD2    H5 4104   3.079   3.514  13.859  1.0570 -0.8177  0.7619
  271MPD2    N1 4105   3.424   3.209  13.920  0.2624  0.3356  0.0000
  271MPD2    H7 4106   3.360   3.203  13.998 -0.8193 -1.3761 -1.0232
  272TMC3    C1 4107   3.539   3.030  14.043 -0.1398 -0.3049 -0.7037
  272TMC3    C2 4108   3.661   2.977  14.072 -0.2407 -0.0043  0.7244
  272TMC3    C3 4109   3.705   2.936  14.199 -0.0892  0.4535 -0.5856
  272TMC3    C4 4110   3.449   3.055  14.147 -0.5161 -0.2802  0.5585
  272TMC3    C5 4111   3.495   3.031  14.273  0.1396 -0.1047  0.6573
  272TMC3    C6 4112   3.625   2.979  14.300  0.7073 -0.1515 -0.0153
  272TMC3     C 4113   3.534   3.112  13.920  0.0228  0.2413 -0.5679
  272TMC3     O 4114   3.624   3.096  13.837 -0.3078 -0.4739 -0.6521
  272TMC3     H 4115   3.725   2.966  13.986 -0.3276  0.1026  0.6459
  272TMC3    H1 4116   3.351   3.098  14.128 -0.7276 -1.0460 -0.0758
  272TMC3    H2 4117   3.650   2.937  14.397 -1.8501 -0.4026  0.5250
  272TMC3    C7 4118   3.409   3.055  14.386 -0.8819 -0.6833 -0.0917
  272TMC3    C8 4119   3.831   2.870  14.213  0.1459  0.6316  0.4372
  272TMC3    O1 4120   3.291   3.055  14.352 -0.2863 -0.0292 -0.1442
  272TMC3    O2 4121   3.893   2.867  14.111  0.2180  0.2776  0.3181
  273MPD2     C 4122   0.418   1.211  11.987  0.6485 -0.6759  0.4659
  273MPD2    C1 4123   0.484   1.317  11.926  0.6599 -0.2502  0.0550
  273MPD2    C2 4124   0.505   1.318  11.791  0.4316  0.2374 -0.6989
  273MPD2    C3 4125   0.456   1.212  11.710 -0.2473  0.0234  0.4758
  273MPD2    C4 4126   0.408   1.095  11.778 -0.3082  0.3079  0.4882
  273MPD2    C5 4127   0.390   1.096  11.915  0.2430  0.3634 -0.4839
  273MPD2     H 4128   0.552   1.411  11.759  1.0549  1.0564  2.6369
  273MPD2    H1 4129   0.396   1.005  11.720 -0.7195  1.4135 -1.1338
  273MPD2    H2 4130   0.394   1.210  12.093  1.4316 -0.5437  0.6411
  273MPD2    H3 4131   0.362   1.002  11.961 -0.4407  1.0841  0.5451
  273MPD2     N 4132   0.463   1.214  11.567  0.4723 -0.7129  0.2745
  273MPD2    H5 4133   0.410   1.147  11.512 -0.4297  0.1326  0.0962
  273MPD2    N1 4134   0.518   1.428  12.014  0.2112 -1.0086 -0.2356
  273MPD2    H7 4135   0.462   1.428  12.098 -1.4016  1.2645 -1.3069
  274TMC3    C1 4136   0.508   1.348  11.358  0.8749 -0.5210 -0.5147
  274TMC3    C2 4137   0.392   1.320  11.306 -0.3494  0.1277  0.7723
  274TMC3    C3 4138   0.336   1.406  11.214  0.0751 -0.6260  1.0667
  274TMC3    C4 4139   0.566   1.470  11.322 -0.3284  0.6664 -0.4961
  274TMC3    C5 4140   0.505   1.561  11.237 -0.4654  0.5531  0.3754
  274TMC3    C6 4141   0.394   1.526  11.175  0.2549  0.0033 -0.1127
  274TMC3     C 4142   0.532   1.315  11.495  0.1075 -0.6898 -0.4625
  274TMC3     O 4143   0.621   1.387  11.547 -0.5388  0.1179  0.2671
  274TMC3     H 4144   0.339   1.231  11.336 -0.0425 -0.8112 -1.4743
  274TMC3    H1 4145   0.666   1.500  11.349 -0.3551 -1.5997  2.1230
  274TMC3    H2 4146   0.333   1.602  11.129 -2.8721 -1.5084  1.5682
  274TMC3    C7 4147   0.480   1.687  11.313 -1.0744 -0.2159 -0.1206
  274TMC3    C8 4148   0.210   1.381  11.154 -0.1168  0.4066  0.0333
  274TMC3    O1 4149   0.422   1.781  11.257  0.5845 -0.6529  0.1825
  274TMC3    O2 4150   0.142   1.290  11.195 -0.0065  0.1588 -0.2763
  275MPD2     C 4151   4.680   4.369  14.233  0.0624 -0.0073  0.6655
  275MPD2    C1 4152   4.676   4.241  14.292 -0.0502 -0.0544  0.4711
  275MPD2    C2 4153   4.550   4.180  14.296  0.1603 -0.7431 -0.2203
  275MPD2    C3 4154   4.435   4.238  14.251 -0.1677  0.2350  0.3960
  275MPD2    C4 4155   4.452   4.360  14.195  0.7173 -0.0321 -0.1418
  275MPD2    C5 4156   4.570   4.430  14.179 -0.3592 -0.2999 -0.7434
  275MPD2     H 4157   4.536   4.080  14.336  1.2685 -1.1797 -0.9371
  275MPD2    H1 4158   4.368   4.419  14.161  1.0282  0.1117 -0.6613
  275MPD2    H2 4159   0.045   4.430  14.227 -0.5390  0.7331 -0.5764
  275MPD2    H3 4160   4.574   4.533  14.145 -0.1600 -0.1926 -0.3913
  275MPD2     N 4161   4.312   4.167  14.262 -0.3474  0.4148 -0.0525
  275MPD2    H5 4162   4.315   4.074  14.302  0.5331  1.5554  2.5292
  275MPD2    N1 4163   0.064   4.182  14.348 -0.4047  0.2768  0.0416
  275MPD2    H7 4164   0.045   4.099  14.403 -1.1350  0.7982  0.5744
  276TMC3    C1 4165   0.260   4.198  14.477  0.1468  0.1342  0.0669
  276TMC3    C2 4166   0.228   4.085  14.549 -0.0792 -0.3075  0.0126
  276TMC3    C3 4167   0.287   4.070  14.674  0.2098 -0.3783  0.3258
  276TMC3    C4 4168   0.346   4.296  14.524  0.6993 -0.3387 -0.2854
  276TMC3    C5 4169   0.406   4.264  14.644  0.4455 -0.3005 -0.0901
  276TMC3    C6 4170   0.378   4.156  14.719 -0.1523  0.9464 -0.1415
  276TMC3     C 4171   0.182   4.241  14.363  0.2545 -0.1186  0.5417
  276TMC3     O 4172   0.229   4.341  14.307  0.7077 -0.5166 -0.2023
  276TMC3     H 4173   0.173   4.001  14.508  0.6418 -1.2614  1.0218
  276TMC3    H1 4174   0.370   4.391  14.478  0.2813 -1.1440 -2.1606
  276TMC3    H2 4175   0.421   4.149  14.818  1.5203  1.3986 -0.8346
  276TMC3    C7 4176   0.516   4.349  14.687  0.0413  0.2634 -0.0870
  276TMC3    C8 4177   0.316   3.940  14.727 -0.5547  0.1654  0.4508
  276TMC3    O1 4178   0.542   4.348  14.807 -0.0252 -0.6481  0.2475
  276TMC3    O2 4179   0.407   3.926  14.806 -0.2561 -0.0080 -0.0542
  277MPD2     C 4180   2.080   3.585  12.860  0.9247 -0.6097 -0.4536
  277MPD2    C1 4181   1.963   3.608  12.922  0.0869 -0.7428 -0.3280
  277MPD2    C2 4182   1.920   3.535  13.030  0.0480  0.6147  0.1461
  277MPD2    C3 4183   1.996   3.426  13.067  0.0484 -0.4352 -0.3910
  277MPD2    C4 4184   2.119   3.404  13.007  0.0339 -0.1279  0.7065
  277MPD2    C5 4185   2.155   3.482  12.897 -0.7353  0.1366 -0.3657
  277MPD2     H 4186   1.835   3.571  13.086  1.9062  2.0957  1.9993
  277MPD2    H1 4187   2.177   3.312  13.016 -0.3444 -0.5774 -1.4517
  277MPD2    H2 4188   2.115   3.639  12.773 -1.8427  0.5458 -0.8451
  277MPD2    H3 4189   2.249   3.465  12.846 -0.4692  0.5680 -0.0226
  277MPD2     N 4190   1.948   3.350  13.178 -0.0164  0.1701  0.2992
  277MPD2    H5 4191   1.863   3.382  13.222 -0.7618  0.2877 -1.2396
  277MPD2    N1 4192   1.879   3.709  12.879  0.4055  0.3639  0.3671
  277MPD2    H7 4193   1.913   3.762  12.800  0.4870 -0.2287  0.0084
  278TMC3    C1 4194   1.965   3.232  13.380  0.0448  0.5499 -0.2196
  278TMC3    C2 4195   1.950   3.095  13.388 -0.5558  0.3232 -0.4311
  278TMC3    C3 4196   1.853   3.034  13.460 -0.2951 -0.7789  0.6034
  278TMC3    C4 4197   1.872   3.311  13.449  0.4792  0.2407  1.1373
  278TMC3    C5 4198   1.772   3.245  13.525  0.5457  0.9682 -0.8930
  278TMC3    C6 4199   1.759   3.106  13.528  0.0684  0.3821 -0.0484
  278TMC3     C 4200   2.023   3.265  13.249  0.0554  0.0336 -0.3837
  278TMC3     O 4201   2.125   3.215  13.217 -0.2387 -0.1435  0.0396
  278TMC3     H 4202   2.012   3.029  13.328 -1.0100 -1.5179  1.1222
  278TMC3    H1 4203   1.875   3.419  13.438  4.0065  0.0934  0.4498
  278TMC3    H2 4204   1.683   3.057  13.589  0.1053  1.3475  0.7790
  278TMC3    C7 4205   1.684   3.324  13.613 -0.9689  0.1005  0.1738
  278TMC3    C8 4206   1.847   2.894  13.469  0.1392  0.0484 -0.4015
  278TMC3    O1 4207   1.719   3.435  13.646 -0.2394 -0.4206 -0.0949
  278TMC3    O2 4208   1.949   2.826  13.472  0.4595  0.9297  0.1495
  279MPD2     C 4209   1.430   3.225   0.082 -0.6376 -0.1744 -0.1528
  279MPD2    C1 4210   1.334   3.204  17.677  0.8327  0.5421 -0.0305
  279MPD2    C2 4211   1.382   3.206  17.544  0.6904  0.1639 -0.9319
  279MPD2    C3 4212   1.511   3.239  17.507  0.4041  0.2331 -0.2373
  279MPD2    C4 4213   1.603   3.255  17.610  0.2578 -0.1338 -0.1838
  279MPD2    C5 4214   1.560   3.243   0.046  0.8139 -0.2719 -0.1178
  279MPD2     H 4215   1.314   3.183  17.463 -2.2875  0.6356  1.4239
  279MPD2    H1 4216   1.710   3.259  17.592  0.2095 -0.7998 -0.6277
  279MPD2    H2 4217   1.404   3.233   0.187  1.0306  1.0303  0.1659
  279MPD2    H3 4218   1.635   3.260   0.123 -0.2254  0.5172  0.7277
  279MPD2     N 4219   1.559   3.261  17.371  0.2129  0.8836 -0.1854
  279MPD2    H5 4220   1.659   3.261  17.356  0.0045  2.0250 -1.6142
  279MPD2    N1 4221   1.204   3.188   0.022 -0.0730  0.2458  0.2788
  279MPD2    H7 4222   1.188   3.201   0.121 -0.4308 -2.3035  0.5479
  280TMC3    C1 4223   0.977   3.139   0.028 -0.3317 -0.1522  0.1077
  280TMC3    C2 4224   0.866   3.064  17.688  0.2069  1.1473  0.4685
  280TMC3    C3 4225   0.739   3.118   0.013  0.2778  0.2593 -0.1466
  280TMC3    C4 4226   0.962   3.266   0.081 -0.2966  0.1089 -0.2750
  280TMC3    C5 4227   0.834   3.314   0.105  0.0833 -0.6524 -0.7927
  280TMC3    C6 4228   0.724   3.244   0.064 -0.2703 -0.1858  0.3568
  280TMC3     C 4229   1.098   3.135  17.646  0.1347 -0.2773  0.6341
  280TMC3     O 4230   1.100   3.075  17.538 -0.1121  0.4933  0.1417
  280TMC3     H 4231   0.883   2.967  17.642  0.2078  2.6143 -2.6640
  280TMC3    H1 4232   1.044   3.333   0.107 -0.8868  0.2182  1.3473
  280TMC3    H2 4233   0.623   3.280   0.081  0.7295  3.2860 -1.1221
  280TMC3    C7 4234   0.824   3.454   0.134  0.1434 -0.6248  0.3967
  280TMC3    C8 4235   0.636   3.030   0.070 -0.5353 -0.6137  0.4397
  280TMC3    O1 4236   0.908   3.506   0.202  0.6803 -0.1963 -0.1417
  280TMC3    O2 4237   0.552   3.082   0.141  0.0969  0.8138  0.0157
  281TMC3    C1 4238   4.646   3.499  13.106  0.1945 -0.8523  0.6295
  281TMC3    C2 4239   4.674   3.555  12.989 -0.0380  0.5080 -0.2003
  281TMC3    C3 4240   4.669   3.478  12.874 -0.1746  0.5452 -0.3104
  281TMC3    C4 4241   4.587   3.385  13.116  0.6031 -0.0647  0.3821
  281TMC3    C5 4242   4.575   3.306  13.006 -0.8444 -0.3400 -0.3653
  281TMC3    C6 4243   4.614   3.351  12.887 -0.5467  0.0167 -0.6727
  281TMC3     C 4244   4.637   3.578  13.220 -0.0089 -0.3837 -0.5034
  281TMC3     O 4245   4.675   3.529  13.327 -0.4645 -0.6287 -0.1774
  281TMC3     H 4246   0.003   3.648  12.976  1.9491 -0.5069  0.5572
  281TMC3    H1 4247   4.540   3.358  13.210 -1.6564 -0.9672 -1.0189
  281TMC3    H2 4248   4.606   3.291  12.797 -0.2483  0.8432 -1.2513
  281TMC3    C7 4249   4.542   3.167  13.015 -0.1642  0.1324  0.0022
  281TMC3    C8 4250   0.003   3.511  12.744 -0.2481  0.2453  0.4894
  281TMC3    O1 4251   4.563   3.108  12.911 -0.6613 -0.0289  0.7867
  281TMC3    O2 4252   0.058   3.412  12.696  0.6657 -0.4116 -0.2861
  282MPD2     C 4253   1.819   0.696  14.939 -0.0617  0.5069  0.1849
  282MPD2    C1 4254   1.729   0.645  15.029  0.3395  0.2393  0.1883
  282MPD2    C2 4255   1.638   0.554  14.980 -0.2260  0.6074  0.4462
  282MPD2    C3 4256   1.626   0.513  14.849 -0.2405  0.0464 -0.0315
  282MPD2    C4 4257   1.705   0.584  14.758  1.0224  0.8641  0.1101
  282MPD2    C5 4258   1.798   0.672  14.802 -0.9286  0.3963 -0.2730
  282MPD2     H 4259   1.583   0.497  15.054  1.6495  2.5803  3.3484
  282MPD2    H1 4260   1.711   0.560  14.653 -3.2218  3.4007 -0.7105
  282MPD2    H2 4261   1.906   0.749  14.975  0.6215  0.3505 -1.2521
  282MPD2    H3 4262   1.864   0.723  14.734  0.4912 -0.4713  0.4691
  282MPD2     N 4263   1.535   0.412  14.815  0.5006 -0.6713 -0.4341
  282MPD2    H5 4264   1.476   0.368  14.885 -1.7657 -0.2773 -2.1290
  282MPD2    N1 4265   1.732   0.667  15.166 -1.0680  0.0300  0.4493
  282MPD2    H7 4266   1.653   0.637  15.222  0.4118 -0.9065  2.0650
  283TMC3    C1 4267   1.802   0.742  15.381  0.0296 -0.2263  0.2922
  283TMC3    C2 4268   1.852   0.850  15.443 -0.2002  0.8091 -0.0377
  283TMC3    C3 4269   1.833   0.868  15.581 -0.1633  0.0817  1.2498
  283TMC3    C4 4270   1.739   0.646  15.448  0.2007  0.0067 -0.0938
  283TMC3    C5 4271   1.706   0.668  15.586  0.0073 -0.2142 -0.3766
  283TMC3    C6 4272   1.753   0.776  15.654  0.1430 -0.5133  0.0758
  283TMC3     C 4273   1.829   0.733  15.235  0.3942 -0.7354  0.5534
  283TMC3     O 4274   1.946   0.758  15.204 -0.2685  0.6264 -0.1774
  283TMC3     H 4275   1.913   0.917  15.383  1.6930 -1.2778 -0.4296
  283TMC3    H1 4276   1.714   0.553  15.398 -0.6372  0.3983 -0.4030
  283TMC3    H2 4277   1.730   0.789  15.759  0.5652  1.8903 -0.1366
  283TMC3    C7 4278   1.630   0.573  15.660 -0.0617 -0.2075  0.1320
  283TMC3    C8 4279   1.867   0.983  15.653 -0.6361 -0.0531 -0.4029
  283TMC3    O1 4280   1.629   0.594  15.783  0.5337 -0.0531  0.3686
  283TMC3    O2 4281   1.868   0.969  15.778  0.1680  0.3304 -0.3077
  284MPD2     C 4282   4.270   4.450  11.332  1.2317 -0.2013  0.0962
  284MPD2    C1 4283   4.333   4.333  11.278  0.2142 -0.2684  0.0927
  284MPD2    C2 4284   4.294   4.214  11.331  0.0497 -0.3310  0.7819
  284MPD2    C3 4285   4.187   4.203  11.418 -0.0888 -0.2900 -0.5780
  284MPD2    C4 4286   4.120   4.322  11.464 -0.5644 -0.4101  0.4712
  284MPD2    C5 4287   4.159   4.444  11.415  0.2170  0.2423  0.0544
  284MPD2     H 4288   4.340   4.126  11.287  0.9232  1.9624 -2.8706
  284MPD2    H1 4289   4.042   4.326  11.538 -0.2325  0.0790  0.7909
  284MPD2    H2 4290   4.291   4.547  11.288  4.1839 -1.5978 -1.5511
  284MPD2    H3 4291   4.111   4.538  11.442  0.8413  0.9517 -1.2793
  284MPD2     N 4292   4.137   4.073  11.443  0.2065 -0.0002 -0.5036
  284MPD2    H5 4293   4.194   4.000  11.401  1.6806  0.7435  0.1709
  284MPD2    N1 4294   4.432   4.341  11.177 -0.1181  0.0413  0.2348
  284MPD2    H7 4295   4.476   4.251  11.159 -0.4960  0.6221 -3.4520
  285TMC3    C1 4296   4.629   4.421  11.088  0.1479 -0.0989  0.3841
  285TMC3    C2 4297   4.644   4.351  10.977 -0.5631  0.0958  0.2070
  285TMC3    C3 4298   0.043   4.344  10.929 -0.4392  0.1660  0.0081
  285TMC3    C4 4299   0.004   4.484  11.158  0.5667 -0.0003 -0.5144
  285TMC3    C5 4300   0.126   4.475  11.109 -0.6854 -0.1530  0.7271
  285TMC3    C6 4301   0.151   4.411  10.992 -0.5184 -0.3606  0.5848
  285TMC3     C 4302   4.500   4.452  11.142  0.1607  0.2953 -0.1015
  285TMC3     O 4303   4.473   4.570  11.159 -0.0349 -0.1283 -0.4956
  285TMC3     H 4304   4.559   4.298  10.935  0.5526  0.1270 -2.0876
  285TMC3    H1 4305   4.707   4.522  11.257 -2.5554  0.7566 -1.4381
  285TMC3    H2 4306   0.249   4.367  10.976 -0.2450 -0.1774  1.7376
  285TMC3    C7 4307   0.232   4.520  11.199  0.1503  0.2514 -0.0726
  285TMC3    C8 4308   0.072   4.234  10.838 -0.0852 -0.1818 -0.7475
  285TMC3    O1 4309   0.197   4.563  11.307  0.1201  0.0752 -0.1275
  285TMC3    O2 4310   4.705   4.152  10.822  0.0342 -0.4341  0.3993
  286MPD2     C 4311   0.242   2.806   1.455 -0.1824  0.6524 -0.0820
  286MPD2    C1 4312   0.231   2.812   1.321 -0.1639 -0.0576  0.6082
  286MPD2    C2 4313   0.332   2.757   1.245  0.4137 -1.1289 -0.1632
  286MPD2    C3 4314   0.450   2.706   1.300  0.2516  0.1172 -0.5674
  286MPD2    C4 4315   0.468   2.712   1.435 -0.4788 -0.1705  0.7269
  286MPD2    C5 4316   0.361   2.749   1.511  0.2133 -0.7619  0.2661
  286MPD2     H 4317   0.302   2.745   1.142  0.2677 -0.8926 -0.1478
  286MPD2    H1 4318   0.560   2.678   1.482  0.4681  3.7129  1.6721
  286MPD2    H2 4319   0.166   2.839   1.526  0.9205 -2.3999  2.4790
  286MPD2    H3 4320   0.370   2.746   1.619  2.5917 -0.9431  0.0841
  286MPD2     N 4321   0.543   2.626   1.227 -0.1971  0.3152  0.1614
  286MPD2    H5 4322   0.613   2.575   1.279 -1.6819 -1.3866  0.5113
  286MPD2    N1 4323   0.119   2.868   1.249  0.2986  0.3833 -0.1208
  286MPD2    H7 4324   0.123   2.869   1.148  0.4409  1.5040 -0.1071
  287TMC3    C1 4325   0.646   2.487   1.062 -0.6175  0.0940 -0.5859
  287TMC3    C2 4326   0.655   2.447   0.932  0.3711  0.5968  1.0539
  287TMC3    C3 4327   0.762   2.366   0.902 -0.0383 -0.3586 -0.6543
  287TMC3    C4 4328   0.745   2.460   1.146 -0.5110 -0.3348  0.7976
  287TMC3    C5 4329   0.849   2.375   1.119  0.1759  0.0944 -1.1991
  287TMC3    C6 4330   0.854   2.323   0.995  0.6233  0.3657  0.2910
  287TMC3     C 4331   0.540   2.588   1.093  0.1921 -0.4047 -0.3640
  287TMC3     O 4332   0.456   2.616   1.005  0.6650 -0.1749  0.4678
  287TMC3     H 4333   0.573   2.469   0.865  1.1869 -0.0596 -0.1932
  287TMC3    H1 4334   0.754   2.504   1.245  0.7473  0.6821  0.2158
  287TMC3    H2 4335   0.933   2.254   0.969  0.0241 -0.5253  0.8488
  287TMC3    C7 4336   0.929   2.327   1.232 -0.3700  0.4846 -0.3436
  287TMC3    C8 4337   0.774   2.309   0.770  0.2716 -0.0201 -0.2116
  287TMC3    O1 4338   0.876   2.334   1.338 -0.0033  0.4304 -0.5932
  287TMC3    O2 4339   0.829   2.203   0.745 -0.4749 -0.2264  0.5278
  288TMC3    C1 4340   1.931   2.968  14.443 -0.1188 -0.8489 -0.4047
  288TMC3    C2 4341   1.866   2.961  14.560 -0.5072 -0.0952 -0.2266
  288TMC3    C3 4342   1.911   3.046  14.657 -0.2024 -0.6836  0.9119
  288TMC3    C4 4343   2.014   3.062  14.411  0.7725  0.7165 -0.2603
  288TMC3    C5 4344   2.052   3.150  14.509 -0.4427 -0.2474 -0.6506
  288TMC3    C6 4345   2.004   3.139  14.637 -0.6240  0.0494 -0.2019
  288TMC3     C 4346   1.894   2.876  14.336  0.0042 -0.1208 -1.0174
  288TMC3     O 4347   1.867   2.762  14.372 -0.0750 -0.1808 -0.5427
  288TMC3     H 4348   1.793   2.882  14.570  1.4808 -1.8305  0.6833
  288TMC3    H1 4349   2.073   3.068  14.320  0.4873  0.7197 -0.4445
  288TMC3    H2 4350   2.022   3.216  14.711 -1.7316  1.0913 -1.0127
  288TMC3    C7 4351   2.126   3.264  14.464  0.5407 -0.9124  0.2687
  288TMC3    C8 4352   1.859   3.043  14.786  0.2765 -0.0094 -0.2763
  288TMC3    O1 4353   2.131   3.291  14.346 -0.4804  0.0201  0.0445
  288TMC3    O2 4354   1.939   3.083  14.866 -0.6177 -0.4455  0.6133
  289MPD2     C 4355   2.162   2.211  14.752 -0.4993  0.8174 -0.6404
  289MPD2    C1 4356   2.165   2.301  14.646  0.2544 -0.3180 -0.6737
  289MPD2    C2 4357   2.048   2.338  14.586 -0.2638 -0.0257 -0.5407
  289MPD2    C3 4358   1.926   2.295  14.636 -0.2255  0.2115  0.0885
  289MPD2    C4 4359   1.925   2.206  14.741 -0.7797  0.2936  0.3427
  289MPD2    C5 4360   2.044   2.166  14.791 -0.3722  0.4906 -0.7769
  289MPD2     H 4361   2.064   2.406  14.503  0.2163 -1.2177 -1.4326
  289MPD2    H1 4362   1.830   2.178  14.784  0.1566 -0.5498  1.8399
  289MPD2    H2 4363   2.255   2.180  14.799 -2.5152 -0.5398  2.4863
  289MPD2    H3 4364   2.043   2.090  14.868 -1.3350 -0.3796 -1.6361
  289MPD2     N 4365   1.803   2.342  14.586  0.2816  0.3311 -0.1600
  289MPD2    H5 4366   1.723   2.329  14.646  1.1119  1.2863  1.1500
  289MPD2    N1 4367   2.286   2.363  14.598  0.1995  0.1493 -0.0760
  289MPD2    H7 4368   2.293   2.413  14.509 -1.9960  0.0944 -0.2821
  290TMC3    C1 4369   1.648   2.464  14.446 -0.2292  0.1488 -0.3496
  290TMC3    C2 4370   1.636   2.558  14.341 -0.4034 -0.5716  0.0598
  290TMC3    C3 4371   1.529   2.640  14.350 -0.7624  0.3456 -0.2090
  290TMC3    C4 4372   1.548   2.449  14.536  0.2342 -0.4937  0.0540
  290TMC3    C5 4373   1.439   2.536  14.526 -0.7943 -0.2954  0.7449
  290TMC3    C6 4374   1.428   2.635  14.439 -0.3355 -0.5323  0.1673
  290TMC3     C 4375   1.778   2.392  14.457  0.5420 -0.2276  0.4686
  290TMC3     O 4376   1.859   2.401  14.364 -0.2670 -0.4730 -0.1363
  290TMC3     H 4377   1.726   2.599  14.297  0.0739  0.1222  1.6590
  290TMC3    H1 4378   1.554   2.377  14.617 -1.6511  1.2901  1.7835
  290TMC3    H2 4379   1.338   2.696  14.438  0.3526  0.5232  1.4934
  290TMC3    C7 4380   1.313   2.482  14.562  1.3639  0.6397 -0.3441
  290TMC3    C8 4381   1.543   2.766  14.266  0.0133 -0.5214 -0.5191
  290TMC3    O1 4382   1.213   2.554  14.567  0.7455 -0.1222  0.3135
  290TMC3    O2 4383   1.577   2.750  14.149 -0.4469 -0.3721 -0.0506
  291MPD2     C 4384   1.947   1.858   0.584 -0.2657 -0.7567  0.1238
  291MPD2    C1 4385   1.886   1.744   0.533  0.3994 -0.2180  0.0657
  291MPD2    C2 4386   1.823   1.760   0.408  0.5668 -0.0558  0.1131
  291MPD2    C3 4387   1.822   1.879   0.334  0.1953  0.8160 -0.2270
  291MPD2    C4 4388   1.883   1.992   0.390  0.6142 -0.2313  0.4885
  291MPD2    C5 4389   1.946   1.977   0.515  0.3754  0.4847 -0.3301
  291MPD2     H 4390   1.780   1.668   0.369 -0.8790  0.3257  0.8154
  291MPD2    H1 4391   1.892   2.092   0.349  0.4764  0.8398  3.0623
  291MPD2    H2 4392   2.002   1.859   0.677  0.5794 -0.0256 -0.3747
  291MPD2    H3 4393   1.997   2.066   0.550 -1.0861 -0.0146  3.0856
  291MPD2     N 4394   1.769   1.890   0.203 -0.2885 -0.1870 -0.1378
  291MPD2    H5 4395   1.735   1.981   0.174 -0.5580 -0.0872  0.4920
  291MPD2    N1 4396   1.874   1.614   0.593  0.1800  0.2333  0.2345
  291MPD2    H7 4397   1.835   1.549   0.526 -1.7847  1.3282  0.3148
  292TMC3    C1 4398   1.880   1.432   0.753  0.5856  0.4770 -0.8550
  292TMC3    C2 4399   1.876   1.403   0.882 -0.1479  0.4830 -0.7276
  292TMC3    C3 4400   1.795   1.302   0.922  0.5394  0.8733  0.9150
  292TMC3    C4 4401   1.819   1.365   0.653 -0.1200 -0.3645  0.2023
  292TMC3    C5 4402   1.741   1.259   0.699  0.2102  0.2409  0.2382
  292TMC3    C6 4403   1.718   1.233   0.831 -0.4573  0.1244 -0.0637
  292TMC3     C 4404   1.913   1.576   0.720  0.0939 -0.1230  0.7394
  292TMC3     O 4405   1.948   1.648   0.817 -0.2146  0.2983  0.1250
  292TMC3     H 4406   1.936   1.455   0.955 -0.3607 -0.4082  0.0777
  292TMC3    H1 4407   1.813   1.378   0.545  2.3349  0.0389  0.1012
  292TMC3    H2 4408   1.675   1.138   0.861  0.5408  0.0280  1.0770
  292TMC3    C7 4409   1.658   1.190   0.612  0.0497 -0.2648  0.2944
  292TMC3    C8 4410   1.760   1.277   1.064 -0.3495  0.5563  0.7301
  292TMC3    O1 4411   1.705   1.149   0.507  1.0685 -0.3183 -0.2397
  292TMC3    O2 4412   1.846   1.263   1.151 -0.8155 -0.5185  0.0731
  293MPD2     C 4413   2.913   3.356  12.436 -0.0919  0.2129  0.0928
  293MPD2    C1 4414   2.795   3.358  12.504  0.8328 -0.1787 -0.7875
  293MPD2    C2 4415   2.794   3.400  12.634  0.0340  0.3015  0.3512
  293MPD2    C3 4416   2.906   3.463  12.686 -0.2263  0.2503  0.1290
  293MPD2    C4 4417   3.023   3.470  12.616  0.8527  0.2852 -0.4444
  293MPD2    C5 4418   3.024   3.415  12.493 -0.1872 -0.1949  0.3277
  293MPD2     H 4419   2.701   3.395  12.690 -0.8901 -2.4303 -1.4501
  293MPD2    H1 4420   3.116   3.503  12.660 -0.4900  1.7442  1.2728
  293MPD2    H2 4421   2.918   3.323  12.333 -1.0478  1.8393 -0.4878
  293MPD2    H3 4422   3.113   3.427  12.432  0.6173 -0.5856  1.4235
  293MPD2     N 4423   2.888   3.502  12.821 -0.4255 -0.0930 -0.0431
  293MPD2    H5 4424   2.806   3.466  12.868  0.0867  0.9881  1.6743
  293MPD2    N1 4425   2.686   3.306  12.434  0.4355 -0.1414 -0.0562
  293MPD2    H7 4426   2.710   3.253  12.351  0.6889 -1.3288  0.7622
  294TMC3    C1 4427   2.471   3.232  12.390  0.3984 -0.8140  0.1633
  294TMC3    C2 4428   2.373   3.151  12.435 -0.2336 -0.6851  0.7205
  294TMC3    C3 4429   2.330   3.052  12.363  0.0725  1.2158 -0.2421
  294TMC3    C4 4430   2.519   3.214  12.266 -0.0298  0.3596 -0.0405
  294TMC3    C5 4431   2.470   3.110  12.197 -0.0617 -0.7611  0.3573
  294TMC3    C6 4432   2.376   3.021  12.237 -0.2316 -0.0571  0.3473
  294TMC3     C 4433   2.560   3.302  12.480 -0.6156  0.8858  0.6231
  294TMC3     O 4434   2.506   3.335  12.583  0.1783 -0.5570  1.0365
  294TMC3     H 4435   2.332   3.169  12.534 -0.4266  0.0658  0.5056
  294TMC3    H1 4436   2.565   3.295  12.210  0.0634  1.1727  1.2197
  294TMC3    H2 4437   2.351   2.931  12.182 -1.2119  0.3498  0.1330
  294TMC3    C7 4438   2.533   3.089  12.063  0.2010  0.1180  0.1305
  294TMC3    C8 4439   2.220   2.973  12.410 -0.3630 -0.8403  0.3607
  294TMC3    O1 4440   2.471   3.013  11.984 -0.5131 -0.4178 -0.3758
  294TMC3    O2 4441   2.144   3.020  12.492 -0.1562 -0.1729  1.3595
  295MPD2     C 4442   2.540   1.814   0.210 -0.1046 -0.0250  0.0047
  295MPD2    C1 4443   2.655   1.895   0.235  0.3465  0.6316 -0.6720
  295MPD2    C2 4444   2.676   1.945   0.362 -0.1691  0.3446  0.1578
  295MPD2    C3 4445   2.612   1.890   0.466  0.2923 -0.3830 -0.4942
  295MPD2    C4 4446   2.529   1.786   0.443 -0.5329 -0.9910 -0.5632
  295MPD2    C5 4447   2.484   1.754   0.316 -0.2407 -0.0754  0.7200
  295MPD2     H 4448   2.749   2.025   0.369 -1.7166  1.6773  1.1603
  295MPD2    H1 4449   2.489   1.724   0.523  1.4158 -2.1805 -0.5184
  295MPD2    H2 4450   2.524   1.775   0.110  0.2372  0.6212 -0.3058
  295MPD2    H3 4451   2.402   1.683   0.311  0.9559 -1.3003 -1.2506
  295MPD2     N 4452   2.651   1.912   0.603 -0.0572  0.3103  0.5424
  295MPD2    H5 4453   2.611   1.848   0.671 -2.7609 -0.1022 -1.3984
  295MPD2    N1 4454   2.743   1.947   0.142  0.3396  0.2542  0.3444
  295MPD2    H7 4455   2.821   2.002   0.176  1.4096 -1.1150  0.1218
  296TMC3    C1 4456   2.795   1.958   0.779  0.1076  0.3347 -0.1084
  296TMC3    C2 4457   2.928   1.961   0.813  0.8975  0.3096  0.8855
  296TMC3    C3 4458   2.967   1.911   0.936 -0.2726 -0.3614 -0.4846
  296TMC3    C4 4459   2.703   1.907   0.864 -0.4347  0.0724 -0.4060
  296TMC3    C5 4460   2.746   1.854   0.985  0.5512 -0.9602 -0.1897
  296TMC3    C6 4461   2.875   1.852   1.025  0.2561  0.3071  0.6511
  296TMC3     C 4462   2.762   1.987   0.640 -0.0431 -0.2513 -0.4677
  296TMC3     O 4463   2.839   2.056   0.576  0.3417 -0.0350 -0.1280
  296TMC3     H 4464   3.003   2.007   0.749 -1.2185  1.7855 -0.5138
  296TMC3    H1 4465   2.596   1.917   0.848 -0.5223 -2.3203 -1.3030
  296TMC3    H2 4466   2.896   1.822   1.127 -1.2598  0.4760  1.0199
  296TMC3    C7 4467   2.644   1.851   1.082  0.5964  0.0761  0.1222
  296TMC3    C8 4468   3.110   1.898   0.966 -0.2950  0.3691  0.3185
  296TMC3    O1 4469   2.553   1.934   1.078 -0.4555 -0.2127  0.0966
  296TMC3    O2 4470   3.141   1.857   1.080 -0.0082 -0.0157 -0.0895
  297MPD2     C 4471   0.934   3.728  16.348  0.0502  0.2567 -0.3554
  297MPD2    C1 4472   0.926   3.851  16.279 -0.8476 -0.3084  0.5593
  297MPD2    C2 4473   1.038   3.934  16.294 -0.9665  0.1856 -0.6087
  297MPD2    C3 4474   1.141   3.907  16.386  0.2734  0.4722 -0.6194
  297MPD2    C4 4475   1.138   3.790  16.467 -0.6567  0.0435  0.4225
  297MPD2    C5 4476   1.035   3.701  16.440  0.3024  0.1117 -0.2438
  297MPD2     H 4477   1.050   4.016  16.224 -0.1499  0.6692  0.1054
  297MPD2    H1 4478   1.211   3.763  16.542  2.8887  3.7596 -1.6718
  297MPD2    H2 4479   0.867   3.647  16.321 -1.6626  0.8271  2.1747
  297MPD2    H3 4480   1.039   3.610  16.498  3.0554 -0.9375 -2.0788
  297MPD2     N 4481   1.244   4.009  16.399  0.4567 -0.5682 -0.0717
  297MPD2    H5 4482   1.244   4.085  16.331  0.5682  0.6741  1.3100
  297MPD2    N1 4483   0.831   3.891  16.178 -0.4629 -0.5289 -0.1569
  297MPD2    H7 4484   0.828   3.989  16.151  3.4251 -0.0188  1.2880
  298TMC3    C1 4485   0.637   3.880  16.059  0.2399 -0.2522  0.0771
  298TMC3    C2 4486   0.680   3.917  15.938  0.3078 -0.3131  0.4660
  298TMC3    C3 4487   0.589   3.990  15.863 -0.1575 -0.4683 -0.4087
  298TMC3    C4 4488   0.517   3.924  16.109  0.0785  0.2872  0.4680
  298TMC3    C5 4489   0.440   4.007  16.033 -0.2104 -0.0813  0.8988
  298TMC3    C6 4490   0.475   4.043  15.904  0.3557  0.0507  0.1864
  298TMC3     C 4491   0.718   3.814  16.157  0.0964 -0.0607  0.1366
  298TMC3     O 4492   0.676   3.715  16.216  0.2176  0.0569 -0.5329
  298TMC3     H 4493   0.774   3.884  15.895 -0.1872 -0.4492 -0.5082
  298TMC3    H1 4494   0.494   3.898  16.212 -0.7500 -0.4602  0.0937
  298TMC3    H2 4495   0.418   4.106  15.836 -1.8341 -0.0565  1.9118
  298TMC3    C7 4496   0.321   4.066  16.101  0.3240 -0.1204 -0.2528
  298TMC3    C8 4497   0.634   4.016  15.726 -0.8377 -0.3089  0.2706
  298TMC3    O1 4498   0.320   4.077  16.226  0.8559  0.3616 -0.4059
  298TMC3    O2 4499   0.756   4.029  15.702  0.5921 -0.8192 -0.6253
  299MPD2     C 4500   1.529   3.083  10.734  0.1028  0.0221 -0.1296
  299MPD2    C1 4501   1.468   3.160  10.634  0.2022  0.2049 -0.2715
  299MPD2    C2 4502   1.395   3.110  10.534 -0.6896 -0.4781  0.2632
  299MPD2    C3 4503   1.370   2.972  10.541 -0.1689 -0.1922 -0.0670
  299MPD2    C4 4504   1.411   2.896  10.645  0.7087 -0.1561 -0.2742
  299MPD2    C5 4505   1.500   2.948  10.735 -0.3140 -0.1449 -0.5177
  299MPD2     H 4506   1.337   3.170  10.464  1.2823  0.9292 -0.1646
  299MPD2    H1 4507   1.409   2.787  10.646  0.5425 -0.1674 -1.4622
  299MPD2    H2 4508   1.583   3.131  10.815  0.0438  0.8875 -0.5993
  299MPD2    H3 4509   1.545   2.880  10.807 -0.6903  0.2300  0.0726
  299MPD2     N 4510   1.284   2.907  10.443 -0.1565  0.0683  0.4797
  299MPD2    H5 4511   1.251   2.820  10.484 -0.6056 -0.2628 -0.5728
  299MPD2    N1 4512   1.488   3.298  10.646  0.4147  0.1665 -0.8149
  299MPD2    H7 4513   1.516   3.332  10.737 -2.2088  1.4373 -0.4693
  300TMC3    C1 4514   1.104   2.921  10.289  0.4674  0.2811 -0.3403
  300TMC3    C2 4515   1.053   2.971  10.177  0.2031  0.5109 -0.5987
  300TMC3    C3 4516   0.918   2.985  10.151  0.5856  0.5988  0.2343
  300TMC3    C4 4517   1.016   2.863  10.378  0.0927 -0.5803  0.5746
  300TMC3    C5 4518   0.880   2.871  10.352  0.8384 -0.8541  0.8066
  300TMC3    C6 4519   0.834   2.934  10.240 -0.1225 -0.2932 -0.0537
  300TMC3     C 4520   1.236   2.967  10.328 -0.4300  1.0122 -0.3192
  300TMC3     O 4521   1.285   3.062  10.265 -0.5368 -0.8651 -0.1884
  300TMC3     H 4522   1.112   3.018  10.100  0.5118  2.7303  1.0035
  300TMC3    H1 4523   1.046   2.808  10.467  0.9330  0.3114  0.8409
  300TMC3    H2 4524   0.728   2.924  10.218 -0.4276  0.2319  1.1644
  300TMC3    C7 4525   0.793   2.831  10.457  0.3283  0.3838  0.3366
  300TMC3    C8 4526   0.878   3.124  10.123  0.1568 -0.3937 -0.2143
  300TMC3    O1 4527   0.812   2.722  10.509  0.1286 -0.3572 -0.5705
  300TMC3    O2 4528   0.967   3.205  10.102  0.2427 -0.1013  0.1503
  301MPD2     C 4529   3.177   0.249   1.437 -0.5336 -0.5830 -0.5951
  301MPD2    C1 4530   3.052   0.200   1.443  0.4845 -0.0153 -0.8167
  301MPD2    C2 4531   3.024   0.072   1.403 -0.9880 -0.0652  0.2107
  301MPD2    C3 4532   3.125   4.708   1.373  0.4475  0.3113  0.5565
  301MPD2    C4 4533   3.258   0.032   1.376  0.4732  0.4080  0.2342
  301MPD2    C5 4534   3.278   0.159   1.404 -0.2832  0.6406  0.1134
  301MPD2     H 4535   2.921   0.040   1.393 -0.5159 -1.5756  0.1945
  301MPD2    H1 4536   3.342   4.690   1.355  1.4976  1.8513 -0.1664
  301MPD2    H2 4537   3.205   0.353   1.439  0.3102 -0.7619 -3.3955
  301MPD2    H3 4538   3.375   0.202   1.382  0.6829 -2.0081 -0.7695
  301MPD2     N 4539   3.108   4.573   1.331 -0.2838  0.0773 -0.2344
  301MPD2    H5 4540   3.191   4.518   1.311  0.9187  2.4640 -1.9085
  301MPD2    N1 4541   2.936   0.286   1.464 -0.3718 -0.2071 -0.2910
  301MPD2    H7 4542   2.848   0.256   1.424 -1.5203 -0.2324  2.2510
  302TMC3    C1 4543   3.027   4.347   1.327  0.7064 -0.4730 -0.0865
  302TMC3    C2 4544   3.133   4.291   1.253 -0.4002  0.1532 -0.3858
  302TMC3    C3 4545   3.141   4.155   1.230 -0.2467  0.4530  0.5481
  302TMC3    C4 4546   2.938   4.256   1.379  0.2775  0.0212  0.1385
  302TMC3    C5 4547   2.947   4.118   1.368 -0.7391 -0.3623  0.7688
  302TMC3    C6 4548   3.044   4.067   1.282  0.7672 -0.0363 -0.6192
  302TMC3     C 4549   3.003   4.491   1.357  0.5005  0.4359 -0.1513
  302TMC3     O 4550   2.902   4.518   1.417  0.7205  0.6012  0.1246
  302TMC3     H 4551   3.205   4.349   1.197  1.9866 -1.9803  0.4789
  302TMC3    H1 4552   2.861   4.290   1.447 -1.6724 -2.4224 -0.8444
  302TMC3    H2 4553   3.029   3.963   1.255  1.5605  0.3444 -2.4768
  302TMC3    C7 4554   2.828   4.045   1.356  0.2523 -0.1426  0.0055
  302TMC3    C8 4555   3.245   4.106   1.142  0.3492 -1.0704 -0.7585
  302TMC3    O1 4556   2.829   3.924   1.367  0.3782  0.1516 -0.4173
  302TMC3    O2 4557   3.285   4.182   1.053  0.8906 -0.1465  0.1580
  303MPD2     C 4558   3.573   3.587  10.811  0.0499  0.4815 -0.3512
  303MPD2    C1 4559   3.541   3.454  10.841  0.1371 -0.3116 -0.4311
  303MPD2    C2 4560   3.538   3.362  10.739 -0.3651  0.3303  0.6163
  303MPD2    C3 4561   3.561   3.395  10.604 -0.0123  0.3779 -0.3467
  303MPD2    C4 4562   3.610   3.519  10.569  0.1193 -0.4710  0.1544
  303MPD2    C5 4563   3.601   3.616  10.672 -0.8299  0.0424  0.1028
  303MPD2     H 4564   3.518   3.258  10.763  1.6839  0.2281  1.9017
  303MPD2    H1 4565   3.638   3.538  10.466 -0.5215  0.5144  0.1658
  303MPD2    H2 4566   3.582   3.661  10.889  2.6111 -1.1011  0.8672
  303MPD2    H3 4567   3.629   3.717  10.646  1.7332 -0.7577 -0.2818
  303MPD2     N 4568   3.539   3.311  10.494  1.0384  0.3826  0.1023
  303MPD2    H5 4569   3.558   3.349  10.402 -1.6214 -1.4518 -1.2070
  303MPD2    N1 4570   3.494   3.433  10.979  0.4442  0.4346 -0.1620
  303MPD2    H7 4571   3.501   3.511  11.044 -0.2811  1.0537 -0.8231
  304TMC3    C1 4572   3.397   3.320  11.157  0.2172 -0.2707  0.7921
  304TMC3    C2 4573   3.309   3.419  11.183 -0.8969 -0.2371  0.0712
  304TMC3    C3 4574   3.220   3.398  11.281  1.0247  0.3016  0.0836
  304TMC3    C4 4575   3.386   3.201  11.216 -0.4099  0.4685  0.3049
  304TMC3    C5 4576   3.294   3.182  11.317 -0.0336 -0.8120  0.2145
  304TMC3    C6 4577   3.216   3.286  11.350 -0.1004 -0.2192  0.2833
  304TMC3     C 4578   3.440   3.318  11.026  0.8697 -0.1509 -0.2297
  304TMC3     O 4579   3.422   3.209  10.976 -0.3181 -0.0650  0.0175
  304TMC3     H 4580   3.300   3.510  11.124  0.9498 -0.6779 -0.9026
  304TMC3    H1 4581   3.421   3.111  11.167 -0.6235  1.5171 -1.8063
  304TMC3    H2 4582   3.134   3.277  11.420 -0.0149  0.0709  0.4169
  304TMC3    C7 4583   3.221   3.054  11.310 -0.4604 -0.1899 -0.6993
  304TMC3    C8 4584   3.085   3.420  11.226 -0.2316  0.2097 -0.1247
  304TMC3    O1 4585   3.098   3.069  11.318  0.4032  0.0200  0.1622
  304TMC3    O2 4586   3.063   3.524  11.166  0.3217 -0.1664 -0.0141
  305MPD2     C 4587   1.323   0.324  14.181 -0.4496  0.1627  0.4522
  305MPD2    C1 4588   1.449   0.333  14.128 -0.0787 -0.4143 -0.3352
  305MPD2    C2 4589   1.464   0.291  13.994 -0.1346  0.2686  0.1709
  305MPD2    C3 4590   1.352   0.254  13.910  0.2693 -0.2466  0.0900
  305MPD2    C4 4591   1.230   0.250  13.973 -0.2747 -0.1106 -0.1279
  305MPD2    C5 4592   1.222   0.291  14.098  0.1850 -0.2206 -0.2336
  305MPD2     H 4593   1.560   0.286  13.945  0.4077  1.5444  1.1048
  305MPD2    H1 4594   1.143   0.209  13.924 -0.3715 -0.8945  0.7092
  305MPD2    H2 4595   1.310   0.342  14.287  1.5597  0.3908  0.6643
  305MPD2    H3 4596   1.121   0.288  14.138  0.7277 -0.3190  1.1225
  305MPD2     N 4597   1.355   0.218  13.773 -0.0722 -0.3049  0.4516
  305MPD2    H5 4598   1.276   0.162  13.744 -0.7276  0.2117  1.2572
  305MPD2    N1 4599   1.553   0.377  14.218  0.2632 -0.0463  0.6890
  305MPD2    H7 4600   1.513   0.402  14.308  0.5872  1.2180  0.4924
  306TMC3    C1 4601   1.749   0.472  14.280 -0.5057  0.1034 -0.2537
  306TMC3    C2 4602   1.799   0.399  14.386  1.1210 -0.2376  0.1728
  306TMC3    C3 4603   1.878   0.471  14.475 -0.2697  0.0676 -0.4487
  306TMC3    C4 4604   1.770   0.607  14.274  0.1337  0.5366 -0.1223
  306TMC3    C5 4605   1.848   0.672  14.361  0.0397 -0.4014 -0.1439
  306TMC3    C6 4606   1.895   0.605  14.469 -0.5825 -0.0865 -0.5741
  306TMC3     C 4607   1.675   0.419  14.177 -0.7569  0.2067 -0.2410
  306TMC3     O 4608   1.707   0.447  14.061 -0.4458  0.0726 -1.0140
  306TMC3     H 4609   1.789   0.291  14.386  0.7232 -0.2165 -1.6477
  306TMC3    H1 4610   1.722   0.663  14.194  1.1150 -0.2154 -1.2427
  306TMC3    H2 4611   1.949   0.664  14.543  1.1776 -0.8182 -1.2664
  306TMC3    C7 4612   1.807   0.814  14.384 -0.0014  0.1919 -0.4328
  306TMC3    C8 4613   1.966   0.403  14.566  0.3560 -0.8839 -0.3550
  306TMC3    O1 4614   1.692   0.843  14.348 -0.4094 -0.2838  0.2268
  306TMC3    O2 4615   2.074   0.451  14.603  0.0943 -0.1025 -0.2420
  307MPD2     C 4616   0.085   2.681  17.408 -1.3416 -0.4201 -0.5763
  307MPD2    C1 4617   4.691   2.750  17.391 -0.1056 -0.5710 -0.7479
  307MPD2    C2 4618   4.618   2.799  17.496 -0.2085 -1.0417  0.2673
  307MPD2    C3 4619   4.661   2.774  17.623  0.6154  0.2528  0.4626
  307MPD2    C4 4620   0.049   2.693  17.639  0.2505 -0.4206  0.3047
  307MPD2    C5 4621   0.127   2.648  17.536 -0.1417  0.8202 -0.0993
  307MPD2     H 4622   4.528   2.858  17.488  0.2285 -0.4076 -0.0004
  307MPD2    H1 4623   0.082   2.665   0.041 -3.5195 -3.1259  0.7744
  307MPD2    H2 4624   0.154   2.643  17.334  0.6668  0.8026  0.6981
  307MPD2    H3 4625   0.209   2.579  17.548 -1.1194 -0.2597  0.3729
  307MPD2     N 4626   4.589   2.819   0.037  0.1337  0.7960  0.5274
  307MPD2    H5 4627   4.490   2.837   0.024  0.3323  0.3401 -1.6599
  307MPD2    N1 4628   4.635   2.785  17.270  0.0249 -0.1785  0.2204
  307MPD2    H7 4629   4.550   2.842  17.270  1.5696  2.1252 -0.8774
  308TMC3    C1 4630   4.293   2.868   0.269 -0.3945  0.0002  0.0886
  308TMC3    C2 4631   4.297   2.994   0.326  0.0537 -0.5101  1.1222
  308TMC3    C3 4632   4.425   3.047   0.348 -0.1252  0.2362  0.2540
  308TMC3    C4 4633   4.409   2.801   0.237  0.3155 -1.1204 -0.1447
  308TMC3    C5 4634   4.532   2.852   0.260  0.2721 -0.1569  0.7806
  308TMC3    C6 4635   4.542   2.981   0.310 -0.9430 -0.2217  0.0048
  308TMC3     C 4636   4.173   2.788   0.282  0.7069  1.1529  0.4884
  308TMC3     O 4637   4.177   2.667   0.297 -0.1978 -0.1796 -0.4487
  308TMC3     H 4638   4.215   3.046   0.375 -0.3875  0.0470 -0.1832
  308TMC3    H1 4639   4.387   2.703   0.197  2.4137 -2.0686  1.0003
  308TMC3    H2 4640   4.640   3.028   0.308 -1.0073 -0.0818  0.1578
  308TMC3    C7 4641   4.639   2.827   0.163 -0.2856 -0.0119 -0.0265
  308TMC3    C8 4642   4.436   3.198   0.374 -0.7342  0.3627  0.1760
  308TMC3    O1 4643   0.028   2.823   0.213 -0.2582  0.5414 -0.3182
  308TMC3    O2 4644   4.549   3.235   0.410 -0.0954 -0.4554  0.1260
  309MPD2     C 4645   3.390   3.419  16.459  0.4490 -0.5912 -0.4803
  309MPD2    C1 4646   3.475   3.520  16.506 -0.0303  0.1814  0.0562
  309MPD2    C2 4647   3.439   3.589  16.623 -0.3439 -0.3618 -0.0715
  309MPD2    C3 4648   3.312   3.571  16.680 -0.5668 -0.5709 -0.0988
  309MPD2    C4 4649   3.225   3.484  16.620  0.5642 -0.2650 -0.9899
  309MPD2    C5 4650   3.265   3.404  16.520  0.3378  0.4970  0.0571
  309MPD2     H 4651   3.497   3.678  16.643 -1.1201  0.3647 -1.0794
  309MPD2    H1 4652   3.119   3.472  16.641  0.4844  2.3283 -0.0049
  309MPD2    H2 4653   3.406   3.364  16.367 -0.3838 -0.3701 -0.7524
  309MPD2    H3 4654   3.199   3.329  16.477  0.5469 -0.6965  1.7973
  309MPD2     N 4655   3.262   3.628  16.797  0.1512  0.0895 -0.3738
  309MPD2    H5 4656   3.165   3.609  16.823  0.9215 -2.1169  0.8898
  309MPD2    N1 4657   3.586   3.562  16.431  0.3574 -0.0067  0.0066
  309MPD2    H7 4658   3.639   3.641  16.466 -0.6009  1.9943 -3.0083
  310TMC3    C1 4659   3.754   3.559  16.261  0.5052 -0.0265  0.6543
  310TMC3    C2 4660   3.755   3.693  16.246 -0.7168  0.1052 -0.7914
  310TMC3    C3 4661   3.842   3.754  16.157 -0.9074 -0.1396 -0.0497
  310TMC3    C4 4662   3.856   3.488  16.202  0.3966 -0.0200 -0.3282
  310TMC3    C5 4663   3.952   3.552  16.125 -0.5496  0.4887  0.7064
  310TMC3    C6 4664   3.945   3.688  16.097 -0.6117 -0.1187 -0.3601
  310TMC3     C 4665   3.635   3.490  16.326 -0.2221  0.5745  0.0791
  310TMC3     O 4666   3.618   3.374  16.285 -0.4747  0.5501 -0.0317
  310TMC3     H 4667   3.681   3.747  16.304  1.5458  1.9556  0.4143
  310TMC3    H1 4668   3.840   3.382  16.185 -0.7982  0.2992 -1.1226
  310TMC3    H2 4669   3.995   3.719  16.006 -0.6565  2.7211  0.5877
  310TMC3    C7 4670   4.066   3.478  16.093  0.2414 -0.4776 -0.5146
  310TMC3    C8 4671   3.809   3.893  16.132  0.0645  0.8885 -0.6036
  310TMC3    O1 4672   4.047   3.357  16.111 -0.3834  0.3079  0.2213
  310TMC3    O2 4673   3.693   3.911  16.163 -0.2124 -0.0766 -0.5656
  311MPD2     C 4674   0.587   0.006  12.730  0.1596 -0.5469 -0.2752
  311MPD2    C1 4675   0.597   0.107  12.820 -0.1234  0.2583  0.6013
  311MPD2    C2 4676   0.484   0.162  12.872 -0.3353  0.5974  0.7122
  311MPD2    C3 4677   0.357   0.120  12.835  0.2633  0.1743 -0.4604
  311MPD2    C4 4678   0.342   0.010  12.754  0.1829 -0.0360 -0.1524
  311MPD2    C5 4679   0.459   4.678  12.703 -0.0976  0.4859  0.3719
  311MPD2     H 4680   0.498   0.250  12.933  0.0500  0.5941  0.6301
  311MPD2    H1 4681   0.246   4.689  12.729 -1.6402  2.7341  1.8794
  311MPD2    H2 4682   0.670   4.689  12.674  0.7425 -0.9839  0.8894
  311MPD2    H3 4683   0.453   4.590  12.641  2.0542  1.0488 -0.6067
  311MPD2     N 4684   0.248   0.183  12.893  0.2787  0.0704 -0.2486
  311MPD2    H5 4685   0.261   0.248  12.970 -0.8604  0.5340 -0.4520
  311MPD2    N1 4686   0.722   0.169  12.846  0.7835  0.2851 -0.3089
  311MPD2    H7 4687   0.729   0.257  12.896 -2.2499 -1.1056  2.5774
  312TMC3    C1 4688   0.020   0.209  12.944 -0.1967 -0.2658  0.5703
  312TMC3    C2 4689   4.613   0.200  12.916  0.6378 -0.6332 -0.2785
  312TMC3    C3 4690   4.530   0.287  12.971  0.3433  0.1119  0.3570
  312TMC3    C4 4691   0.069   0.304  13.033 -0.0644 -0.2095  0.0545
  312TMC3    C5 4692   4.697   0.383  13.100  0.5296 -0.4299 -0.2563
  312TMC3    C6 4693   4.565   0.383  13.065 -0.1200  0.1287 -0.1269
  312TMC3     C 4694   0.117   0.168  12.845  0.3921  0.2265  0.3655
  312TMC3     O 4695   0.081   0.129  12.733  0.9651 -0.4192  0.5834
  312TMC3     H 4696   4.581   0.129  12.841 -0.6402 -0.8143  0.4464
  312TMC3    H1 4697   0.170   0.300  13.073  0.7321 -0.1420 -1.9577
  312TMC3    H2 4698   4.493   0.452  13.107 -0.6367 -0.0021 -0.7862
  312TMC3    C7 4699   4.718   0.438  13.233 -0.0072  0.2304  0.4347
  312TMC3    C8 4700   4.403   0.309  12.906 -0.9025 -0.8109 -0.4693
  312TMC3    O1 4701   4.644   0.527  13.268 -0.0517 -0.4442 -0.2482
  312TMC3    O2 4702   4.349   0.196  12.882  0.1322  0.1208  0.6184
  313MPD2     C 4703   0.329   4.076  10.308 -0.0634 -0.3202 -0.6535
  313MPD2    C1 4704   0.194   4.079  10.296  0.3553 -0.1192  0.1844
  313MPD2    C2 4705   0.137   3.979  10.220 -0.0451 -0.3643  0.1968
  313MPD2    C3 4706   0.209   3.886  10.147 -0.5508 -0.9090 -0.1144
  313MPD2    C4 4707   0.342   3.910  10.131  0.0420  0.1990 -0.1755
  313MPD2    C5 4708   0.402   3.991  10.222 -0.1287  1.2329 -0.1381
  313MPD2     H 4709   0.030   3.967  10.234 -0.3450  0.1022 -1.7299
  313MPD2    H1 4710   0.402   3.848  10.066  0.8019  0.1246  0.5988
  313MPD2    H2 4711   0.378   4.149  10.371 -0.5000  0.1451 -0.8437
  313MPD2    H3 4712   0.510   3.998  10.226 -0.0810  1.5400 -1.8167
  313MPD2     N 4713   0.142   3.783  10.075  0.4688 -0.1327  0.0909
  313MPD2    H5 4714   0.044   3.773  10.097  0.4645  1.8391  1.0424
  313MPD2    N1 4715   0.101   4.164  10.367  0.2189 -0.4608  0.4090
  313MPD2    H7 4716   0.003   4.138  10.360 -0.0820  0.4371  1.2969
  314TMC3    C1 4717   0.014   4.338  10.509 -0.0107 -0.3008 -0.4742
  314TMC3    C2 4718   0.035   4.450  10.584 -0.4774 -0.3540 -0.5936
  314TMC3    C3 4719   4.641   4.512  10.631 -0.2923 -0.6726  0.2760
  314TMC3    C4 4720   4.613   4.291  10.475 -0.5752  0.1055  0.2298
  314TMC3    C5 4721   4.501   4.357  10.524 -0.5218  0.4723 -0.0910
  314TMC3    C6 4722   4.514   4.466  10.603  0.7840  0.3322 -0.2085
  314TMC3     C 4723   0.130   4.278  10.446 -0.2799  0.0306 -0.1940
  314TMC3     O 4724   0.236   4.335  10.463  0.1374  0.3687 -0.1503
  314TMC3     H 4725   0.133   4.486  10.612 -1.0788  1.9097 -1.3941
  314TMC3    H1 4726   4.593   4.201  10.418 -2.1195  0.9092 -0.4754
  314TMC3    H2 4727   4.427   4.522  10.637 -1.1817 -3.4228  0.8749
  314TMC3    C7 4728   4.391   4.363  10.432 -0.0055 -0.3466 -0.8674
  314TMC3    C8 4729   4.637   4.613  10.743 -0.2259 -0.2565 -0.3342
  314TMC3    O1 4730   4.276   4.342  10.468  0.5839  0.0005  0.4311
  314TMC3    O2 4731   4.538   4.622  10.814  0.0585  0.1984  0.2307
  315MPD2     C 4732   4.476   3.525  17.541 -0.0776  0.7617  0.0662
  315MPD2    C1 4733   4.602   3.519  17.604 -0.2759 -0.7683 -0.1553
  315MPD2    C2 4734   4.686   3.632  17.600  0.1735 -0.2848  0.0976
  315MPD2    C3 4735   4.657   3.732  17.515 -0.0077  0.0723 -0.3453
  315MPD2    C4 4736   4.535   3.745  17.461 -0.6846  0.1402  0.1003
  315MPD2    C5 4737   4.447   3.638  17.470  0.6939 -0.2365  0.2546
  315MPD2     H 4738   0.053   3.637  17.660 -0.0547  1.8594  0.2666
  315MPD2    H1 4739   4.513   3.817  17.383  3.2899  0.7654 -0.4474
  315MPD2    H2 4740   4.402   3.445  17.549 -0.0021  0.7640  0.8080
  315MPD2    H3 4741   4.348   3.645  17.427 -0.3051  1.8077  2.8810
  315MPD2     N 4742   0.033   3.825  17.482 -0.1756 -0.0066  0.2675
  315MPD2    H5 4743   0.117   3.812  17.537 -0.1166  1.3504  0.5086
  315MPD2    N1 4744   4.646   3.404  17.668  0.5916  0.0517 -0.0181
  315MPD2    H7 4745   4.721   3.423   0.037  0.7952 -3.9310  0.9334
  316TMC3    C1 4746   0.142   4.021  17.402  0.5293  0.1818 -0.2036
  316TMC3    C2 4747   0.257   3.969  17.455 -0.3758 -0.0873 -0.1607
  316TMC3    C3 4748   0.359   4.057  17.460  0.1783  0.4686  0.0328
  316TMC3    C4 4749   0.134   4.156  17.363  0.0757  0.2760 -0.5222
  316TMC3    C5 4750   0.246   4.231  17.361 -0.5343 -0.2851 -0.1519
  316TMC3    C6 4751   0.360   4.186  17.420  0.9267  0.8333 -0.0481
  316TMC3     C 4752   0.016   3.942  17.414  0.1551 -0.6410  0.5164
  316TMC3     O 4753   4.637   3.998  17.374 -0.1046 -0.1035 -0.0607
  316TMC3     H 4754   0.274   3.867  17.487  3.2748  0.5506 -0.0354
  316TMC3    H1 4755   0.040   4.195  17.325  0.8222  0.8481 -1.8016
  316TMC3    H2 4756   0.436   4.258  17.447 -0.3289  1.5967  1.4375
  316TMC3    C7 4757   0.237   4.375  17.339  0.2829 -0.2830 -0.0856
  316TMC3    C8 4758   0.493   4.018  17.501  0.1854  0.3707  0.3112
  316TMC3    O1 4759   0.306   4.453  17.402 -0.1413  0.5895 -0.2618
  316TMC3    O2 4760   0.577   4.104  17.472  0.2390  0.9493  0.0904
  317MPD2     C 4761   1.492   2.306  12.962 -0.0723  0.2683 -0.7530
  317MPD2    C1 4762   1.463   2.171  12.965 -0.1238  0.2145 -0.0268
  317MPD2    C2 4763   1.509   2.092  13.076 -0.2451 -0.1258  0.0198
  317MPD2    C3 4764   1.587   2.147  13.179  0.9166 -0.0176 -0.1082
  317MPD2    C4 4765   1.620   2.283  13.165  0.1843  0.9212 -0.7619
  317MPD2    C5 4766   1.573   2.360  13.058 -0.7390 -0.3662 -0.1558
  317MPD2     H 4767   1.491   1.985  13.072 -0.3421 -0.1902  2.5164
  317MPD2    H1 4768   1.682   2.336  13.237  1.2495  0.0834 -1.0764
  317MPD2    H2 4769   1.466   2.367  12.876 -0.0828  0.2885 -0.7355
  317MPD2    H3 4770   1.594   2.465  13.038 -1.3289 -0.2587 -0.1964
  317MPD2     N 4771   1.638   2.058  13.274  0.4658 -0.1415  0.4426
  317MPD2    H5 4772   1.615   1.961  13.257  0.1753 -0.2501  1.4214
  317MPD2    N1 4773   1.408   2.097  12.857 -0.1149 -1.0217 -0.0954
  317MPD2    H7 4774   1.406   1.997  12.877 -2.3244 -1.2501 -1.4635
  318TMC3    C1 4775   1.772   1.989  13.452 -0.7557  0.2849  0.5897
  318TMC3    C2 4776   1.686   1.882  13.480  0.0670  0.0313 -0.1194
  318TMC3    C3 4777   1.731   1.777  13.551  0.0746  0.2657 -0.6885
  318TMC3    C4 4778   1.903   1.996  13.499 -0.9155 -0.4193 -0.0800
  318TMC3    C5 4779   1.945   1.882  13.560  0.2448  0.8185 -0.2699
  318TMC3    C6 4780   1.860   1.774  13.595  0.7334 -0.4542 -0.6755
  318TMC3     C 4781   1.725   2.098  13.373 -0.4996  0.5217  0.0372
  318TMC3     O 4782   1.789   2.200  13.375  0.3422 -1.0869 -1.0231
  318TMC3     H 4783   1.583   1.892  13.448 -0.4554 -2.2732  0.8873
  318TMC3    H1 4784   1.973   2.068  13.459 -0.8596 -0.5176 -0.1606
  318TMC3    H2 4785   1.899   1.702  13.666 -0.3738 -0.6706 -0.2920
  318TMC3    C7 4786   2.081   1.887  13.603  0.5031 -0.1307  0.2765
  318TMC3    C8 4787   1.652   1.658  13.556  0.2752 -0.4329  0.9404
  318TMC3    O1 4788   2.129   1.997  13.611  0.8991  0.0425 -0.1746
  318TMC3    O2 4789   1.693   1.575  13.637 -0.2937 -0.0481 -0.2296
  319MPD2     C 4790   2.991   3.608  16.359 -0.7605 -0.1124 -0.2720
  319MPD2    C1 4791   2.856   3.582  16.357 -0.3735  0.1505 -0.6202
  319MPD2    C2 4792   2.799   3.544  16.239 -0.1894 -0.8469 -0.0423
  319MPD2    C3 4793   2.866   3.552  16.120  0.3604 -0.2053  0.6015
  319MPD2    C4 4794   2.999   3.581  16.123  0.1681 -0.6978 -0.1380
  319MPD2    C5 4795   3.062   3.598  16.240  0.5339 -0.6141  0.0135
  319MPD2     H 4796   2.693   3.522  16.246  0.0423 -2.0372 -0.2957
  319MPD2    H1 4797   3.059   3.565  16.035 -0.4118 -0.4437 -0.5814
  319MPD2    H2 4798   3.053   3.630  16.445 -0.4227 -1.3188 -0.2054
  319MPD2    H3 4799   3.170   3.601  16.247  0.5404  0.5693 -0.6178
  319MPD2     N 4800   2.800   3.530  15.999 -0.0190  0.3672  0.1712
  319MPD2    H5 4801   2.854   3.552  15.916  1.7550 -0.6809  1.0638
  319MPD2    N1 4802   2.769   3.584  16.473  0.0668 -0.2417 -0.3281
  319MPD2    H7 4803   2.672   3.555  16.460 -0.0282  0.6658 -1.6825
  320TMC3    C1 4804   2.625   3.539  15.850 -0.4195 -0.2310  0.1034
  320TMC3    C2 4805   2.507   3.608  15.847  0.0984  0.5971  0.0366
  320TMC3    C3 4806   2.402   3.575  15.767 -0.3172  0.0032  0.3310
  320TMC3    C4 4807   2.632   3.428  15.774  0.3071 -0.3631  0.5026
  320TMC3    C5 4808   2.525   3.387  15.704 -0.2023 -0.5670 -0.7651
  320TMC3    C6 4809   2.401   3.453  15.707  0.6418  0.1928  0.6976
  320TMC3     C 4810   2.663   3.525  15.987  0.5541  0.0707  1.0565
  320TMC3     O 4811   2.569   3.506  16.062  0.5191 -0.2913 -0.0128
  320TMC3     H 4812   2.479   3.672  15.930 -2.2747 -2.1205  1.3340
  320TMC3    H1 4813   2.722   3.368  15.778 -0.9592 -2.1436  2.1528
  320TMC3    H2 4814   2.313   3.421  15.653 -0.0663  3.5118 -0.1183
  320TMC3    C7 4815   2.520   3.249  15.651  0.2105 -0.2055  0.4983
  320TMC3    C8 4816   2.303   3.682  15.748 -0.1002 -1.2016  0.0359
  320TMC3    O1 4817   2.411   3.192  15.651 -0.5394 -0.6360  0.7950
  320TMC3    O2 4818   2.344   3.793  15.779  0.2628  0.7181  0.0911
  321TMC3    C1 4819   2.712   3.620  16.700  0.0938 -0.2242  0.1628
  321TMC3    C2 4820   2.648   3.507  16.718  0.1819  0.7497 -0.0379
  321TMC3    C3 4821   2.577   3.492  16.839 -0.6621  0.7601 -0.3716
  321TMC3    C4 4822   2.704   3.724  16.790 -0.5599 -0.0526 -0.7326
  321TMC3    C5 4823   2.616   3.715  16.892 -0.1789 -0.5901  0.0520
  321TMC3    C6 4824   2.553   3.596  16.926 -0.7155 -0.3674 -0.2848
  321TMC3     C 4825   2.806   3.636  16.593  0.2442 -0.3567  0.3587
  321TMC3     O 4826   2.909   3.695  16.621  0.5151 -0.1908 -0.1031
  321TMC3     H 4827   2.675   3.425  16.652 -1.5163  0.2752 -0.1559
  321TMC3    H1 4828   2.767   3.811  16.781 -1.4831  0.4499 -2.3239
  321TMC3    H2 4829   2.503   3.581  17.020  1.4900 -0.9764  0.8030
  321TMC3    C7 4830   2.671   3.777  17.013 -0.4287 -0.2136  0.0257
  321TMC3    C8 4831   2.607   3.380  16.928  0.6109 -0.0546  0.8381
  321TMC3    O1 4832   2.706   3.893  17.012 -0.0957  0.4250 -0.0836
  321TMC3    O2 4833   2.641   3.420  17.038 -0.1326 -0.7860 -0.1145
  322MPD2     C 4834   1.514   4.350  13.935 -0.6119  0.4161  0.0720
  322MPD2    C1 4835   1.618   4.382  14.020 -1.1373  0.5192  0.3178
  322MPD2    C2 4836   1.681   4.284  14.095  0.0516 -0.0657 -0.0448
  322MPD2    C3 4837   1.632   4.150  14.083  0.0987 -0.6553  0.7433
  322MPD2    C4 4838   1.533   4.119  13.988 -0.2786 -0.3898  0.9337
  322MPD2    C5 4839   1.478   4.220  13.921 -0.0027  0.6720 -0.2744
  322MPD2     H 4840   1.759   4.310  14.167  0.1788  1.4849 -0.7488
  322MPD2    H1 4841   1.495   4.019  13.969  1.0224 -0.8102  0.5316
  322MPD2    H2 4842   1.469   4.422  13.868 -2.0731 -1.1007 -0.5771
  322MPD2    H3 4843   1.401   4.199  13.847  2.6784 -1.0447 -2.5733
  322MPD2     N 4844   1.684   4.050  14.176  0.6504 -0.1356 -0.5637
  322MPD2    H5 4845   1.759   4.080  14.237 -0.1937  0.7129  0.0819
  322MPD2    N1 4846   1.669   4.516  14.036 -0.3942 -0.5003  0.0669
  322MPD2    H7 4847   1.744   4.524  14.104  1.4525  0.9557 -2.1373
  323TMC3    C1 4848   1.686   0.024  14.022  0.4301  0.0103  0.3867
  323TMC3    C2 4849   1.733   0.095  13.918  0.6599 -0.0548  0.1967
  323TMC3    C3 4850   1.850   0.165  13.932 -0.1348  0.2378  0.4597
  323TMC3    C4 4851   1.744   0.024  14.144 -0.1520  0.2017 -0.2616
  323TMC3    C5 4852   1.861   0.098  14.155 -0.0666  0.4425 -0.3536
  323TMC3    C6 4853   1.920   0.176  14.051  0.6905 -0.2093  0.5389
  323TMC3     C 4854   1.614   4.628  13.978 -0.2554 -0.7883  0.3798
  323TMC3     O 4855   1.527   4.653  13.892 -0.2446 -0.4346  0.2076
  323TMC3     H 4856   1.690   0.084  13.820  3.3907  3.0269 -1.3630
  323TMC3    H1 4857   1.701   4.693  14.227  2.6994 -1.1174  0.3486
  323TMC3    H2 4858   2.004   0.244  14.055 -1.0077  1.8971  0.4890
  323TMC3    C7 4859   1.937   0.080  14.277  0.2770 -0.2948  0.3937
  323TMC3    C8 4860   1.923   0.204  13.823 -0.5067 -0.3703 -0.0886
  323TMC3    O1 4861   1.881   0.001  14.358 -0.0241  0.2734 -0.3696
  323TMC3    O2 4862   2.043   0.202  13.830 -0.5895  0.1360  0.0026
  324MPD2     C 4863   3.524   0.700  14.242 -0.2781 -0.1199 -0.4666
  324MPD2    C1 4864   3.491   0.829  14.288 -0.7254  0.4855  0.0212
  324MPD2    C2 4865   3.364   0.877  14.252 -0.4530 -0.1607 -0.2693
  324MPD2    C3 4866   3.279   0.813  14.161  0.9342  0.0088  0.3683
  324MPD2    C4 4867   3.315   0.691  14.107  0.2136  0.5916 -0.0307
  324MPD2    C5 4868   3.434   0.644  14.156 -0.1677 -0.2300 -0.8764
  324MPD2     H 4869   3.332   0.969  14.299  0.7793  0.0002  0.2626
  324MPD2    H1 4870   3.254   0.631  14.040  1.9010 -1.1614 -0.0157
  324MPD2    H2 4871   3.614   0.646  14.270  0.0947  0.0591 -1.3261
  324MPD2    H3 4872   3.460   0.545  14.119 -2.7819 -0.8529 -1.0320
  324MPD2     N 4873   3.162   0.886  14.131  0.3963 -0.5122 -0.1415
  324MPD2    H5 4874   3.164   0.971  14.187 -4.0975 -0.5136  0.0045
  324MPD2    N1 4875   3.574   0.913  14.368  0.1398  0.1914 -0.4103
  324MPD2    H7 4876   3.531   1.001  14.396 -0.4122  0.2191 -1.3779
  325TMC3    C1 4877   2.949   0.923  14.067  0.3486  0.3450  0.4311
  325TMC3    C2 4878   2.824   0.868  14.040  0.4441 -0.3644 -0.1288
  325TMC3    C3 4879   2.714   0.947  14.042 -0.2897 -0.2623  0.1935
  325TMC3    C4 4880   2.971   1.057  14.057  0.0082  0.2650 -0.2166
  325TMC3    C5 4881   2.856   1.133  14.048  0.7973 -0.3370  0.7039
  325TMC3    C6 4882   2.729   1.080  14.043 -0.1578 -0.3551  0.2639
  325TMC3     C 4883   3.064   0.843  14.049 -0.6176  0.3576  0.1885
  325TMC3     O 4884   3.063   0.743  13.978 -0.2334 -0.1355  0.1480
  325TMC3     H 4885   2.817   0.760  14.043  0.1751 -0.2766  2.2265
  325TMC3    H1 4886   3.067   1.107  14.058 -0.7085  1.6168  1.0785
  325TMC3    H2 4887   2.645   1.147  14.027 -1.0129 -1.1319  1.5376
  325TMC3    C7 4888   2.861   1.273  14.089  0.0645  0.0651 -0.5458
  325TMC3    C8 4889   2.582   0.879  14.035 -0.0949 -0.9024 -0.1053
  325TMC3    O1 4890   2.967   1.328  14.059  0.2488  0.3074  0.2892
  325TMC3    O2 4891   2.583   0.768  13.983  0.0001 -0.0184  0.0710
  326MPD2     C 4892   4.559   1.545  11.460  0.2663  0.1033 -0.2969
  326MPD2    C1 4893   4.515   1.581  11.334 -0.2355  0.5197 -0.5551
  326MPD2    C2 4894   4.593   1.677  11.267 -0.2544  0.8457 -0.0914
  326MPD2    C3 4895   4.701   1.742  11.330 -1.3065 -0.1487 -0.6820
  326MPD2    C4 4896   0.004   1.711  11.463 -0.4515  0.1908 -0.5255
  326MPD2    C5 4897   4.666   1.604  11.517 -0.6299  0.0312  0.1123
  326MPD2     H 4898   4.556   1.722  11.175 -0.6004  1.0283  0.1341
  326MPD2    H1 4899   0.090   1.751  11.517 -0.4502 -0.5638  0.0216
  326MPD2    H2 4900   4.508   1.470  11.520 -0.2720  2.2603  1.9214
  326MPD2    H3 4901   4.703   1.579  11.616 -1.6339 -1.9974 -0.0193
  326MPD2     N 4902   0.055   1.830  11.258  0.6402  1.0048  0.1430
  326MPD2    H5 4903   0.116   1.890  11.312 -0.2587  1.6408  0.4495
  326MPD2    N1 4904   4.411   1.521  11.263 -0.6168 -0.2253 -0.8108
  326MPD2    H7 4905   4.387   1.561  11.173 -1.6125 -2.0411 -1.3507
  327TMC3    C1 4906   4.244   1.376  11.210 -0.0791 -0.1121 -0.0336
  327TMC3    C2 4907   4.143   1.462  11.175 -0.1714  0.4412  0.1380
  327TMC3    C3 4908   4.086   1.441  11.051  0.1997 -1.1090 -0.0742
  327TMC3    C4 4909   4.272   1.272  11.129  0.0636 -0.5362  0.2159
  327TMC3    C5 4910   4.233   1.271  10.995 -0.0143 -0.3843  0.7860
  327TMC3    C6 4911   4.127   1.352  10.959  0.5750  0.4057 -0.1709
  327TMC3     C 4912   4.334   1.417  11.309 -1.0671 -0.3739  0.2571
  327TMC3     O 4913   4.371   1.336  11.392  0.8585 -0.2366 -0.2217
  327TMC3     H 4914   4.111   1.546  11.235  1.2231  0.8178  0.3713
  327TMC3    H1 4915   4.334   1.193  11.169  4.0923  0.9598 -3.0839
  327TMC3    H2 4916   4.097   1.364  10.856  0.0909 -2.0825 -0.3319
  327TMC3    C7 4917   4.338   1.298  10.904  0.3066 -1.0448 -0.1408
  327TMC3    C8 4918   4.031   1.564  10.984 -0.1696  0.0521 -0.3863
  327TMC3    O1 4919   4.312   1.306  10.787 -0.2521 -0.6497 -0.0101
  327TMC3    O2 4920   4.080   1.582  10.873 -0.0039  0.1070  0.2176
  328MPD2     C 4921   2.205   1.265  17.615  0.0576  0.5681 -0.9801
  328MPD2    C1 4922   2.161   1.234  17.483 -0.3217 -0.4559 -0.6330
  328MPD2    C2 4923   2.141   1.335  17.392 -0.1965  0.1670  0.1072
  328MPD2    C3 4924   2.171   1.465  17.430  0.2734  0.5301 -0.1099
  328MPD2    C4 4925   2.236   1.494  17.550 -0.3425 -0.4422  0.4934
  328MPD2    C5 4926   2.242   1.398  17.643 -0.2418 -0.0535 -0.3484
  328MPD2     H 4927   2.100   1.320  17.293 -1.9392  1.4360  0.6343
  328MPD2    H1 4928   2.270   1.586  17.598 -2.0983  0.3129  0.2794
  328MPD2    H2 4929   2.205   1.188  17.692  0.9138 -1.3655 -2.9277
  328MPD2    H3 4930   2.268   1.415   0.051  0.2574  1.7647 -0.7673
  328MPD2     N 4931   2.135   1.576  17.356  0.0322 -0.3569  0.0653
  328MPD2    H5 4932   2.158   1.664  17.400  2.5687 -1.6589  1.3586
  328MPD2    N1 4933   2.129   1.097  17.455  0.1046  0.2242  0.1235
  328MPD2    H7 4934   2.136   1.030  17.531 -3.1675 -2.4130 -1.9411
  329TMC3    C1 4935   2.006   0.923  17.366  0.1717  0.0326  0.2400
  329TMC3    C2 4936   1.887   0.932  17.436 -0.8640  0.5031  0.8492
  329TMC3    C3 4937   1.780   0.855  17.391  0.7617  0.1627  0.4592
  329TMC3    C4 4938   2.009   0.856  17.244 -0.1140 -0.2538 -0.3043
  329TMC3    C5 4939   1.903   0.764  17.217  0.3099  0.3396  0.0552
  329TMC3    C6 4940   1.799   0.755  17.295 -0.4003  0.0652 -0.4840
  329TMC3     C 4941   2.065   1.051  17.343  0.0961 -0.6060  0.3284
  329TMC3     O 4942   2.035   1.111  17.244  0.1754 -0.3170  0.1225
  329TMC3     H 4943   1.886   1.003  17.518  0.7249 -0.3024  1.5586
  329TMC3    H1 4944   2.095   0.846  17.179 -1.0265  0.1149 -1.5815
  329TMC3    H2 4945   1.717   0.689  17.269 -0.9329 -0.6783  3.1715
  329TMC3    C7 4946   1.894   0.690  17.092  0.5816  0.2739 -0.1108
  329TMC3    C8 4947   1.648   0.922  17.380  0.4585  0.3195  0.5389
  329TMC3    O1 4948   1.892   0.570  17.094 -0.1811 -0.8670  0.6954
  329TMC3    O2 4949   1.568   0.848  17.330  0.1326 -0.4164  0.2280
  330TMC3    C1 4950   4.087   1.422   9.509 -0.1520 -0.2293  0.0803
  330TMC3    C2 4951   4.058   1.310   9.428  0.9374  0.7742 -0.5656
  330TMC3    C3 4952   4.164   1.223   9.413  0.0356  0.2583 -0.1252
  330TMC3    C4 4953   4.217   1.461   9.540  0.1724  0.4753  0.1770
  330TMC3    C5 4954   4.315   1.383   9.496  0.1786 -0.9430 -0.0589
  330TMC3    C6 4955   4.292   1.258   9.440  0.5624  0.3729  0.3944
  330TMC3     C 4956   3.996   1.536   9.489 -0.9929 -0.1451 -0.4833
  330TMC3     O 4957   4.039   1.651   9.482 -0.1254 -0.1738  0.0249
  330TMC3     H 4958   3.959   1.270   9.408  2.3353 -2.7442 -0.4240
  330TMC3    H1 4959   4.231   1.553   9.596  3.0028  0.1649 -0.0240
  330TMC3    H2 4960   4.365   1.194   9.392  0.7847  1.4800 -0.7122
  330TMC3    C7 4961   4.451   1.432   9.503  0.7197  1.1068  0.2979
  330TMC3    C8 4962   4.135   1.088   9.347  0.0748 -0.4104  0.5011
  330TMC3    O1 4963   4.473   1.549   9.527  0.1121 -0.2403  0.2943
  330TMC3    O2 4964   4.035   1.082   9.278  0.3477 -0.2913  0.0692
  331MPD2     C 4965   2.288   0.409  12.463 -0.1021  0.3424 -0.8671
  331MPD2    C1 4966   2.419   0.389  12.481  0.0150  0.4711 -1.0108
  331MPD2    C2 4967   2.480   0.287  12.415 -0.0201  0.1170  0.1796
  331MPD2    C3 4968   2.415   0.199  12.328  0.3280 -0.0450 -0.5361
  331MPD2    C4 4969   2.279   0.221  12.318  0.7047  0.4229 -0.8755
  331MPD2    C5 4970   2.222   0.325  12.384  0.0577  0.3459 -0.5256
  331MPD2     H 4971   2.586   0.267  12.426  0.1376  0.4064 -0.8733
  331MPD2    H1 4972   2.220   0.161  12.248  0.7875 -0.0286 -0.5588
  331MPD2    H2 4973   2.230   0.486  12.512 -0.8227 -1.0519  0.4764
  331MPD2    H3 4974   2.117   0.344  12.364  0.7119  0.4991 -3.8122
  331MPD2     N 4975   2.498   0.104  12.262 -0.3121  0.4073  0.8139
  331MPD2    H5 4976   2.589   0.083  12.303 -0.6236  0.4920  1.5489
  331MPD2    N1 4977   2.496   0.480  12.559 -0.4890 -0.0335 -0.3044
  331MPD2    H7 4978   2.441   0.563  12.581 -1.5405 -0.9796  0.6359
  332TMC3    C1 4979   2.587   4.663  12.115 -0.3537  0.0884 -0.4433
  332TMC3    C2 4980   2.642   4.708  11.995 -0.0516 -0.3354 -0.4743
  332TMC3    C3 4981   2.776   4.719  11.988 -0.7075 -0.2125 -0.7979
  332TMC3    C4 4982   2.671   4.633  12.216 -0.1912  0.5101  0.4139
  332TMC3    C5 4983   2.802   4.653  12.205  0.6407  0.1172 -0.1848
  332TMC3    C6 4984   2.861   4.684  12.087  0.3790  1.0524 -0.1922
  332TMC3     C 4985   2.468   0.016  12.155 -0.5300 -0.1872  0.1817
  332TMC3     O 4986   2.370   0.020  12.084 -0.1186  0.2900 -0.3427
  332TMC3     H 4987   2.578   0.004  11.909  0.5376 -1.5814 -1.1954
  332TMC3    H1 4988   2.637   4.585  12.307 -0.1268  0.3086  0.3336
  332TMC3    H2 4989   2.964   4.717  12.081  0.9129 -0.6636 -0.5343
  332TMC3    C7 4990   2.845   0.017  12.310 -0.5911 -0.7521 -0.3402
  332TMC3    C8 4991   2.832   0.104  11.911 -0.2698 -0.4464  0.1765
  332TMC3    O1 4992   2.764   0.096  12.353  0.1817 -0.2188  0.0637
  332TMC3    O2 4993   2.950   0.100  11.877 -0.5204 -0.1516 -0.1641
  333MPD2     C 4994   3.179   0.197  11.449  0.2534 -0.4764  0.4151
  333MPD2    C1 4995   3.180   0.102  11.348  0.0106 -0.5942 -0.9032
  333MPD2    C2 4996   3.091   0.003  11.353  0.5227  0.6324  0.6598
  333MPD2    C3 4997   2.992   4.721  11.453  0.0388 -0.4577 -0.4892
  333MPD2    C4 4998   2.993   0.093  11.553 -0.1579  0.4260  0.4409
  333MPD2    C5 4999   3.088   0.190  11.543  0.4546  0.4626  0.6811
  333MPD2     H 5000   3.096   4.653  11.274  0.0775  0.3458  0.9034
  333MPD2    H1 5001   2.926   0.100  11.638 -2.7802 -1.2607 -1.5054
  333MPD2    H2 5002   3.242   0.285  11.451 -0.6773  0.2240 -0.5658
  333MPD2    H3 5003   3.097   0.261  11.624  3.6431  0.5947  0.1887
  333MPD2     N 5004   2.900   4.615  11.451 -0.2034 -0.1482 -0.3646
  333MPD2    H5 5005   2.920   4.553  11.374 -0.3291  0.8572 -1.1968
  333MPD2    N1 5006   3.276   0.129  11.244 -0.5605 -0.5777  0.3083
  333MPD2    H7 5007   3.338   0.210  11.250  0.7838 -1.4718 -1.5174
  334TMC3    C1 5008   3.387   0.126  11.046 -0.0113 -0.4957 -0.8282
  334TMC3    C2 5009   3.500   0.060  10.998  0.2918  0.0056  0.4149
  334TMC3    C3 5010   3.600   0.136  10.942  0.0471  0.0162 -0.5179
  334TMC3    C4 5011   3.362   0.261  11.025  0.4109  0.1572 -0.7696
  334TMC3    C5 5012   3.471   0.326  10.970  0.1890  0.5582  0.6981
  334TMC3    C6 5013   3.598   0.276  10.938 -0.1424  0.2467  0.2920
  334TMC3     C 5014   3.293   0.059  11.128  0.1816  0.4717  0.5075
  334TMC3     O 5015   3.244   4.679  11.080 -0.2577 -0.0141  0.6347
  334TMC3     H 5016   3.519   4.680  11.023 -2.5836 -0.7485 -0.5050
  334TMC3    H1 5017   3.274   0.304  11.070  1.5989  0.2940  1.4492
  334TMC3    H2 5018   3.681   0.340  10.911  0.7015 -0.7289  0.5731
  334TMC3    C7 5019   3.459   0.474  10.960 -0.0728 -0.2442 -0.4746
  334TMC3    C8 5020   3.699   0.060  10.865 -0.1385  0.0281 -0.1731
  334TMC3    O1 5021   3.566   0.538  10.948 -0.0487 -0.5856 -0.2592
  334TMC3    O2 5022   3.670   4.668  10.842 -0.1059  0.2098 -0.1977
  335TMC3    C1 5023   2.629   2.096  17.335 -0.0996  0.1596  0.5842
  335TMC3    C2 5024   2.580   1.998  17.259 -0.3214  0.7924  0.0882
  335TMC3    C3 5025   2.641   1.984  17.136  0.3175  0.2661  0.0018
  335TMC3    C4 5026   2.748   2.162  17.308  0.3672 -0.3309  0.1951
  335TMC3    C5 5027   2.799   2.149  17.181  0.5773 -0.0334  0.4596
  335TMC3    C6 5028   2.746   2.059  17.096 -0.3287  0.3056 -0.1831
  335TMC3     C 5029   2.564   2.117  17.462 -0.4550 -0.3890 -0.0434
  335TMC3     O 5030   2.488   2.031  17.501  0.8777  0.0001  0.0854
  335TMC3     H 5031   2.499   1.937  17.299 -1.0566  1.2066 -0.7539
  335TMC3    H1 5032   2.799   2.225  17.379 -1.7687  0.3428  1.1431
  335TMC3    H2 5033   2.797   2.039  17.002  2.5281  1.9052  1.0439
  335TMC3    C7 5034   2.936   2.195  17.152 -0.4002 -0.2003  0.0629
  335TMC3    C8 5035   2.576   1.900  17.037  0.5149  0.1517  0.5445
  335TMC3    O1 5036   3.009   2.122  17.081  0.4606 -0.1441  0.5647
  335TMC3    O2 5037   2.613   1.911  16.921 -0.0503  0.2469 -0.4395
  336MPD2     C 5038   2.626   4.667  16.438 -0.7885 -0.6069  0.5547
  336MPD2    C1 5039   2.689   4.630  16.325  0.2307 -0.2201  0.4747
  336MPD2    C2 5040   2.778   4.528  16.325 -0.0082  0.8781  0.0423
  336MPD2    C3 5041   2.797   4.454  16.439  0.2959 -1.3421  0.0979
  336MPD2    C4 5042   2.727   4.481  16.550  0.1112 -0.4984 -0.3965
  336MPD2    C5 5043   2.652   4.591  16.553  0.0573 -0.0800  0.7560
  336MPD2     H 5044   2.818   4.515  16.224  0.1456 -1.3772  0.4076
  336MPD2    H1 5045   2.721   4.420  16.639 -2.1693  0.9559  0.4274
  336MPD2    H2 5046   2.558   0.027  16.445 -1.9219 -1.5862  1.4346
  336MPD2    H3 5047   2.599   4.601  16.647 -1.4646  0.9539 -0.2143
  336MPD2     N 5048   2.862   4.325  16.431  0.1367 -0.2622  0.1353
  336MPD2    H5 5049   2.862   4.263  16.511  0.9213 -0.4617 -0.0228
  336MPD2    N1 5050   2.667   4.701  16.203 -0.7317  0.3991 -0.4431
  336MPD2    H7 5051   2.720   4.667  16.124  2.3157  2.3261  0.7448
  337TMC3    C1 5052   2.555   0.096  16.029 -0.3094  0.2374 -1.1059
  337TMC3    C2 5053   2.420   0.129  15.996  0.1425 -0.4004  0.6430
  337TMC3    C3 5054   2.376   0.097  15.869  0.5984 -0.3101 -0.1959
  337TMC3    C4 5055   2.641   0.042  15.937  0.6147 -0.6394  0.1961
  337TMC3    C5 5056   2.591   0.013  15.811  0.4511  1.1889 -0.1453
  337TMC3    C6 5057   2.458   0.034  15.780  0.5112  0.1974  0.0449
  337TMC3     C 5058   2.575   0.075  16.172 -0.3118 -0.4953  0.0195
  337TMC3     O 5059   2.495   0.125  16.249  1.4050  0.0768 -0.1112
  337TMC3     H 5060   2.354   0.159  16.077 -0.3565 -0.4704  0.2618
  337TMC3    H1 5061   2.747   0.037  15.959  0.6363  1.6612  0.6735
  337TMC3    H2 5062   2.419   0.010  15.682 -0.1703  0.7550  0.1814
  337TMC3    C7 5063   2.669   4.644  15.731  0.1955  0.1629  0.6789
  337TMC3    C8 5064   2.233   0.105  15.857  0.3761  0.4997 -0.5676
  337TMC3    O1 5065   2.791   4.650  15.735 -0.0531  0.2160 -0.4879
  337TMC3    O2 5066   2.173   0.120  15.963  0.2095 -0.0328 -0.2714
  338MPD2     C 5067   3.338   3.324   0.809 -0.0702 -0.6332 -1.0940
  338MPD2    C1 5068   3.297   3.230   0.718 -0.3604 -0.1877  0.2601
  338MPD2    C2 5069   3.255   3.103   0.758 -0.4685 -0.4998 -0.4930
  338MPD2    C3 5070   3.261   3.070   0.890  1.1367 -0.1602 -0.0415
  338MPD2    C4 5071   3.301   3.165   0.977  0.9093 -1.5183 -0.2047
  338MPD2    C5 5072   3.336   3.292   0.943 -0.1084  0.0035  0.5220
  338MPD2     H 5073   3.220   3.029   0.687  0.7146 -0.2212 -1.3601
  338MPD2    H1 5074   3.292   3.140   1.082  3.8140 -1.2997  0.0998
  338MPD2    H2 5075   3.372   3.424   0.786 -0.8085  0.0779  0.8849
  338MPD2    H3 5076   3.372   3.353   1.025  1.9618 -0.7886  0.2192
  338MPD2     N 5077   3.225   2.937   0.919  0.3210  0.2663 -0.6999
  338MPD2    H5 5078   3.193   2.881   0.840  2.0217  0.1133 -1.2814
  338MPD2    N1 5079   3.313   3.245   0.583 -0.5900  0.2436 -0.1734
  338MPD2    H7 5080   3.295   3.163   0.526  0.4381 -0.3521  0.3676
  339TMC3    C1 5081   3.142   2.745   1.044 -0.3968  0.0178 -0.0089
  339TMC3    C2 5082   3.158   2.689   1.172  0.4366 -0.2659  0.4925
  339TMC3    C3 5083   3.045   2.635   1.234 -0.5731 -0.0995 -0.1684
  339TMC3    C4 5084   3.021   2.751   0.985  0.3474  0.2077  0.0797
  339TMC3    C5 5085   2.913   2.709   1.056  0.1433  0.0614  0.2358
  339TMC3    C6 5086   2.924   2.643   1.173  0.5949 -0.4556  0.1329
  339TMC3     C 5087   3.220   2.868   1.043 -0.0037  0.6721 -0.3022
  339TMC3     O 5088   3.267   2.900   1.149 -0.4877  0.1780 -0.1156
  339TMC3     H 5089   3.258   2.668   1.209  0.1966 -0.6512  0.9139
  339TMC3    H1 5090   3.009   2.822   0.904  0.3114  0.9550  0.7342
  339TMC3    H2 5091   2.831   2.622   1.225 -0.5129  1.1599 -1.1876
  339TMC3    C7 5092   2.793   2.790   1.034  0.5202 -0.0625 -0.2002
  339TMC3    C8 5093   3.069   2.567   1.360 -0.5596  0.5173 -0.1217
  339TMC3    O1 5094   2.800   2.900   0.981  0.0143 -0.2952 -0.6959
  339TMC3    O2 5095   3.186   2.536   1.390 -0.0567  0.3248  0.0766
  340MPD2     C 5096   2.927   1.375  10.309  0.4718  0.1758  0.1830
  340MPD2    C1 5097   2.923   1.243  10.263 -0.7388  0.3114  1.1216
  340MPD2    C2 5098   2.986   1.140  10.339  0.5478  0.1618 -0.7971
  340MPD2    C3 5099   3.068   1.177  10.440 -0.0207 -0.6230 -0.6698
  340MPD2    C4 5100   3.074   1.307  10.484 -1.0097  0.0971 -0.0584
  340MPD2    C5 5101   2.997   1.406  10.422  0.1549  0.2327 -0.4451
  340MPD2     H 5102   2.981   1.036  10.310  2.1275 -0.2517  0.4315
  340MPD2    H1 5103   3.117   1.335  10.579 -1.3081 -2.3732  0.7850
  340MPD2    H2 5104   2.884   1.459  10.256 -1.3420 -0.1030  1.2025
  340MPD2    H3 5105   3.002   1.509  10.456  1.5531 -0.4385  1.3848
  340MPD2     N 5106   3.153   1.093  10.514  0.0910 -0.7238  1.3394
  340MPD2    H5 5107   3.212   1.144  10.578 -1.2712  1.3109  0.9515
  340MPD2    N1 5108   2.868   1.229  10.139  0.2564  0.5799  0.4757
  340MPD2    H7 5109   2.856   1.311  10.082  1.9257 -1.4523 -2.7997
  341TMC3    C1 5110   2.828   1.100   9.947 -0.0125 -0.2872  0.3708
  341TMC3    C2 5111   2.750   1.000   9.904 -0.4857 -0.0645  0.4449
  341TMC3    C3 5112   2.763   0.954   9.779 -0.2599 -0.6553  0.0771
  341TMC3    C4 5113   2.907   1.164   9.861 -0.1003  0.2334  0.6584
  341TMC3    C5 5114   2.931   1.114   9.736  0.4012 -0.0179  0.1541
  341TMC3    C6 5115   2.859   1.003   9.699 -0.4873 -0.4141 -0.0128
  341TMC3     C 5116   2.845   1.104  10.088  0.1277  0.1954  0.5957
  341TMC3     O 5117   2.824   0.999  10.146  0.4914  0.3472  0.1867
  341TMC3     H 5118   2.690   0.949   9.979 -1.0474 -0.2475 -0.1316
  341TMC3    H1 5119   2.981   1.231   9.904  1.4928 -0.5839 -0.7761
  341TMC3    H2 5120   2.878   0.963   9.600  0.3799  1.6468 -0.6791
  341TMC3    C7 5121   3.050   1.131   9.670 -0.4405  0.3434  0.4544
  341TMC3    C8 5122   2.716   0.827   9.746 -0.0884 -0.2671  0.1713
  341TMC3    O1 5123   3.065   1.055   9.575  0.0329  0.1977 -0.1203
  341TMC3    O2 5124   2.689   0.753   9.841  0.1319 -0.0258  0.3701
  342MPD2     C 5125   0.894   0.011  17.690  0.4093 -0.5235  0.0702
  342MPD2    C1 5126   1.031   4.717   0.013  0.7231  0.6722  1.0182
  342MPD2    C2 5127   1.113   0.102   0.048  0.4321  0.0019 -0.1440
  342MPD2    C3 5128   1.058   0.220   0.074  0.7502  0.8532 -0.2863
  342MPD2    C4 5129   0.925   0.232   0.085  0.1430 -0.0524 -0.3211
  342MPD2    C5 5130   0.846   0.135   0.045  0.0983  0.8919  0.7450
  342MPD2     H 5131   1.221   0.094   0.048  0.4319 -0.0378  1.3285
  342MPD2    H1 5132   0.880   0.328   0.110 -0.2505 -0.1753 -0.5550
  342MPD2    H2 5133   0.822   4.669  17.642  0.5161 -2.2318  2.2423
  342MPD2    H3 5134   0.742   0.158   0.025 -0.0443 -0.7863 -0.5221
  342MPD2     N 5135   1.134   0.340   0.095  0.3117 -0.3122  0.1317
  342MPD2    H5 5136   1.100   0.414   0.155  0.5820 -1.8525  2.1696
  342MPD2    N1 5137   1.100   4.596  17.686 -0.6188  0.2399  0.4672
  342MPD2    H7 5138   1.201   4.592   0.005 -0.5863 -0.1291  0.1590
  343TMC3    C1 5139   1.130   4.364  17.627  0.3419 -0.1150 -0.1622
  343TMC3    C2 5140   1.266   4.395  17.623 -0.1889  0.0517  0.4454
  343TMC3    C3 5141   1.352   4.297  17.600 -0.9635  0.0364  1.2309
  343TMC3    C4 5142   1.082   4.246  17.601 -0.4585  0.0131  1.1858
  343TMC3    C5 5143   1.176   4.150  17.580  0.2036  0.2855  0.4237
  343TMC3    C6 5144   1.312   4.173  17.573 -0.5634 -0.5374 -0.0487
  343TMC3     C 5145   1.036   4.475  17.651 -0.1299 -0.6446  0.7262
  343TMC3     O 5146   0.922   4.465  17.611  0.0587  0.0208 -0.3103
  343TMC3     H 5147   1.302   4.488  17.666  2.6505 -0.3919 -0.9811
  343TMC3    H1 5148   0.975   4.229  17.593  0.0312 -1.6819 -1.6216
  343TMC3    H2 5149   1.378   4.092  17.544 -0.6509 -1.0693  1.2136
  343TMC3    C7 5150   1.128   4.025  17.519 -0.1567 -0.3333  0.4647
  343TMC3    C8 5151   1.493   4.327  17.600  0.2290  0.4211 -0.6748
  343TMC3    O1 5152   1.051   4.021  17.423 -0.2415 -0.5908 -0.2412
  343TMC3    O2 5153   1.535   4.416  17.673  0.0088 -0.0574 -0.1580
  344MPD2     C 5154   1.925   3.952  10.561 -0.3646  0.3343  0.3960
  344MPD2    C1 5155   1.820   3.911  10.481 -0.2662  0.3149  0.4265
  344MPD2    C2 5156   1.830   3.947  10.345 -0.0887 -0.2968 -0.0877
  344MPD2    C3 5157   1.922   4.035  10.305 -0.0696  0.2047  0.3407
  344MPD2    C4 5158   2.022   4.082  10.384  0.6925 -0.0759 -0.6324
  344MPD2    C5 5159   2.013   4.040  10.514  0.3202 -0.1935  0.0146
  344MPD2     H 5160   1.758   3.906  10.274  0.3594  1.3425 -1.4824
  344MPD2    H1 5161   2.096   4.157  10.358  2.6648 -2.0050 -0.5788
  344MPD2    H2 5162   1.933   3.933  10.668  0.4436 -1.2531  0.0611
  344MPD2    H3 5163   2.096   4.075  10.574 -0.3678 -1.6970  1.8188
  344MPD2     N 5164   1.937   4.084  10.180 -0.1148  0.5181 -0.2470
  344MPD2    H5 5165   2.025   4.127  10.151  0.3958  0.2813  0.9661
  344MPD2    N1 5166   1.722   3.819  10.526 -0.4001  0.0933 -0.4349
  344MPD2    H7 5167   1.650   3.784  10.463 -0.5378  0.0434 -0.2509
  345TMC3    C1 5168   1.905   4.121   9.960  0.4384 -0.1398  0.0472
  345TMC3    C2 5169   2.034   4.170   9.961  0.4338 -0.5635 -0.4648
  345TMC3    C3 5170   2.081   4.260   9.860 -0.5774  0.4710  0.1184
  345TMC3    C4 5171   1.822   4.172   9.873  0.0092  0.4203  0.9710
  345TMC3    C5 5172   1.868   4.248   9.770 -0.1750  0.7438 -0.3654
  345TMC3    C6 5173   1.996   4.289   9.757  0.0856  0.0242 -0.3223
  345TMC3     C 5174   1.854   4.069  10.076 -0.2975  0.0836 -0.5393
  345TMC3     O 5175   1.740   4.027  10.080 -0.2291  0.4413 -0.6637
  345TMC3     H 5176   2.108   4.161  10.039  1.1740  0.4808 -1.0417
  345TMC3    H1 5177   1.716   4.151   9.870  0.2290 -0.0470 -4.2435
  345TMC3    H2 5178   2.022   4.350   9.671  0.3588  1.8412  1.0397
  345TMC3    C7 5179   1.787   4.355   9.743 -0.2025 -0.1779  0.3280
  345TMC3    C8 5180   2.170   4.365   9.908 -0.4613 -0.6212 -0.0449
  345TMC3    O1 5181   1.839   4.456   9.781 -0.2908  0.5657  0.0261
  345TMC3    O2 5182   2.199   4.368  10.028 -0.2106 -0.1087  0.3027
  346MPD2     C 5183   1.676   1.782  14.575 -0.3348 -0.1567  0.6869
  346MPD2    C1 5184   1.756   1.729  14.477 -0.0499 -0.0497  0.2715
  346MPD2    C2 5185   1.891   1.721  14.500 -0.7179 -0.4728  0.1126
  346MPD2    C3 5186   1.939   1.762  14.622  1.2443  0.3334  0.3424
  346MPD2    C4 5187   1.858   1.820  14.713  0.3167 -0.2043 -0.7891
  346MPD2    C5 5188   1.727   1.829  14.694  0.6276 -0.2164 -0.0211
  346MPD2     H 5189   1.957   1.667  14.433  1.0585  1.9754 -0.0703
  346MPD2    H1 5190   1.890   1.866  14.806 -1.4744 -0.5541 -0.0092
  346MPD2    H2 5191   1.572   1.810  14.559  0.7196  2.3636 -1.7202
  346MPD2    H3 5192   1.664   1.874  14.770  0.2308  0.3303 -0.6749
  346MPD2     N 5193   2.079   1.747  14.650  0.4474 -0.3573 -0.3294
  346MPD2    H5 5194   2.133   1.689  14.586  1.0108 -2.0944  1.7349
  346MPD2    N1 5195   1.708   1.681  14.355 -0.4009  0.3103  0.0465
  346MPD2    H7 5196   1.772   1.632  14.293 -0.7334 -0.0187 -0.0330
  347TMC3    C1 5197   2.269   1.730  14.777  0.5609 -0.1974 -0.2013
  347TMC3    C2 5198   2.322   1.680  14.658 -0.4765 -0.1804  0.3368
  347TMC3    C3 5199   2.426   1.598  14.672  0.4040 -0.2525  0.1325
  347TMC3    C4 5200   2.321   1.700  14.901  0.0004  0.8773  0.8318
  347TMC3    C5 5201   2.436   1.621  14.905  0.0557 -1.1935  0.2283
  347TMC3    C6 5202   2.486   1.565  14.790  0.5264  0.2373  0.0831
  347TMC3     C 5203   2.142   1.789  14.769 -0.2970  0.3373 -0.4198
  347TMC3     O 5204   2.088   1.819  14.876  0.2890  0.4230 -0.0810
  347TMC3     H 5205   2.298   1.715  14.559 -0.0282 -0.8378 -0.0059
  347TMC3    H1 5206   2.274   1.749  14.985  0.1512 -2.0220  2.6015
  347TMC3    H2 5207   2.568   1.494  14.786  0.2103 -0.0856 -0.6461
  347TMC3    C7 5208   2.485   1.568  15.033 -0.7630  0.4047  0.3753
  347TMC3    C8 5209   2.463   1.519  14.559  0.4248 -0.7934 -1.0483
  347TMC3    O1 5210   2.562   1.478  15.024  0.4656 -0.4468  0.3960
  347TMC3    O2 5211   2.496   1.407  14.565  1.2012 -0.2371  0.8035
  348MPD2     C 5212   0.634   0.692  11.979  0.3372 -0.2683  0.4959
  348MPD2    C1 5213   0.753   0.755  11.987 -0.1777  0.4381  0.0907
  348MPD2    C2 5214   0.797   0.837  11.889 -0.0969 -0.0007 -0.4277
  348MPD2    C3 5215   0.723   0.848  11.770  0.3206 -0.0760 -0.6569
  348MPD2    C4 5216   0.603   0.780  11.758 -0.5126 -0.0094 -0.0300
  348MPD2    C5 5217   0.556   0.711  11.866  0.8548  0.4630  0.0832
  348MPD2     H 5218   0.894   0.884  11.897  0.1057 -0.1914 -1.8466
  348MPD2    H1 5219   0.551   0.776  11.663  0.2337  0.6007 -0.4631
  348MPD2    H2 5220   0.588   0.630  12.055 -3.2677  0.3434 -1.1761
  348MPD2    H3 5221   0.464   0.660  11.842  0.6534  0.7300  0.2858
  348MPD2     N 5222   0.776   0.899  11.651 -1.0126  0.0943  0.1663
  348MPD2    H5 5223   0.725   0.875  11.567  0.9153 -1.8697 -0.4743
  348MPD2    N1 5224   0.845   0.742  12.097  0.4723 -0.3493 -0.2920
  348MPD2    H7 5225   0.933   0.791  12.099 -0.5272  1.3744  1.4057
  349TMC3    C1 5226   0.913   0.700  12.320  0.5598 -0.0608 -0.1115
  349TMC3    C2 5227   0.904   0.596  12.407  0.6333 -0.5252  0.3149
  349TMC3    C3 5228   1.013   0.521  12.435 -0.0147 -0.7063 -0.9838
  349TMC3    C4 5229   1.037   0.737  12.271 -0.1028 -0.3247 -0.3452
  349TMC3    C5 5230   1.144   0.659  12.299 -0.1894  1.0533 -0.0441
  349TMC3    C6 5231   1.137   0.556  12.389 -0.5406  0.1891 -0.0167
  349TMC3     C 5232   0.809   0.687  12.216 -1.1503 -0.7051 -0.5843
  349TMC3     O 5233   0.709   0.621  12.251  0.4915 -0.5006  0.1166
  349TMC3     H 5234   0.809   0.589  12.457  0.5862  0.4718  0.3700
  349TMC3    H1 5235   1.050   0.828  12.214 -0.7991 -0.5396 -0.8543
  349TMC3    H2 5236   1.213   0.479  12.399  1.0176  1.6973 -0.1681
  349TMC3    C7 5237   1.203   0.601  12.180  0.0679 -0.0032  0.1828
  349TMC3    C8 5238   0.980   0.379  12.435 -0.0034  1.0121  0.3691
  349TMC3    O1 5239   1.207   0.478  12.170 -0.4618  0.5032 -0.6949
  349TMC3    O2 5240   0.879   0.349  12.487  0.1387 -0.5398  0.6305
  350MPD2     C 5241   4.067   3.511  10.170 -0.1775 -0.4408  0.1336
  350MPD2    C1 5242   4.105   3.393  10.101 -0.4079 -0.3108  0.0627
  350MPD2    C2 5243   4.213   3.415  10.014 -0.0618 -0.1153 -0.7702
  350MPD2    C3 5244   4.265   3.541   9.992  0.5238 -0.6712  0.2603
  350MPD2    C4 5245   4.231   3.650  10.074 -0.8809  0.0127  0.5431
  350MPD2    C5 5246   4.124   3.635  10.158 -0.7307 -0.6362  0.0453
  350MPD2     H 5247   4.248   3.332   9.954  0.7983  2.0524 -3.2609
  350MPD2    H1 5248   4.275   3.749  10.065 -0.6959 -0.1239 -0.0810
  350MPD2    H2 5249   3.973   3.508  10.225 -0.0721 -0.4784  0.3117
  350MPD2    H3 5250   4.072   3.711  10.215  0.3045 -0.3092  0.5395
  350MPD2     N 5251   4.377   3.541   9.906 -0.5658  0.0880 -0.6646
  350MPD2    H5 5252   4.395   3.454   9.856 -1.7016 -1.6519  1.9599
  350MPD2    N1 5253   4.051   3.266  10.116 -0.3969 -0.7733  0.1110
  350MPD2    H7 5254   4.104   3.193  10.069  0.6020 -0.6179  1.0036
  351TMC3    C1 5255   3.927   3.080  10.206  0.6938 -0.3870  0.1966
  351TMC3    C2 5256   4.006   2.986  10.143 -0.2357  0.0333 -0.1961
  351TMC3    C3 5257   3.983   2.855  10.163  0.0087 -0.5003  0.3643
  351TMC3    C4 5258   3.835   3.048  10.293  0.6606 -0.6075  0.9797
  351TMC3    C5 5259   3.822   2.912  10.314 -0.6720 -0.4168  0.2899
  351TMC3    C6 5260   3.895   2.815  10.258 -0.8958  0.3889 -0.4198
  351TMC3     C 5261   3.960   3.225  10.209  0.0016 -0.0979 -0.4628
  351TMC3     O 5262   3.890   3.302  10.277  0.5971 -0.6245  0.1700
  351TMC3     H 5263   4.092   3.016  10.083  0.5102 -2.1771 -0.2404
  351TMC3    H1 5264   3.787   3.120  10.360  3.2476 -0.1516  2.3332
  351TMC3    H2 5265   3.886   2.711  10.286  0.8305  0.5172  0.6166
  351TMC3    C7 5266   3.740   2.882  10.429  0.8990 -0.7730 -1.0254
  351TMC3    C8 5267   4.084   2.763  10.118 -0.1569  0.5976 -0.0804
  351TMC3    O1 5268   3.729   2.965  10.519 -0.1017 -0.3380  0.7041
  351TMC3    O2 5269   4.166   2.797  10.034  0.0333  0.5009 -0.6166
  352MPD2     C 5270   2.865   1.298   1.357  0.0620  0.3718 -0.2192
  352MPD2    C1 5271   2.760   1.232   1.303 -0.3304  0.2163 -0.3568
  352MPD2    C2 5272   2.722   1.101   1.343 -0.4407 -0.2425 -0.0894
  352MPD2    C3 5273   2.808   1.033   1.434  0.1059  0.0245  0.2384
  352MPD2    C4 5274   2.923   1.098   1.477  0.1180  0.4331  0.0178
  352MPD2    C5 5275   2.946   1.229   1.447 -0.0258  0.4130  0.2927
  352MPD2     H 5276   2.640   1.053   1.290 -0.8678 -2.0276  2.2008
  352MPD2    H1 5277   2.993   1.054   1.547 -0.5272  2.8618  2.2124
  352MPD2    H2 5278   2.892   1.397   1.325 -0.4839  1.4235  2.5600
  352MPD2    H3 5279   3.022   1.286   1.500 -0.2699  0.5707  0.4744
  352MPD2     N 5280   2.788   0.891   1.467  0.1358 -0.6699  0.3080
  352MPD2    H5 5281   2.861   0.850   1.524 -0.0882 -0.9639  0.3837
  352MPD2    N1 5282   2.691   1.311   1.206 -0.2887  0.4166  0.3464
  352MPD2    H7 5283   2.743   1.389   1.167  0.1174 -0.2480 -0.4739
  353TMC3    C1 5284   2.688   0.672   1.476  0.6908  0.3905 -0.8760
  353TMC3    C2 5285   2.812   0.613   1.504 -0.2275 -0.0637 -0.5962
  353TMC3    C3 5286   2.815   0.476   1.513  0.3063  0.3919 -1.0371
  353TMC3    C4 5287   2.579   0.588   1.453 -0.8109 -1.0209 -0.2517
  353TMC3    C5 5288   2.590   0.454   1.467  0.3155 -0.4419  0.3603
  353TMC3    C6 5289   2.703   0.396   1.507  0.2210 -0.0056 -0.5126
  353TMC3     C 5290   2.678   0.813   1.440 -0.2292 -0.1065  0.1963
  353TMC3     O 5291   2.565   0.847   1.405  0.3176  0.2054  0.2026
  353TMC3     H 5292   2.903   0.672   1.497 -0.1159 -0.0425  1.0203
  353TMC3    H1 5293   2.482   0.628   1.429 -1.5036 -1.9229  1.0616
  353TMC3    H2 5294   2.720   0.289   1.515 -2.2127 -0.4709 -1.4976
  353TMC3    C7 5295   2.487   0.366   1.421  0.0954 -0.0167 -0.2877
  353TMC3    C8 5296   2.946   0.417   1.508 -0.0983 -0.0227  0.8142
  353TMC3    O1 5297   2.517   0.247   1.407  0.8627 -0.1479  0.6259
  353TMC3    O2 5298   3.038   0.490   1.545  0.1437  0.7924 -0.1241
  354TMC3    C1 5299   4.503   2.089  13.353 -0.3657 -0.3195  0.2919
  354TMC3    C2 5300   4.595   2.189  13.389  0.2756  0.1092  0.4270
  354TMC3    C3 5301   4.680   2.234  13.301  0.6426  0.2373 -0.8768
  354TMC3    C4 5302   4.502   2.031  13.229 -0.4512 -0.5868  0.2751
  354TMC3    C5 5303   4.595   2.077  13.142  0.3363  0.2914  0.2001
  354TMC3    C6 5304   4.673   2.191  13.168  0.2199  0.2348  0.4372
  354TMC3     C 5305   4.450   2.007  13.464 -0.0533 -0.2110 -0.2802
  354TMC3     O 5306   4.364   1.922  13.436  0.0420  0.4035 -0.1533
  354TMC3     H 5307   4.601   2.229  13.489  1.1777  0.7619  0.1050
  354TMC3    H1 5308   4.444   1.943  13.201  1.1606 -1.7069  0.4618
  354TMC3    H2 5309   0.023   2.219  13.094 -1.2123  1.1926 -0.6341
  354TMC3    C7 5310   4.558   2.052  13.002  0.2537 -0.6483  0.0840
  354TMC3    C8 5311   0.020   2.366  13.331 -0.5779  0.7344 -0.0457
  354TMC3    O1 5312   4.516   1.940  12.972  0.1456 -0.0906 -0.3328
  354TMC3    O2 5313   0.028   2.398  13.447  0.4924 -0.0942  0.0834
  355MPD2     C 5314   4.346   2.797  11.803  0.2017 -0.1659 -0.1521
  355MPD2    C1 5315   4.388   2.800  11.674  0.5648 -0.3290  0.3004
  355MPD2    C2 5316   4.518   2.856  11.648 -0.5539 -0.0270  0.3175
  355MPD2    C3 5317   4.588   2.918  11.744  0.1959 -0.5612  0.3417
  355MPD2    C4 5318   4.544   2.898  11.873 -0.6129 -0.4591  0.1988
  355MPD2    C5 5319   4.424   2.842  11.904 -0.7495 -0.2918  0.1590
  355MPD2     H 5320   4.545   2.861  11.543  0.5611 -0.8236  0.5677
  355MPD2    H1 5321   4.596   2.950  11.952 -1.5913 -1.1107  1.2681
  355MPD2    H2 5322   4.246   2.762  11.824 -0.3427  0.3905 -1.8736
  355MPD2    H3 5323   4.375   2.850  12.000  2.1143 -4.3333  1.9725
  355MPD2     N 5324   4.702   3.002  11.727  0.1927 -0.1762 -0.0696
  355MPD2    H5 5325   0.014   3.049  11.810 -0.6343  1.2835 -0.5381
  355MPD2    N1 5326   4.304   2.740  11.578 -0.2399  0.1620 -0.3223
  355MPD2    H7 5327   4.221   2.693  11.613 -0.6096  0.1818 -1.1906
  356TMC3    C1 5328   0.149   3.115  11.598 -0.2129  0.4101 -0.4348
  356TMC3    C2 5329   0.217   3.111  11.480 -0.2729  0.1727  0.1544
  356TMC3    C3 5330   0.308   3.209  11.457 -0.8332 -0.1254  0.1871
  356TMC3    C4 5331   0.167   3.209  11.698  0.0838  0.0388 -0.7788
  356TMC3    C5 5332   0.268   3.299  11.680  0.3436  0.9458  0.3001
  356TMC3    C6 5333   0.338   3.298  11.554  0.2299  0.4646  0.3865
  356TMC3     C 5334   0.053   3.005  11.610 -0.4679  0.5423  0.1482
  356TMC3     O 5335   0.038   2.932  11.513 -0.2406  0.0826  0.1647
  356TMC3     H 5336   0.205   3.039  11.399  2.0067  0.4050 -0.3998
  356TMC3    H1 5337   0.106   3.204  11.787  0.9821  1.8757 -0.0494
  356TMC3    H2 5338   0.416   3.371  11.540  0.6147  0.0767  0.5351
  356TMC3    C7 5339   0.296   3.396  11.799 -0.2298 -0.3233  0.0168
  356TMC3    C8 5340   0.380   3.213  11.330 -0.3884 -0.2616  0.0216
  356TMC3    O1 5341   0.236   3.371  11.906  0.1154 -0.2215 -0.2157
  356TMC3    O2 5342   0.367   3.121  11.249  0.3833 -0.2606  0.1490
  357MPD2     C 5343   0.199   2.878   0.487 -0.2472 -0.5287 -0.2852
  357MPD2    C1 5344   0.162   2.768   0.557  0.8533  0.0015 -0.0781
  357MPD2    C2 5345   0.045   2.772   0.628  0.6305 -0.4715 -0.2526
  357MPD2    C3 5346   4.691   2.882   0.639  0.7116 -0.6489  0.1868
  357MPD2    C4 5347   0.005   2.993   0.565 -0.2278  0.3037  0.2763
  357MPD2    C5 5348   0.120   2.989   0.494 -0.2447 -0.6569  0.7256
  357MPD2     H 5349   0.016   2.678   0.674  1.0973  0.7887  2.6074
  357MPD2    H1 5350   4.676   3.088   0.559  0.7821  0.8135 -0.5812
  357MPD2    H2 5351   0.288   2.899   0.429 -0.5093  0.3623 -0.3672
  357MPD2    H3 5352   0.148   3.075   0.435 -0.6223 -0.4960  0.7788
  357MPD2     N 5353   4.565   2.882   0.705 -0.5225  0.8063 -1.0682
  357MPD2    H5 5354   4.493   2.951   0.685 -0.4983  1.3915  0.8346
  357MPD2    N1 5355   0.246   2.651   0.554  1.1128  0.6058  0.0392
  357MPD2    H7 5356   0.305   2.645   0.472 -0.2942 -0.7269 -0.8857
  358TMC3    C1 5357   0.300   2.429   0.602 -0.6161  0.0114  0.0861
  358TMC3    C2 5358   0.297   2.387   0.469  0.0869  0.0030  0.2926
  358TMC3    C3 5359   0.302   2.253   0.450 -1.2330 -0.1125  0.0805
  358TMC3    C4 5360   0.342   2.342   0.697  0.7295 -0.0294  0.4141
  358TMC3    C5 5361   0.377   2.209   0.665 -0.6112  0.5033 -0.3138
  358TMC3    C6 5362   0.347   2.159   0.541  0.9871  0.1065 -0.1937
  358TMC3     C 5363   0.232   2.542   0.635  0.4865 -1.2686  0.3558
  358TMC3     O 5364   0.175   2.522   0.741 -0.3348  0.3153  0.0865
  358TMC3     H 5365   0.250   2.452   0.397 -0.4485  0.9917  1.5342
  358TMC3    H1 5366   0.352   2.386   0.796  0.3981  0.0162  0.4294
  358TMC3    H2 5367   0.384   2.063   0.507 -0.0914 -0.2176 -0.4586
  358TMC3    C7 5368   0.482   2.148   0.739  0.1993  0.2363  0.5597
  358TMC3    C8 5369   0.310   2.216   0.310  0.0355  0.4119  0.0529
  358TMC3    O1 5370   0.558   2.074   0.677  0.2796  0.3259  0.3404
  358TMC3    O2 5371   0.293   2.306   0.231  0.3525  0.3991 -0.5265
  359MPD2     C 5372   0.048   1.909  12.193  0.3007  0.2824  0.5368
  359MPD2    C1 5373   0.116   1.806  12.261  0.6937  0.3785  0.2768
  359MPD2    C2 5374   0.047   1.706  12.331  0.3750 -0.4487 -0.0433
  359MPD2    C3 5375   4.633   1.717  12.342 -0.2517 -0.4290  0.8369
  359MPD2    C4 5376   4.569   1.817  12.268  0.6473 -0.2157  0.1792
  359MPD2    C5 5377   4.640   1.914  12.203  0.0880  0.4002 -0.2900
  359MPD2     H 5378   0.100   1.626  12.382  0.6980  0.4441  1.0160
  359MPD2    H1 5379   4.461   1.822  12.275  0.7129 -0.6037  1.5836
  359MPD2    H2 5380   0.100   1.988  12.138  1.7448 -0.7710  0.4042
  359MPD2    H3 5381   4.590   1.998  12.157  0.2991  0.5994 -0.1534
  359MPD2     N 5382   4.554   1.621  12.408 -0.4324 -0.2175 -0.5328
  359MPD2    H5 5383   4.453   1.629  12.402 -0.3729  0.3768 -0.7484
  359MPD2    N1 5384   0.254   1.788  12.250 -0.7784  0.4767 -0.2008
  359MPD2    H7 5385   0.297   1.719  12.310  1.6200  1.9624 -0.2295
  360TMC3    C1 5386   0.478   1.795  12.181  0.5564 -0.3761 -0.8927
  360TMC3    C2 5387   0.574   1.888  12.151 -0.1191 -0.4173 -0.2469
  360TMC3    C3 5388   0.682   1.857  12.076  0.0712  0.7287 -0.4584
  360TMC3    C4 5389   0.491   1.666  12.144  0.2866 -0.2829 -0.3998
  360TMC3    C5 5390   0.610   1.631  12.074  0.2702 -0.6004  0.0965
  360TMC3    C6 5391   0.700   1.728  12.045 -0.0828 -0.1329 -0.2503
  360TMC3     C 5392   0.340   1.846  12.158 -0.7994 -0.1783  0.1420
  360TMC3     O 5393   0.325   1.938  12.080 -0.0612 -0.6083 -0.2579
  360TMC3     H 5394   0.549   1.993  12.163  2.5816  0.1580  0.4785
  360TMC3    H1 5395   0.406   1.601  12.157 -1.6837  2.1875 -0.9018
  360TMC3    H2 5396   0.793   1.700  11.997  0.2123 -1.5382  1.1356
  360TMC3    C7 5397   0.606   1.524  11.983 -0.5543  0.0550 -0.2381
  360TMC3    C8 5398   0.747   1.974  12.015  0.6070  0.4857 -0.0649
  360TMC3    O1 5399   0.693   1.521  11.895  0.0549 -0.1556  0.2378
  360TMC3    O2 5400   0.710   2.090  12.042 -0.3422 -0.2546 -0.4811
  361MPD2     C 5401   1.876   0.112  16.883 -0.1585  0.8854  0.6274
  361MPD2    C1 5402   1.901   0.217  16.970 -0.4137  0.0073  0.3922
  361MPD2    C2 5403   2.024   0.222  17.037  0.1964 -0.1544  0.6121
  361MPD2    C3 5404   2.126   0.134  17.003  0.1894  0.2361 -0.2449
  361MPD2    C4 5405   2.102   0.032  16.914  0.1683 -0.0085 -0.2795
  361MPD2    C5 5406   1.974   0.018  16.863  0.4028 -0.4775  0.1686
  361MPD2     H 5407   2.032   0.285  17.125  1.7143 -0.4265  0.6599
  361MPD2    H1 5408   2.175   4.682  16.883  0.2856  0.4974 -1.2400
  361MPD2    H2 5409   1.781   0.110  16.831  1.6289 -0.4053 -2.5687
  361MPD2    H3 5410   1.958   4.653  16.802  1.3134 -0.0200 -0.7401
  361MPD2     N 5411   2.248   0.128  17.061 -0.7201  0.6998  0.0964
  361MPD2    H5 5412   2.321   0.064  17.033 -1.1145 -0.4882  1.7519
  361MPD2    N1 5413   1.807   0.315  17.010 -0.2629 -0.2693  0.3777
  361MPD2    H7 5414   1.826   0.386  17.079 -0.7198 -0.4168  0.6599
  362TMC3    C1 5415   1.632   0.463  16.979 -0.3212  0.4921 -0.5416
  362TMC3    C2 5416   1.588   0.460  17.107  0.4754 -0.0438  0.2080
  362TMC3    C3 5417   1.510   0.560  17.155  1.0578  0.2068  0.4985
  362TMC3    C4 5418   1.580   0.554  16.890 -0.4740 -0.1078 -0.2882
  362TMC3    C5 5419   1.513   0.662  16.944  0.4670  0.2248 -0.2050
  362TMC3    C6 5420   1.473   0.663  17.075  0.3602 -0.1010 -0.2124
  362TMC3     C 5421   1.702   0.343  16.926 -0.0312 -0.1939  0.0894
  362TMC3     O 5422   1.683   0.310  16.813  0.4926  0.3258  0.2906
  362TMC3     H 5423   1.620   0.378  17.170 -0.1802  0.4177  1.1313
  362TMC3    H1 5424   1.609   0.533  16.787 -2.1151  1.2227 -1.0194
  362TMC3    H2 5425   1.407   0.741  17.110  0.0503  0.4665 -2.0471
  362TMC3    C7 5426   1.506   0.777  16.858  0.4197  0.1774  0.2670
  362TMC3    C8 5427   1.430   0.531  17.274  0.1007 -0.6492 -0.2750
  362TMC3    O1 5428   1.439   0.872  16.894  0.4277 -0.0751 -0.2657
  362TMC3    O2 5429   1.421   0.416  17.320 -0.3017 -0.2439 -0.4939
  363TMC3    C1 5430   0.414   3.093   9.476  0.4391 -0.1725  0.7072
  363TMC3    C2 5431   0.419   2.996   9.570 -0.2766 -0.4965  0.2506
  363TMC3    C3 5432   0.302   2.947   9.618  0.3445 -0.6507  0.3668
  363TMC3    C4 5433   0.292   3.146   9.444  0.2177  0.1255 -0.2506
  363TMC3    C5 5434   0.174   3.099   9.502 -0.0546  0.6374 -0.0254
  363TMC3    C6 5435   0.181   2.997   9.587  0.0224 -1.1391 -0.4040
  363TMC3     C 5436   0.517   3.117   9.383 -0.2934  0.1608  0.6177
  363TMC3     O 5437   0.511   3.218   9.314  0.6614  0.4448  0.6169
  363TMC3     H 5438   0.516   2.961   9.605 -0.1432  1.6039  1.9698
  363TMC3    H1 5439   0.292   3.225   9.370  1.9458  0.9498  0.6451
  363TMC3    H2 5440   0.099   2.964   9.650  0.1717 -1.3967 -0.3435
  363TMC3    C7 5441   0.045   3.168   9.480  0.1574  0.7075 -0.5562
  363TMC3    C8 5442   0.290   2.859   9.733 -0.3701  0.4294 -0.7157
  363TMC3    O1 5443   0.059   3.277   9.428 -0.2609  0.1187 -0.4589
  363TMC3    O2 5444   0.193   2.872   9.807 -0.5503  0.9134 -0.2183
  364MPD2     C 5445   3.747   1.990  10.997 -0.3982 -0.0772 -0.3430
  364MPD2    C1 5446   3.825   1.941  10.894  1.5168  0.5313 -0.5054
  364MPD2    C2 5447   3.899   1.823  10.921 -0.4816  0.0692 -0.2537
  364MPD2    C3 5448   3.875   1.750  11.039 -0.2471  0.1200 -0.5637
  364MPD2    C4 5449   3.783   1.795  11.131 -0.0563 -0.8462 -0.2671
  364MPD2    C5 5450   3.720   1.915  11.108  0.9457 -0.3819 -0.5909
  364MPD2     H 5451   3.964   1.790  10.841  1.2958 -0.2074  1.3036
  364MPD2    H1 5452   3.758   1.750  11.226  0.7541  1.7892  1.2038
  364MPD2    H2 5453   3.699   2.086  10.982 -1.5494 -0.7940 -1.2085
  364MPD2    H3 5454   3.648   1.946  11.182  1.7911  1.4681 -0.5508
  364MPD2     N 5455   3.946   1.632  11.071 -0.2451 -0.2490 -0.3399
  364MPD2    H5 5456   3.914   1.589  11.157  1.5005 -0.0912  0.3927
  364MPD2    N1 5457   3.828   2.010  10.767 -0.4267 -0.4787 -0.7732
  364MPD2    H7 5458   3.774   2.096  10.767 -1.0570 -0.8600  2.3210
  365TMC3    C1 5459   3.904   2.067  10.552  0.3991 -0.5834 -0.1142
  365TMC3    C2 5460   3.954   2.020  10.433  0.1750 -0.0618 -0.4186
  365TMC3    C3 5461   3.971   2.113  10.330 -0.7396  0.5186  0.6851
  365TMC3    C4 5462   3.881   2.200  10.573 -0.2597  0.2615  0.8867
  365TMC3    C5 5463   3.906   2.288  10.471 -0.0629 -0.1923 -1.4253
  365TMC3    C6 5464   3.943   2.243  10.350  0.4787  0.4692  0.0340
  365TMC3     C 5465   3.903   1.968  10.658 -0.0720  0.0741 -0.1216
  365TMC3     O 5466   3.972   1.868  10.636  0.1915 -0.0423  0.8161
  365TMC3     H 5467   3.979   1.915  10.431  1.5419  0.2765 -1.1949
  365TMC3    H1 5468   3.838   2.238  10.665  1.2363 -1.2225  2.2115
  365TMC3    H2 5469   3.963   2.315  10.272  0.6975 -1.0295 -1.2902
  365TMC3    C7 5470   3.913   2.430  10.491  0.2583  0.6311  0.2732
  365TMC3    C8 5471   4.032   2.079  10.205  0.0770 -0.3091  0.5760
  365TMC3    O1 5472   3.901   2.511  10.397  0.0794  0.1132  0.2233
  365TMC3    O2 5473   4.051   2.165  10.123 -0.2392 -0.0019 -0.1480
  366MPD2     C 5474   2.793   3.466  15.060  0.7204  0.4253  0.0382
  366MPD2    C1 5475   2.793   3.528  15.188  0.0745  0.0783 -0.7334
  366MPD2    C2 5476   2.911   3.588  15.222 -0.3013 -0.4456  0.1391
  366MPD2    C3 5477   3.021   3.602  15.134 -0.1493 -0.0885 -0.0337
  366MPD2    C4 5478   3.014   3.545  15.012  0.5827  0.1342 -0.3978
  366MPD2    C5 5479   2.901   3.475  14.982  0.2321 -0.5661 -0.2093
  366MPD2     H 5480   2.919   3.631  15.321  0.3280  1.4632 -0.7378
  366MPD2    H1 5481   3.079   3.561  14.927  1.8379  0.6221  0.6630
  366MPD2    H2 5482   2.700   3.428  15.019  1.9501 -0.3228 -2.0266
  366MPD2    H3 5483   2.890   3.439  14.881  0.3643 -0.7710 -0.1493
  366MPD2     N 5484   3.126   3.690  15.176 -0.3372 -0.3887  0.0142
  366MPD2    H5 5485   3.114   3.724  15.271  0.7978 -2.8594  1.0371
  366MPD2    N1 5486   2.692   3.539  15.283  0.3680 -0.3637  0.3080
  366MPD2    H7 5487   2.725   3.575  15.372  0.2888 -1.8259  0.9280
  367TMC3    C1 5488   2.483   3.587  15.380  0.3934  0.3443 -0.0430
  367TMC3    C2 5489   2.562   3.649  15.471 -0.1527  0.2898 -0.3089
  367TMC3    C3 5490   2.522   3.772  15.510 -0.5044  0.2263  0.1297
  367TMC3    C4 5491   2.364   3.640  15.337 -0.7908  0.7537 -0.5261
  367TMC3    C5 5492   2.322   3.756  15.383 -0.3808  0.1718 -0.6469
  367TMC3    C6 5493   2.400   3.831  15.464  0.2728 -0.1485  0.4426
  367TMC3     C 5494   2.555   3.512  15.273 -0.0625  0.8796 -0.4310
  367TMC3     O 5495   2.493   3.472  15.176  0.2815 -0.1273 -0.5756
  367TMC3     H 5496   2.643   3.605  15.528 -0.5525 -1.5737 -1.2091
  367TMC3    H1 5497   2.313   3.579  15.263 -0.3861  1.1196 -1.1026
  367TMC3    H2 5498   2.367   3.929  15.494  1.0594  0.8157 -1.8963
  367TMC3    C7 5499   2.229   3.831  15.313 -0.2379 -0.1648 -0.3930
  367TMC3    C8 5500   2.629   3.861  15.556  0.2793 -0.1756 -0.2582
  367TMC3    O1 5501   2.254   3.949  15.298  0.1362  0.6021 -0.2510
  367TMC3    O2 5502   2.741   3.828  15.527  0.5009 -0.1463  0.5823
  368MPD2     C 5503   2.968   1.005  13.320 -0.3197 -0.3511  0.5650
  368MPD2    C1 5504   2.963   1.120  13.246 -0.4018 -0.7117  0.1740
  368MPD2    C2 5505   3.084   1.168  13.195  0.0954  0.1882  0.4997
  368MPD2    C3 5506   3.201   1.103  13.222 -0.0476 -0.0166  0.1594
  368MPD2    C4 5507   3.203   0.987  13.299 -0.1840 -0.7405 -0.7820
  368MPD2    C5 5508   3.083   0.937  13.348 -0.4245 -0.1562  0.3561
  368MPD2     H 5509   3.082   1.248  13.121 -0.6315  1.0536  1.4466
  368MPD2    H1 5510   3.297   0.934  13.312 -0.5966 -1.1539  0.5542
  368MPD2    H2 5511   2.875   0.969  13.363  0.9117 -2.9836  1.0526
  368MPD2    H3 5512   3.089   0.850  13.413 -1.3436 -0.5401 -0.0650
  368MPD2     N 5513   3.332   1.140  13.172 -0.1538  0.0417 -0.3547
  368MPD2    H5 5514   3.405   1.073  13.193 -0.5313 -0.2392  0.0449
  368MPD2    N1 5515   2.835   1.180  13.233 -0.0686 -0.9437  0.3006
  368MPD2    H7 5516   2.755   1.118  13.242 -0.8112  0.0281  0.5092
  369TMC3    C1 5517   2.687   1.333  13.122  0.8156  0.4412 -0.0953
  369TMC3    C2 5518   2.666   1.390  13.004  0.3604 -0.0768  0.3884
  369TMC3    C3 5519   2.542   1.367  12.945 -0.2479 -0.6480  0.6853
  369TMC3    C4 5520   2.589   1.262  13.192 -0.7121  0.1686  0.1120
  369TMC3    C5 5521   2.458   1.277  13.145 -0.0638  0.3178  0.3810
  369TMC3    C6 5522   2.436   1.328  13.022  0.4391 -0.2328 -0.2333
  369TMC3     C 5523   2.824   1.294  13.155  0.6498 -0.0649 -0.1168
  369TMC3     O 5524   2.898   1.381  13.124  0.2341 -0.9762  0.2966
  369TMC3     H 5525   2.753   1.421  12.947  0.8383 -0.6924  0.7687
  369TMC3    H1 5526   2.610   1.211  13.286  1.6276 -0.2274 -0.6444
  369TMC3    H2 5527   2.332   1.348  12.997  0.6446  1.7984  0.5625
  369TMC3    C7 5528   2.348   1.197  13.198  0.9743  0.1139  0.3739
  369TMC3    C8 5529   2.529   1.432  12.815 -0.4910 -0.6986 -0.4239
  369TMC3    O1 5530   2.378   1.154  13.306 -0.1675 -0.3657  0.9828
  369TMC3    O2 5531   2.634   1.471  12.771  0.0439 -0.4664  0.2992
  370TMC3    C1 5532   2.824   1.483  16.494  0.7028 -0.3793 -0.0701
  370TMC3    C2 5533   2.765   1.465  16.616  0.3196 -0.3214  0.4216
  370TMC3    C3 5534   2.639   1.407  16.613 -0.1495 -0.1747 -0.5432
  370TMC3    C4 5535   2.761   1.456  16.377 -0.8354  0.0859 -0.7873
  370TMC3    C5 5536   2.639   1.393  16.382  0.0410 -0.8190 -0.0924
  370TMC3    C6 5537   2.580   1.369  16.498  0.0465 -0.5719  0.3443
  370TMC3     C 5538   2.955   1.547  16.495  0.8197  0.1548 -0.2990
  370TMC3     O 5539   3.037   1.514  16.578 -0.9456  0.2221 -0.0777
  370TMC3     H 5540   2.825   1.473  16.706 -1.4022  0.2606  1.5180
  370TMC3    H1 5541   2.804   1.478  16.280  0.3699  0.9619 -0.0538
  370TMC3    H2 5542   2.485   1.318  16.491 -0.8924  1.2785 -0.4924
  370TMC3    C7 5543   2.589   1.311  16.275 -0.1179 -0.4064 -0.4025
  370TMC3    C8 5544   2.607   1.314  16.720  0.4247 -0.1763 -1.0807
  370TMC3    O1 5545   2.470   1.299  16.265 -0.3958 -0.3505 -0.0824
  370TMC3    O2 5546   2.552   1.210  16.686 -0.4173 -0.0557 -0.4177
  371TMC3    C1 5547   4.017   4.578  15.599  0.0262  0.3980  0.6249
  371TMC3    C2 5548   3.886   4.566  15.645  0.2862 -0.3147  0.2353
  371TMC3    C3 5549   3.824   4.675  15.678  0.2093 -0.0080 -0.4042
  371TMC3    C4 5550   4.085   4.691  15.590 -0.1578 -0.3422 -0.0041
  371TMC3    C5 5551   4.014   0.079  15.623 -0.1911  0.0632  0.4854
  371TMC3    C6 5552   3.883   0.076  15.671 -0.1904 -0.2251 -0.5515
  371TMC3     C 5553   4.104   4.469  15.573  0.1152  0.2026  0.7485
  371TMC3     O 5554   4.223   4.479  15.600 -0.1786 -0.3645  0.8052
  371TMC3     H 5555   3.840   4.468  15.654  1.7832 -1.0313  0.0629
  371TMC3    H1 5556   4.183   4.689  15.546 -0.1753  1.4170 -0.1306
  371TMC3    H2 5557   3.819   0.163  15.679  1.0886  0.8027 -1.5008
  371TMC3    C7 5558   4.089   0.215  15.628  0.7566 -0.1259 -0.4113
  371TMC3    C8 5559   3.687   4.658  15.709 -0.1047 -0.6443  0.2366
  371TMC3    O1 5560   4.015   0.316  15.632 -0.1953 -0.3843  0.0259
  371TMC3    O2 5561   3.649   4.542  15.704  0.4484  0.1100 -0.3904
  372MPD2     C 5562   4.147   1.198  13.710  0.0392 -0.0165  0.1944
  372MPD2    C1 5563   4.244   1.117  13.742  0.3309  0.3134  0.3636
  372MPD2    C2 5564   4.208   0.982  13.765  0.7928  0.3469 -0.2030
  372MPD2    C3 5565   4.077   0.937  13.753 -0.6133  0.2781 -0.1122
  372MPD2    C4 5566   3.981   1.027  13.713  0.1184 -0.3523  0.7050
  372MPD2    C5 5567   4.015   1.157  13.694  0.0242 -0.5688 -0.1041
  372MPD2     H 5568   4.290   0.911  13.773  0.4572  0.2375  2.0504
  372MPD2    H1 5569   3.877   1.004  13.695 -0.7720  3.3981  0.9107
  372MPD2    H2 5570   4.157   1.305  13.698  0.7068  0.0103  0.9593
  372MPD2    H3 5571   3.945   1.230  13.654 -1.5498 -2.2317 -0.3793
  372MPD2     N 5572   4.044   0.800  13.776 -0.3419  0.1013  0.2323
  372MPD2    H5 5573   4.118   0.734  13.801 -0.4138  0.4078  1.2531
  372MPD2    N1 5574   4.378   1.154  13.740  0.2807 -0.6905 -0.5410
  372MPD2    H7 5575   4.448   1.084  13.764 -0.1366 -1.7724 -2.4562
  373TMC3    C1 5576   3.933   0.611  13.814  0.2361 -0.0085  1.3530
  373TMC3    C2 5577   3.864   0.571  13.927  0.2900  0.3936  0.5248
  373TMC3    C3 5578   3.901   0.455  13.979 -0.0007 -0.9857 -0.2437
  373TMC3    C4 5579   4.034   0.537  13.754  0.0684 -0.4143 -0.8202
  373TMC3    C5 5580   4.054   0.410  13.807  0.1876  0.1305 -0.4859
  373TMC3    C6 5581   3.988   0.361  13.921  0.1171 -0.8145 -0.2795
  373TMC3     C 5582   3.919   0.750  13.787  0.0493 -0.9832  0.6441
  373TMC3     O 5583   3.814   0.809  13.813 -0.3301  0.6844  0.0192
  373TMC3     H 5584   3.791   0.630  13.981 -2.8751 -1.0445 -2.1932
  373TMC3    H1 5585   4.079   0.571  13.662  1.2342 -2.1598 -0.8991
  373TMC3    H2 5586   3.988   0.257  13.952  1.0781 -1.0009 -0.8841
  373TMC3    C7 5587   4.136   0.324  13.723  0.1545 -1.1503 -0.8781
  373TMC3    C8 5588   3.860   0.430  14.118  0.2560 -0.0124  0.2275
  373TMC3    O1 5589   4.106   0.342  13.609  0.6005  0.1009 -0.2059
  373TMC3    O2 5590   3.761   0.484  14.167  0.1790  0.1936  0.8416
  374TMC3    C1 5591   4.288   0.552   9.929 -0.4655 -0.8272  0.3233
  374TMC3    C2 5592   4.379   0.658   9.918 -0.5454 -0.1798  0.1595
  374TMC3    C3 5593   4.317   0.777   9.921  0.8388  0.7488 -0.1269
  374TMC3    C4 5594   4.155   0.569   9.943  0.4519  0.5244 -0.5557
  374TMC3    C5 5595   4.100   0.697   9.957 -0.3983 -0.2629  0.0230
  374TMC3    C6 5596   4.182   0.803   9.947 -0.0277  0.3329  0.1153
  374TMC3     C 5597   4.337   0.426   9.976 -0.3027  0.0706  0.3676
  374TMC3     O 5598   4.252   0.340   9.985 -0.0184  0.1019  0.6414
  374TMC3     H 5599   4.483   0.655   9.890 -0.0881  2.4566  1.6516
  374TMC3    H1 5600   4.087   0.487   9.926  1.9550 -1.2548  1.9974
  374TMC3    H2 5601   4.161   0.908   9.965 -2.3083 -0.4462  1.8348
  374TMC3    C7 5602   3.967   0.711  10.006 -0.1367  0.3770  0.4699
  374TMC3    C8 5603   4.399   0.898   9.906  0.3632 -0.2757  0.2951
  374TMC3    O1 5604   3.923   0.603  10.042  0.3834  0.5967 -0.6381
  374TMC3    O2 5605   4.350   0.981   9.828  0.0773  0.3615  0.8621
  375MPD2     C 5606   4.263   1.940  17.296  0.0660  0.1435 -0.0363
  375MPD2    C1 5607   4.229   2.007  17.178  0.3552 -0.1361 -0.0574
  375MPD2    C2 5608   4.315   2.018  17.067  0.7995  0.0582 -0.9044
  375MPD2    C3 5609   4.438   1.951  17.073  0.5256  0.1916  0.4155
  375MPD2    C4 5610   4.482   1.902  17.193  0.0733 -0.0226 -0.4391
  375MPD2    C5 5611   4.393   1.897  17.301 -0.4996  0.4370  0.8519
  375MPD2     H 5612   4.274   2.071  16.982  0.4838  0.3404 -0.5785
  375MPD2    H1 5613   4.582   1.863  17.202 -0.6452 -1.5934  0.8643
  375MPD2    H2 5614   4.192   1.932  17.378  0.2091 -1.0157 -0.0208
  375MPD2    H3 5615   4.434   1.854  17.392  1.2832 -1.2032 -0.7179
  375MPD2     N 5616   4.536   1.953  16.969  0.7263 -0.1772  0.0153
  375MPD2    H5 5617   4.624   1.904  16.984  1.0340  0.6919  1.0872
  375MPD2    N1 5618   4.104   2.061  17.149  0.6584  0.1261 -0.3333
  375MPD2    H7 5619   4.100   2.099  17.055  2.0129  2.9592  0.7436
  376TMC3    C1 5620   4.595   1.922  16.750  0.2088  0.0680  0.4832
  376TMC3    C2 5621   4.712   1.858  16.785  0.7132  0.3397 -0.1643
  376TMC3    C3 5622   0.037   1.772  16.693  0.0192  0.2037  0.1052
  376TMC3    C4 5623   4.539   1.900  16.625  0.3629 -0.3652  0.5203
  376TMC3    C5 5624   4.591   1.814  16.534 -0.1493  0.5097  0.6142
  376TMC3    C6 5625   4.703   1.748  16.570  0.7270 -0.4222 -0.2434
  376TMC3     C 5626   4.514   1.994  16.844  0.8665  0.1871 -0.4180
  376TMC3     O 5627   4.406   2.036  16.801  0.4056  0.0610  0.1542
  376TMC3     H 5628   0.047   1.879  16.873 -1.0545 -0.4033  1.1745
  376TMC3    H1 5629   4.457   1.963  16.593  2.1956  2.3556  1.1341
  376TMC3    H2 5630   0.035   1.687  16.500  0.9168 -0.7659  0.2044
  376TMC3    C7 5631   4.538   1.812  16.396 -0.3929 -0.2697 -0.1204
  376TMC3    C8 5632   0.159   1.708  16.725 -0.7231  0.0625 -0.1174
  376TMC3    O1 5633   4.462   1.903  16.364 -0.4211  0.3683  0.2538
  376TMC3    O2 5634   0.174   1.653  16.835 -0.2453 -0.0992 -0.0212
  377MPD2     C 5635   2.025   1.148  12.234 -0.3542 -0.0998  0.1708
  377MPD2    C1 5636   2.086   1.112  12.351 -0.3507 -0.1526 -0.2574
  377MPD2    C2 5637   2.019   1.029  12.441 -0.2432  0.5356  0.4358
  377MPD2    C3 5638   1.890   0.985  12.404 -0.2534  0.3798  0.0413
  377MPD2    C4 5639   1.818   1.051  12.299  0.4253 -0.3762  0.4415
  377MPD2    C5 5640   1.895   1.123  12.210  0.4309 -0.0739 -0.2871
  377MPD2     H 5641   2.069   0.974  12.519  0.6326 -1.1630 -1.3227
  377MPD2    H1 5642   1.712   1.039  12.280  0.2403  1.1038  0.5625
  377MPD2    H2 5643   2.080   1.209  12.163  1.6958 -2.6897 -0.4262
  377MPD2    H3 5644   1.851   1.186  12.133  0.6515  1.3546  0.7625
  377MPD2     N 5645   1.820   0.899  12.493 -0.2391  0.1467  0.5236
  377MPD2    H5 5646   1.718   0.893  12.496 -0.2643  0.4476  0.2445
  377MPD2    N1 5647   2.221   1.144  12.371  0.1899 -0.3060 -0.0209
  377MPD2    H7 5648   2.265   1.191  12.292 -0.9565  0.0145 -0.4606
  378TMC3    C1 5649   2.615   1.262  12.337 -0.4480  0.3188 -0.1154
  378TMC3    C2 5650   2.479   1.238  12.355 -0.4862 -0.2865  0.3661
  378TMC3    C3 5651   2.431   1.193  12.479  0.4364  0.7080 -0.2939
  378TMC3    C4 5652   2.704   1.238  12.438  1.0304  0.5061 -0.3637
  378TMC3    C5 5653   2.653   1.191  12.559 -0.6100  0.4879 -0.3963
  378TMC3    C6 5654   2.516   1.168  12.577  0.2827 -0.1030  0.2283
  378TMC3     C 5655   2.655   1.306  12.208  0.6137  0.0661  0.1937
  378TMC3     O 5656   2.577   1.369  12.138 -0.1550  0.3485 -0.2099
  378TMC3     H 5657   2.412   1.263  12.273  1.1678 -0.3944 -1.0274
  378TMC3    H1 5658   2.808   1.265  12.424  0.8690 -0.0281 -2.6614
  378TMC3    H2 5659   2.478   1.132  12.672  1.4486 -1.6899  0.0882
  378TMC3    C7 5660   2.742   1.162  12.666  0.3644 -0.3712  0.3331
  378TMC3    C8 5661   2.297   1.126  12.484  0.1268  0.8115 -0.0574
  378TMC3    O1 5662   2.690   1.134  12.773  0.5416 -0.0774 -0.0317
  378TMC3    O2 5663   2.264   1.093  12.595 -0.1587 -0.3283  0.5274
  379MPD2     C 5664   3.876   4.347  15.904 -0.3314 -0.3463 -0.6620
  379MPD2    C1 5665   3.761   4.280  15.944  0.4679  0.1746  0.5101
  379MPD2    C2 5666   3.776   4.159  16.010  0.1624  0.1169 -0.0788
  379MPD2    C3 5667   3.895   4.105  16.039  0.8193  0.5659 -0.1265
  379MPD2    C4 5668   4.006   4.183  16.011  0.0596 -0.0131  0.1110
  379MPD2    C5 5669   3.995   4.305  15.952 -0.9839  0.6010  0.6959
  379MPD2     H 5670   3.687   4.107  16.044  0.4503  0.6160  1.4666
  379MPD2    H1 5671   4.105   4.146  16.037  0.2002  0.5355  0.3502
  379MPD2    H2 5672   3.863   4.450  15.873  1.3986  0.4913  1.3757
  379MPD2    H3 5673   4.080   4.371  15.937  0.6793 -2.3160 -2.8165
  379MPD2     N 5674   3.911   3.970  16.081 -0.0873  0.5428  0.5153
  379MPD2    H5 5675   3.998   3.929  16.049 -1.4295 -0.6836 -1.5792
  379MPD2    N1 5676   3.637   4.325  15.895 -0.3190 -0.2071 -0.2612
  379MPD2    H7 5677   3.640   4.404  15.832 -0.3371  0.7140  0.8901
  380TMC3    C1 5678   3.413   4.324  15.831  0.2579 -0.6478  0.2906
  380TMC3    C2 5679   3.453   4.320  15.697 -0.2887  0.2262  0.3801
  380TMC3    C3 5680   3.350   4.311  15.613 -0.2305 -0.6741  0.8556
  380TMC3    C4 5681   3.283   4.325  15.871  0.1256  0.1780  0.3506
  380TMC3    C5 5682   3.187   4.321  15.774 -0.0462 -0.6863  0.3654
  380TMC3    C6 5683   3.218   4.311  15.641 -0.1909 -0.1492  0.0992
  380TMC3     C 5684   3.516   4.283  15.930 -0.5748  0.0464  0.0505
  380TMC3     O 5685   3.479   4.224  16.033 -0.0414  0.0953  0.5759
  380TMC3     H 5686   3.558   4.307  15.673 -0.4941  0.7364 -0.8077
  380TMC3    H1 5687   3.256   4.330  15.976 -1.1008 -1.2145  0.1078
  380TMC3    H2 5688   3.145   4.298  15.562 -0.1502  0.3809 -0.0255
  380TMC3    C7 5689   3.049   4.320  15.818  0.2993  0.3059  0.1685
  380TMC3    C8 5690   3.393   4.295  15.475  0.4477  0.1206  0.0715
  380TMC3    O1 5691   3.033   4.387  15.920 -0.2121 -0.0099  0.3239
  380TMC3    O2 5692   3.511   4.265  15.463 -0.0802  0.4951 -0.2822
  381TMC3    C1 5693   2.516   0.514  16.102  0.5807  0.1585 -0.2874
  381TMC3    C2 5694   2.615   0.610  16.115  0.1922  0.1730  0.7082
  381TMC3    C3 5695   2.643   0.671  16.237  0.6931 -0.6371  0.5140
  381TMC3    C4 5696   2.424   0.493  16.203 -0.6864  0.5317 -0.6832
  381TMC3    C5 5697   2.456   0.548  16.321  0.5387  0.0537 -0.7615
  381TMC3    C6 5698   2.559   0.634  16.343  0.9766  0.1092 -0.1396
  381TMC3     C 5699   2.461   0.500  15.972 -0.1882 -0.0747  1.1423
  381TMC3     O 5700   2.538   0.511  15.876 -0.4692  0.2458  0.9076
  381TMC3     H 5701   2.673   0.642  16.029  0.2109  0.0107  0.6600
  381TMC3    H1 5702   2.338   0.426  16.204 -0.7874  0.6850  0.9546
  381TMC3    H2 5703   2.589   0.665  16.442  3.4331  1.1436 -1.1983
  381TMC3    C7 5704   2.374   0.502  16.433  0.1727  0.2716 -0.0857
  381TMC3    C8 5705   2.753   0.760  16.257 -0.0287 -0.0968  0.4678
  381TMC3    O1 5706   2.298   0.408  16.416 -0.6095 -0.3038  0.3718
  381TMC3    O2 5707   2.838   0.742  16.167 -0.0994  0.5634 -0.2005
  382MPD2     C 5708   2.718   3.008  17.534 -0.2132 -1.0824  0.1971
  382MPD2    C1 5709   2.654   2.998  17.654  0.0725 -0.3888  0.6164
  382MPD2    C2 5710   2.576   2.892  17.678  0.1701  0.6444  0.4310
  382MPD2    C3 5711   2.556   2.795  17.582  0.0378  0.6737  0.2314
  382MPD2    C4 5712   2.611   2.806  17.461  0.6850  0.0527  0.6068
  382MPD2    C5 5713   2.691   2.912  17.441 -0.7513  0.5898 -0.2747
  382MPD2     H 5714   2.519   2.889   0.074 -0.3101  0.1269  0.1162
  382MPD2    H1 5715   2.611   2.738  17.377 -5.4179  0.0742  0.6088
  382MPD2    H2 5716   2.780   3.089  17.497 -1.1956  0.4724  1.9145
  382MPD2    H3 5717   2.733   2.939  17.344  1.7506  1.4429  1.0568
  382MPD2     N 5718   2.445   2.703  17.601  0.3612  0.2873 -0.3046
  382MPD2    H5 5719   2.399   2.718  17.690 -0.4251  0.9113 -0.8139
  382MPD2    N1 5720   2.663   3.101   0.054  0.1510 -0.1257 -0.0933
  382MPD2    H7 5721   2.638   3.064   0.145  1.2066  3.2491  1.5712
  383TMC3    C1 5722   2.280   2.564  17.550  0.2970  0.4754 -0.2548
  383TMC3    C2 5723   2.249   2.436  17.512 -0.6210 -0.3530 -0.1997
  383TMC3    C3 5724   2.113   2.405  17.517 -0.2490  0.0352 -0.5770
  383TMC3    C4 5725   2.189   2.654  17.598 -0.3084 -0.2420 -0.4384
  383TMC3    C5 5726   2.057   2.623  17.594  0.6180 -0.2221  0.0087
  383TMC3    C6 5727   2.019   2.502  17.549  0.3171  0.3557 -0.4464
  383TMC3     C 5728   2.412   2.603  17.512 -0.0740  0.2644 -0.0359
  383TMC3     O 5729   2.465   2.553  17.416  0.1364 -0.4417  0.0364
  383TMC3     H 5730   2.329   2.370  17.480  2.9937  4.3940 -0.8998
  383TMC3    H1 5731   2.220   2.755  17.622 -1.7537  0.3395 -1.0489
  383TMC3    H2 5732   1.913   2.480  17.548  0.2620  0.6012  0.9545
  383TMC3    C7 5733   1.960   2.701  17.667 -0.2992  0.2091 -0.9212
  383TMC3    C8 5734   2.083   2.267  17.479 -0.1203  0.1429 -0.6138
  383TMC3    O1 5735   1.842   2.673  17.651  0.0133 -0.5197  0.4531
  383TMC3    O2 5736   2.162   2.182  17.522  0.0394 -0.2876 -0.1644
  384MPD2     C 5737   3.718   4.153  12.076 -0.6656 -0.5442 -0.4467
  384MPD2    C1 5738   3.753   4.113  12.205 -0.2815  0.4903  0.2821
  384MPD2    C2 5739   3.833   3.998  12.222 -0.7477 -0.1005  0.0176
  384MPD2    C3 5740   3.891   3.928  12.111  0.0636  0.5362 -0.0367
  384MPD2    C4 5741   3.854   3.976  11.983  1.1435 -0.0176 -0.3341
  384MPD2    C5 5742   3.769   4.082  11.975 -0.1852  0.6024  0.1607
  384MPD2     H 5743   3.855   3.966  12.323  1.1153  0.4227 -0.2233
  384MPD2    H1 5744   3.895   3.938  11.890  1.5131  0.2692 -0.2909
  384MPD2    H2 5745   3.638   4.220  12.049  0.0366 -0.0775 -1.3747
  384MPD2    H3 5746   3.758   4.121  11.874  0.4713 -0.6842 -0.4187
  384MPD2     N 5747   3.968   3.820  12.143  0.1863 -0.3697  0.0811
  384MPD2    H5 5748   3.984   3.803  12.242  0.1457  1.4738  0.4139
  384MPD2    N1 5749   3.701   4.168  12.323 -0.7046  0.1018  0.7622
  384MPD2    H7 5750   3.730   4.131  12.413 -2.4419  0.7047  1.5810
  385TMC3    C1 5751   4.118   3.649  12.123  0.6369  0.1289  0.5424
  385TMC3    C2 5752   4.084   3.522  12.089 -0.2529  0.0205 -0.1394
  385TMC3    C3 5753   4.076   3.426  12.186  0.1069 -0.1235 -0.1777
  385TMC3    C4 5754   4.151   3.683  12.249  0.0081  0.4125 -0.3523
  385TMC3    C5 5755   4.116   3.593  12.350 -0.5392 -0.1658  0.2207
  385TMC3    C6 5756   4.083   3.463  12.317  0.3253  0.0163  0.1343
  385TMC3     C 5757   4.040   3.746  12.051 -1.0002 -1.0071  0.3242
  385TMC3     O 5758   4.027   3.731  11.933 -0.3792  0.6419  0.3039
  385TMC3     H 5759   4.065   3.493  11.986  0.5919 -1.0178  0.0010
  385TMC3    H1 5760   4.184   3.778  12.290 -3.0828  1.4060 -0.1983
  385TMC3    H2 5761   4.079   3.387  12.394 -1.7784 -0.6269 -0.6049
  385TMC3    C7 5762   4.025   3.659  12.443 -0.1742 -0.9616 -0.2820
  385TMC3    C8 5763   4.016   3.290  12.164  0.7869 -0.1275  0.4137
  385TMC3    O1 5764   4.005   3.778  12.420  0.1254 -0.2552 -0.3542
  385TMC3    O2 5765   3.972   3.232  12.260  0.0595  0.5764 -0.3302
  386TMC3    C1 5766   3.897   1.273  12.048  0.5028  1.1002  0.7237
  386TMC3    C2 5767   3.897   1.226  11.918  0.3636 -0.1697 -0.4476
  386TMC3    C3 5768   3.785   1.261  11.848  1.0943 -0.0263 -0.1866
  386TMC3    C4 5769   3.799   1.349  12.096  0.0642  0.2017  0.3609
  386TMC3    C5 5770   3.683   1.364  12.027  0.3485  0.9123  0.0803
  386TMC3    C6 5771   3.679   1.326  11.898 -1.0515 -0.5191 -0.1444
  386TMC3     C 5772   3.969   1.201  12.153 -0.8944 -0.1531 -0.1514
  386TMC3     O 5773   3.913   1.209  12.262  0.1800  0.5022 -0.2303
  386TMC3     H 5774   3.983   1.175  11.877  1.6901  1.7419 -0.0275
  386TMC3    H1 5775   3.808   1.402  12.190  0.1517  1.3712 -0.3006
  386TMC3    H2 5776   3.588   1.341  11.842 -0.5617 -0.2841 -0.8809
  386TMC3    C7 5777   3.555   1.372  12.086 -0.6281 -1.2472 -0.0071
  386TMC3    C8 5778   3.804   1.269  11.708  0.2842  0.4152 -0.7349
  386TMC3    O1 5779   3.456   1.372  12.009  0.4768 -0.3088  0.0758
  386TMC3    O2 5780   3.726   1.340  11.644 -0.2785 -0.1208  0.4301
  387MPD2     C 5781   1.538   1.152   9.860  0.0191 -0.6954 -0.3001
  387MPD2    C1 5782   1.582   1.088   9.974  0.2797  0.4645  0.2335
  387MPD2    C2 5783   1.549   0.952   9.981  1.0301 -0.5398  0.1200
  387MPD2    C3 5784   1.485   0.883   9.882  0.6665  0.1148  0.0043
  387MPD2    C4 5785   1.442   0.952   9.774  0.3682 -0.1502  0.0990
  387MPD2    C5 5786   1.460   1.088   9.765 -0.0273  0.2997 -0.2630
  387MPD2     H 5787   1.579   0.898  10.071 -1.5775 -0.3314  1.1266
  387MPD2    H1 5788   1.390   0.904   9.692  1.8972 -1.8988  0.1526
  387MPD2    H2 5789   1.565   1.257   9.846  2.4053 -1.2471  0.0622
  387MPD2    H3 5790   1.427   1.131   9.671 -3.0998 -0.0103  0.6795
  387MPD2     N 5791   1.482   0.740   9.896 -0.1213  0.2923  0.5963
  387MPD2    H5 5792   1.525   0.702   9.980  0.4396 -1.5926 -0.5347
  387MPD2    N1 5793   1.671   1.130  10.072 -0.6675  0.8568  0.5728
  387MPD2    H7 5794   1.692   1.060  10.142 -0.8118  1.1019  0.8603
  388TMC3    C1 5795   1.857   1.253  10.168  0.6712  0.2459 -0.4732
  388TMC3    C2 5796   1.908   1.369  10.216  0.0601 -0.7996  0.1462
  388TMC3    C3 5797   2.025   1.351  10.289 -0.9359 -1.2701 -0.4776
  388TMC3    C4 5798   1.916   1.132  10.188 -0.0895 -0.5523  1.1588
  388TMC3    C5 5799   2.037   1.131  10.254  0.1227  0.2561  0.3897
  388TMC3    C6 5800   2.099   1.237  10.307  0.1163  0.6490 -0.5025
  388TMC3     C 5801   1.748   1.247  10.067 -0.3618 -0.0794 -0.0001
  388TMC3     O 5802   1.741   1.344   9.993  0.3846  0.0672  0.7239
  388TMC3     H 5803   1.856   1.464  10.208 -0.0769 -0.7926  1.1445
  388TMC3    H1 5804   1.867   1.047  10.142 -1.6709  0.9473  0.0807
  388TMC3    H2 5805   2.192   1.245  10.362 -0.7547  0.1290  1.0645
  388TMC3    C7 5806   2.113   1.008  10.243  0.6056  0.0201  0.4434
  388TMC3    C8 5807   2.080   1.472  10.355 -0.3499 -0.1397 -0.4930
  388TMC3    O1 5808   2.176   0.977  10.342  1.2914 -0.2178  0.2604
  388TMC3    O2 5809   2.204   1.481  10.361  0.4046 -0.4440 -0.9274
  389MPD2     C 5810   0.879   4.161  10.916 -0.4396 -0.1724  0.1398
  389MPD2    C1 5811   0.823   4.049  10.853 -0.0220 -0.1146  0.3900
  389MPD2    C2 5812   0.719   3.986  10.914  0.4056  0.7121  0.8480
  389MPD2    C3 5813   0.652   4.049  11.021 -0.1480  0.3312 -0.2743
  389MPD2    C4 5814   0.712   4.159  11.082  0.0597  0.8086  0.4904
  389MPD2    C5 5815   0.818   4.221  11.021 -0.4634  0.7782 -0.2556
  389MPD2     H 5816   0.666   3.910  10.857  1.4605 -0.1483  1.0090
  389MPD2    H1 5817   0.667   4.211  11.166  1.5599 -0.3618  2.0163
  389MPD2    H2 5818   0.956   4.221  10.869 -0.3350 -1.0067 -0.7396
  389MPD2    H3 5819   0.861   4.317  11.048  1.9303 -0.5179  0.6104
  389MPD2     N 5820   0.530   4.006  11.077 -0.0350 -0.7577  0.1734
  389MPD2    H5 5821   0.499   4.052  11.162  1.5278  1.8892 -0.6873
  389MPD2    N1 5822   0.865   4.015  10.717  0.7363 -0.6770 -0.1128
  389MPD2    H7 5823   0.936   4.073  10.674  0.7339  0.0708  0.8870
  390TMC3    C1 5824   0.349   3.875  11.132 -0.2082  0.2760  0.3056
  390TMC3    C2 5825   0.345   3.762  11.208 -0.0585 -0.1755 -0.2672
  390TMC3    C3 5826   0.265   3.758  11.314 -0.0022 -0.1859  0.6266
  390TMC3    C4 5827   0.284   3.990  11.169  0.1833  0.4239  0.0409
  390TMC3    C5 5828   0.194   3.975  11.271 -0.3112 -0.1858  0.2878
  390TMC3    C6 5829   0.187   3.864  11.352 -0.1915  0.3548  0.3040
  390TMC3     C 5830   0.473   3.883  11.056  0.1508 -0.9410 -0.7135
  390TMC3     O 5831   0.516   3.784  10.994 -0.2775 -0.5613 -0.0074
  390TMC3     H 5832   0.400   3.675  11.173  2.1938  1.2580 -0.2749
  390TMC3    H1 5833   0.272   4.078  11.107 -1.3860  2.1716  2.8024
  390TMC3    H2 5834   0.120   3.856  11.437 -1.0261  0.4611 -0.3416
  390TMC3    C7 5835   0.057   4.015  11.218  0.5997 -0.2007  0.1593
  390TMC3    C8 5836   0.205   3.631  11.353  0.0787  0.0558  0.1794
  390TMC3    O1 5837   0.050   4.120  11.152  0.0544 -0.1224 -0.2229
  390TMC3    O2 5838   0.219   3.542  11.271  0.1818  0.4783  0.2827
  391MPD2     C 5839   0.590   0.647  11.093  0.0993  0.0385 -0.1386
  391MPD2    C1 5840   0.668   0.762  11.071 -0.2668  0.4543 -0.0363
  391MPD2    C2 5841   0.663   0.810  10.940 -0.0149  0.2949  0.0368
  391MPD2    C3 5842   0.563   0.765  10.856  0.0019 -0.1749 -0.7248
  391MPD2    C4 5843   0.486   0.651  10.883 -0.0041 -0.6327 -0.3063
  391MPD2    C5 5844   0.507   0.588  11.003 -0.3011  0.5459 -0.6343
  391MPD2     H 5845   0.730   0.889  10.908 -1.3881  1.7509  0.7688
  391MPD2    H1 5846   0.426   0.599  10.810 -0.7950 -0.2188  0.0459
  391MPD2    H2 5847   0.578   0.616  11.196 -2.4512  0.5410 -0.2870
  391MPD2    H3 5848   0.453   0.500  11.036  1.7041 -0.0866  0.9211
  391MPD2     N 5849   0.551   0.836  10.732  0.5490 -0.4591 -0.1609
  391MPD2    H5 5850   0.606   0.921  10.725 -1.4289  0.8585  0.5624
  391MPD2    N1 5851   0.760   0.814  11.176 -0.1377  0.0815  0.4231
  391MPD2    H7 5852   0.762   0.772  11.268 -2.2416  1.4764  1.1104
  392TMC3    C1 5853   0.459   0.894  10.527  0.1548  0.3739 -0.5026
  392TMC3    C2 5854   0.354   0.880  10.443  0.7857 -0.0318 -0.3920
  392TMC3    C3 5855   0.339   0.972  10.340  0.5028 -0.2384 -0.2270
  392TMC3    C4 5856   0.547   0.995  10.519  0.3894  0.3180  0.7974
  392TMC3    C5 5857   0.524   1.080  10.414 -0.0992  0.8920 -0.5443
  392TMC3    C6 5858   0.422   1.072  10.322  0.1188  0.0146  0.5525
  392TMC3     C 5859   0.454   0.814  10.642 -1.4873  0.4942  0.3746
  392TMC3     O 5860   0.357   0.738  10.652  0.1829 -0.0247  0.3799
  392TMC3     H 5861   0.282   0.799  10.445 -0.2394  0.8503 -0.8370
  392TMC3    H1 5862   0.628   1.018  10.587  0.1067  0.6046  1.0378
  392TMC3    H2 5863   0.408   1.152  10.251  0.9359 -1.3432 -1.1289
  392TMC3    C7 5864   0.596   1.205  10.429  0.0911  0.0763  0.9639
  392TMC3    C8 5865   0.229   0.944  10.250 -0.3406 -0.0613  0.0515
  392TMC3    O1 5866   0.633   1.222  10.544  0.2152  0.3371  0.5394
  392TMC3    O2 5867   0.172   0.832  10.254 -0.0894 -0.1490  0.9212
  393TMC3    C1 5868   3.988   3.468  10.521  0.7903  0.1553  0.3091
  393TMC3    C2 5869   3.907   3.428  10.622 -0.5212 -0.0417  0.0912
  393TMC3    C3 5870   3.908   3.300  10.657  0.6168 -0.2825  0.0709
  393TMC3    C4 5871   4.096   3.390  10.482  0.6077 -0.8589  0.1995
  393TMC3    C5 5872   4.099   3.266  10.520 -0.1735  0.1007  0.4323
  393TMC3    C6 5873   4.003   3.213  10.605  0.5649 -0.6001  0.0663
  393TMC3     C 5874   4.001   3.611  10.502 -0.5423 -0.3721 -0.2681
  393TMC3     O 5875   3.905   3.687  10.515 -0.0454  0.1921 -0.6757
  393TMC3     H 5876   3.851   3.502  10.678 -0.7302 -0.3393  0.2776
  393TMC3    H1 5877   4.154   3.425  10.397 -1.4205 -0.1708 -0.9076
  393TMC3    H2 5878   4.011   3.114  10.649  0.9192 -0.1390  1.0353
  393TMC3    C7 5879   4.172   3.161  10.449 -0.3064  0.4497  0.5495
  393TMC3    C8 5880   3.858   3.268  10.790  0.8758  0.0193 -0.0885
  393TMC3    O1 5881   4.131   3.043  10.450  0.1180  0.2332  0.2518
  393TMC3    O2 5882   3.870   3.347  10.879  0.0833  0.5933 -0.3904
  394TMC3    C1 5883   0.891   3.895  10.513 -0.3545  0.2284  0.0024
  394TMC3    C2 5884   0.819   3.816  10.434 -0.1744  0.3515 -0.3394
  394TMC3    C3 5885   0.839   3.833  10.302  0.2059  0.1175 -0.0972
  394TMC3    C4 5886   0.971   4.000  10.475  0.1174 -0.1707 -0.2636
  394TMC3    C5 5887   0.993   4.000  10.344 -0.3084 -0.3172  0.3571
  394TMC3    C6 5888   0.922   3.923  10.254 -0.3827 -0.5679  0.2395
  394TMC3     C 5889   0.835   3.894  10.652 -0.3769  0.4873  0.7671
  394TMC3     O 5890   0.768   3.797  10.683  0.1953  0.0029  0.2714
  394TMC3     H 5891   0.752   3.737  10.465  0.0408  0.6217  0.8188
  394TMC3    H1 5892   1.019   4.065  10.547  1.5430 -0.9897 -0.4882
  394TMC3    H2 5893   0.940   3.938  10.148 -1.6241  1.4975  0.3322
  394TMC3    C7 5894   1.073   4.112  10.301  0.4435  0.2901  0.9747
  394TMC3    C8 5895   0.745   3.761  10.217  0.2162 -0.1865 -0.0438
  394TMC3    O1 5896   1.048   4.222  10.350 -0.3713 -0.3009  0.0048
  394TMC3    O2 5897   0.695   3.818  10.125 -0.3709  0.5524 -0.2020
  395TMC3    C1 5898   0.456   1.844  14.430 -1.0627  0.3348  0.8832
  395TMC3    C2 5899   0.347   1.829  14.505 -0.4633  0.1977 -0.1762
  395TMC3    C3 5900   0.299   1.934  14.573 -0.6817  0.4858  0.2985
  395TMC3    C4 5901   0.529   1.955  14.434  0.0140  0.2553 -0.2049
  395TMC3    C5 5902   0.497   2.060  14.514  0.0037  0.3859  0.6889
  395TMC3    C6 5903   0.378   2.050  14.584  0.1576  0.3283 -0.2814
  395TMC3     C 5904   0.517   1.736  14.364  0.1782 -0.0641  0.2566
  395TMC3     O 5905   0.611   1.762  14.287  0.3740 -0.6237  0.1923
  395TMC3     H 5906   0.284   1.742  14.488  1.3648 -1.1878  0.0406
  395TMC3    H1 5907   0.628   1.963  14.391  0.2258  0.0258  0.2331
  395TMC3    H2 5908   0.357   2.127  14.658 -0.6500  0.5810 -0.7793
  395TMC3    C7 5909   0.604   2.144  14.568 -0.3778  0.4372  0.2316
  395TMC3    C8 5910   0.179   1.924  14.653  0.4017 -0.4161  0.3202
  395TMC3    O1 5911   0.710   2.085  14.601 -0.2655 -0.3018  0.3258
  395TMC3    O2 5912   0.118   2.025  14.679  0.0414 -0.6319  0.5845
  396MPD2     C 5913   0.504   2.869  16.773  0.0036 -1.1637 -0.0357
  396MPD2    C1 5914   0.636   2.890  16.794 -0.3688  0.2641 -1.3406
  396MPD2    C2 5915   0.701   2.993  16.725 -0.0054 -0.3391  0.2915
  396MPD2    C3 5916   0.634   3.067  16.631  0.7525  0.6182  0.6759
  396MPD2    C4 5917   0.498   3.045  16.616  0.2294  0.1777  0.2298
  396MPD2    C5 5918   0.434   2.951  16.689 -0.2668  0.4932  0.1216
  396MPD2     H 5919   0.803   3.013  16.755 -0.7123 -0.2537  2.6510
  396MPD2    H1 5920   0.438   3.104  16.548 -0.1528  1.1176  1.3766
  396MPD2    H2 5921   0.445   2.787  16.814  0.9554 -0.8476  1.9749
  396MPD2    H3 5922   0.340   2.907  16.656 -0.3152  1.3731 -0.9365
  396MPD2     N 5923   0.712   3.152  16.550 -0.2936 -0.3450  0.0101
  396MPD2    H5 5924   0.804   3.171  16.587 -0.3907  1.8125 -0.8836
  396MPD2    N1 5925   0.706   2.806  16.878 -0.2914  0.0675 -0.6704
  396MPD2    H7 5926   0.668   2.716  16.906 -0.5503  0.4640  0.2499
  397TMC3    C1 5927   0.906   2.718  16.972 -0.1099  0.3410  0.0199
  397TMC3    C2 5928   1.013   2.729  16.885 -0.5372 -0.1782  0.6958
  397TMC3    C3 5929   1.015   2.661  16.770  0.0538  0.4852 -0.2068
  397TMC3    C4 5930   0.835   2.599  16.962  0.3672  0.3246 -0.2051
  397TMC3    C5 5931   0.854   2.518  16.853  0.5870 -0.5746  0.1239
  397TMC3    C6 5932   0.936   2.554  16.750  0.4176 -0.4990 -0.0548
  397TMC3     C 5933   0.826   2.836  16.945 -0.4577  0.2074 -0.0811
  397TMC3     O 5934   0.880   2.944  16.947  0.3870 -0.3713  0.0706
  397TMC3     H 5935   1.065   2.825  16.885 -1.6501  0.4275  1.7946
  397TMC3    H1 5936   0.760   2.582  17.038  1.8900  0.0878  1.2528
  397TMC3    H2 5937   0.939   2.502  16.654  0.2165 -0.0898 -0.2820
  397TMC3    C7 5938   0.804   2.386  16.856  0.2056 -0.0675 -0.5762
  397TMC3    C8 5939   1.031   2.742  16.652 -0.4998 -0.1599 -0.4243
  397TMC3    O1 5940   0.796   2.332  16.748  0.3659  0.0195 -0.2478
  397TMC3    O2 5941   1.133   2.807  16.648  0.2377 -0.3246  0.0054
  398MPD2     C 5942   3.376   2.953  17.372 -0.2825 -0.0062  0.2352
  398MPD2    C1 5943   3.464   2.971  17.479  0.3905  0.0334 -0.1072
  398MPD2    C2 5944   3.552   3.077  17.499  0.0623  1.1302 -0.1784
  398MPD2    C3 5945   3.543   3.182  17.404 -0.1959  0.0096 -0.6125
  398MPD2    C4 5946   3.462   3.158  17.289 -0.1698 -0.8588 -0.0700
  398MPD2    C5 5947   3.387   3.041  17.271  0.2337 -0.9234  0.3499
  398MPD2     H 5948   3.624   3.081  17.579  0.0175 -2.0485  0.0177
  398MPD2    H1 5949   3.459   3.229  17.208 -0.4374  0.0976  0.7707
  398MPD2    H2 5950   3.316   2.863  17.370  1.4302 -1.0932 -2.2671
  398MPD2    H3 5951   3.328   3.035  17.181  0.4643  1.9680  0.0062
  398MPD2     N 5952   3.627   3.298  17.406 -0.3584  0.1957 -0.0127
  398MPD2    H5 5953   3.609   3.368  17.335 -0.9960  1.9227  1.8505
  398MPD2    N1 5954   3.474   2.863  17.571 -0.2164  0.1625  0.2259
  398MPD2    H7 5955   3.549   2.863  17.640 -1.1869 -0.2586  1.2688
  399TMC3    C1 5956   3.443   2.642  17.642 -0.3361  0.2207  0.2633
  399TMC3    C2 5957   3.566   2.614  17.585 -0.1297 -0.5399  0.1215
  399TMC3    C3 5958   3.631   2.508  17.648 -0.7662 -0.7127 -0.3249
  399TMC3    C4 5959   3.380   2.572   0.041  0.8560  0.3029 -0.6957
  399TMC3    C5 5960   3.455   2.482   0.105  0.0098  0.1366  0.7241
  399TMC3    C6 5961   3.578   2.445   0.065 -0.3753 -0.3148 -0.0707
  399TMC3     C 5962   3.384   2.758  17.583  0.4030  0.1776 -0.7497
  399TMC3     O 5963   3.260   2.761  17.568 -0.4082 -0.2071  0.4222
  399TMC3     H 5964   3.603   2.673  17.502 -2.2998  1.4246  0.5495
  399TMC3    H1 5965   3.289   2.608   0.089  0.6348 -1.7236  0.3872
  399TMC3    H2 5966   3.626   2.357   0.105  0.2535  0.2322  0.3825
  399TMC3    C7 5967   3.414   2.446   0.237 -0.0104  0.4737  0.2595
  399TMC3    C8 5968   3.768   2.473  17.625  0.4828 -0.3752 -0.2356
  399TMC3    O1 5969   3.301   2.485   0.273 -0.9818 -0.3097  0.3424
  399TMC3    O2 5970   3.824   2.420   0.023 -0.0144 -0.3536 -0.0958
  400TMC3    C1 5971   2.045   1.706  17.167 -0.1408 -0.1360 -0.0512
  400TMC3    C2 5972   1.936   1.709  17.085  0.0065  0.2530  0.2105
  400TMC3    C3 5973   1.901   1.830  17.032 -0.9326 -0.3046  0.0196
  400TMC3    C4 5974   2.130   1.815  17.181 -0.2251 -0.3176 -0.2380
  400TMC3    C5 5975   2.091   1.935  17.119 -0.3755 -0.2774  0.2134
  400TMC3    C6 5976   1.976   1.943  17.042  0.0123 -0.0563  0.0921
  400TMC3     C 5977   2.072   1.577  17.232  0.3995  0.4904  0.3428
  400TMC3     O 5978   2.015   1.489  17.172 -0.2685  0.3562  0.2870
  400TMC3     H 5979   1.875   1.620  17.071  0.1435  0.1058  0.5467
  400TMC3    H1 5980   2.214   1.804  17.249 -1.3211 -3.1182  0.6542
  400TMC3    H2 5981   1.959   2.033  16.984 -0.6165 -1.4728 -1.8890
  400TMC3    C7 5982   2.179   2.050  17.126 -0.1882  0.3815 -0.4175
  400TMC3    C8 5983   1.769   1.861  16.988 -0.2745 -0.2180  0.1919
  400TMC3    O1 5984   2.292   2.020  17.165  0.5881 -0.2640 -0.0107
  400TMC3    O2 5985   1.736   1.979  16.991  0.2408 -0.1255 -0.3557
  401MPD2     C 5986   0.719   1.213   0.549  0.7240 -0.3294  0.6458
  401MPD2    C1 5987   0.675   1.113   0.627  0.0348 -0.1916 -0.2315
  401MPD2    C2 5988   0.628   0.995   0.571 -0.1839  0.0315 -0.1585
  401MPD2    C3 5989   0.623   0.976   0.437  0.1892  0.2402 -0.9096
  401MPD2    C4 5990   0.671   1.081   0.357  0.5521  0.3665 -0.1641
  401MPD2    C5 5991   0.708   1.199   0.415  0.3661 -0.2117  0.0428
  401MPD2     H 5992   0.600   0.918   0.641  0.3373 -0.1699 -0.1684
  401MPD2    H1 5993   0.676   1.064   0.250  0.0846 -1.6161  0.1364
  401MPD2    H2 5994   0.771   1.301   0.585  0.0353  0.3349  0.0254
  401MPD2    H3 5995   0.752   1.275   0.352 -0.8965  3.7681  3.9421
  401MPD2     N 5996   0.564   0.860   0.391  0.6044  0.3536  0.9009
  401MPD2    H5 5997   0.538   0.788   0.458  2.3936  1.2266  2.5248
  401MPD2    N1 5998   0.702   1.115   0.766  0.2600  0.0195 -0.2406
  401MPD2    H7 5999   0.680   1.024   0.806 -0.4176  0.9266  1.4804
  402TMC3    C1 6000   0.445   0.723   0.241  0.3606  0.0366  0.1531
  402TMC3    C2 6001   0.368   0.667   0.340 -0.2449  0.3489 -0.1547
  402TMC3    C3 6002   0.328   0.542   0.326 -0.2395  0.7428  0.3979
  402TMC3    C4 6003   0.471   0.651   0.126  0.4903  0.4935  1.0115
  402TMC3    C5 6004   0.438   0.515   0.121  0.0763  0.2439 -0.1214
  402TMC3    C6 6005   0.366   0.460   0.223 -0.4284  0.2222 -0.8459
  402TMC3     C 6006   0.529   0.836   0.261  0.1889 -0.0172 -0.2103
  402TMC3     O 6007   0.573   0.887   0.158  0.2056 -0.6106 -0.4345
  402TMC3     H 6008   0.351   0.727   0.429 -0.6109 -2.3567  1.5732
  402TMC3    H1 6009   0.505   0.697   0.035  0.0652 -0.0502  0.5798
  402TMC3    H2 6010   0.327   0.359   0.220  1.3904 -0.5621  1.3545
  402TMC3    C7 6011   0.469   0.448  17.695  1.0218 -0.0997  0.8128
  402TMC3    C8 6012   0.256   0.469   0.433  0.5944  0.3926  0.0430
  402TMC3    O1 6013   0.515   0.519  17.606  0.5255 -0.4987 -0.8281
  402TMC3    O2 6014   0.273   0.348   0.442  0.0693  0.0850  0.2014
  403MPD2     C 6015   3.266   4.114  13.113  0.3955  0.2529  0.2572
  403MPD2    C1 6016   3.238   4.015  13.206 -0.6514 -0.2478 -0.7887
  403MPD2    C2 6017   3.323   3.997  13.314 -0.5516  0.4802  0.0620
  403MPD2    C3 6018   3.433   4.081  13.337  0.8936  0.1806  0.2507
  403MPD2    C4 6019   3.456   4.180  13.242  0.0365 -0.0425  0.7096
  403MPD2    C5 6020   3.375   4.197  13.131 -0.4461  0.8403 -0.0587
  403MPD2     H 6021   3.310   3.916  13.385  0.0507  0.8232  0.5669
  403MPD2    H1 6022   3.549   4.236  13.245  0.1554 -0.1822 -0.3407
  403MPD2    H2 6023   3.216   4.142  13.021 -0.1708 -1.4268  0.0653
  403MPD2    H3 6024   3.403   4.271  13.058  1.2655  0.0838 -0.1751
  403MPD2     N 6025   3.514   4.058  13.450 -0.5955  0.0568  0.1901
  403MPD2    H5 6026   3.476   3.993  13.518  0.8479  0.1238  1.0830
  403MPD2    N1 6027   3.115   3.942  13.183 -0.5554 -0.2745  0.0452
  403MPD2    H7 6028   3.075   3.947  13.090 -0.0668 -0.2694 -0.1638
  404TMC3    C1 6029   2.978   3.747  13.210 -0.8518  0.6192  0.6921
  404TMC3    C2 6030   2.956   3.639  13.293  0.8534 -0.1968 -0.5535
  404TMC3    C3 6031   2.921   3.516  13.246  0.2219 -0.3666  0.0934
  404TMC3    C4 6032   2.979   3.731  13.074 -0.1118  0.7727 -0.6849
  404TMC3    C5 6033   2.947   3.609  13.027  0.6591  0.1954  0.2820
  404TMC3    C6 6034   2.912   3.507  13.108  0.2740  0.2790  0.0976
  404TMC3     C 6035   3.067   3.844  13.264  0.1038  0.3161 -0.0754
  404TMC3     O 6036   3.091   3.811  13.378 -0.3673 -0.4744 -0.0082
  404TMC3     H 6037   2.963   3.639  13.401  0.1399 -1.0769 -0.5059
  404TMC3    H1 6038   3.019   3.805  13.006  0.3256  1.6810  0.5572
  404TMC3    H2 6039   2.891   3.408  13.069 -1.7957  0.6825  0.1854
  404TMC3    C7 6040   2.980   3.580  12.886 -0.3566  0.1257  0.5834
  404TMC3    C8 6041   2.986   3.407  13.306  0.1113  0.3110 -0.0417
  404TMC3    O1 6042   3.067   3.648  12.839 -0.4596 -0.8645 -0.0686
  404TMC3    O2 6043   3.040   3.328  13.230  0.4227  0.1798 -0.0006
  405MPD2     C 6044   3.051   3.832  14.722  0.2125 -0.1615  0.6679
  405MPD2    C1 6045   3.176   3.844  14.653 -0.7741  0.3250  0.9981
  405MPD2    C2 6046   3.244   3.967  14.651  0.3286 -0.4405 -0.1675
  405MPD2    C3 6047   3.178   4.078  14.701 -0.2596  0.2915 -0.0785
  405MPD2    C4 6048   3.053   4.064  14.764 -0.0454  0.8238  0.2189
  405MPD2    C5 6049   2.991   3.945  14.773 -0.3257  0.3934 -0.1192
  405MPD2     H 6050   3.346   3.976  14.616 -0.0072 -0.5021 -1.1550
  405MPD2    H1 6051   3.003   4.146  14.815  0.1692  0.2059  1.4159
  405MPD2    H2 6052   2.995   3.740  14.728  1.5260 -0.9479  0.8555
  405MPD2    H3 6053   2.891   3.946  14.814  0.5736 -2.8467  2.2449
  405MPD2     N 6054   3.238   4.206  14.684 -0.5780  0.1697 -0.1994
  405MPD2    H5 6055   3.328   4.210  14.637 -1.2396  0.1671 -1.4793
  405MPD2    N1 6056   3.221   3.727  14.587 -0.0439  0.2982 -0.0765
  405MPD2    H7 6057   3.151   3.654  14.581  1.1961 -0.7657 -1.6628
  406TMC3    C1 6058   3.202   4.639  14.497 -0.5421  0.2286  0.4812
  406TMC3    C2 6059   3.275   4.594  14.396 -0.1950 -0.5419  0.0712
  406TMC3    C3 6060   3.343   4.476  14.404 -0.0075  0.2469 -0.0688
  406TMC3    C4 6061   3.183   4.557  14.609 -0.7260 -0.5124 -0.0077
  406TMC3    C5 6062   3.244   4.438  14.611  0.4218 -0.0343 -0.4454
  406TMC3    C6 6063   3.324   4.395  14.510 -0.4331  0.4755  0.1652
  406TMC3     C 6064   3.101   0.018  14.456  0.1148  0.3397  0.6260
  406TMC3     O 6065   3.101   0.060  14.343 -0.3899 -0.4462 -0.0919
  406TMC3     H 6066   3.286   4.647  14.302 -2.4862 -3.7737 -2.0544
  406TMC3    H1 6067   3.107   4.583  14.683 -1.7598 -1.5936 -0.6953
  406TMC3    H2 6068   3.388   4.309  14.528 -1.1732 -0.1402 -0.1681
  406TMC3    C7 6069   3.168   4.324  14.677  0.3885  0.4439  0.0786
  406TMC3    C8 6070   3.399   4.426  14.276  0.4336  0.3249  0.8449
  406TMC3    O1 6071   3.048   4.346  14.703  0.1948  0.2905 -0.2936
  406TMC3    O2 6072   3.477   4.496  14.211 -0.0096 -0.3810  0.2758
  407MPD2     C 6073   1.075   1.029   9.121 -0.2555 -0.0283  0.7020
  407MPD2    C1 6074   1.160   0.961   9.209  1.0383  0.2853 -0.8584
  407MPD2    C2 6075   1.129   0.956   9.343 -0.2798 -0.5150 -0.6280
  407MPD2    C3 6076   1.019   1.020   9.398  0.3126  0.1967 -0.1740
  407MPD2    C4 6077   0.940   1.097   9.308 -0.1322 -0.1282  0.1104
  407MPD2    C5 6078   0.966   1.098   9.173 -0.2127 -0.0745 -0.0924
  407MPD2     H 6079   1.190   0.897   9.410 -0.4152 -0.9334 -0.8699
  407MPD2    H1 6080   0.862   1.165   9.341  0.3931  0.6412 -0.2306
  407MPD2    H2 6081   1.101   1.033   9.016 -0.6529  2.4431  0.7118
  407MPD2    H3 6082   0.895   1.142   9.103  1.4690 -0.4016 -1.9968
  407MPD2     N 6083   0.978   1.023   9.537 -0.0675  0.1844  0.2425
  407MPD2    H5 6084   0.900   1.083   9.564  0.8063  0.1667  2.7756
  407MPD2    N1 6085   1.280   0.904   9.169  0.6895  0.0809  0.0782
  407MPD2    H7 6086   1.335   0.854   9.238  1.4483 -0.0629 -0.6433
  408TMC3    C1 6087   1.461   0.845   9.054  0.2380  0.8773 -0.6016
  408TMC3    C2 6088   1.488   0.740   9.135  0.2505 -0.8700  0.2990
  408TMC3    C3 6089   1.618   0.731   9.163  0.4511 -0.2464  0.5233
  408TMC3    C4 6090   1.559   0.937   9.006  0.0528  0.7792  0.6597
  408TMC3    C5 6091   1.690   0.918   9.038  0.3823  0.1630  0.9330
  408TMC3    C6 6092   1.721   0.819   9.123  0.4585  0.0210  0.1826
  408TMC3     C 6093   1.330   0.899   9.044  0.3494  0.3405 -0.3157
  408TMC3     O 6094   1.296   0.969   8.951 -0.0971 -0.2980 -0.0185
  408TMC3     H 6095   1.412   0.682   9.186 -2.1656  3.0378  1.1596
  408TMC3    H1 6096   1.525   1.022   8.949 -0.6537  0.1861  0.2062
  408TMC3    H2 6097   1.828   0.798   9.127  0.5541  0.4114 -0.2820
  408TMC3    C7 6098   1.788   1.016   9.018  0.2633 -0.4058  0.2485
  408TMC3    C8 6099   1.647   0.616   9.249  0.8125 -0.1079 -0.3229
  408TMC3    O1 6100   1.905   0.985   9.007  0.2204 -0.2326 -0.1824
  408TMC3    O2 6101   1.567   0.522   9.245  0.6303 -0.1766 -0.1427
  409MPD2     C 6102   0.864   1.489  17.243 -0.0427 -0.2006 -0.1812
  409MPD2    C1 6103   0.974   1.537  17.310  0.3321 -0.6445  0.0460
  409MPD2    C2 6104   1.022   1.656  17.270 -0.3382  0.5918  0.1908
  409MPD2    C3 6105   0.961   1.735  17.170 -0.4775 -0.2005 -0.5312
  409MPD2    C4 6106   0.850   1.683  17.105  0.7944 -0.1155  0.0453
  409MPD2    C5 6107   0.803   1.560  17.138  0.2171  0.3495  0.4551
  409MPD2     H 6108   1.113   1.703  17.306 -0.5243  0.9639  0.1779
  409MPD2    H1 6109   0.797   1.743  17.032 -0.9237  0.3714  1.7071
  409MPD2    H2 6110   0.824   1.390  17.259 -1.0109  0.1704 -0.2895
  409MPD2    H3 6111   0.717   1.512  17.093 -1.0540  0.3664  2.8668
  409MPD2     N 6112   0.998   1.869  17.148  0.2000  0.4578 -0.3375
  409MPD2    H5 6113   0.964   1.914  17.063  0.1065 -0.5888 -0.8480
  409MPD2    N1 6114   1.034   1.474  17.419  0.0373  0.3768  0.1617
  409MPD2    H7 6115   1.095   1.534  17.472  1.5031 -0.7284 -0.2776
  410TMC3    C1 6116   1.154   2.051  17.166 -0.3218  0.9401  0.3880
  410TMC3    C2 6117   1.278   2.078  17.221 -0.4327 -0.8830  0.1782
  410TMC3    C3 6118   1.365   2.156  17.143 -0.1895 -0.3872  0.2076
  410TMC3    C4 6119   1.116   2.101  17.046  0.3140 -0.2342 -0.9496
  410TMC3    C5 6120   1.201   2.180  16.971 -0.8305  0.4031  0.2626
  410TMC3    C6 6121   1.326   2.212  17.026 -0.3944  0.0061 -0.3073
  410TMC3     C 6122   1.083   1.940  17.228 -0.2171  0.0468 -0.4621
  410TMC3     O 6123   1.087   1.923  17.350  0.3502  0.0559  0.4182
  410TMC3     H 6124   1.312   2.019  17.305  0.6954  0.4304  0.6552
  410TMC3    H1 6125   1.011   2.091  17.019  0.2380 -2.2459  0.0867
  410TMC3    H2 6126   1.403   2.271  16.977 -1.8327  1.1843 -1.1362
  410TMC3    C7 6127   1.182   2.157  16.829  0.4125  0.4283 -0.1556
  410TMC3    C8 6128   1.502   2.174  17.182 -0.8119  0.5700 -0.0700
  410TMC3    O1 6129   1.118   2.057  16.810 -0.2297 -0.0608 -0.3635
  410TMC3    O2 6130   1.558   2.279  17.153  0.0854 -0.4176 -0.0614
  411MPD2     C 6131   1.226   2.976  14.041  0.5724  0.0308  0.3665
  411MPD2    C1 6132   1.164   2.909  14.137 -0.1061  0.0151 -0.3617
  411MPD2    C2 6133   1.196   2.772  14.152  0.6926 -0.0362  0.3776
  411MPD2    C3 6134   1.273   2.711  14.056  0.5107 -0.1098 -0.1675
  411MPD2    C4 6135   1.324   2.785  13.954 -0.5669  0.1224  0.8922
  411MPD2    C5 6136   1.311   2.919  13.952 -0.5086  0.0029  0.2528
  411MPD2     H 6137   1.163   2.716  14.238 -1.0790 -0.2173 -0.4299
  411MPD2    H1 6138   1.401   2.736  13.896  0.9709  1.3021  1.9710
  411MPD2    H2 6139   1.202   3.080  14.023 -1.8175 -0.3320  1.4825
  411MPD2    H3 6140   1.360   2.985  13.882 -1.1314  1.3234  1.0725
  411MPD2     N 6141   1.298   2.573  14.054 -0.1266  0.4254 -0.4510
  411MPD2    H5 6142   1.336   2.542  13.965  3.2093 -0.1655  1.1462
  411MPD2    N1 6143   1.087   2.968  14.243  0.0670  0.1635 -0.5254
  411MPD2    H7 6144   1.061   2.918  14.327  0.4453 -0.1139 -0.5757
  412TMC3    C1 6145   1.315   2.342  14.103 -0.1418 -0.0414  0.4721
  412TMC3    C2 6146   1.230   2.255  14.162 -0.4731 -0.1005 -1.0299
  412TMC3    C3 6147   1.154   2.173  14.081 -0.9264  0.4761  0.0046
  412TMC3    C4 6148   1.342   2.335  13.972 -0.1946  0.0917  0.5290
  412TMC3    C5 6149   1.273   2.251  13.892 -0.6106  0.5547 -0.2377
  412TMC3    C6 6150   1.179   2.164  13.946  0.2133 -0.6649  0.1466
  412TMC3     C 6151   1.294   2.478  14.150  0.0999 -0.1226 -0.8955
  412TMC3     O 6152   1.242   2.493  14.263  0.1489  0.3420  0.4997
  412TMC3     H 6153   1.219   2.266  14.269 -0.2150  1.6083 -1.1875
  412TMC3    H1 6154   1.406   2.404  13.919  0.0591 -2.2544 -2.1867
  412TMC3    H2 6155   1.108   2.113  13.882  1.6984 -2.1222 -0.3470
  412TMC3    C7 6156   1.230   2.300  13.759 -0.0510  0.5244  0.8460
  412TMC3    C8 6157   1.014   2.178  14.110  0.2416 -0.9501 -0.2443
  412TMC3    O1 6158   1.151   2.229  13.699  0.2040 -0.4685  0.2671
  412TMC3    O2 6159   0.936   2.108  14.049  0.6966 -0.1585  0.1465
  413MPD2     C 6160   2.619   1.017  15.444  0.1307 -0.3006 -0.1567
  413MPD2    C1 6161   2.633   1.050  15.312 -0.9272  0.4637 -0.1616
  413MPD2    C2 6162   2.746   0.999  15.250 -0.6231 -0.4301 -0.6038
  413MPD2    C3 6163   2.835   0.922  15.315  0.3650  0.3978 -0.3715
  413MPD2    C4 6164   2.821   0.891  15.450 -0.0305  0.1520 -0.3229
  413MPD2    C5 6165   2.709   0.942  15.514  0.1905  0.5897 -0.2037
  413MPD2     H 6166   2.757   1.008  15.143  0.0469  0.1600 -0.4872
  413MPD2    H1 6167   2.887   0.827  15.506 -1.7617 -1.1602  0.2022
  413MPD2    H2 6168   2.535   1.058  15.498  0.4622 -0.1534  0.2428
  413MPD2    H3 6169   2.685   0.917  15.616 -2.1589  1.3357 -0.5697
  413MPD2     N 6170   2.935   0.865  15.242  0.2804  0.1598  0.1579
  413MPD2    H5 6171   2.928   0.869  15.141  0.1675 -1.3426  0.1006
  413MPD2    N1 6172   2.538   1.133  15.243  0.7780  0.2796  0.2779
  413MPD2    H7 6173   2.467   1.174  15.303 -0.6580  0.0976 -1.2783
  414TMC3    C1 6174   3.133   0.756  15.187  0.2911  0.2405  0.2414
  414TMC3    C2 6175   3.215   0.647  15.210  0.9005 -0.7976  0.6456
  414TMC3    C3 6176   3.260   0.574  15.106 -0.1807  0.5899  0.1508
  414TMC3    C4 6177   3.123   0.812  15.061  0.0937 -0.0381 -0.2115
  414TMC3    C5 6178   3.194   0.744  14.962  0.3976 -0.3459  0.0140
  414TMC3    C6 6179   3.242   0.616  14.979 -0.1216  0.4439 -0.6707
  414TMC3     C 6180   3.051   0.808  15.298  0.1002  0.3259  0.2956
  414TMC3     O 6181   3.087   0.786  15.414  0.3390 -0.1936  0.0893
  414TMC3     H 6182   3.211   0.595  15.304  0.0530  0.4332  1.2955
  414TMC3    H1 6183   3.099   0.917  15.047  0.9907  0.2102  0.1098
  414TMC3    H2 6184   3.271   0.553  14.895  0.7742 -0.6276  0.4333
  414TMC3    C7 6185   3.161   0.795  14.827  0.1211  0.3930 -0.0125
  414TMC3    C8 6186   3.374   0.492  15.130 -0.1898  0.0397 -0.1434
  414TMC3    O1 6187   3.049   0.852  14.836 -0.5263  0.5406 -0.4463
  414TMC3    O2 6188   3.402   0.430  15.029  0.2684  0.0197 -0.1694
  415TMC3    C1 6189   3.468   3.120  10.374 -0.1647  0.1455 -0.6756
  415TMC3    C2 6190   3.529   3.163  10.256 -0.0563  0.4297 -0.0163
  415TMC3    C3 6191   3.502   3.093  10.139  0.2586  0.9637  0.2153
  415TMC3    C4 6192   3.393   3.010  10.378 -0.1427 -0.2116  0.2984
  415TMC3    C5 6193   3.378   2.937  10.267 -0.5614  0.4972  0.6284
  415TMC3    C6 6194   3.433   2.975  10.147  0.6880  0.1900 -0.0960
  415TMC3     C 6195   3.502   3.178  10.500 -0.9249 -0.9598 -0.1221
  415TMC3     O 6196   3.493   3.104  10.597  0.3052 -0.3728  1.0272
  415TMC3     H 6197   3.604   3.241  10.252  0.2643  0.2227  2.0971
  415TMC3    H1 6198   3.351   2.979  10.473  0.9644 -0.0289  0.8389
  415TMC3    H2 6199   3.426   2.897  10.073  2.8554  0.3842 -0.5145
  415TMC3    C7 6200   3.301   2.812  10.267  0.1646 -0.4765 -0.2589
  415TMC3    C8 6201   3.588   3.104  10.020  0.2085 -0.8172 -0.3651
  415TMC3    O1 6202   3.304   2.740  10.168  0.2139  0.1896 -0.4892
  415TMC3    O2 6203   3.609   3.001   9.955 -0.2529  0.3525  0.0865
  416MPD2     C 6204   0.378   1.891  11.765 -0.0639 -0.1082 -0.3567
  416MPD2    C1 6205   0.340   1.941  11.641  0.8366 -0.7534  0.0825
  416MPD2    C2 6206   0.377   1.869  11.536  0.1368  0.5918  0.3234
  416MPD2    C3 6207   0.444   1.746  11.550  0.1194 -0.5654  0.6138
  416MPD2    C4 6208   0.465   1.695  11.671 -0.3232 -0.6352 -0.1312
  416MPD2    C5 6209   0.435   1.765  11.777  0.1810 -0.8188 -0.0192
  416MPD2     H 6210   0.368   1.914  11.438  2.2383  0.1240 -0.0913
  416MPD2    H1 6211   0.524   1.605  11.682  0.8029 -0.2766 -3.3106
  416MPD2    H2 6212   0.352   1.943  11.856  0.2075 -0.4830 -0.0639
  416MPD2    H3 6213   0.464   1.724  11.874  0.8790 -1.2123 -0.3955
  416MPD2     N 6214   0.495   1.666  11.445 -0.0950  0.4641  0.4259
  416MPD2    H5 6215   0.547   1.584  11.475 -0.8894 -0.9269 -1.9845
  416MPD2    N1 6216   0.284   2.071  11.630  0.0789  0.3888 -0.3212
  416MPD2    H7 6217   0.276   2.117  11.720  1.5683  0.7909 -0.3940
  417TMC3    C1 6218   0.142   2.240  11.557  0.1234 -0.2910 -0.1567
  417TMC3    C2 6219   0.158   2.305  11.681  0.1626  0.8032 -0.2325
  417TMC3    C3 6220   0.124   2.436  11.687  0.2126  0.0926 -0.1744
  417TMC3    C4 6221   0.077   2.298  11.454  0.1451  0.8522  0.5573
  417TMC3    C5 6222   0.029   2.428  11.469  0.3909 -0.1963  0.8563
  417TMC3    C6 6223   0.052   2.499  11.586  0.3684 -0.0921  1.2984
  417TMC3     C 6224   0.211   2.117  11.524  0.5983  0.6744  0.1414
  417TMC3     O 6225   0.184   2.053  11.423 -0.4707 -0.3283 -0.9214
  417TMC3     H 6226   0.218   2.265  11.761 -0.2534  0.6326 -0.0051
  417TMC3    H1 6227   0.077   2.259  11.353  0.5269  1.6837  0.2351
  417TMC3    H2 6228   0.017   2.601  11.594  0.3792 -0.0268  0.4576
  417TMC3    C7 6229   4.646   2.471  11.374 -0.2287  0.6333 -0.0989
  417TMC3    C8 6230   0.133   2.516  11.808  0.0121 -0.4677 -0.3556
  417TMC3    O1 6231   4.628   2.588  11.342  0.3773  0.0336 -0.3206
  417TMC3    O2 6232   0.109   2.455  11.908  0.4190 -0.0939 -0.3134
  418TMC3    C1 6233   3.958   3.524  17.394 -0.1519  0.4551 -0.4989
  418TMC3    C2 6234   3.832   3.470  17.392  0.3846  0.1590  0.2348
  418TMC3    C3 6235   3.757   3.469  17.505  0.2772  0.3531 -0.9729
  418TMC3    C4 6236   4.017   3.574  17.509 -0.0407 -1.2245 -0.6061
  418TMC3    C5 6237   3.937   3.570  17.617  0.0396 -0.1130  0.1350
  418TMC3    C6 6238   3.814   3.520  17.623  0.4926  0.1765 -0.6127
  418TMC3     C 6239   4.041   3.474  17.287 -0.0217 -0.3296 -0.0866
  418TMC3     O 6240   4.001   3.381  17.218  0.5178 -0.3792 -0.0180
  418TMC3     H 6241   3.798   3.432  17.296 -0.1777 -0.3940  0.6575
  418TMC3    H1 6242   4.119   3.609  17.505 -0.2595 -0.8587 -3.0430
  418TMC3    H2 6243   3.762   3.497   0.018 -0.9081 -1.2005 -1.7501
  418TMC3    C7 6244   4.011   3.531   0.038  0.2320  0.7337 -0.5277
  418TMC3    C8 6245   3.698   3.342  17.517  0.6536 -0.0150  0.0725
  418TMC3    O1 6246   3.952   3.464   0.119  0.6535  0.5406 -0.3087
  418TMC3    O2 6247   3.718   3.287  17.626  0.5047  0.0281  0.0711
  419MPD2     C 6248   1.748   1.778  12.334  0.3878 -0.7791 -0.0175
  419MPD2    C1 6249   1.796   1.902  12.354  0.8021 -0.3034  0.2617
  419MPD2    C2 6250   1.802   1.956  12.481  0.2253  0.0667 -0.1124
  419MPD2    C3 6251   1.744   1.884  12.589 -0.3338  0.2687 -0.4315
  419MPD2    C4 6252   1.686   1.761  12.569 -0.1464 -0.6677 -0.0869
  419MPD2    C5 6253   1.695   1.712  12.435 -0.0196  0.4410  0.2382
  419MPD2     H 6254   1.854   2.049  12.501 -1.8117  1.4644 -1.2458
  419MPD2    H1 6255   1.628   1.708  12.645  3.4294  0.7985  3.6572
  419MPD2    H2 6256   1.757   1.723  12.241  0.6947  0.5182 -0.7585
  419MPD2    H3 6257   1.650   1.615  12.416 -1.0030  0.6492  1.4928
  419MPD2     N 6258   1.761   1.938  12.718  0.5870 -0.3538  0.1399
  419MPD2    H5 6259   1.787   2.036  12.719 -3.1033  0.6198  0.7307
  419MPD2    N1 6260   1.866   1.977  12.261  0.4518 -0.1881  0.0245
  419MPD2    H7 6261   1.916   2.054  12.303  0.1946 -0.7782  1.4131
  420TMC3    C1 6262   1.806   1.978  12.938 -0.6320  0.3841  0.3985
  420TMC3    C2 6263   1.785   2.109  12.899 -0.3276 -0.8689 -0.0118
  420TMC3    C3 6264   1.886   2.191  12.945  0.2596 -0.1106  0.3824
  420TMC3    C4 6265   1.907   1.934  13.021  0.4916  0.2520 -0.3727
  420TMC3    C5 6266   2.000   2.026  13.060  1.0879  0.6373 -0.2265
  420TMC3    C6 6267   2.002   2.150  13.011 -0.1337  0.4437  0.5746
  420TMC3     C 6268   1.768   1.876  12.836  0.2634 -0.2417 -0.8620
  420TMC3     O 6269   1.752   1.757  12.860 -0.0717  0.4785  0.3856
  420TMC3     H 6270   1.706   2.145  12.835 -1.2352 -0.2406  1.4603
  420TMC3    H1 6271   1.924   1.827  13.027 -0.2353  0.0610 -1.6597
  420TMC3    H2 6272   2.072   2.222  13.051  2.0984 -0.7349 -1.1916
  420TMC3    C7 6273   2.108   1.988  13.150  0.0631  0.2931 -0.4883
  420TMC3    C8 6274   1.863   2.333  12.914  0.6004 -0.6320  0.0984
  420TMC3    O1 6275   2.088   1.900  13.231  0.3086  0.4820  0.0355
  420TMC3    O2 6276   1.789   2.349  12.813 -0.1117 -0.1767  0.0749
  421TMC3    C1 6277   3.662   4.102  13.629  0.0021  0.5818 -0.2079
  421TMC3    C2 6278   3.715   4.205  13.696  0.2396  0.1250  0.2553
  421TMC3    C3 6279   3.815   4.176  13.789 -0.3641  0.6228  0.0304
  421TMC3    C4 6280   3.684   3.971  13.650 -0.0226  0.5174 -0.8331
  421TMC3    C5 6281   3.777   3.949  13.747  0.6254 -0.3014  0.4245
  421TMC3    C6 6282   3.853   4.050  13.815  0.3979  0.6220 -0.2862
  421TMC3     C 6283   3.616   4.140  13.494 -0.8872  0.7219 -0.2323
  421TMC3     O 6284   3.674   4.232  13.435  1.0827 -0.2330  0.4719
  421TMC3     H 6285   3.704   4.308  13.665 -1.5163  0.3319  1.5684
  421TMC3    H1 6286   3.635   3.888  13.601  1.4142 -0.3438 -0.7969
  421TMC3    H2 6287   3.928   4.024  13.889 -0.6641  0.3898  0.7181
  421TMC3    C7 6288   3.805   3.813  13.784  0.1754  0.4130  0.0443
  421TMC3    C8 6289   3.870   4.269  13.881  0.6000  0.3989  0.0946
  421TMC3    O1 6290   3.819   3.795  13.905 -0.6026 -0.0993 -0.0697
  421TMC3    O2 6291   3.983   4.246  13.932  0.3311 -0.2774 -0.2707
  422TMC3    C1 6292   1.165   0.299  12.699  0.1686 -0.7170  0.2987
  422TMC3    C2 6293   1.130   0.431  12.717 -0.4799  0.6672 -0.0651
  422TMC3    C3 6294   1.013   0.461  12.778 -0.2125 -0.7998  0.2341
  422TMC3    C4 6295   1.075   0.205  12.740 -0.3944 -0.3756  0.2087
  422TMC3    C5 6296   0.954   0.237  12.802  0.3788  0.1113 -0.5442
  422TMC3    C6 6297   0.916   0.369  12.808  0.5508 -0.2003 -0.0879
  422TMC3     C 6298   1.263   0.260  12.600 -0.5750  0.5077  0.4408
  422TMC3     O 6299   1.339   0.350  12.562 -0.4387 -0.5084  0.3514
  422TMC3     H 6300   1.187   0.512  12.673  1.4131 -0.5302  0.1617
  422TMC3    H1 6301   1.104   0.101  12.737 -2.6713 -1.0396  1.0273
  422TMC3    H2 6302   0.814   0.399  12.830  1.0562  0.6085  1.1157
  422TMC3    C7 6303   0.848   0.133  12.800 -0.5726 -0.3042 -0.4387
  422TMC3    C8 6304   0.979   0.607  12.767  0.1785  0.3221 -1.0783
  422TMC3    O1 6305   0.875   0.028  12.739 -0.5874  0.4539 -0.3750
  422TMC3    O2 6306   1.065   0.694  12.770  0.3881  0.4223  0.1302
  423MPD2     C 6307   2.747   1.543   0.549  0.0103  0.2747 -0.1546
  423MPD2    C1 6308   2.692   1.435   0.601 -0.2861 -0.0705  0.3237
  423MPD2    C2 6309   2.734   1.312   0.547 -0.2448  0.0629  0.3191
  423MPD2    C3 6310   2.813   1.302   0.434 -0.2088 -0.3151  0.5963
  423MPD2    C4 6311   2.867   1.418   0.384 -0.0612 -0.8115 -0.6124
  423MPD2    C5 6312   2.832   1.536   0.440 -0.7657 -0.2690 -0.2292
  423MPD2     H 6313   2.697   1.222   0.595 -1.1497 -0.0852 -0.6525
  423MPD2    H1 6314   2.933   1.409   0.298 -2.2704 -0.7412 -2.3008
  423MPD2    H2 6315   2.719   1.640   0.589 -0.7038 -0.5257  1.2740
  423MPD2    H3 6316   2.857   1.628   0.389 -0.2581 -0.5880 -0.5499
  423MPD2     N 6317   2.831   1.186   0.355 -0.4522 -0.2830  0.1914
  423MPD2    H5 6318   2.875   1.209   0.266  2.9558 -0.4502  1.8526
  423MPD2    N1 6319   2.623   1.444   0.731 -0.2312  0.1612  0.6983
  423MPD2    H7 6320   2.587   1.358   0.771 -0.5722  1.0915  2.3975
  424TMC3    C1 6321   2.527   1.527   0.916 -0.0426  0.0428 -0.5823
  424TMC3    C2 6322   2.579   1.422   0.983 -0.1643  0.1482  0.0728
  424TMC3    C3 6323   2.500   1.384   1.092 -0.8259  0.3877 -0.2715
  424TMC3    C4 6324   2.409   1.592   0.938 -0.1042 -0.5082 -0.3940
  424TMC3    C5 6325   2.333   1.539   1.035 -0.5609  0.4064  0.0302
  424TMC3    C6 6326   2.378   1.439   1.115 -0.5884 -0.5021  0.4068
  424TMC3     C 6327   2.589   1.563   0.795  0.0355  0.2343  0.1715
  424TMC3     O 6328   2.571   1.673   0.748  0.0665  0.0529 -0.5359
  424TMC3     H 6329   2.680   1.392   0.958  0.0927  1.5310 -0.5147
  424TMC3    H1 6330   2.374   1.667   0.869 -2.2826 -1.2127 -0.0611
  424TMC3    H2 6331   2.318   1.394   1.194  0.4878 -1.7150  0.5248
  424TMC3    C7 6332   2.217   1.620   1.068 -0.0150  0.1263  0.2834
  424TMC3    C8 6333   2.555   1.287   1.179 -0.1243  0.0280 -0.0953
  424TMC3    O1 6334   2.213   1.735   1.034 -0.3030  0.0031 -0.2583
  424TMC3    O2 6335   2.478   1.215   1.235 -0.0470 -0.1048 -0.2584
  425MPD2     C 6336   2.059   0.495  17.456  0.3608 -0.0244 -0.2631
  425MPD2    C1 6337   1.964   0.393  17.460  0.3121 -0.4697  0.2532
  425MPD2    C2 6338   1.837   0.417  17.512 -0.0436 -0.1008 -1.5190
  425MPD2    C3 6339   1.813   0.537  17.574 -0.3455  0.7502 -0.1131
  425MPD2    C4 6340   1.908   0.632  17.574 -0.2590  0.4460 -0.2507
  425MPD2    C5 6341   2.033   0.612  17.519 -0.2796  0.4330 -0.5136
  425MPD2     H 6342   1.761   0.341  17.520 -1.1023  1.2706  1.3005
  425MPD2    H1 6343   1.894   0.728  17.624 -0.3865 -0.4783  1.4714
  425MPD2    H2 6344   2.157   0.482  17.412 -0.1861 -2.3629 -0.7892
  425MPD2    H3 6345   2.103   0.695  17.522 -2.3088  2.1198  0.9575
  425MPD2     N 6346   1.685   0.556  17.632 -0.5368  0.7134  0.4215
  425MPD2    H5 6347   1.622   0.477  17.629  1.0527 -0.5691  0.7286
  425MPD2    N1 6348   2.000   0.266  17.400  0.2130  0.5742  0.6037
  425MPD2    H7 6349   2.096   0.257  17.368  0.5651  1.1343  1.5032
  426TMC3    C1 6350   2.000   0.052  17.310  0.3999 -0.3723 -0.3988
  426TMC3    C2 6351   1.952   4.688  17.223  0.0443 -0.1625  0.0198
  426TMC3    C3 6352   2.028   4.576  17.185  0.4114 -0.7123  0.1907
  426TMC3    C4 6353   2.114   0.020  17.377 -0.0452 -0.0606  0.2187
  426TMC3    C5 6354   2.185   4.622  17.349 -0.3733  0.8721  0.2935
  426TMC3    C6 6355   2.147   4.547  17.246  0.5031  0.0386 -0.3349
  426TMC3     C 6356   1.919   0.163  17.371 -0.2609  0.1248  0.2319
  426TMC3     O 6357   1.797   0.165  17.355 -0.5570  0.1469 -0.9236
  426TMC3     H 6358   1.857   4.704  17.174 -0.3346  1.7301  1.3817
  426TMC3    H1 6359   2.162   0.091  17.445  0.1046  2.5340 -2.5983
  426TMC3    H2 6360   2.205   4.464  17.207  2.1668  0.2988  1.5890
  426TMC3    C7 6361   2.283   4.567  17.434 -0.3117  0.4207 -0.7520
  426TMC3    C8 6362   1.997   4.490  17.075 -0.6328  0.3619  0.0700
  426TMC3    O1 6363   2.315   4.453  17.404  0.1975 -0.2596  0.2884
  426TMC3    O2 6364   2.089   4.438  17.014 -0.3798 -0.3790 -0.4382
  427MPD2     C 6365   4.375   1.958  15.288 -0.0497 -0.8453  0.3819
  427MPD2    C1 6366   4.470   2.030  15.210  0.2153  0.6815 -0.4047
  427MPD2    C2 6367   4.420   2.147  15.146  0.5192  0.2518 -0.3923
  427MPD2    C3 6368   4.295   2.200  15.181 -1.0932 -0.4965  0.5203
  427MPD2    C4 6369   4.216   2.140  15.274 -0.5729 -0.2839 -0.9873
  427MPD2    C5 6370   4.258   2.017  15.327 -0.6433  0.7388  0.1845
  427MPD2     H 6371   4.494   2.202  15.089  0.0208  2.1863  0.8067
  427MPD2    H1 6372   4.129   2.196  15.305 -1.5274 -2.2528 -0.1361
  427MPD2    H2 6373   4.393   1.864  15.338  1.2803  1.0138  3.4134
  427MPD2    H3 6374   4.200   1.963  15.401 -0.3006  0.9912  0.6392
  427MPD2     N 6375   4.249   2.323  15.115  0.2049  0.1324 -0.3083
  427MPD2    H5 6376   4.150   2.337  15.128  0.3795  0.8446  0.2431
  427MPD2    N1 6377   4.598   1.983  15.184 -0.1502 -1.2061 -0.2618
  427MPD2    H7 6378   4.656   2.041  15.124  0.1936 -2.0480 -0.7463
  428TMC3    C1 6379   0.068   1.844  15.187  0.1212 -0.1257 -0.1182
  428TMC3    C2 6380   0.113   1.716  15.207  0.3696  0.0300 -0.2052
  428TMC3    C3 6381   0.221   1.681  15.135 -0.8054  0.2566  0.6021
  428TMC3    C4 6382   0.132   1.932  15.107  0.8135 -0.3432 -0.2868
  428TMC3    C5 6383   0.238   1.890  15.031 -0.1565 -1.0188  0.2257
  428TMC3    C6 6384   0.285   1.756  15.040 -0.4957  0.0116 -0.4175
  428TMC3     C 6385   4.654   1.868  15.240 -0.1384 -0.2752  0.1896
  428TMC3     O 6386   4.610   1.793  15.327  0.2666 -0.3617 -0.5367
  428TMC3     H 6387   0.069   1.636  15.265 -0.1437  0.9184  0.6185
  428TMC3    H1 6388   0.102   2.036  15.103  1.8733  0.0207  1.2913
  428TMC3    H2 6389   0.359   1.721  14.969 -0.1739  1.0234 -0.5903
  428TMC3    C7 6390   0.332   1.991  14.973  0.1098  0.0792 -0.4506
  428TMC3    C8 6391   0.284   1.552  15.153 -0.2173 -0.2519 -0.0468
  428TMC3    O1 6392   0.447   1.964  14.982 -0.5315 -0.3249  0.2891
  428TMC3    O2 6393   0.359   1.520  15.062  0.3048 -0.1584 -0.3827
  429MPD2     C 6394   1.287   2.697   0.069  0.1209  0.1175  0.1466
  429MPD2    C1 6395   1.416   2.644   0.073  0.4121  0.4069 -0.3127
  429MPD2    C2 6396   1.514   2.699  17.692 -0.0360  0.2005 -0.8124
  429MPD2    C3 6397   1.488   2.802  17.606  0.3301 -0.3168  0.4450
  429MPD2    C4 6398   1.362   2.855  17.603 -0.5128  0.6354  0.0936
  429MPD2    C5 6399   1.262   2.800  17.677  0.3493  0.0700 -0.0432
  429MPD2     H 6400   1.620   2.679   0.010 -0.8543 -1.3384  3.0171
  429MPD2    H1 6401   1.334   2.930  17.530 -0.4972  1.8522  1.3318
  429MPD2    H2 6402   1.209   2.661   0.136 -0.1143  0.0254 -0.1755
  429MPD2    H3 6403   1.166   2.849  17.672  0.3763 -0.2886 -3.9230
  429MPD2     N 6404   1.592   2.843  17.517  0.7490  0.2959  0.4497
  429MPD2    H5 6405   1.682   2.799  17.531  1.0149  0.0244 -1.9618
  429MPD2    N1 6406   1.453   2.529   0.148 -0.7646  0.9559  0.0806
  429MPD2    H7 6407   1.551   2.502   0.151 -1.2496 -0.5850  1.9634
  430TMC3    C1 6408   1.696   2.898  17.309 -0.3496 -0.0453  0.4664
  430TMC3    C2 6409   1.686   2.961  17.192  0.0321 -0.4280  0.1789
  430TMC3    C3 6410   1.789   2.939  17.102 -0.1295 -0.3244 -0.3717
  430TMC3    C4 6411   1.800   2.812  17.340 -0.0556 -0.1008 -0.0451
  430TMC3    C5 6412   1.896   2.794  17.242 -0.0054  0.5471  0.2037
  430TMC3    C6 6413   1.894   2.859  17.124  0.1107  0.3320  0.6804
  430TMC3     C 6414   1.576   2.904  17.393 -0.1456  0.0972  0.2096
  430TMC3     O 6415   1.470   2.947  17.343  0.3346 -0.0810  0.2182
  430TMC3     H 6416   1.602   3.018  17.155  1.0606  1.8375  1.3115
  430TMC3    H1 6417   1.800   2.740  17.422  2.0641  0.6319  0.6220
  430TMC3    H2 6418   1.964   2.837  17.045 -0.6641  2.3609 -0.5681
  430TMC3    C7 6419   1.940   2.655  17.227 -0.4181  0.7575 -0.0094
  430TMC3    C8 6420   1.756   2.945  16.964 -0.1710 -0.6003 -0.6580
  430TMC3    O1 6421   1.856   2.570  17.249  0.4030  0.5973 -0.6786
  430TMC3    O2 6422   1.642   2.903  16.927 -0.2369  0.0512  0.2940
  431MPD2     C 6423   2.062   2.746  12.508  0.3821  0.0395 -0.4032
  431MPD2    C1 6424   2.167   2.731  12.414  0.4235  0.3490 -0.3853
  431MPD2    C2 6425   2.179   2.610  12.345 -0.8893 -0.4973 -0.0760
  431MPD2    C3 6426   2.077   2.518  12.349  0.1042 -0.2774  0.1034
  431MPD2    C4 6427   1.974   2.537  12.440  0.1074  0.1387 -0.8425
  431MPD2    C5 6428   1.973   2.649  12.520 -0.0064 -0.7243  0.2365
  431MPD2     H 6429   2.271   2.600  12.288  1.1527 -1.0915  3.3155
  431MPD2    H1 6430   1.891   2.469  12.457 -0.2726  0.1184 -2.7355
  431MPD2    H2 6431   2.043   2.835  12.567  1.2049  0.2408 -0.4500
  431MPD2    H3 6432   1.886   2.669  12.582 -0.6452 -0.3741 -0.7614
  431MPD2     N 6433   2.069   2.404  12.272 -0.2711  0.0594 -0.2873
  431MPD2    H5 6434   1.992   2.339  12.281 -1.5450  1.9587  2.5632
  431MPD2    N1 6435   2.250   2.837  12.386 -0.3670  0.0609  0.2466
  431MPD2    H7 6436   2.330   2.817  12.326  1.1801 -0.3194  2.4438
  432TMC3    C1 6437   2.142   2.228  12.127 -0.1800 -0.2761  0.1300
  432TMC3    C2 6438   2.234   2.175  12.029 -0.6305  0.2370 -0.0527
  432TMC3    C3 6439   2.202   2.049  11.980  0.2714  0.2070 -0.5270
  432TMC3    C4 6440   2.023   2.158  12.153  0.6199  0.6406 -0.2556
  432TMC3    C5 6441   2.002   2.040  12.096 -0.2485 -0.1658  0.1762
  432TMC3    C6 6442   2.089   1.986  12.009 -0.0027 -0.0527 -0.2098
  432TMC3     C 6443   2.171   2.356  12.190 -0.2550  0.1907 -0.2311
  432TMC3     O 6444   2.274   2.411  12.166 -0.6191  0.4772  0.0736
  432TMC3     H 6445   2.324   2.234  12.016  0.1327 -1.0122 -0.4523
  432TMC3    H1 6446   1.943   2.209  12.206 -0.1382 -0.3883 -0.4154
  432TMC3    H2 6447   2.055   1.900  11.953  1.3268 -1.1580  0.6928
  432TMC3    C7 6448   1.896   1.953  12.136  1.4020 -0.5076  0.1443
  432TMC3    C8 6449   2.302   1.979  11.904  0.2503 -0.1464 -0.1576
  432TMC3    O1 6450   1.877   1.846  12.078 -0.2749  0.3551  0.5820
  432TMC3    O2 6451   2.276   1.870  11.859 -0.3032  0.8169 -0.5601
  433MPD2     C 6452   1.007   1.532  10.597 -0.6187  0.6821 -0.5226
  433MPD2    C1 6453   1.000   1.427  10.690  0.5524  0.3452  0.8243
  433MPD2    C2 6454   1.035   1.452  10.821  0.1100  0.0493 -0.0603
  433MPD2    C3 6455   1.067   1.584  10.863 -0.3275  0.2883  0.7153
  433MPD2    C4 6456   1.077   1.685  10.770  0.0075 -0.4517  0.0852
  433MPD2    C5 6457   1.041   1.660  10.641 -0.9684 -0.5845 -0.7594
  433MPD2     H 6458   1.039   1.373  10.896  0.1542 -0.3729 -0.5037
  433MPD2    H1 6459   1.112   1.784  10.798 -2.2823 -0.0290  1.4423
  433MPD2    H2 6460   0.989   1.528  10.490 -1.3878  0.0414 -0.3683
  433MPD2    H3 6461   1.031   1.745  10.575  0.3817  0.2909  0.1425
  433MPD2     N 6462   1.107   1.598  10.998 -0.1685 -0.3525 -0.6003
  433MPD2    H5 6463   1.118   1.512  11.049 -0.1951 -0.0174 -0.0348
  433MPD2    N1 6464   0.973   1.299  10.631  0.0471  0.2451  0.0578
  433MPD2    H7 6465   0.972   1.281  10.531  0.6611 -0.9520  0.2697
  434TMC3    C1 6466   0.935   1.073  10.638  0.1174 -0.4786 -0.0226
  434TMC3    C2 6467   0.973   0.969  10.723 -0.3802  0.6064 -0.0258
  434TMC3    C3 6468   1.022   0.857  10.663 -0.2962 -0.8838  0.3283
  434TMC3    C4 6469   0.936   1.069  10.504 -0.1794  0.1356  0.4977
  434TMC3    C5 6470   0.974   0.945  10.446 -0.0268  0.8393 -0.7087
  434TMC3    C6 6471   1.018   0.840  10.528  0.3207  0.4156 -0.2035
  434TMC3     C 6472   0.924   1.197  10.710  0.1641  0.2008  0.5409
  434TMC3     O 6473   0.892   1.195  10.827 -0.0593  0.4074 -0.1384
  434TMC3     H 6474   0.974   0.977  10.831 -1.3391 -0.4081  0.0598
  434TMC3    H1 6475   0.886   1.139  10.438 -1.0497  0.2564  1.2767
  434TMC3    H2 6476   1.069   0.751  10.492  0.6367  0.7760 -0.6594
  434TMC3    C7 6477   0.907   0.916  10.321  0.8129 -0.3316  1.0145
  434TMC3    C8 6478   1.110   0.780  10.742  0.1195  0.5495  0.5644
  434TMC3    O1 6479   0.828   1.002  10.280  0.2147 -0.5310 -0.7283
  434TMC3    O2 6480   1.152   0.845  10.837 -0.8418 -0.0202 -0.6418
  435MPD2     C 6481   2.839   1.232  15.644  0.2379 -0.0555 -0.2742
  435MPD2    C1 6482   2.847   1.299  15.762  0.5709 -0.0695  0.0524
  435MPD2    C2 6483   2.966   1.296  15.829  0.2322 -0.1059  0.5164
  435MPD2    C3 6484   3.075   1.218  15.791  0.1469  0.1451 -0.2476
  435MPD2    C4 6485   3.059   1.141  15.681 -0.2828 -0.5850  0.8336
  435MPD2    C5 6486   2.950   1.162  15.603 -0.5467 -0.0836 -0.1174
  435MPD2     H 6487   2.972   1.352  15.921 -1.7814  0.2898  0.4000
  435MPD2    H1 6488   3.144   1.086  15.644 -0.1812 -0.9365  1.5836
  435MPD2    H2 6489   2.757   1.249  15.576 -0.2434  1.1190  0.5941
  435MPD2    H3 6490   2.948   1.127  15.500 -1.5055 -2.1799  0.6047
  435MPD2     N 6491   3.188   1.215  15.878 -0.1520 -0.2107  0.5405
  435MPD2    H5 6492   3.188   1.277  15.958  0.9564  1.2334 -0.5792
  435MPD2    N1 6493   2.730   1.358  15.819 -0.4198  0.3364  0.2393
  435MPD2    H7 6494   2.740   1.410  15.906 -1.5003 -1.5923  1.5151
  436TMC3    C1 6495   2.470   1.570  16.014 -0.4290  0.0873 -1.4493
  436TMC3    C2 6496   2.548   1.523  15.916  0.2959 -0.2661 -0.0474
  436TMC3    C3 6497   2.508   1.413  15.846  1.0311  0.4343 -0.5793
  436TMC3    C4 6498   2.370   1.491  16.050  0.2304  0.0479 -0.2957
  436TMC3    C5 6499   2.319   1.398  15.967 -0.4611 -0.8647 -0.5250
  436TMC3    C6 6500   2.390   1.351  15.858  0.4420 -0.5093 -0.0419
  436TMC3     C 6501   2.547   1.640  16.117  0.4340 -0.2132  0.5134
  436TMC3     O 6502   2.666   1.660  16.098  0.1324 -0.6717 -0.2865
  436TMC3     H 6503   2.624   1.584  15.868 -0.2162  0.4635  0.0655
  436TMC3    H1 6504   2.319   1.510  16.143  1.4448 -2.8783  0.9790
  436TMC3    H2 6505   2.348   1.282  15.786 -1.9377  1.3091 -0.3784
  436TMC3    C7 6506   2.208   1.321  16.018  0.1875  0.1284 -0.0719
  436TMC3    C8 6507   2.607   1.351  15.762 -0.2561 -0.3023  0.3334
  436TMC3    O1 6508   2.193   1.206  15.980 -0.4256 -0.0953 -1.0150
  436TMC3    O2 6509   2.569   1.302  15.658 -0.0105 -0.1253 -0.2654
  437TMC3    C1 6510   1.713   3.701  12.076 -0.1840  0.6361 -0.4583
  437TMC3    C2 6511   1.643   3.724  11.958  0.4094  0.2625 -0.3630
  437TMC3    C3 6512   1.711   3.708  11.844 -0.2564 -0.4176  1.0662
  437TMC3    C4 6513   1.850   3.689  12.081 -0.2353  0.4971  0.3688
  437TMC3    C5 6514   1.912   3.676  11.959 -0.3962 -0.2014 -0.2714
  437TMC3    C6 6515   1.845   3.683  11.836 -0.6306 -0.2716  0.1014
  437TMC3     C 6516   1.640   3.724  12.201  1.3384  0.1599 -0.0997
  437TMC3     O 6517   1.542   3.798  12.189  0.1313  0.6891  0.5049
  437TMC3     H 6518   1.534   3.731  11.960  0.5346  1.9046  0.9011
  437TMC3    H1 6519   1.898   3.715  12.175  1.2804  0.1635 -0.3066
  437TMC3    H2 6520   1.907   3.679  11.748  0.5122  1.7564  0.8365
  437TMC3    C7 6521   2.056   3.651  11.952  0.0025 -0.2219 -0.8106
  437TMC3    C8 6522   1.653   3.626  11.732 -0.1724  0.4729 -0.1196
  437TMC3    O1 6523   2.115   3.657  11.843  0.7527  0.1216 -0.0250
  437TMC3    O2 6524   1.710   3.635  11.625  0.7572  0.8652 -0.3531
  438MPD2     C 6525   4.483   4.170  16.676  0.6402 -0.3137  0.1519
  438MPD2    C1 6526   4.469   4.064  16.590 -0.0286 -0.3189  0.5664
  438MPD2    C2 6527   4.381   3.963  16.619 -0.4422  0.7299 -0.2147
  438MPD2    C3 6528   4.320   3.962  16.741 -1.0055 -0.6941 -0.5653
  438MPD2    C4 6529   4.348   4.057  16.834 -0.6294  0.0931  0.1788
  438MPD2    C5 6530   4.428   4.162  16.798 -0.1586  0.1755 -0.4585
  438MPD2     H 6531   4.373   3.885  16.545  4.0844 -1.0440  1.2048
  438MPD2    H1 6532   4.309   4.056  16.935  1.1996  3.8565  0.9372
  438MPD2    H2 6533   4.551   4.253  16.658 -0.9167  0.6741 -1.1933
  438MPD2    H3 6534   4.448   4.237  16.874 -0.7835  1.0093 -1.1172
  438MPD2     N 6535   4.248   3.853  16.794  0.7771 -0.4496  0.5677
  438MPD2    H5 6536   4.195   3.878  16.877  0.0888  3.1026 -0.9420
  438MPD2    N1 6537   4.537   4.060  16.469 -0.1419  0.2025 -0.1847
  438MPD2    H7 6538   4.520   3.976  16.413 -3.0113  0.8850 -0.3259
  439TMC3    C1 6539   0.015   4.015  16.382 -0.5018  0.0420 -0.3418
  439TMC3    C2 6540   4.666   3.938  16.294  0.7984  0.2103 -0.6739
  439TMC3    C3 6541   4.707   3.811  16.262 -0.0408 -0.1139 -0.1083
  439TMC3    C4 6542   0.123   3.974  16.446  0.5338  0.3511  0.6108
  439TMC3    C5 6543   0.165   3.836  16.417  0.0196  0.3390  0.2003
  439TMC3    C6 6544   0.087   3.755  16.336 -0.3251 -0.1030 -0.0223
  439TMC3     C 6545   4.663   4.112  16.456 -0.8667 -0.0337 -0.4236
  439TMC3     O 6546   0.000   4.194  16.525  1.0560  0.3695  0.0569
  439TMC3     H 6547   4.581   3.978  16.240 -0.8183 -2.0911  0.1413
  439TMC3    H1 6548   0.182   4.046  16.501  2.9702  0.9480 -2.7754
  439TMC3    H2 6549   0.121   3.654  16.316 -1.0131 -0.0446 -1.4865
  439TMC3    C7 6550   0.300   3.802  16.460 -0.2498 -0.7429 -0.2664
  439TMC3    C8 6551   4.696   3.761  16.126 -1.1042 -0.7528  0.1612
  439TMC3    O1 6552   0.329   3.692  16.500 -0.2268 -0.3794 -0.4826
  439TMC3    O2 6553   0.071   3.684  16.106  0.3640  0.7770 -0.5110
  440MPD2     C 6554   3.431   0.314  14.421 -0.0688 -0.1411  0.4658
  440MPD2    C1 6555   3.394   0.262  14.544  0.4728  0.2001 -0.4473
  440MPD2    C2 6556   3.470   0.175  14.622 -0.0331  0.5049 -0.1052
  440MPD2    C3 6557   3.592   0.138  14.568 -0.3950 -0.2276 -0.2415
  440MPD2    C4 6558   3.627   0.176  14.440  0.7526  0.5108  0.2141
  440MPD2    C5 6559   3.546   0.261  14.369  0.1525  0.4289  0.1513
  440MPD2     H 6560   3.444   0.142  14.722 -1.5408 -2.0002 -1.3232
  440MPD2    H1 6561   3.729   0.173  14.402  0.2274 -0.0659 -1.1419
  440MPD2    H2 6562   3.373   0.371  14.349  2.3341  0.7021 -0.8261
  440MPD2    H3 6563   3.578   0.295  14.271 -1.1329 -1.5851 -0.9580
  440MPD2     N 6564   3.696   0.062  14.634  0.5375  0.4275 -0.4451
  440MPD2    H5 6565   3.785   0.064  14.585  1.4272  0.8810  1.1862
  440MPD2    N1 6566   3.267   0.295  14.607 -0.7341 -0.2334 -0.1699
  440MPD2    H7 6567   3.248   0.259  14.700  0.9961 -0.4123  0.1013
  441TMC3    C1 6568   3.809   4.684  14.814  0.0133 -0.2324 -0.4222
  441TMC3    C2 6569   3.874   0.072  14.865 -0.0724  0.4018 -0.2824
  441TMC3    C3 6570   3.889   0.064  15.002  0.1403  0.1009 -0.1498
  441TMC3    C4 6571   3.797   4.564  14.885 -0.6899  0.2090 -0.0773
  441TMC3    C5 6572   3.835   4.561  15.013  0.0085  0.2361  0.8924
  441TMC3    C6 6573   3.872   4.675  15.078 -0.0099  0.2616 -0.5257
  441TMC3     C 6574   3.681   0.000  14.760  0.7716 -0.5897 -0.5351
  441TMC3     O 6575   3.578   4.684  14.814  0.2714 -0.1619 -0.1431
  441TMC3     H 6576   3.879   0.165  14.810 -0.7866  0.8253  0.3584
  441TMC3    H1 6577   3.770   4.474  14.831  1.3096 -1.7190  2.1167
  441TMC3    H2 6578   3.869   4.671  15.186  2.4283 -2.1348 -0.5523
  441TMC3    C7 6579   3.733   4.488  15.093 -0.0305 -0.0041  0.7332
  441TMC3    C8 6580   3.797   0.168  15.056  0.0187  0.6215  0.1547
  441TMC3    O1 6581   3.759   4.431  15.199  0.0785  0.4607 -0.2278
  441TMC3    O2 6582   3.714   0.202  14.973 -0.3425  0.0526 -0.8484
  442MPD2     C 6583   1.138   4.464  17.261 -0.0787  0.4125 -0.7587
  442MPD2    C1 6584   1.184   4.563  17.175  0.6211 -0.3180 -0.6874
  442MPD2    C2 6585   1.241   4.524  17.055 -0.1322  0.4250  0.1706
  442MPD2    C3 6586   1.238   4.391  17.011  0.7812 -0.0971  0.0454
  442MPD2    C4 6587   1.177   4.299  17.095  0.1701  0.3988 -0.5180
  442MPD2    C5 6588   1.134   4.334  17.219  0.2958 -0.4965 -0.1230
  442MPD2     H 6589   1.288   4.600  16.992  0.2251  0.2540  0.2319
  442MPD2    H1 6590   1.172   4.196  17.060 -1.2706 -0.5573  2.4744
  442MPD2    H2 6591   1.087   4.478  17.355 -0.3733 -0.3771 -0.8036
  442MPD2    H3 6592   1.106   4.251  17.284  0.8375 -0.7577 -0.2238
  442MPD2     N 6593   1.293   4.338  16.893 -0.0966  0.2048 -0.2470
  442MPD2    H5 6594   1.302   4.238  16.878  0.8183  0.5412 -1.9694
  442MPD2    N1 6595   1.169   4.705  17.198  0.3080 -0.6541  0.0111
  442MPD2    H7 6596   1.216   0.048  17.137  0.6763 -0.1879  0.7916
  443TMC3    C1 6597   1.109   0.194  17.285 -0.7865  0.0229  0.0745
  443TMC3    C2 6598   1.184   0.249  17.184  0.5036  0.4951  0.2798
  443TMC3    C3 6599   1.149   0.372  17.141  0.2917 -0.4000  0.2972
  443TMC3    C4 6600   0.991   0.247  17.332 -0.8377 -0.2936 -0.4804
  443TMC3    C5 6601   0.949   0.365  17.281  0.1006  0.3877 -0.5718
  443TMC3    C6 6602   1.031   0.428  17.186  0.3177  0.1358 -0.2737
  443TMC3     C 6603   1.115   0.049  17.303  0.1761  0.8108  0.4435
  443TMC3     O 6604   1.045   4.721  17.387 -0.0070 -0.1288 -0.2424
  443TMC3     H 6605   1.278   0.200  17.159  0.0092  0.0348 -0.6613
  443TMC3    H1 6606   0.928   0.194  17.402 -2.1413  0.6508 -0.9341
  443TMC3    H2 6607   1.010   0.524  17.140 -1.3983 -0.2280 -0.2483
  443TMC3    C7 6608   0.810   0.376  17.249 -0.3469  0.3968  0.3524
  443TMC3    C8 6609   1.214   0.419  17.020  0.1417  0.6600 -0.1620
  443TMC3    O1 6610   0.758   0.484  17.249 -0.6893  0.2887 -0.2249
  443TMC3    O2 6611   1.295   0.333  16.979  0.2499 -0.0973  0.1811
  444MPD2     C 6612   1.785   4.343  17.529  0.5048  0.2605  0.8129
  444MPD2    C1 6613   1.701   4.265  17.467 -0.6702  0.3154  0.1868
  444MPD2    C2 6614   1.737   4.201  17.355 -0.1262  0.0577  0.1755
  444MPD2    C3 6615   1.866   4.208  17.309  0.5283  0.0980  0.0414
  444MPD2    C4 6616   1.953   4.290  17.378 -0.0702  0.3821 -0.1146
  444MPD2    C5 6617   1.910   4.363  17.484  0.0431  0.6446 -0.5746
  444MPD2     H 6618   1.657   4.142  17.313 -0.2380 -0.2228  0.7721
  444MPD2    H1 6619   2.057   4.298  17.349  0.3209 -1.7279  0.6350
  444MPD2    H2 6620   1.766   4.382  17.629 -2.4739 -1.1029  0.7951
  444MPD2    H3 6621   1.982   4.419  17.542 -1.0879  0.0477  1.4221
  444MPD2     N 6622   1.905   4.128  17.206 -0.2034 -0.2752 -0.4357
  444MPD2    H5 6623   1.834   4.063  17.177 -1.0107  0.3371  0.1464
  444MPD2    N1 6624   1.561   4.245  17.511  0.0693  0.5477 -0.2357
  444MPD2    H7 6625   1.501   4.181  17.460  1.1004  1.8609 -3.1004
  445TMC3    C1 6626   2.032   4.024  17.038  0.0747 -0.2875  0.4442
  445TMC3    C2 6627   1.913   3.954  17.004  0.6555  1.4678  0.5589
  445TMC3    C3 6628   1.929   3.859  16.911 -0.3716  0.3788  0.1124
  445TMC3    C4 6629   2.157   3.987  16.986 -0.1638  0.5863  0.8671
  445TMC3    C5 6630   2.163   3.891  16.893 -0.6520  0.8022  0.5461
  445TMC3    C6 6631   2.049   3.826  16.852  0.0186  0.4122  0.9783
  445TMC3     C 6632   2.026   4.124  17.142 -0.3507 -0.0459 -0.0750
  445TMC3     O 6633   2.131   4.181  17.165 -0.3751 -0.2074 -0.5610
  445TMC3     H 6634   1.815   3.991  17.030  0.4916  0.3334  1.5537
  445TMC3    H1 6635   2.245   4.045  17.011 -0.1598  1.2508 -0.6677
  445TMC3    H2 6636   2.046   3.763  16.764 -0.5224  1.8607 -0.0511
  445TMC3    C7 6637   2.289   3.868  16.815 -0.8856 -0.6181 -0.6212
  445TMC3    C8 6638   1.811   3.773  16.876 -0.9403 -0.0189  0.8572
  445TMC3    O1 6639   2.380   3.950  16.825 -0.0039 -0.0215 -0.3199
  445TMC3    O2 6640   1.812   3.712  16.769  0.2472  0.3208  0.5903
  446MPD2     C 6641   1.038   0.543  11.291 -0.5421 -0.0514 -0.6120
  446MPD2    C1 6642   1.009   0.562  11.157  0.0715  0.0144 -0.0315
  446MPD2    C2 6643   1.057   0.678  11.097 -1.0792  0.8977  1.0359
  446MPD2    C3 6644   1.141   0.768  11.167 -0.3587  0.2658  1.0066
  446MPD2    C4 6645   1.170   0.730  11.294  0.2480  0.1642 -0.0347
  446MPD2    C5 6646   1.122   0.623  11.364  1.2659 -0.4455  0.2379
  446MPD2     H 6647   1.036   0.689  10.992 -0.9266  1.1484  1.0314
  446MPD2    H1 6648   1.228   0.795  11.359 -1.5534 -0.2899  2.0245
  446MPD2    H2 6649   0.999   0.454  11.340  0.0956  0.3972  0.6956
  446MPD2    H3 6650   1.138   0.597  11.468 -0.0385 -1.1432  0.2586
  446MPD2     N 6651   1.189   0.884  11.102  0.1048  0.2564 -0.1207
  446MPD2    H5 6652   1.158   0.901  11.007  2.6365 -1.0132 -1.1638
  446MPD2    N1 6653   0.918   0.478  11.081  0.3068  0.5809 -0.8110
  446MPD2    H7 6654   0.901   0.507  10.985 -3.1822 -1.7293 -0.8685
  447TMC3    C1 6655   1.331   1.077  11.058 -0.0727  0.1930 -0.2490
  447TMC3    C2 6656   1.286   1.089  10.927 -0.2257  0.4708 -0.4263
  447TMC3    C3 6657   1.355   1.173  10.841 -0.2032  1.3052 -0.2095
  447TMC3    C4 6658   1.446   1.138  11.099  0.1564  0.8277  0.2189
  447TMC3    C5 6659   1.520   1.220  11.015  0.0479 -0.4975  0.5264
  447TMC3    C6 6660   1.476   1.222  10.883 -0.3823  0.3182  0.2352
  447TMC3     C 6661   1.281   0.968  11.150 -0.2382  0.0156  1.2185
  447TMC3     O 6662   1.347   0.954  11.252 -0.3277  0.1513 -0.3362
  447TMC3     H 6663   1.184   1.058  10.908  0.3312 -1.2639 -0.6093
  447TMC3    H1 6664   1.475   1.120  11.202  0.4562 -0.3438 -0.0671
  447TMC3    H2 6665   1.542   1.280  10.820  1.7496 -1.5355  0.7614
  447TMC3    C7 6666   1.660   1.216  11.043 -0.0955  0.5482  0.7270
  447TMC3    C8 6667   1.346   1.138  10.701 -0.8924  0.4638  0.7929
  447TMC3    O1 6668   1.730   1.167  10.957  0.0519 -0.4331 -0.1413
  447TMC3    O2 6669   1.331   1.236  10.626  0.1242  0.2045  0.6307
  448TMC3    C1 6670   4.222   1.060  16.569 -0.6892 -0.0670 -0.4347
  448TMC3    C2 6671   4.245   0.927  16.529 -0.0757 -0.0676 -0.0648
  448TMC3    C3 6672   4.318   0.858  16.619  0.2131 -0.0067 -0.6411
  448TMC3    C4 6673   4.262   1.118  16.685 -0.4048 -1.5602  0.9293
  448TMC3    C5 6674   4.330   1.034  16.773  0.2310  0.1863  0.0204
  448TMC3    C6 6675   4.350   0.900  16.745  0.2540  0.0089 -1.5382
  448TMC3     C 6676   4.143   1.145  16.485 -0.0694  0.7957  0.4458
  448TMC3     O 6677   4.097   1.081  16.388 -0.2277  0.4920 -0.4154
  448TMC3     H 6678   4.220   0.898  16.427  1.7646 -0.2336 -0.4727
  448TMC3    H1 6679   4.264   1.225  16.701  0.5538 -1.4034 -0.2587
  448TMC3    H2 6680   4.400   0.830  16.811  0.0152  0.3827 -0.9609
  448TMC3    C7 6681   4.388   1.099  16.889 -0.3139 -0.2835  0.5405
  448TMC3    C8 6682   4.316   0.712  16.602 -0.4013 -0.1690 -0.7638
  448TMC3    O1 6683   4.367   1.217  16.900  0.2107  0.0350 -0.5269
  448TMC3    O2 6684   4.372   0.639  16.684 -0.2139  0.2961 -0.2646
  449MPD2     C 6685   1.131   4.189  13.841  0.4048  0.4839 -0.0021
  449MPD2    C1 6686   1.005   4.186  13.798  0.0305  0.6058  0.3516
  449MPD2    C2 6687   0.921   4.098  13.851 -0.4526 -0.1909 -0.0481
  449MPD2    C3 6688   0.956   3.995  13.940  0.3188 -0.1605  0.5177
  449MPD2    C4 6689   1.090   3.991  13.985 -0.0025  0.4692 -0.0499
  449MPD2    C5 6690   1.167   4.090  13.932  0.2764 -0.7332 -0.1008
  449MPD2     H 6691   0.825   4.086  13.802 -1.4395  1.2531  1.5205
  449MPD2    H1 6692   1.134   3.931  14.065 -0.7067 -1.7297 -1.3131
  449MPD2    H2 6693   1.199   4.262  13.798 -1.9211  3.5088  1.4158
  449MPD2    H3 6694   1.267   4.087  13.972 -0.2206  0.0243  1.2090
  449MPD2     N 6695   0.847   3.916  13.987  0.0016 -0.4363 -0.2169
  449MPD2    H5 6696   0.759   3.930  13.938 -0.3527 -1.6417  0.0702
  449MPD2    N1 6697   0.949   4.258  13.692  0.3383 -0.3073  0.1969
  449MPD2    H7 6698   0.849   4.247  13.677  0.1475 -1.4383  2.4104
  450TMC3    C1 6699   0.907   4.365  13.496 -0.4535  0.3426  0.2702
  450TMC3    C2 6700   0.921   4.293  13.377  0.1256 -0.0972  0.5455
  450TMC3    C3 6701   0.813   4.266  13.304  0.2441 -0.6444  0.0492
  450TMC3    C4 6702   0.782   4.403  13.540 -0.1693  0.0492  0.2906
  450TMC3    C5 6703   0.673   4.357  13.470 -0.5962  0.7605  0.6664
  450TMC3    C6 6704   0.683   4.295  13.345  0.2695  0.5215  0.0069
  450TMC3     C 6705   1.013   4.335  13.594  0.4577  0.2513 -0.3694
  450TMC3     O 6706   1.134   4.341  13.563 -0.1960 -0.7867 -0.3327
  450TMC3     H 6707   1.017   4.250  13.350 -0.5294 -2.6361  2.2592
  450TMC3    H1 6708   0.765   4.444  13.639  1.0903 -2.1823  1.4167
  450TMC3    H2 6709   0.596   4.267  13.286 -0.2789  0.7563  0.6920
  450TMC3    C7 6710   0.592   4.282  13.565  0.7342  0.3131  0.6696
  450TMC3    C8 6711   0.823   4.203  13.176 -0.3201  0.0721  0.6567
  450TMC3    O1 6712   0.667   4.222  13.636  0.6746  0.3548  0.0432
  450TMC3    O2 6713   0.721   4.154  13.134  0.1295  0.0569 -0.3006
  451MPD2     C 6714   1.695   1.956   1.652  0.2361  0.1674  0.7585
  451MPD2    C1 6715   1.793   2.049   1.621  0.1998 -0.0250  0.1421
  451MPD2    C2 6716   1.928   2.007   1.614  0.0326  0.0374 -0.4386
  451MPD2    C3 6717   1.966   1.886   1.674  0.0340  0.1592  0.0250
  451MPD2    C4 6718   1.865   1.795   1.689 -0.7172 -0.1522 -0.4803
  451MPD2    C5 6719   1.730   1.830   1.674 -0.2363 -0.2030 -0.2056
  451MPD2     H 6720   2.005   2.078   1.584  0.4047 -0.9312 -1.7389
  451MPD2    H1 6721   1.888   1.692   1.714  1.2924  0.4557  0.2142
  451MPD2    H2 6722   1.591   1.988   1.651  0.0785 -0.2559  2.6083
  451MPD2    H3 6723   1.650   1.758   1.691 -0.5196  0.5862  1.7188
  451MPD2     N 6724   2.100   1.845   1.705  0.0248 -0.4139  0.7433
  451MPD2    H5 6725   2.108   1.748   1.734  2.1087 -0.5794 -0.3935
  451MPD2    N1 6726   1.762   2.179   1.586  0.4049  0.4365  0.2523
  451MPD2    H7 6727   1.825   2.231   1.526  1.4661  0.2996  1.2711
  452TMC3    C1 6728   2.341   1.836   1.714  0.5372  0.0612  0.4809
  452TMC3    C2 6729   2.321   1.726   1.793  0.3282 -0.4304 -0.4966
  452TMC3    C3 6730   2.436   1.660   1.824 -0.0555  0.5150 -0.0852
  452TMC3    C4 6731   2.464   1.894   1.683  0.4220 -0.0426  0.5030
  452TMC3    C5 6732   2.572   1.822   1.719 -0.6789 -0.6781 -0.3889
  452TMC3    C6 6733   2.565   1.704   1.794  0.0492 -0.3879  0.4773
  452TMC3     C 6734   2.220   1.919   1.685 -0.4509  0.6913 -0.0990
  452TMC3     O 6735   2.234   2.033   1.652  0.2102 -0.3783 -0.0864
  452TMC3     H 6736   2.224   1.696   1.831  1.6412 -0.8513  2.6239
  452TMC3    H1 6737   2.477   1.990   1.633 -1.6448  0.8433  1.6500
  452TMC3    H2 6738   2.646   1.634   1.809  1.0088  0.5843 -0.0838
  452TMC3    C7 6739   2.705   1.859   1.688 -0.0726 -0.7581 -0.6788
  452TMC3    C8 6740   2.420   1.538   1.894  0.5082 -0.3022 -0.6209
  452TMC3    O1 6741   2.784   1.815   1.767 -0.1776 -0.2065 -0.6634
  452TMC3    O2 6742   2.311   1.482   1.892 -0.2675  0.0309  0.2632
  453TMC3    C1 6743   3.209   4.611  11.740 -0.0416 -0.4131  0.4441
  453TMC3    C2 6744   3.112   4.552  11.811  0.1231  0.2684 -0.8130
  453TMC3    C3 6745   3.075   4.423  11.776 -0.2514  0.6858  1.0333
  453TMC3    C4 6746   3.254   4.542  11.630 -0.3091 -0.2562  0.3343
  453TMC3    C5 6747   3.212   4.416  11.590 -0.0565 -0.2536 -0.2849
  453TMC3    C6 6748   3.119   4.353  11.671  0.1168  1.1792 -0.6538
  453TMC3     C 6749   3.290   4.719  11.787  0.0546  0.3798  0.1484
  453TMC3     O 6750   3.409   0.001  11.746 -0.1723 -0.7614 -0.1155
  453TMC3     H 6751   3.078   4.586  11.907  1.0008 -1.3299  0.0709
  453TMC3    H1 6752   3.327   4.595  11.570  0.3520 -0.6873  0.7627
  453TMC3    H2 6753   3.100   4.248  11.654 -1.0496  1.3820 -0.6094
  453TMC3    C7 6754   3.226   4.379  11.455 -0.3979 -0.0089  0.2405
  453TMC3    C8 6755   3.019   4.341  11.881 -0.0540  0.1783 -0.4867
  453TMC3    O1 6756   3.141   4.301  11.407 -0.4597 -0.0982  0.5220
  453TMC3    O2 6757   2.924   4.391  11.933 -0.5786 -0.4102  0.8209
  454MPD2     C 6758   2.408   4.432  16.021  0.5471 -0.0712  0.4527
  454MPD2    C1 6759   2.297   4.355  16.001 -0.4013  0.8041  0.2463
  454MPD2    C2 6760   2.272   4.252  16.094  0.8683  0.2406  0.9468
  454MPD2    C3 6761   2.350   4.236  16.208  0.3793  0.2224 -0.9820
  454MPD2    C4 6762   2.444   4.335  16.237  0.3453 -0.1143 -0.3635
  454MPD2    C5 6763   2.480   4.423  16.138 -0.2723 -1.1633  0.4167
  454MPD2     H 6764   2.193   4.180  16.077  1.0033  0.3172 -0.0079
  454MPD2    H1 6765   2.506   4.321  16.325  1.0120 -1.1254 -0.9961
  454MPD2    H2 6766   2.446   4.503  15.949 -2.0048  1.0059  0.1876
  454MPD2    H3 6767   2.571   4.478  16.160 -1.5990  2.4335 -2.9830
  454MPD2     N 6768   2.325   4.141  16.310 -0.0004 -0.3415 -0.0946
  454MPD2    H5 6769   2.381   4.146  16.394  0.1418  0.9781 -0.2714
  454MPD2    N1 6770   2.207   4.367  15.892 -0.1091 -0.0739  0.0893
  454MPD2    H7 6771   2.120   4.318  15.903 -0.5574  0.7121  0.0769
  455TMC3    C1 6772   2.221   3.967  16.423  0.2976 -0.3662  0.0761
  455TMC3    C2 6773   2.170   4.058  16.511 -0.4294 -0.4113 -0.0635
  455TMC3    C3 6774   2.052   4.026  16.564  0.6001 -0.9763  0.0532
  455TMC3    C4 6775   2.148   3.857  16.397 -0.2512 -0.3460 -0.0637
  455TMC3    C5 6776   2.026   3.836  16.442  0.1624 -0.3991 -0.0995
  455TMC3    C6 6777   1.970   3.913  16.541 -0.4401  1.0250  0.4133
  455TMC3     C 6778   2.244   4.037  16.297  0.3909 -0.6555  0.3924
  455TMC3     O 6779   2.165   4.004  16.210 -0.6620 -0.3381 -0.3487
  455TMC3     H 6780   2.226   4.145  16.543  2.4162 -2.0115 -0.7239
  455TMC3    H1 6781   2.178   3.809  16.304 -1.1071  1.6942 -1.4060
  455TMC3    H2 6782   1.877   3.891  16.591  0.8849 -1.8264  1.6571
  455TMC3    C7 6783   1.934   3.780  16.341  0.4256  0.2390  0.0373
  455TMC3    C8 6784   2.007   4.135  16.656  0.1791 -0.5176  0.3135
  455TMC3    O1 6785   1.985   3.706  16.255 -0.1878  0.0201  0.3070
  455TMC3    O2 6786   2.088   4.224  16.696 -0.7793 -0.0117 -0.1756
  456MPD2     C 6787   4.706   4.140  15.972  0.5687  0.0732  0.7310
  456MPD2    C1 6788   0.093   4.158  16.053 -0.0928 -0.3567  0.2381
  456MPD2    C2 6789   0.078   4.249  16.164  0.0430  0.5713 -0.3570
  456MPD2    C3 6790   4.674   4.309  16.184 -0.7580 -0.2923 -0.5912
  456MPD2    C4 6791   4.567   4.281  16.102  0.2939  0.5970 -0.3415
  456MPD2    C5 6792   4.586   4.201  15.995  0.4898  0.3409  0.2549
  456MPD2     H 6793   0.155   4.273  16.237 -1.3170  1.0846  0.8961
  456MPD2    H1 6794   4.466   4.322  16.105  0.4193  0.9995 -1.6290
  456MPD2    H2 6795   4.712   4.076  15.884  2.1071  0.4100  0.6011
  456MPD2    H3 6796   4.504   4.181  15.927 -0.8241 -2.0434  2.5424
  456MPD2     N 6797   4.668   4.412  16.289 -0.1236 -0.0082  0.4343
  456MPD2    H5 6798   0.027   4.427  16.347  0.3552  0.2666 -0.3159
  456MPD2    N1 6799   0.215   4.094  16.015  0.1817  0.6313  0.2239
  456MPD2    H7 6800   0.222   4.050  15.924  1.5932 -0.2131  0.7410
  457TMC3    C1 6801   4.573   4.585  16.413 -0.8771  0.4651 -0.5425
  457TMC3    C2 6802   4.504   4.703  16.420  0.5425 -0.5009 -0.1384
  457TMC3    C3 6803   4.501   0.056  16.537  0.2741 -0.5945 -0.2110
  457TMC3    C4 6804   4.626   4.540  16.529  0.5440 -0.1029 -0.0317
  457TMC3    C5 6805   4.618   4.617  16.643 -0.2681  0.6942  0.0169
  457TMC3    C6 6806   4.549   0.010  16.655  0.1508  0.9183 -0.3087
  457TMC3     C 6807   4.564   4.500  16.293  0.4901  0.6456  0.5614
  457TMC3     O 6808   4.474   4.524  16.213  0.1461  0.4781  0.2806
  457TMC3     H 6809   4.469   0.022  16.327  0.1488 -1.3156 -0.3623
  457TMC3    H1 6810   4.664   4.439  16.538  1.2740  0.1700  0.0270
  457TMC3    H2 6811   4.526   0.051  16.753  2.7326  0.3693  0.5168
  457TMC3    C7 6812   4.667   4.562  16.769  0.6760 -0.1881  0.2024
  457TMC3    C8 6813   4.426   0.184  16.544  0.4212 -0.2528 -0.9423
  457TMC3    O1 6814   4.664   4.439  16.780 -0.5882 -0.1078  0.0746
  457TMC3    O2 6815   4.454   0.253  16.639 -0.3162 -0.6661 -0.5595
  458MPD2     C 6816   2.520   3.639  12.169  0.3603  0.2695 -0.3074
  458MPD2    C1 6817   2.427   3.635  12.270 -0.1890  0.0834 -0.5392
  458MPD2    C2 6818   2.294   3.626  12.235  0.2041  0.6665  0.3115
  458MPD2    C3 6819   2.248   3.618  12.101 -0.2526 -0.9975  0.0972
  458MPD2    C4 6820   2.345   3.620  12.004 -0.0600  0.2603  0.3533
  458MPD2    C5 6821   2.479   3.628  12.041 -0.7898  0.2479  0.1314
  458MPD2     H 6822   2.221   3.635  12.316  0.4271  0.6983  0.5094
  458MPD2    H1 6823   2.331   3.619  11.896 -1.4830  2.4397  0.5191
  458MPD2    H2 6824   2.627   3.645  12.182  0.3071  1.3454 -0.3903
  458MPD2    H3 6825   2.556   3.629  11.965  0.7915 -0.5682  1.7333
  458MPD2     N 6826   2.110   3.638  12.077  0.3920 -0.7621  0.5485
  458MPD2    H5 6827   2.047   3.626  12.156 -2.8904  0.7226 -1.8847
  458MPD2    N1 6828   2.477   3.638  12.404 -0.2819 -0.3071 -0.5065
  458MPD2    H7 6829   2.578   3.651  12.402 -0.3734  0.6934  1.1696
  459TMC3    C1 6830   2.492   3.662  12.636  0.5008  0.4358  0.3839
  459TMC3    C2 6831   2.572   3.773  12.638 -0.3506  0.0534  0.6351
  459TMC3    C3 6832   2.625   3.821  12.759 -0.2777  0.7765 -0.2406
  459TMC3    C4 6833   2.465   3.600  12.755 -0.1962 -0.1340  0.1292
  459TMC3    C5 6834   2.525   3.651  12.866 -0.0236  0.0213 -0.5633
  459TMC3    C6 6835   2.609   3.754  12.876 -0.1106 -0.2448  0.1771
  459TMC3     C 6836   2.409   3.630  12.520 -0.1869  0.8144  0.4719
  459TMC3     O 6837   2.293   3.601  12.549  0.0374  0.3012  1.4259
  459TMC3     H 6838   2.595   3.820  12.543 -1.3497 -0.2912  0.2271
  459TMC3    H1 6839   2.427   3.499  12.749  1.4777 -0.5878 -2.7540
  459TMC3    H2 6840   2.659   3.768  12.971  1.3511 -0.5495 -0.5435
  459TMC3    C7 6841   2.553   3.548  12.965  0.3046 -0.5496  0.2535
  459TMC3    C8 6842   2.723   3.929  12.751  0.0594 -0.4593  0.6188
  459TMC3    O1 6843   2.655   3.484  12.954  0.1034 -0.3229  0.1256
  459TMC3    O2 6844   2.813   3.924  12.837 -0.4851 -0.6508 -0.0234
  460MPD2     C 6845   1.407   0.813  10.542  0.2529 -0.1953 -0.3274
  460MPD2    C1 6846   1.372   0.943  10.541  0.3838 -0.5112 -0.4104
  460MPD2    C2 6847   1.320   1.003  10.434 -0.6539 -0.2139 -0.0919
  460MPD2    C3 6848   1.298   0.930  10.310  0.9353 -0.7746  0.1784
  460MPD2    C4 6849   1.337   0.795  10.310  0.0608 -0.7966  1.0971
  460MPD2    C5 6850   1.396   0.742  10.420  0.4715  0.1498  0.1836
  460MPD2     H 6851   1.278   1.102  10.441  1.5354  0.6702  0.7147
  460MPD2    H1 6852   1.330   0.732  10.222  0.7394 -1.1269  1.2842
  460MPD2    H2 6853   1.453   0.769  10.629 -0.5590 -1.5771 -0.5911
  460MPD2    H3 6854   1.423   0.637  10.416  1.5489  0.3528  2.0132
  460MPD2     N 6855   1.234   0.985  10.195  0.3175  0.0469 -0.5640
  460MPD2    H5 6856   1.238   1.087  10.191 -1.6461 -0.0327 -4.3570
  460MPD2    N1 6857   1.378   1.003  10.671  0.4212  0.0510  0.5319
  460MPD2    H7 6858   1.393   0.951  10.757 -1.5565 -0.6577  0.4641
  461TMC3    C1 6859   1.125   1.000   9.990  0.0967  0.0601 -0.1266
  461TMC3    C2 6860   1.109   0.943   9.868  0.3238  0.2386  0.4313
  461TMC3    C3 6861   1.041   1.016   9.772  0.0243  0.2405 -0.2460
  461TMC3    C4 6862   1.074   1.122  10.024  0.4243  0.5251 -0.1360
  461TMC3    C5 6863   1.021   1.196   9.926  0.2540 -0.2133  0.0973
  461TMC3    C6 6864   0.995   1.142   9.801  0.5662  0.3008 -0.4110
  461TMC3     C 6865   1.179   0.914  10.092  0.2411 -0.0570 -0.0675
  461TMC3     O 6866   1.170   0.795  10.080  0.2524  0.2784 -0.2071
  461TMC3     H 6867   1.128   0.838   9.846 -0.9228  0.0793  0.0998
  461TMC3    H1 6868   1.074   1.149  10.129  1.7059 -1.1945  0.3105
  461TMC3    H2 6869   0.944   1.211   9.735 -1.2752  0.0961  0.7955
  461TMC3    C7 6870   0.987   1.333   9.951  0.1877  0.3329  0.0484
  461TMC3    C8 6871   1.042   0.953   9.634 -0.5586 -0.2601 -1.0643
  461TMC3    O1 6872   0.900   1.379   9.883 -0.2530  0.0579 -0.3848
  461TMC3    O2 6873   1.103   0.850   9.618  0.1827  0.2035 -0.7273
  462TMC3    C1 6874   1.472   1.947  17.596  0.6522  0.2421  0.3900
  462TMC3    C2 6875   1.414   1.836  17.543 -0.8565  0.3976  0.0224
  462TMC3    C3 6876   1.473   1.713  17.576 -0.5285 -0.4508  0.4123
  462TMC3    C4 6877   1.568   1.930  17.695 -0.5715 -0.9781 -0.8357
  462TMC3    C5 6878   1.629   1.810   0.021 -0.1458  0.9349  0.1779
  462TMC3    C6 6879   1.586   1.697  17.650  1.0088 -0.2379 -0.4007
  462TMC3     C 6880   1.416   2.075  17.569 -1.0489  0.5488 -0.4137
  462TMC3     O 6881   1.504   2.167  17.567 -0.0366 -0.2455  0.0201
  462TMC3     H 6882   1.327   1.844  17.478  0.0646 -0.1675 -1.2915
  462TMC3    H1 6883   1.595   2.018   0.056  0.0303 -2.2202  0.8078
  462TMC3    H2 6884   1.611   1.597  17.684  0.5358 -0.7308 -1.5112
  462TMC3    C7 6885   1.725   1.781   0.132  0.7155 -0.5134 -0.3861
  462TMC3    C8 6886   1.403   1.608  17.503 -0.6221  0.2879 -0.6433
  462TMC3    O1 6887   1.757   1.663   0.145 -0.0886  0.4103  0.0550
  462TMC3    O2 6888   1.292   1.625  17.455 -1.0666  0.0701 -0.6038
  463MPD2     C 6889   2.313   0.378   1.797 -1.0413  0.2755  0.5097
  463MPD2    C1 6890   2.226   0.487   1.798  0.6839 -0.1666  0.2382
  463MPD2    C2 6891   2.277   0.611   1.774 -0.5382  0.1534  0.4294
  463MPD2    C3 6892   2.408   0.643   1.767  0.1263 -1.2400  0.8348
  463MPD2    C4 6893   2.497   0.535   1.790  0.2297  0.7998  0.8023
  463MPD2    C5 6894   2.447   0.408   1.790  0.4571  0.3757 -0.6024
  463MPD2     H 6895   2.213   0.698   1.767  1.6506  1.8127  0.8839
  463MPD2    H1 6896   2.605   0.546   1.788  0.0784  2.1656  0.0704
  463MPD2    H2 6897   2.291   0.273   1.811  2.2846 -0.4188  0.6587
  463MPD2    H3 6898   2.516   0.324   1.783 -1.1442 -1.1150  1.5429
  463MPD2     N 6899   2.470   0.767   1.733  0.5782 -0.6801 -0.5072
  463MPD2    H5 6900   2.571   0.773   1.727  0.5765 -1.1772 -0.9834
  463MPD2    N1 6901   2.091   0.468   1.818  1.1318  0.1478  0.2184
  463MPD2    H7 6902   2.033   0.549   1.798  0.9330 -0.0343  0.0547
  464TMC3    C1 6903   1.893   0.336   1.854 -0.3867 -0.2354  0.7918
  464TMC3    C2 6904   1.822   0.414   1.770  0.2747  0.0289 -0.1245
  464TMC3    C3 6905   1.689   0.407   1.765  0.5573 -0.6124 -0.3948
  464TMC3    C4 6906   1.830   0.263   1.948  0.5375  1.0424  0.1254
  464TMC3    C5 6907   1.692   0.257   1.944 -0.2162  0.0797 -0.2440
  464TMC3    C6 6908   1.620   0.331   1.856  0.0981  0.3237 -0.1752
  464TMC3     C 6909   2.036   0.352   1.862 -0.4136 -0.5689  0.5815
  464TMC3     O 6910   2.088   0.257   1.926  0.3715 -0.0880  0.1456
  464TMC3     H 6911   1.870   0.480   1.698  1.4285  0.6303  1.1899
  464TMC3    H1 6912   1.891   0.214   2.023  2.0905  0.2869 -1.6448
  464TMC3    H2 6913   1.512   0.333   1.863  0.2577  0.3312  2.2869
  464TMC3    C7 6914   1.627   0.164   2.036 -1.3797 -0.2031  0.0120
  464TMC3    C8 6915   1.628   0.463   1.645 -0.1216  0.3670  0.7324
  464TMC3    O1 6916   1.692   0.145   2.137 -0.0322  0.0176 -0.9484
  464TMC3    O2 6917   1.699   0.498   1.553 -0.3391  0.3218 -0.1775
  465MPD2     C 6918   3.956   0.019  16.106 -0.5291  0.5758 -0.8335
  465MPD2    C1 6919   3.929   4.622  16.162 -0.2453  0.1835  0.2198
  465MPD2    C2 6920   3.798   4.574  16.154 -0.2551  0.2943 -0.4542
  465MPD2    C3 6921   3.696   4.653  16.109 -0.6934  0.3466  0.1449
  465MPD2    C4 6922   3.723   0.053  16.050  0.2738  0.2430  0.4373
  465MPD2    C5 6923   3.849   0.097  16.064 -0.6849  1.1838 -0.2988
  465MPD2     H 6924   3.768   4.479  16.196 -1.7618  1.4218  1.0413
  465MPD2    H1 6925   3.646   0.124  16.024 -0.8140 -0.6716  1.1156
  465MPD2    H2 6926   4.055   0.063  16.110 -0.5883  0.4704  1.9468
  465MPD2    H3 6927   3.865   0.201  16.036 -0.0798  0.9052 -0.9820
  465MPD2     N 6928   3.567   4.592  16.129 -0.0087 -0.0074 -0.0095
  465MPD2    H5 6929   3.571   4.495  16.159 -1.7418  0.7358  2.6707
  465MPD2    N1 6930   4.019   4.553  16.237  0.0501 -0.3560  0.5220
  465MPD2    H7 6931   3.986   4.464  16.273  1.1101 -0.5372  1.0416
  466TMC3    C1 6932   3.204   4.514  16.323  0.2790 -0.4753 -0.0668
  466TMC3    C2 6933   3.103   4.606  16.297 -0.6297 -0.2696 -0.5558
  466TMC3    C3 6934   3.107   4.680  16.183  0.5379 -0.2686 -0.5587
  466TMC3    C4 6935   3.319   4.513  16.253 -0.1115  0.0722  0.6347
  466TMC3    C5 6936   3.325   4.599  16.147  0.3766  0.2925  0.7083
  466TMC3    C6 6937   3.216   4.670  16.109 -0.1990 -0.4548 -0.1329
  466TMC3     C 6938   3.198   4.457  16.450 -0.3863 -0.3670  0.3932
  466TMC3     O 6939   3.145   4.520  16.543 -0.2354 -0.0573 -0.0241
  466TMC3     H 6940   3.017   4.606  16.363 -0.1849 -2.5021  0.0432
  466TMC3    H1 6941   3.405   4.461  16.293 -0.4480 -0.8943  0.0978
  466TMC3    H2 6942   3.231   0.019  16.030 -1.3468 -2.4144 -2.1665
  466TMC3    C7 6943   3.452   4.670  16.120  0.1425 -0.4629  0.0848
  466TMC3    C8 6944   3.043   0.086  16.177 -0.7263  0.4049  1.1244
  466TMC3    O1 6945   3.438   0.069  16.104 -0.4598 -0.3620 -0.0923
  466TMC3    O2 6946   3.060   0.147  16.073 -0.3292  0.3030  0.2222
  467TMC3    C1 6947   4.575   2.764  13.807  0.3415 -0.0427 -0.0594
  467TMC3    C2 6948   4.522   2.866  13.726  0.0367 -0.5969 -0.3057
  467TMC3    C3 6949   4.390   2.873  13.713  1.1641  0.2216  0.0777
  467TMC3    C4 6950   4.495   2.664  13.858 -0.1565 -0.2929 -0.3706
  467TMC3    C5 6951   4.363   2.664  13.825  0.2680 -0.3429  0.1135
  467TMC3    C6 6952   4.311   2.766  13.744 -0.0420  0.4229  0.0843
  467TMC3     C 6953   4.706   2.714  13.758  0.5451 -0.1970  0.3401
  467TMC3     O 6954   0.003   2.594  13.770  0.3669 -0.4339  0.4463
  467TMC3     H 6955   4.596   2.923  13.670 -0.0921 -1.2751 -1.1706
  467TMC3    H1 6956   4.541   2.588  13.921 -2.2279 -1.8043 -0.6555
  467TMC3    H2 6957   4.205   2.778  13.722 -0.0075  2.8809  1.2208
  467TMC3    C7 6958   4.284   2.544  13.849 -0.2466  0.6985  0.0498
  467TMC3    C8 6959   4.358   2.937  13.591  0.1584  0.2598 -0.5486
  467TMC3    O1 6960   4.346   2.442  13.877  0.0514 -0.2245 -0.1233
  467TMC3    O2 6961   4.374   3.058  13.579 -0.1119  0.1760 -0.1316
  468MPD2     C 6962   3.173   0.890  10.834 -0.1684  0.0305  0.2451
  468MPD2    C1 6963   3.301   0.886  10.884 -0.1752  0.0614 -0.7180
  468MPD2    C2 6964   3.349   0.761  10.921  0.2637  0.4472 -0.2249
  468MPD2    C3 6965   3.275   0.646  10.919  0.4878  0.4306  0.3492
  468MPD2    C4 6966   3.146   0.649  10.874 -0.0590 -0.1480  0.1564
  468MPD2    C5 6967   3.097   0.772  10.831  1.0495  0.8427  0.2947
  468MPD2     H 6968   3.443   0.758  10.974 -0.1051  1.8750  0.4918
  468MPD2    H1 6969   3.083   0.561  10.868  0.6088 -0.7407  1.6296
  468MPD2    H2 6970   3.126   0.974  10.785 -1.0580 -0.7882 -0.3083
  468MPD2    H3 6971   3.000   0.771  10.783 -0.1042 -2.8257  2.7281
  468MPD2     N 6972   3.333   0.518  10.948  0.0926 -0.1655 -0.0666
  468MPD2    H5 6973   3.263   0.445  10.950 -1.1922  1.0769  0.1857
  468MPD2    N1 6974   3.380   0.997  10.908  0.3740  0.4298  0.6631
  468MPD2    H7 6975   3.463   0.972  10.960  0.5173  2.4101  1.3845
  469TMC3    C1 6976   3.457   1.232  10.914 -0.3742  0.6122 -0.1683
  469TMC3    C2 6977   3.581   1.197  10.935  0.7090  0.2327  0.1023
  469TMC3    C3 6978   3.667   1.284  10.996 -0.2545  0.2406 -0.2449
  469TMC3    C4 6979   3.404   1.349  10.956  0.1392 -0.3236  0.3564
  469TMC3    C5 6980   3.491   1.431  11.027  0.1866  0.2778  0.2230
  469TMC3    C6 6981   3.621   1.400  11.049  0.4612 -0.3931 -0.6473
  469TMC3     C 6982   3.351   1.131  10.874  0.4230 -0.4084  0.2670
  469TMC3     O 6983   3.248   1.173  10.825 -0.8205 -0.0586  0.0047
  469TMC3     H 6984   3.614   1.096  10.914 -1.2132 -0.4729  0.4874
  469TMC3    H1 6985   3.300   1.376  10.937  0.4761  0.0927 -0.8643
  469TMC3    H2 6986   3.684   1.476  11.094  0.6561 -1.3234  0.6491
  469TMC3    C7 6987   3.436   1.562  11.071  0.1474 -0.2629 -0.1021
  469TMC3    C8 6988   3.786   1.216  11.059 -0.6399  0.0031  0.0823
  469TMC3    O1 6989   3.366   1.623  10.989  0.9079  0.0395 -0.2407
  469TMC3    O2 6990   3.859   1.151  10.977  0.4514  0.0179 -0.2511
  470TMC3    C1 6991   1.067   2.049   0.442  0.1964  0.5037  0.5774
  470TMC3    C2 6992   1.046   2.181   0.436  0.7730 -0.3366 -0.5204
  470TMC3    C3 6993   1.121   2.264   0.516  0.4356 -0.8610 -0.1370
  470TMC3    C4 6994   1.152   1.996   0.538  0.5724 -0.4201 -0.5077
  470TMC3    C5 6995   1.219   2.075   0.620 -0.2922 -0.6348 -0.1855
  470TMC3    C6 6996   1.204   2.208   0.607 -0.5717  0.2536  0.4321
  470TMC3     C 6997   0.994   1.960   0.358  0.1715 -0.4717 -0.1093
  470TMC3     O 6998   0.922   2.010   0.273 -0.0926  0.2865 -0.1847
  470TMC3     H 6999   0.975   2.223   0.365  1.6817  2.6972  0.3530
  470TMC3    H1 7000   1.179   1.891   0.544 -0.5099 -0.5730  1.9581
  470TMC3    H2 7001   1.261   2.264   0.681  0.7053  0.5187 -0.7606
  470TMC3    C7 7002   1.325   2.023   0.699  0.7153 -0.7435 -0.0708
  470TMC3    C8 7003   1.079   2.399   0.544  0.1001  0.1664  0.2552
  470TMC3    O1 7004   1.439   2.040   0.658 -0.0082  0.6369  0.1484
  470TMC3    O2 7005   1.110   2.449   0.653  0.0722 -0.5149  0.4875
  471MPD2     C 7006   1.837   3.113  16.481  0.2214 -0.5390  0.4978
  471MPD2    C1 7007   1.737   3.043  16.534  0.0585  0.4058  0.3732
  471MPD2    C2 7008   1.738   3.015  16.672  0.0192  0.2376  0.5889
  471MPD2    C3 7009   1.847   3.044  16.755 -0.0738  0.2107 -0.7022
  471MPD2    C4 7010   1.946   3.122  16.698 -0.0976  0.4161 -0.4879
  471MPD2    C5 7011   1.944   3.144  16.564  0.4382 -0.0183 -0.3447
  471MPD2     H 7012   1.653   2.968  16.719 -1.4322  1.5388 -0.7549
  471MPD2    H1 7013   2.035   3.159  16.748 -1.6464  0.4271  2.2994
  471MPD2    H2 7014   1.856   3.130  16.376 -0.1187 -1.1714  0.3362
  471MPD2    H3 7015   2.032   3.197  16.527 -1.2186  2.4559 -0.7434
  471MPD2     N 7016   1.852   3.006  16.893  0.1886  0.4663  0.3159
  471MPD2    H5 7017   1.933   3.048  16.938  1.0423  1.6043 -2.2438
  471MPD2    N1 7018   1.622   2.998  16.456  0.1265 -0.1457  0.2881
  471MPD2    H7 7019   1.545   2.963  16.512  0.0441 -1.5842 -0.7466
  472TMC3    C1 7020   1.481   2.927  16.285 -0.1072 -0.1492  0.2385
  472TMC3    C2 7021   1.426   2.945  16.162  0.8017 -0.1263 -1.0508
  472TMC3    C3 7022   1.329   2.851  16.127 -0.1461  0.4171  0.3711
  472TMC3    C4 7023   1.452   2.806  16.354  0.2055  0.2192  0.0372
  472TMC3    C5 7024   1.354   2.722  16.314 -0.0295 -0.7325  0.3827
  472TMC3    C6 7025   1.285   2.748  16.202 -0.0487 -0.1064  0.1421
  472TMC3     C 7026   1.597   3.006  16.319  0.3134  0.0945  0.0826
  472TMC3     O 7027   1.663   3.057  16.230 -0.0459  0.3291 -0.0778
  472TMC3     H 7028   1.455   3.030  16.102 -1.4898  2.5599  1.6392
  472TMC3    H1 7029   1.510   2.785  16.443  1.8802  0.8636 -0.9030
  472TMC3    H2 7030   1.220   2.666  16.174 -0.5824 -0.1056  1.3842
  472TMC3    C7 7031   1.325   2.618  16.409 -0.6788 -0.1683 -0.2971
  472TMC3    C8 7032   1.255   2.873  16.006 -0.4341  0.1100  0.2990
  472TMC3    O1 7033   1.408   2.601  16.500 -0.4822  0.5709  0.0093
  472TMC3    O2 7034   1.312   2.949  15.928 -0.0595 -0.0372  0.2109
  473MPD2     C 7035   1.289   0.996  13.796 -0.2675 -0.3575  0.2167
  473MPD2    C1 7036   1.203   1.094  13.761  0.1577 -0.2591  0.4949
  473MPD2    C2 7037   1.201   1.206  13.850  0.2119  0.0141  0.2977
  473MPD2    C3 7038   1.276   1.201  13.969  0.1993  0.6187  0.0147
  473MPD2    C4 7039   1.352   1.091  14.000 -0.6352  0.3987 -0.4891
  473MPD2    C5 7040   1.364   0.986  13.913 -0.5586  0.5408  0.0074
  473MPD2     H 7041   1.151   1.300  13.829 -1.5686 -0.8513  0.6616
  473MPD2    H1 7042   1.410   1.083  14.091 -0.9071 -2.4882 -0.5679
  473MPD2    H2 7043   1.310   0.910  13.733 -3.5591  1.2010 -2.9995
  473MPD2    H3 7044   1.433   0.904  13.925  0.2520  1.6250  2.7680
  473MPD2     N 7045   1.281   1.300  14.069 -0.0436 -0.1949 -1.0182
  473MPD2    H5 7046   1.341   1.279  14.148 -1.6969  0.3534  0.3873
  473MPD2    N1 7047   1.124   1.093  13.643 -0.2885 -0.1454  0.0359
  473MPD2    H7 7048   1.057   1.167  13.626 -0.9801 -0.3754  1.7585
  474TMC3    C1 7049   1.234   1.485  14.204  0.5220 -0.5475  0.1442
  474TMC3    C2 7050   1.201   1.623  14.204  0.3646  0.2935  0.1171
  474TMC3    C3 7051   1.203   1.680  14.327  0.3430  0.3877  0.0025
  474TMC3    C4 7052   1.302   1.426  14.309 -0.2763 -0.0882  0.4289
  474TMC3    C5 7053   1.318   1.505  14.425  0.0684 -0.0890 -0.1089
  474TMC3    C6 7054   1.277   1.633  14.433 -0.8148  0.3535  0.6380
  474TMC3     C 7055   1.208   1.414  14.080 -0.4059  0.3218 -0.7123
  474TMC3     O 7056   1.119   1.462  14.007 -0.5186  0.4870  0.4254
  474TMC3     H 7057   1.160   1.667  14.114 -0.4228 -1.4402 -0.3711
  474TMC3    H1 7058   1.297   1.318  14.321  0.0546 -0.4522 -2.7364
  474TMC3    H2 7059   1.288   1.695  14.521  1.9129 -0.1793  0.6766
  474TMC3    C7 7060   1.417   1.462  14.521  0.2999  0.3255  0.0627
  474TMC3    C8 7061   1.139   1.819  14.333  0.4061 -0.1806  0.6483
  474TMC3    O1 7062   1.490   1.368  14.476  0.4853 -0.0259 -0.2498
  474TMC3    O2 7063   1.041   1.839  14.262  0.5087  0.3051  0.5365
  475MPD2     C 7064   4.489   3.107  10.044 -0.1874 -0.6220  0.2564
  475MPD2    C1 7065   4.516   3.227  10.111  0.3175 -0.0738  0.6224
  475MPD2    C2 7066   4.440   3.257  10.221 -0.9656  0.2573 -0.2676
  475MPD2    C3 7067   4.349   3.174  10.282 -0.4102 -0.3789 -0.6179
  475MPD2    C4 7068   4.334   3.049  10.219  0.4611 -0.5003  0.1270
  475MPD2    C5 7069   4.408   3.015  10.108 -0.4255  0.6969 -1.0473
  475MPD2     H 7070   4.466   3.355  10.259 -0.9061 -0.8352  2.5306
  475MPD2    H1 7071   4.265   2.977  10.261  0.4022 -0.1257  0.6743
  475MPD2    H2 7072   4.541   3.073   9.956  2.5954  0.7782  1.3742
  475MPD2    H3 7073   4.402   2.918  10.059  1.2492  1.1291 -2.1206
  475MPD2     N 7074   4.278   3.221  10.393  0.2540  0.6877 -0.3738
  475MPD2    H5 7075   4.295   3.312  10.435  0.1216  0.6579 -0.2516
  475MPD2    N1 7076   4.597   3.322  10.052  0.3090 -0.2156  0.3285
  475MPD2    H7 7077   4.601   3.417  10.089  2.9952 -1.6695  3.8309
  476TMC3    C1 7078   0.003   3.416   9.879 -0.0748 -0.0351  0.0800
  476TMC3    C2 7079   4.612   3.467   9.834  0.1806  0.4426 -0.4826
  476TMC3    C3 7080   4.598   3.601   9.850  0.5494  0.0060  0.8067
  476TMC3    C4 7081   0.114   3.482   9.932  0.1150  0.4962 -0.1649
  476TMC3    C5 7082   0.092   3.611   9.947 -0.0646 -0.3915  0.3840
  476TMC3    C6 7083   4.703   3.676   9.902 -0.0221 -0.3806 -0.7681
  476TMC3     C 7084   4.690   3.294   9.954  0.6898  0.0234 -0.2561
  476TMC3     O 7085   0.020   3.189   9.920 -0.4646  0.2542 -0.0216
  476TMC3     H 7086   4.543   3.399   9.785 -0.9917 -0.1269  1.9664
  476TMC3    H1 7087   0.189   3.433   9.993  0.9123 -0.0150 -1.5507
  476TMC3    H2 7088   4.703   3.783   9.891  2.1344 -0.0347  2.5512
  476TMC3    C7 7089   0.198   3.694   9.997  0.2598 -0.3241  0.1766
  476TMC3    C8 7090   4.464   3.641   9.893 -0.0263 -0.9489  0.7173
  476TMC3    O1 7091   0.315   3.661   9.986 -0.1189  0.6466 -0.0306
  476TMC3    O2 7092   4.455   3.756   9.925 -0.4428  0.4534  0.9615
  477MPD2     C 7093   2.004   0.549  11.840  0.2979 -0.0653  0.0743
  477MPD2    C1 7094   1.929   0.457  11.769 -0.1827 -0.2759 -0.3465
  477MPD2    C2 7095   1.900   0.335  11.823  0.3244  0.9680  0.6125
  477MPD2    C3 7096   1.947   0.305  11.951 -0.2762  0.1034 -0.3472
  477MPD2    C4 7097   2.023   0.397  12.022 -0.1102  0.6759  0.1422
  477MPD2    C5 7098   2.058   0.513  11.964 -0.0108  0.5141  0.2228
  477MPD2     H 7099   1.832   0.262  11.779 -0.0978  1.4119  0.5294
  477MPD2    H1 7100   2.069   0.358  12.112  0.0594  1.4273  0.3769
  477MPD2    H2 7101   2.029   0.649  11.807 -2.4551  1.1197  1.5993
  477MPD2    H3 7102   2.107   0.584  12.030  0.6495 -0.9076  1.2767
  477MPD2     N 7103   1.920   0.173  12.020  0.1889  0.4198  0.2505
  477MPD2    H5 7104   1.893   0.094  11.963  0.7610 -0.0357  0.6192
  477MPD2    N1 7105   1.861   0.500  11.654  0.8711  0.0600 -0.0773
  477MPD2    H7 7106   1.861   0.601  11.643 -0.0204 -0.0838 -1.3678
  478TMC3    C1 7107   1.695   0.510  11.493 -0.9864 -0.2858  0.1323
  478TMC3    C2 7108   1.642   0.619  11.553 -0.4893  0.6620  0.2536
  478TMC3    C3 7109   1.566   0.704  11.482 -0.8805 -0.1669 -0.1945
  478TMC3    C4 7110   1.653   0.464  11.371  0.2864  0.0820  0.2131
  478TMC3    C5 7111   1.582   0.552  11.298 -0.0813  0.3177 -0.2629
  478TMC3    C6 7112   1.534   0.671  11.352 -0.2793 -0.2078  0.4868
  478TMC3     C 7113   1.785   0.427  11.573 -0.2298  1.3758  0.6360
  478TMC3     O 7114   1.791   0.306  11.548  0.4824  1.0943  0.0331
  478TMC3     H 7115   1.674   0.655  11.650  1.0889 -0.0461 -0.0051
  478TMC3    H1 7116   1.708   0.383  11.323 -0.5861 -1.4884  1.8889
  478TMC3    H2 7117   1.466   0.737  11.299  0.2972 -0.5402 -0.6629
  478TMC3    C7 7118   1.518   0.489  11.180 -0.6860  0.2863 -0.3257
  478TMC3    C8 7119   1.493   0.801  11.566 -0.2115  0.3931  0.6627
  478TMC3    O1 7120   1.552   0.373  11.168  0.2319 -0.3659  0.1356
  478TMC3    O2 7121   1.482   0.777  11.688  0.3409 -0.3028 -0.3960
  479MPD2     C 7122   0.266   2.330  14.842 -1.0353  0.4784  0.0877
  479MPD2    C1 7123   0.334   2.235  14.914 -0.6607 -0.0403 -0.2483
  479MPD2    C2 7124   0.454   2.262  14.982 -1.0982  0.7133  0.2135
  479MPD2    C3 7125   0.504   2.396  14.981 -0.0582 -0.3432  0.2691
  479MPD2    C4 7126   0.448   2.484  14.890 -0.6878  0.1230  0.5645
  479MPD2    C5 7127   0.326   2.452  14.821  0.6854  0.0691  0.3103
  479MPD2     H 7128   0.491   2.189  15.052 -0.2890  1.0766  0.1573
  479MPD2    H1 7129   0.493   2.581  14.872 -1.7396  0.5103 -0.0020
  479MPD2    H2 7130   0.174   2.296  14.796 -0.0804  1.6902 -2.6697
  479MPD2    H3 7131   0.279   2.520  14.752  0.3271 -0.8887 -0.3845
  479MPD2     N 7132   0.604   2.436  15.069 -0.5065  0.0151  0.4748
  479MPD2    H5 7133   0.637   2.531  15.068 -0.4231  0.0141  2.1635
  479MPD2    N1 7134   0.269   2.111  14.936  0.1651  0.6931 -0.1524
  479MPD2    H7 7135   0.171   2.110  14.913  0.0386 -1.9957  0.4764
  480TMC3    C1 7136   0.800   2.455  15.478 -0.1392 -0.1991 -0.9567
  480TMC3    C2 7137   0.865   2.574  15.442  0.2444  0.2581 -0.4228
  480TMC3    C3 7138   0.849   2.624  15.318  0.1923 -0.2466 -0.1747
  480TMC3    C4 7139   0.745   2.373  15.386 -0.3652  0.3529  0.2259
  480TMC3    C5 7140   0.738   2.427  15.261  0.4641 -0.0007 -0.4725
  480TMC3    C6 7141   0.792   2.544  15.215 -0.3846  0.8262  0.8490
  480TMC3     C 7142   0.790   2.401  15.612 -0.2422 -0.1512 -0.2547
  480TMC3     O 7143   0.694   2.329  15.645 -0.3532  0.2584  0.2845
  480TMC3     H 7144   0.899   2.638  15.522  1.7501  0.3256 -1.1055
  480TMC3    H1 7145   0.707   2.274  15.406 -0.3226  0.5108  1.0834
  480TMC3    H2 7146   0.796   2.566  15.108 -2.1557 -0.2046  0.5690
  480TMC3    C7 7147   0.635   2.362  15.179 -0.8542 -0.1824  1.4053
  480TMC3    C8 7148   0.930   2.735  15.277  0.1354  0.1937  0.7972
  480TMC3    O1 7149   0.599   2.257  15.227 -0.0848  0.2777  0.3832
  480TMC3    O2 7150   1.021   2.759  15.358  0.0672  0.3032  0.3278
  481MPD2     C 7151   2.819   2.318  14.203  0.1689  0.0515  0.7912
  481MPD2    C1 7152   2.700   2.253  14.231  0.4335 -0.1925 -0.0447
  481MPD2    C2 7153   2.674   2.218  14.359  0.4891 -1.1778  0.6983
  481MPD2    C3 7154   2.762   2.247  14.462 -0.1564 -0.5031  0.1471
  481MPD2    C4 7155   2.871   2.328  14.437  0.2001  0.0282 -0.4306
  481MPD2    C5 7156   2.895   2.360  14.307 -0.3410 -0.2596  0.1272
  481MPD2     H 7157   2.588   2.154  14.374 -0.8269  0.2577 -0.9014
  481MPD2    H1 7158   2.951   2.357  14.504 -2.5236  0.1011  2.7770
  481MPD2    H2 7159   2.841   2.346  14.100 -0.0189 -4.8049 -0.5978
  481MPD2    H3 7160   2.976   2.428  14.285  0.0872 -0.7828  0.0856
  481MPD2     N 7161   2.747   2.197  14.599  0.8130 -0.7699 -0.7272
  481MPD2    H5 7162   2.818   2.223  14.667 -0.1859  2.4634 -0.9265
  481MPD2    N1 7163   2.626   2.205  14.119  0.6012 -0.0304  0.5881
  481MPD2    H7 7164   2.662   2.225  14.027  1.2480  0.0373  0.8576
  482TMC3    C1 7165   2.419   2.167  14.002  0.0389  0.0591  0.4144
  482TMC3    C2 7166   2.279   2.158  14.014 -0.2609  0.2218  0.4760
  482TMC3    C3 7167   2.200   2.200  13.909  0.2085  0.6458  0.1390
  482TMC3    C4 7168   2.477   2.215  13.887  0.7103  0.1059 -0.3444
  482TMC3    C5 7169   2.395   2.219  13.776  0.9813 -0.6033 -0.9457
  482TMC3    C6 7170   2.260   2.226  13.787  0.0813  0.5381 -0.5414
  482TMC3     C 7171   2.496   2.160  14.128 -0.5993 -0.4687  0.8325
  482TMC3     O 7172   2.422   2.141  14.229  0.1134  0.1524  0.3095
  482TMC3     H 7173   2.235   2.131  14.110  1.2504 -3.0295  0.2681
  482TMC3    H1 7174   2.585   2.207  13.874  0.7029 -0.0159 -0.3351
  482TMC3    H2 7175   2.194   2.222  13.701  1.4913  1.2318 -1.6477
  482TMC3    C7 7176   2.466   2.226  13.644 -0.0661 -0.5377  0.6007
  482TMC3    C8 7177   2.072   2.122  13.902 -0.0795  0.0307 -0.3232
  482TMC3    O1 7178   2.549   2.313  13.633  0.0729 -0.3151  0.2308
  482TMC3    O2 7179   2.068   2.018  13.969  0.9888  0.4574 -0.2993
  483TMC3    C1 7180   0.787   1.162   0.974 -0.1010 -0.1986  0.0334
  483TMC3    C2 7181   0.895   1.224   1.029  0.3786 -0.0704  0.4582
  483TMC3    C3 7182   0.974   1.156   1.112  0.1870  0.7041 -0.0500
  483TMC3    C4 7183   0.759   1.030   0.995 -0.2372  0.2952  0.5249
  483TMC3    C5 7184   0.841   0.967   1.084  0.4005  0.6141 -0.5294
  483TMC3    C6 7185   0.949   1.031   1.139 -0.2848 -0.4028  0.4337
  483TMC3     C 7186   0.759   1.216   0.839  0.3480  1.3992  0.2300
  483TMC3     O 7187   0.778   1.337   0.816 -1.0779  0.5643 -0.1524
  483TMC3     H 7188   0.906   1.331   1.012  0.1325  0.0857  1.2516
  483TMC3    H1 7189   0.666   0.988   0.958 -0.6113  1.8057 -0.2449
  483TMC3    H2 7190   1.012   0.981   1.212  0.1163 -2.1221 -1.0747
  483TMC3    C7 7191   0.782   0.853   1.148  0.3531 -0.1924 -0.2733
  483TMC3    C8 7192   1.110   1.204   1.118 -0.2577  0.7537  0.7454
  483TMC3    O1 7193   0.661   0.833   1.131 -0.6715  0.5646  0.1406
  483TMC3    O2 7194   1.148   1.270   1.020 -0.1881  0.1629 -0.5873
  484MPD2     C 7195   2.743   4.234  12.553 -0.3118 -0.3342 -0.2044
  484MPD2    C1 7196   2.792   4.131  12.620  0.1550  0.8408  0.4773
  484MPD2    C2 7197   2.933   4.126  12.634  0.1613  0.0551 -0.2819
  484MPD2    C3 7198   3.011   4.220  12.573 -0.1605  0.4241 -0.1802
  484MPD2    C4 7199   2.950   4.341  12.527  0.0556  0.3380 -0.3621
  484MPD2    C5 7200   2.815   4.342  12.513 -0.2253 -0.0120 -0.3455
  484MPD2     H 7201   2.972   4.034  12.676  0.9669  0.3961 -0.2984
  484MPD2    H1 7202   3.001   4.434  12.506  2.0890 -0.2672  1.8323
  484MPD2    H2 7203   2.636   4.239  12.536 -0.2469 -2.3551 -1.1767
  484MPD2    H3 7204   2.764   4.433  12.482 -2.0002 -0.1204  2.3005
  484MPD2     N 7205   3.152   4.229  12.565 -0.2938  0.4025 -0.3383
  484MPD2    H5 7206   3.185   4.319  12.533  0.3666  0.2769  0.0037
  484MPD2    N1 7207   2.696   4.028  12.661  0.6531 -0.0249 -0.2032
  484MPD2    H7 7208   2.604   4.027  12.620  1.1928  2.5154 -1.4958
  485TMC3    C1 7209   3.379   4.158  12.581  0.8496 -0.8042  0.0283
  485TMC3    C2 7210   3.456   4.099  12.669  0.3693 -0.0821  0.4857
  485TMC3    C3 7211   3.592   4.125  12.658 -0.7387  0.7198  0.3808
  485TMC3    C4 7212   3.416   4.238  12.482 -0.4589  0.4901 -0.0415
  485TMC3    C5 7213   3.549   4.271  12.472 -0.3615  0.4009  0.0203
  485TMC3    C6 7214   3.638   4.216  12.563  0.4865  0.4337 -0.4011
  485TMC3     C 7215   3.238   4.133  12.603  0.0078 -0.4706  0.7429
  485TMC3     O 7216   3.205   4.020  12.637  0.1917  0.2623 -0.3901
  485TMC3     H 7217   3.419   4.014  12.725 -1.1553 -0.3949 -0.9899
  485TMC3    H1 7218   3.349   4.286  12.412  1.7570  2.3387 -0.8992
  485TMC3    H2 7219   3.735   4.264  12.563  0.6284  0.1446  1.2106
  485TMC3    C7 7220   3.594   4.255  12.325 -0.2574 -0.2814  0.4464
  485TMC3    C8 7221   3.679   4.010  12.662  0.1174 -0.6751 -0.6840
  485TMC3    O1 7222   3.507   4.283  12.239 -0.9582 -0.0800  0.3433
  485TMC3    O2 7223   3.784   4.031  12.603  0.7707 -0.2316 -0.0731
  486MPD2     C 7224   0.463   3.081  12.723  0.3108  0.5267  0.2796
  486MPD2    C1 7225   0.428   3.018  12.606  0.3948 -0.0476  0.8966
  486MPD2    C2 7226   0.397   3.098  12.492 -0.3057 -0.6363 -0.1919
  486MPD2    C3 7227   0.389   3.229  12.499 -0.1730  0.3060  0.7035
  486MPD2    C4 7228   0.431   3.295  12.612  0.7066  0.5658 -0.0411
  486MPD2    C5 7229   0.470   3.218  12.718 -0.1716  0.3682  0.9297
  486MPD2     H 7230   0.365   3.046  12.402 -3.4783  1.2145 -0.0949
  486MPD2    H1 7231   0.420   3.402  12.628 -0.5837  0.0944  2.1984
  486MPD2    H2 7232   0.488   3.036  12.818  0.6420  0.1489  0.0166
  486MPD2    H3 7233   0.481   3.274  12.810  2.4381 -1.8196  1.9329
  486MPD2     N 7234   0.323   3.288  12.393  0.0675  0.1608 -0.5156
  486MPD2    H5 7235   0.253   3.232  12.344 -0.1452 -0.7005  0.7727
  486MPD2    N1 7236   0.432   2.876  12.605 -0.2070  0.1194  0.1035
  486MPD2    H7 7237   0.458   2.825  12.689 -1.7658  0.9005  1.0680
  487TMC3    C1 7238   0.392   2.665  12.532 -0.3183 -0.0537 -0.2357
  487TMC3    C2 7239   0.318   2.591  12.441  0.0335  0.3544 -0.1560
  487TMC3    C3 7240   0.293   2.462  12.471 -0.0439 -0.3317 -0.1126
  487TMC3    C4 7241   0.442   2.617  12.650 -0.3818 -0.2723  0.5621
  487TMC3    C5 7242   0.414   2.484  12.678  0.5658  0.0880 -0.0676
  487TMC3    C6 7243   0.333   2.413  12.593  0.2339  0.6343 -0.0845
  487TMC3     C 7244   0.397   2.799  12.497  0.4566  0.6207  0.4663
  487TMC3     O 7245   0.342   2.834  12.392  0.5434 -0.6862 -0.0476
  487TMC3     H 7246   0.284   2.630  12.346 -0.8450  1.8157  0.7562
  487TMC3    H1 7247   0.513   2.672  12.711  0.0091 -0.7117  0.5034
  487TMC3    H2 7248   0.345   2.305  12.596 -3.3725  0.2748  2.2459
  487TMC3    C7 7249   0.392   2.454  12.819  0.3889 -0.7615 -0.5074
  487TMC3    C8 7250   0.167   2.389  12.440  0.2660  0.4863  0.1841
  487TMC3    O1 7251   0.448   2.531  12.896 -0.1186 -0.0167 -0.4225
  487TMC3    O2 7252   0.157   2.334  12.330  0.1837  0.1672 -0.4792
  488MPD2     C 7253   1.114   4.384  16.407 -0.4632 -0.3482  0.9116
  488MPD2    C1 7254   1.105   4.508  16.471  0.2247  0.4173  0.0409
  488MPD2    C2 7255   1.027   4.511  16.585  0.1393  0.4499  0.3855
  488MPD2    C3 7256   0.978   4.390  16.636  0.2406 -0.6023  0.0834
  488MPD2    C4 7257   0.980   4.271  16.572 -0.4608 -0.4160 -0.4816
  488MPD2    C5 7258   1.047   4.269  16.452  0.7752  0.4166  0.2913
  488MPD2     H 7259   1.013   4.602  16.643 -1.7947 -0.3851  1.2371
  488MPD2    H1 7260   0.946   4.174  16.606  0.4293 -0.9425 -1.0777
  488MPD2    H2 7261   1.167   4.366  16.314 -0.3757  1.8560  0.5500
  488MPD2    H3 7262   1.066   4.180  16.394 -0.6803  0.1656  0.1911
  488MPD2     N 7263   0.893   4.394  16.749  0.1338 -0.4684 -0.1387
  488MPD2    H5 7264   0.873   4.479  16.802 -0.4382 -0.1354 -0.8857
  488MPD2    N1 7265   1.171   4.628  16.429 -0.2721  0.4393 -0.5833
  488MPD2    H7 7266   1.175   4.713  16.486  1.8890  0.1528 -0.2949
  489TMC3    C1 7267   0.719   4.304  16.906  0.1968 -0.1641 -0.2169
  489TMC3    C2 7268   0.644   4.418  16.895 -0.1529 -0.0507  0.7801
  489TMC3    C3 7269   0.510   4.419  16.924 -0.2409 -0.1230  0.1878
  489TMC3    C4 7270   0.659   4.191  16.959 -0.6798  0.0539  0.4143
  489TMC3    C5 7271   0.522   4.200  16.990  0.7789 -0.2390 -0.2912
  489TMC3    C6 7272   0.443   4.313  16.977 -0.1072 -0.9261  0.2061
  489TMC3     C 7273   0.828   4.283  16.813 -0.3929 -0.4489  0.0042
  489TMC3     O 7274   0.863   4.165  16.809  0.2500 -0.0693 -0.0393
  489TMC3     H 7275   0.687   4.514  16.867  1.1966 -0.3823  1.7298
  489TMC3    H1 7276   0.715   4.099  16.969 -0.5867  0.0973  0.2866
  489TMC3    H2 7277   0.346   4.326  17.023 -0.4930  2.0874 -1.4609
  489TMC3    C7 7278   0.449   4.081  17.009 -0.3099 -0.9906 -0.5780
  489TMC3    C8 7279   0.443   4.545  16.942 -0.2131  0.8060  0.2796
  489TMC3    O1 7280   0.333   4.087  16.974  0.3623  0.2520 -0.4295
  489TMC3    O2 7281   0.354   4.583  16.868 -0.3852  0.2348  0.0601
  490MPD2     C 7282   2.132   3.607  17.108  0.3235  0.5853 -0.0432
  490MPD2    C1 7283   2.008   3.610  17.170 -0.1994 -0.2722  0.0139
  490MPD2    C2 7284   1.987   3.704  17.271  0.2303 -0.0736  0.6500
  490MPD2    C3 7285   2.083   3.791  17.309 -0.0985  0.0812  0.0482
  490MPD2    C4 7286   2.204   3.785  17.251  0.3721  0.7619 -0.3923
  490MPD2    C5 7287   2.234   3.687  17.155 -0.2067 -0.4026 -0.0708
  490MPD2     H 7288   1.889   3.711  17.317 -0.0788  0.8169 -0.1457
  490MPD2    H1 7289   2.288   3.845  17.283 -0.3326  1.2135  0.5959
  490MPD2    H2 7290   2.149   3.535  17.029 -2.8721 -2.5971  2.1430
  490MPD2    H3 7291   2.332   3.666  17.114 -1.2724 -0.1248 -2.7872
  490MPD2     N 7292   2.058   3.892  17.410  0.2540  0.1987 -0.5204
  490MPD2    H5 7293   2.139   3.946  17.439 -1.5805  1.3897  2.3737
  490MPD2    N1 7294   1.905   3.520  17.149 -0.3141 -0.0186  0.2337
  490MPD2    H7 7295   1.832   3.518  17.219  1.1323 -1.8775  1.6821
  491TMC3    C1 7296   1.752   3.371  17.030  0.2636 -0.0110  0.0963
  491TMC3    C2 7297   1.678   3.350  17.148 -0.9730 -0.0737 -0.6709
  491TMC3    C3 7298   1.564   3.282  17.128  0.1687  0.8340  0.0458
  491TMC3    C4 7299   1.715   3.334  16.902  0.0168 -0.5489  0.2078
  491TMC3    C5 7300   1.599   3.272  16.892 -0.1795 -0.6343  0.6129
  491TMC3    C6 7301   1.524   3.237  17.004 -0.3903  0.0980  0.1854
  491TMC3     C 7302   1.879   3.445  17.036 -0.0412  0.2937  0.0815
  491TMC3     O 7303   1.945   3.431  16.938  0.1180 -0.0780  0.1195
  491TMC3     H 7304   1.713   3.390  17.242  1.8084 -0.1890 -1.6417
  491TMC3    H1 7305   1.765   3.365  16.811  0.4989 -1.0762  0.2900
  491TMC3    H2 7306   1.426   3.193  16.990  0.8279 -1.4640 -3.4183
  491TMC3    C7 7307   1.514   3.279  16.768 -0.2336 -0.2592 -0.2778
  491TMC3    C8 7308   1.480   3.269  17.252 -0.4069  0.2657  0.3313
  491TMC3    O1 7309   1.404   3.224  16.769 -0.4421 -0.7142 -0.6523
  491TMC3    O2 7310   1.359   3.254  17.233 -0.2384 -0.3943 -0.5663
  492MPD2     C 7311   1.571   3.752  11.270 -0.3002 -0.6709  0.1255
  492MPD2    C1 7312   1.468   3.703  11.196 -0.3025  0.3205  0.3293
  492MPD2    C2 7313   1.347   3.686  11.250  0.4565 -0.1023 -0.2308
  492MPD2    C3 7314   1.317   3.723  11.387 -0.5538 -0.5268 -0.1928
  492MPD2    C4 7315   1.421   3.767  11.467 -0.0499 -1.1906 -0.1690
  492MPD2    C5 7316   1.544   3.786  11.405  0.2994  0.5183  0.2569
  492MPD2     H 7317   1.266   3.637  11.197 -2.2069  2.7192  1.1985
  492MPD2    H1 7318   1.414   3.785  11.574  1.5393 -0.3282 -0.2124
  492MPD2    H2 7319   1.669   3.774  11.231 -0.5074 -0.5781 -0.3478
  492MPD2    H3 7320   1.623   3.818  11.473  1.1439  2.5869 -1.6848
  492MPD2     N 7321   1.188   3.707  11.454  0.1509 -0.1789  0.0884
  492MPD2    H5 7322   1.184   3.764  11.537 -0.4940 -2.5678  1.6728
  492MPD2    N1 7323   1.496   3.666  11.054  0.8209  0.3842 -0.1676
  492MPD2    H7 7324   1.594   3.677  11.030  0.4852  0.2693 -1.5526
  493TMC3    C1 7325   1.463   3.590  10.835 -0.2547 -0.0620  0.2087
  493TMC3    C2 7326   1.564   3.675  10.797 -0.0653 -0.3230  0.0801
  493TMC3    C3 7327   1.603   3.675  10.667  0.3045 -1.0952 -0.4577
  493TMC3    C4 7328   1.402   3.511  10.740 -0.3898 -0.3969 -0.4953
  493TMC3    C5 7329   1.437   3.516  10.613  0.4648 -0.7048  0.2948
  493TMC3    C6 7330   1.533   3.603  10.569  0.2321 -0.0592  0.0660
  493TMC3     C 7331   1.411   3.605  10.968  0.2349 -0.0426 -0.5217
  493TMC3     O 7332   1.298   3.566  10.996  0.4136  0.3704 -0.0235
  493TMC3     H 7333   1.610   3.747  10.864  0.9447 -1.4998  0.6410
  493TMC3    H1 7334   1.321   3.446  10.770 -0.2186  0.7189  2.3404
  493TMC3    H2 7335   1.568   3.601  10.466  0.0767  0.8712  0.0014
  493TMC3    C7 7336   1.448   3.395  10.550  0.7009  0.6312 -0.2119
  493TMC3    C8 7337   1.724   3.756  10.644 -0.3163 -0.0787 -0.3887
  493TMC3    O1 7338   1.451   3.384  10.429 -0.0968  0.6290  0.1972
  493TMC3    O2 7339   1.797   3.764  10.738 -0.6386  0.0762 -0.1450
  494TMC3    C1 7340   2.308   0.877   0.632  0.0885 -0.5257 -0.0543
  494TMC3    C2 7341   2.371   0.765   0.671 -0.3037 -0.2966  0.3804
  494TMC3    C3 7342   2.432   0.687   0.583 -0.5100 -0.2101 -0.0377
  494TMC3    C4 7343   2.319   0.921   0.504 -0.9083 -1.2584 -0.2325
  494TMC3    C5 7344   2.389   0.842   0.417 -0.6746 -0.5503  1.2824
  494TMC3    C6 7345   2.444   0.724   0.452  0.5461  0.0632 -0.9573
  494TMC3     C 7346   2.194   0.923   0.717 -0.1300  0.3706 -0.1837
  494TMC3     O 7347   2.100   0.967   0.655  0.0002  0.1819  0.1015
  494TMC3     H 7348   2.352   0.725   0.770 -1.2530  2.7616  1.4261
  494TMC3    H1 7349   2.264   1.009   0.472  2.9177  1.1691 -0.1599
  494TMC3    H2 7350   2.494   0.660   0.381 -0.4793  0.7006 -2.2558
  494TMC3    C7 7351   2.416   0.899   0.291 -0.2871 -0.7442 -0.1188
  494TMC3    C8 7352   2.432   0.548   0.614 -0.1612 -0.2848 -0.3926
  494TMC3    O1 7353   2.431   0.817   0.201 -0.0296 -0.6932 -0.4123
  494TMC3    O2 7354   2.387   0.515   0.724  0.5317  0.4618 -0.8643
  495TMC3    C1 7355   0.943   3.139  14.330 -0.5958 -0.0205  0.6000
  495TMC3    C2 7356   0.816   3.173  14.282 -0.1213  0.6681 -0.3917
  495TMC3    C3 7357   0.712   3.134  14.362 -0.1120  0.0508 -1.2710
  495TMC3    C4 7358   0.965   3.087  14.455 -0.2397 -0.3494  0.0569
  495TMC3    C5 7359   0.859   3.071  14.538  0.4609  0.8962  0.7095
  495TMC3    C6 7360   0.730   3.096  14.491  0.0927  0.6926  0.3764
  495TMC3     C 7361   1.027   3.093  14.218 -0.1078 -0.3645 -0.7140
  495TMC3     O 7362   1.007   3.156  14.114 -0.1551  0.7993  0.4594
  495TMC3     H 7363   0.804   3.220  14.184 -0.3656  1.1833 -0.1143
  495TMC3    H1 7364   1.064   3.053  14.479 -0.7671 -1.7495  0.2546
  495TMC3    H2 7365   0.644   3.081  14.555  1.3926 -0.1040  1.9497
  495TMC3    C7 7366   0.866   3.009  14.674 -0.1000  0.0352 -0.6851
  495TMC3    C8 7367   0.598   3.094  14.288  0.0231  0.2253  0.6393
  495TMC3    O1 7368   0.774   2.942  14.715  0.1023  0.5491 -0.4318
  495TMC3    O2 7369   0.489   3.093  14.341  0.2392 -0.1645  0.0188
  496MPD2     C 7370   3.287   3.204  15.686 -0.3493 -0.1712  0.2676
  496MPD2    C1 7371   3.169   3.126  15.672 -0.4456 -0.7598 -0.4712
  496MPD2    C2 7372   3.069   3.141  15.764  0.2727 -0.2902 -0.2484
  496MPD2    C3 7373   3.082   3.233  15.872  0.4183  0.0581 -0.4133
  496MPD2    C4 7374   3.203   3.303  15.882  0.3496 -0.2001  0.3794
  496MPD2    C5 7375   3.301   3.291  15.792  0.4977  0.1970  0.0191
  496MPD2     H 7376   2.979   3.081  15.772 -0.7599  1.2594 -0.3849
  496MPD2    H1 7377   3.224   3.369  15.966  0.4855  0.8188 -0.4609
  496MPD2    H2 7378   3.370   3.190  15.617  0.3554 -3.3172  1.7556
  496MPD2    H3 7379   3.393   3.348  15.785  1.0300 -0.5161  1.2694
  496MPD2     N 7380   2.990   3.251  15.977  0.1512 -0.2513  0.1670
  496MPD2    H5 7381   3.015   3.310  16.055 -1.4460 -0.8327  1.1300
  496MPD2    N1 7382   3.164   3.030  15.563 -0.2947 -0.3741  0.5115
  496MPD2    H7 7383   3.247   3.027  15.505 -1.1909  0.7876 -0.8339
  497TMC3    C1 7384   2.797   3.187  16.103 -0.3299  0.4995  0.4819
  497TMC3    C2 7385   2.662   3.183  16.119  0.0441 -0.2092 -0.3088
  497TMC3    C3 7386   2.616   3.202  16.249  0.6362  0.7816 -0.1524
  497TMC3    C4 7387   2.880   3.185  16.213 -0.2409 -0.3031  0.0304
  497TMC3    C5 7388   2.827   3.195  16.333  0.4118 -0.1265  0.3214
  497TMC3    C6 7389   2.694   3.212  16.353 -0.7997 -0.7795  0.7930
  497TMC3     C 7390   2.859   3.202  15.969 -0.7907  0.6545 -0.1791
  497TMC3     O 7391   2.783   3.165  15.876 -0.0708  0.0171  0.0208
  497TMC3     H 7392   2.596   3.188  16.033  0.5073 -1.2860 -0.7274
  497TMC3    H1 7393   2.986   3.175  16.194 -0.1853  2.4725 -1.0196
  497TMC3    H2 7394   2.651   3.209  16.452  1.3889 -0.3051  1.7760
  497TMC3    C7 7395   2.906   3.187  16.448  0.0159  0.1631 -0.4278
  497TMC3    C8 7396   2.479   3.239  16.269  0.3279  0.5757  0.1385
  497TMC3    O1 7397   2.846   3.204  16.555  0.0756 -0.3253 -0.4110
  497TMC3    O2 7398   2.454   3.289  16.380  0.0795  0.4604  0.2055
  498MPD2     C 7399   3.947   3.380   9.769  0.1558  0.0887  0.0329
  498MPD2    C1 7400   3.872   3.475   9.843  0.1259 -1.1660  0.4778
  498MPD2    C2 7401   3.772   3.424   9.926 -0.1619  0.2966  0.1817
  498MPD2    C3 7402   3.731   3.283   9.914 -0.0747  0.1039 -0.1492
  498MPD2    C4 7403   3.804   3.199   9.840 -0.5816  0.4613  0.6443
  498MPD2    C5 7404   3.915   3.243   9.768 -0.0635  0.5882  0.1149
  498MPD2     H 7405   3.715   3.489   9.991  0.2753  0.2738  0.5918
  498MPD2    H1 7406   3.796   3.091   9.850 -2.6337  0.4847 -0.7770
  498MPD2    H2 7407   4.024   3.413   9.701 -0.3950  1.1322 -0.0997
  498MPD2    H3 7408   3.977   3.173   9.714 -0.7613  0.0254  0.0354
  498MPD2     N 7409   3.631   3.237  10.001 -0.0875 -0.3313  0.0603
  498MPD2    H5 7410   3.596   3.309  10.064  0.5133 -0.5322  0.6248
  498MPD2    N1 7411   3.911   3.608   9.853  0.7029  0.1305  0.0252
  498MPD2    H7 7412   3.851   3.664   9.912  2.3993 -2.1303  3.9238
  499TMC3    C1 7413   4.017   3.813   9.801 -0.9172 -0.3341 -0.8575
  499TMC3    C2 7414   4.142   3.873   9.796 -0.2549 -0.5172  0.1849
  499TMC3    C3 7415   4.163   4.001   9.754  0.0173  0.3108 -0.3018
  499TMC3    C4 7416   3.901   3.880   9.770  0.0107 -0.2616 -0.6950
  499TMC3    C5 7417   3.921   4.013   9.721  0.8857  0.9186 -0.3346
  499TMC3    C6 7418   4.049   4.075   9.716  0.4187  0.3588  0.7890
  499TMC3     C 7419   4.022   3.671   9.792  0.5215 -0.3867  0.4210
  499TMC3     O 7420   4.106   3.627   9.713  0.3246  0.0491  0.4580
  499TMC3     H 7421   4.227   3.811   9.820  0.5108  0.1192 -0.9230
  499TMC3    H1 7422   3.802   3.836   9.765 -0.9817  1.7789  1.0350
  499TMC3    H2 7423   4.056   4.177   9.681  0.9375 -0.3251 -1.1440
  499TMC3    C7 7424   3.810   4.085   9.670 -0.6329 -0.5986  0.3299
  499TMC3    C8 7425   4.290   4.038   9.700  0.4366 -0.4214  0.4986
  499TMC3    O1 7426   3.701   4.056   9.722 -0.2587  0.9326  0.7595
  499TMC3    O2 7427   4.286   4.102   9.597 -0.1391 -0.3887  0.1144
  500MPD2     C 7428   0.726   4.550   9.633 -0.2615  0.0466 -0.0349
  500MPD2    C1 7429   0.634   4.597   9.728 -1.0525 -0.2780 -0.0285
  500MPD2    C2 7430   0.498   4.581   9.702  0.4724 -0.7962  0.5488
  500MPD2    C3 7431   0.447   4.533   9.584 -0.1520 -0.3968 -0.1349
  500MPD2    C4 7432   0.542   4.494   9.493  0.3189 -0.0220  0.7470
  500MPD2    C5 7433   0.677   4.504   9.523 -0.3049  0.4417  0.5450
  500MPD2     H 7434   0.433   4.607   9.784 -1.4601 -0.5511 -1.0464
  500MPD2    H1 7435   0.517   4.455   9.395  2.3636 -1.1511  0.6717
  500MPD2    H2 7436   0.832   4.543   9.652 -0.1922 -2.6540 -1.3878
  500MPD2    H3 7437   0.740   4.456   9.449 -0.3234  1.3608 -0.0585
  500MPD2     N 7438   0.303   4.523   9.557  0.0802  0.6848  0.6073
  500MPD2    H5 7439   0.276   4.496   9.463  0.0671 -2.5633  1.5314
  500MPD2    N1 7440   0.675   4.642   9.858  0.6519  0.0829 -0.2594
  500MPD2    H7 7441   0.604   4.671   9.926  0.7855  0.7405 -0.4000
  501TMC3    C1 7442   0.825   4.676  10.041  0.0084 -0.0762 -0.1171
  501TMC3    C2 7443   0.771   0.075  10.074  0.8869 -0.5508 -0.2189
  501TMC3    C3 7444   0.797   0.127  10.197 -0.0283 -0.2390  0.8203
  501TMC3    C4 7445   0.909   4.611  10.123 -0.8253 -0.1141  0.4844
  501TMC3    C5 7446   0.940   4.668  10.246 -0.2158  0.0473  0.6305
  501TMC3    C6 7447   0.877   0.060  10.283 -0.2057  0.2282 -0.0963
  501TMC3     C 7448   0.806   4.635   9.905 -0.0783 -0.5043  0.8295
  501TMC3     O 7449   0.903   4.595   9.847  0.3354 -0.1259 -0.1464
  501TMC3     H 7450   0.714   0.134  10.003  1.6884  0.5326  0.0424
  501TMC3    H1 7451   0.961   4.518  10.103  2.6579  1.4837  2.0632
  501TMC3    H2 7452   0.882   0.097  10.385  0.6809  1.5056 -0.6129
  501TMC3    C7 7453   1.080   4.675  10.274  0.8304  0.3691  0.4941
  501TMC3    C8 7454   0.817   0.270  10.212 -0.1031 -0.2165 -0.6015
  501TMC3    O1 7455   1.139   4.568  10.261  0.4064  0.6327 -0.0016
  501TMC3    O2 7456   0.922   0.294  10.276  0.2141  0.6697  0.6752
  502TMC3    C1 7457   4.588   3.080  14.777 -0.0628  0.2176 -0.3715
  502TMC3    C2 7458   4.627   3.174  14.689  0.1517  0.1087 -0.4490
  502TMC3    C3 7459   4.559   3.295  14.681  0.2218  0.0848 -0.7353
  502TMC3    C4 7460   4.497   3.124  14.870 -0.1021 -0.8510  0.5025
  502TMC3    C5 7461   4.430   3.238  14.858  0.2792 -0.4196 -0.0385
  502TMC3    C6 7462   4.448   3.328  14.754  0.0714 -0.0491  0.3057
  502TMC3     C 7463   4.704   3.040  14.848  0.3171 -0.1064 -0.3508
  502TMC3     O 7464   0.055   2.978  14.781  0.1788 -0.7422  0.2575
  502TMC3     H 7465   4.715   3.155  14.628  2.4923 -0.5780  3.1076
  502TMC3    H1 7466   4.472   3.062  14.956  0.6641 -1.7001  0.1109
  502TMC3    H2 7467   4.419   3.432  14.766 -0.1566  0.0942 -1.5991
  502TMC3    C7 7468   4.413   3.306  14.984 -0.4159 -0.3276  0.9066
  502TMC3    C8 7469   4.647   3.409  14.654  0.0460 -0.4015  0.4594
  502TMC3    O1 7470   4.496   3.303  15.071 -0.2536 -0.3284 -0.1367
  502TMC3    O2 7471   4.594   3.518  14.642 -0.0288  0.0515  0.0938
  503MPD2     C 7472   2.861   4.533  16.868  0.1711 -0.2934  0.2141
  503MPD2    C1 7473   2.801   4.491  16.988  0.5431 -0.6086 -1.0285
  503MPD2    C2 7474   2.821   4.360  17.028  0.3614 -0.1368  0.5993
  503MPD2    C3 7475   2.909   4.279  16.953  0.0153 -0.0205  0.1322
  503MPD2    C4 7476   2.975   4.329  16.839  0.1654 -0.1403  0.1392
  503MPD2    C5 7477   2.955   4.456  16.804 -0.5874 -0.0524  0.0690
  503MPD2     H 7478   2.770   4.320  17.115  2.0167 -2.7413  0.4025
  503MPD2    H1 7479   3.053   4.270  16.791  0.0753  0.5561 -0.8685
  503MPD2    H2 7480   2.845   4.628  16.819 -1.4721 -0.0573  1.2353
  503MPD2    H3 7481   3.003   4.490  16.713 -3.6165  3.3410 -0.2539
  503MPD2     N 7482   2.933   4.149  17.011 -0.3193  0.1007 -0.0221
  503MPD2    H5 7483   2.911   4.142  17.109 -3.6790  0.2244 -0.7642
  503MPD2    N1 7484   2.717   4.567  17.069 -0.3636  0.8244 -0.1667
  503MPD2    H7 7485   2.675   4.530  17.153 -1.4842  0.4734 -0.8771
  504TMC3    C1 7486   3.054   3.939  17.011 -0.9003  0.9503  0.2038
  504TMC3    C2 7487   3.092   3.954  17.141  0.1507  0.8876  0.0148
  504TMC3    C3 7488   3.205   3.895  17.184 -0.0076 -0.4717  0.0863
  504TMC3    C4 7489   3.119   3.844  16.937  0.0244  0.1225  0.6575
  504TMC3    C5 7490   3.237   3.784  16.982  0.0135 -0.4238 -0.4878
  504TMC3    C6 7491   3.277   3.809  17.110 -0.4030 -0.3850 -0.1701
  504TMC3     C 7492   2.983   4.043  16.937 -0.4333  0.0258  0.2601
  504TMC3     O 7493   2.980   4.023  16.818  0.1611  0.3955  0.0277
  504TMC3     H 7494   3.056   4.030  17.209  0.7208  0.0292  1.2731
  504TMC3    H1 7495   3.106   3.849  16.829  2.5636  0.3109  0.3617
  504TMC3    H2 7496   3.373   3.769  17.141  0.9516  1.3541 -2.1214
  504TMC3    C7 7497   3.326   3.716  16.882 -0.0325  0.6387 -0.7724
  504TMC3    C8 7498   3.251   3.939  17.316  0.7552 -0.6471 -0.2662
  504TMC3    O1 7499   3.439   3.762  16.867  0.8888 -1.3865  0.2034
  504TMC3    O2 7500   3.218   4.051  17.350  0.0912 -0.0294  0.1008
  505MPD2     C 7501   2.672   3.224  10.984  0.5366  0.2956 -0.1532
  505MPD2    C1 7502   2.758   3.123  11.019 -0.8434 -0.4213  0.0050
  505MPD2    C2 7503   2.869   3.145  11.095 -0.2903  0.0552 -0.2268
  505MPD2    C3 7504   2.901   3.279  11.124 -0.3111  0.5515  0.0071
  505MPD2    C4 7505   2.813   3.380  11.093  0.6454  0.0105  0.1870
  505MPD2    C5 7506   2.699   3.351  11.026  0.0062 -0.5275 -0.1803
  505MPD2     H 7507   2.935   3.064  11.124 -0.7206  0.7914  2.8323
  505MPD2    H1 7508   2.833   3.481  11.126  0.5412  0.1409 -0.1465
  505MPD2    H2 7509   2.580   3.197  10.933  0.3550 -0.1778  0.4205
  505MPD2    H3 7510   2.629   3.430  11.002  2.0117  1.4119  0.4075
  505MPD2     N 7511   3.019   3.304  11.195  0.3150 -0.1154 -0.2618
  505MPD2    H5 7512   3.058   3.222  11.241  0.2979  1.8233  3.2443
  505MPD2    N1 7513   2.714   2.994  10.980  0.3291 -0.2701  0.1668
  505MPD2    H7 7514   2.642   2.987  10.908  0.3091 -0.7907  0.2384
  506TMC3    C1 7515   2.695   2.750  11.005  0.1192  0.2199 -0.2278
  506TMC3    C2 7516   2.733   2.700  10.879 -0.8782 -0.3449 -0.0693
  506TMC3    C3 7517   2.771   2.567  10.854  0.3707 -0.2357  0.0804
  506TMC3    C4 7518   2.726   2.667  11.111 -0.5730 -0.2313 -0.6183
  506TMC3    C5 7519   2.782   2.536  11.088  0.7184  0.1018  0.6668
  506TMC3    C6 7520   2.784   2.483  10.965  0.0020  0.2542 -0.2290
  506TMC3     C 7521   2.757   2.883  11.045  1.1338 -0.0414 -0.6178
  506TMC3     O 7522   2.816   2.875  11.156 -0.3748  0.2758 -0.0626
  506TMC3     H 7523   2.702   2.766  10.799 -3.5180 -2.3962 -0.7357
  506TMC3    H1 7524   2.702   2.694  11.213  1.0320 -0.2516 -0.2494
  506TMC3    H2 7525   2.826   2.385  10.946 -1.6072 -0.1746 -1.6500
  506TMC3    C7 7526   2.904   2.505  11.160  0.4185 -0.2975 -0.5905
  506TMC3    C8 7527   2.810   2.519  10.719  0.4340  0.2912 -0.1952
  506TMC3    O1 7528   2.946   2.392  11.137 -0.2489  0.4696 -0.2321
  506TMC3    O2 7529   2.790   2.397  10.696  0.6201  0.2324  0.0582
  507TMC3    C1 7530   3.242   3.526  14.254  0.2819  0.1574 -0.0554
  507TMC3    C2 7531   3.334   3.567  14.163  0.2960  0.3119  0.2916
  507TMC3    C3 7532   3.455   3.613  14.206 -0.0470 -0.7676 -0.1388
  507TMC3    C4 7533   3.257   3.537  14.386 -0.5904 -0.1253 -0.2813
  507TMC3    C5 7534   3.367   3.609  14.430 -1.0873 -0.0295 -0.2221
  507TMC3    C6 7535   3.476   3.630  14.343 -0.0531  0.0845  0.1655
  507TMC3     C 7536   3.114   3.477  14.205 -0.4039  0.6112 -0.4565
  507TMC3     O 7537   3.079   3.496  14.087  0.1654 -0.2393 -0.1403
  507TMC3     H 7538   3.303   3.566  14.059  2.4698  2.4118 -0.3917
  507TMC3    H1 7539   3.172   3.522  14.452  0.2773 -1.4296  0.5243
  507TMC3    H2 7540   3.561   3.685  14.381 -0.4897  0.9738 -0.1471
  507TMC3    C7 7541   3.343   3.724  14.514  0.5252 -0.2744 -0.1559
  507TMC3    C8 7542   3.508   3.725  14.126 -0.6655 -0.3825  0.1219
  507TMC3    O1 7543   3.428   3.811  14.502 -0.2245 -0.4125  0.9853
  507TMC3    O2 7544   3.511   3.711  14.005  0.0182  0.1005  0.3093
  508MPD2     C 7545   4.678   1.611  16.123 -0.1285 -0.1398 -0.0218
  508MPD2    C1 7546   4.600   1.710  16.172 -0.1631  0.0786  0.3780
  508MPD2    C2 7547   4.527   1.798  16.084  0.2754 -0.5108  0.0939
  508MPD2    C3 7548   4.529   1.763  15.945 -0.2172 -0.6860  0.4774
  508MPD2    C4 7549   4.610   1.652  15.902 -0.1929  0.2218 -0.5078
  508MPD2    C5 7550   4.680   1.575  15.993 -0.8013  0.9600  0.7990
  508MPD2     H 7551   4.469   1.881  16.121  0.6245  0.1772 -0.9048
  508MPD2    H1 7552   4.633   1.639  15.797 -0.8210  0.1697 -0.6386
  508MPD2    H2 7553   0.029   1.558  16.183  1.3456  3.1465  1.0383
  508MPD2    H3 7554   0.015   1.497  15.945 -1.8550 -0.5196  1.9561
  508MPD2     N 7555   4.465   1.853  15.860 -0.3289 -0.5260  0.4513
  508MPD2    H5 7556   4.434   1.933  15.915 -1.7651  1.6837 -3.6143
  508MPD2    N1 7557   4.602   1.720  16.313 -0.2860 -0.1278 -0.7009
  508MPD2    H7 7558   4.657   1.656  16.370  1.9336  0.3371 -2.3303
  509TMC3    C1 7559   4.338   2.175  15.650 -0.0556  1.1781 -1.2074
  509TMC3    C2 7560   4.434   2.232  15.573 -1.2220  0.1253  0.5303
  509TMC3    C3 7561   4.542   2.152  15.540 -0.3507  0.2974 -0.2019
  509TMC3    C4 7562   4.345   2.048  15.699  0.1061 -0.1329 -0.4900
  509TMC3    C5 7563   4.450   1.975  15.659  0.2411 -0.3593 -0.4741
  509TMC3    C6 7564   4.552   2.025  15.594 -0.3849 -0.0966  1.2762
  509TMC3     C 7565   4.200   2.226  15.639  0.3342 -0.4330 -0.0971
  509TMC3     O 7566   4.118   2.152  15.692 -0.1312 -0.6083 -0.5548
  509TMC3     H 7567   4.424   2.334  15.539  1.1766 -0.1396 -0.9729
  509TMC3    H1 7568   4.263   2.008  15.758  0.0516  0.0798 -0.4193
  509TMC3    H2 7569   4.639   1.962  15.578  0.5060  0.8342  2.4817
  509TMC3    C7 7570   4.475   1.845  15.719 -0.2774 -0.0882 -0.0625
  509TMC3    C8 7571   4.656   2.200  15.463  0.1715  0.7930 -0.0505
  509TMC3    O1 7572   4.513   1.763  15.639 -0.8376 -0.8511 -0.2480
  509TMC3    O2 7573   0.026   2.125  15.471 -0.4763 -0.2620 -0.2348
  510MPD2     C 7574   2.199   2.766  14.373 -0.1517  0.3251 -0.7611
  510MPD2    C1 7575   2.261   2.828  14.477 -1.0782 -0.6596  0.1342
  510MPD2    C2 7576   2.363   2.920  14.456 -0.4826 -0.4024  0.1975
  510MPD2    C3 7577   2.402   2.940  14.322  0.4489  0.3683 -0.3481
  510MPD2    C4 7578   2.337   2.885  14.217  0.3790  0.3025 -0.5315
  510MPD2    C5 7579   2.230   2.805  14.246 -0.5514  0.4072 -0.3585
  510MPD2     H 7580   2.421   2.961  14.538  1.1782  1.9550 -2.1512
  510MPD2    H1 7581   2.368   2.895  14.114  1.4455 -0.5894 -0.2977
  510MPD2    H2 7582   2.110   2.704  14.376  0.2822 -0.3531 -1.8755
  510MPD2    H3 7583   2.174   2.758  14.166 -0.3832 -0.9082  0.3025
  510MPD2     N 7584   2.530   2.995  14.302 -0.0464 -0.4518  0.1672
  510MPD2    H5 7585   2.583   3.008  14.387  2.0516 -2.1180 -0.8875
  510MPD2    N1 7586   2.207   2.801  14.602  0.0836 -0.1600 -0.9100
  510MPD2    H7 7587   2.119   2.751  14.605  0.0060 -0.0266 -0.9604
  511TMC3    C1 7588   2.143   2.829  14.827 -1.1099 -0.1106  0.3836
  511TMC3    C2 7589   2.168   2.877  14.954 -0.1738 -0.1013 -0.5087
  511TMC3    C3 7590   2.080   2.845  15.054  0.0866 -0.0747 -0.4295
  511TMC3    C4 7591   2.045   2.735  14.801 -0.3379 -0.0771 -0.0235
  511TMC3    C5 7592   1.974   2.689  14.911 -0.2901 -0.1063 -0.0137
  511TMC3    C6 7593   1.990   2.745  15.035  0.2876 -0.3597  0.4215
  511TMC3     C 7594   2.236   2.863  14.719 -0.7348  0.0049  1.3970
  511TMC3     O 7595   2.320   2.949  14.744  0.2595 -0.2915 -0.2121
  511TMC3     H 7596   2.248   2.948  14.968 -1.1381  0.3609  2.5732
  511TMC3    H1 7597   2.044   2.671  14.713  1.5017  0.2222 -0.2578
  511TMC3    H2 7598   1.923   2.718  15.116  0.7448 -0.7072  0.6835
  511TMC3    C7 7599   1.849   2.612  14.882 -0.1916 -1.2976 -0.4908
  511TMC3    C8 7600   2.065   2.945  15.160 -0.0288  0.6934  0.6423
  511TMC3    O1 7601   1.822   2.589  14.765 -0.5649  0.6030  0.4803
  511TMC3    O2 7602   2.102   3.058  15.139  0.5767  0.6439 -0.2668
  512TMC3    C1 7603   1.035   2.664  13.179 -0.6103  0.1127  0.7684
  512TMC3    C2 7604   1.115   2.609  13.274  0.6841  0.0021 -0.5176
  512TMC3    C3 7605   1.169   2.480  13.265  0.7583  0.3004 -0.2315
  512TMC3    C4 7606   1.006   2.583  13.070  0.0364  0.0442  0.3612
  512TMC3    C5 7607   1.051   2.455  13.065  1.0569 -0.0267  0.0434
  512TMC3    C6 7608   1.134   2.400  13.161 -0.2313  0.4525  0.3075
  512TMC3     C 7609   0.926   2.756  13.222 -0.0642  0.0526  0.0683
  512TMC3     O 7610   0.943   2.828  13.323 -0.0378  0.2306 -0.4806
  512TMC3     H 7611   1.127   2.660  13.369  0.6470 -0.9689  0.0123
  512TMC3    H1 7612   0.970   2.628  12.979 -0.7044 -1.2565  0.0172
  512TMC3    H2 7613   1.183   2.304  13.151 -2.1806 -0.3801 -1.0843
  512TMC3    C7 7614   1.042   2.386  12.939  0.4106 -0.1081  0.6341
  512TMC3    C8 7615   1.300   2.452  13.326  0.1502  0.6351 -0.3615
  512TMC3    O1 7616   1.037   2.455  12.837  0.7171 -0.3146 -0.2257
  512TMC3    O2 7617   1.325   2.330  13.334  0.0555 -0.0696  0.0616
  513MPD2     C 7618   2.707   1.897  13.463 -0.0806  0.1178  0.3923
  513MPD2    C1 7619   2.799   1.982  13.402 -0.5124  0.0737  0.6232
  513MPD2    C2 7620   2.861   2.075  13.476 -0.5937  0.7432 -0.2377
  513MPD2    C3 7621   2.824   2.097  13.607  0.0583  0.1781  0.3781
  513MPD2    C4 7622   2.734   2.014  13.664 -0.0783  0.1947  0.6507
  513MPD2    C5 7623   2.676   1.911  13.595 -0.2679  0.1690 -0.5033
  513MPD2     H 7624   2.940   2.134  13.432 -0.5767  0.7399 -0.2114
  513MPD2    H1 7625   2.699   2.048  13.761 -0.2887 -0.3248  0.7587
  513MPD2    H2 7626   2.656   1.826  13.399 -0.1656  1.9858 -1.6111
  513MPD2    H3 7627   2.592   1.856  13.636 -0.3690  0.4202 -0.3763
  513MPD2     N 7628   2.879   2.208  13.671 -0.3975  0.3270 -0.2951
  513MPD2    H5 7629   2.947   2.255  13.612  2.0907 -1.9081  0.8444
  513MPD2    N1 7630   2.836   1.953  13.266 -0.0689  0.4225 -0.5290
  513MPD2    H7 7631   2.803   1.866  13.228 -2.1449  1.6144 -1.4388
  514TMC3    C1 7632   2.952   1.984  13.061 -0.3880 -0.7325 -0.5833
  514TMC3    C2 7633   2.879   2.048  12.960  0.6442 -0.0889  0.6898
  514TMC3    C3 7634   2.951   2.115  12.868  0.5002 -0.1221  0.5545
  514TMC3    C4 7635   3.084   1.962  13.053 -0.0431 -0.0643 -0.9522
  514TMC3    C5 7636   3.152   2.025  12.953 -0.6411 -0.0107  0.4282
  514TMC3    C6 7637   3.086   2.105  12.865 -0.3705  0.5222 -0.5759
  514TMC3     C 7638   2.917   2.035  13.185 -0.3704 -0.3884  0.0406
  514TMC3     O 7639   2.969   2.143  13.210  0.6189  0.3641  0.1879
  514TMC3     H 7640   2.772   2.062  12.968  0.3903 -0.2156 -2.6662
  514TMC3    H1 7641   3.130   1.923  13.144 -0.6398  0.4582 -0.4256
  514TMC3    H2 7642   3.149   2.178  12.815  3.2578 -0.2890  2.8748
  514TMC3    C7 7643   3.272   2.091  13.007  0.1351 -0.3006  0.2733
  514TMC3    C8 7644   2.881   2.197  12.773 -0.1474 -0.4085 -0.1717
  514TMC3    O1 7645   3.385   2.059  12.972 -0.2014 -0.7933  0.2709
  514TMC3    O2 7646   2.762   2.217  12.796 -0.1061 -0.3210  0.3590
  515MPD2     C 7647   0.984   4.282  15.124  0.7012 -0.0343  0.7153
  515MPD2    C1 7648   1.066   4.270  15.011  0.0655  0.5654 -0.4145
  515MPD2    C2 7649   1.191   4.337  15.003 -0.2295 -0.5746 -0.0792
  515MPD2    C3 7650   1.240   4.399  15.120  0.2336  0.5797 -0.3888
  515MPD2    C4 7651   1.162   4.402  15.233  0.4379 -0.6808 -0.3504
  515MPD2    C5 7652   1.036   4.351  15.229  0.0896 -0.1762 -0.5425
  515MPD2     H 7653   1.252   4.329  14.914  1.1979  1.5439  0.7056
  515MPD2    H1 7654   1.195   4.449  15.325  1.6461 -0.9179 -0.6639
  515MPD2    H2 7655   0.882   4.247  15.124 -0.4701  3.4231  1.5976
  515MPD2    H3 7656   0.965   4.352  15.311 -0.1333 -1.3211 -0.7128
  515MPD2     N 7657   1.368   4.453  15.136 -0.3572  0.1043  0.1362
  515MPD2    H5 7658   1.380   4.503  15.223 -1.5643  0.8904 -0.1460
  515MPD2    N1 7659   1.019   4.195  14.898  0.1744  0.0511 -0.0262
  515MPD2    H7 7660   1.091   4.191  14.827  1.2702  2.3495  0.9466
  516TMC3    C1 7661   0.901   4.070  14.747  0.0169 -0.4564  0.2004
  516TMC3    C2 7662   0.811   4.100  14.649  0.0315  0.0312  0.6977
  516TMC3    C3 7663   0.847   4.070  14.524 -0.6255  0.6617 -0.0260
  516TMC3    C4 7664   1.009   3.996  14.728  0.4815 -0.2347  0.0050
  516TMC3    C5 7665   1.040   3.967  14.602 -0.4267  0.3735 -0.3438
  516TMC3    C6 7666   0.965   4.000  14.493  0.4366 -0.6497 -0.3640
  516TMC3     C 7667   0.900   4.135  14.878 -0.2521  0.2880 -0.3988
  516TMC3     O 7668   0.802   4.123  14.949  0.3217  0.0308  0.6151
  516TMC3     H 7669   0.720   4.154  14.672 -0.2844 -0.3186  0.2728
  516TMC3    H1 7670   1.065   3.974  14.818 -1.5009 -0.4368  1.1752
  516TMC3    H2 7671   0.986   3.968  14.392 -0.9265  0.4640 -0.9897
  516TMC3    C7 7672   1.135   3.865  14.586  0.0919  1.0518 -0.1583
  516TMC3    C8 7673   0.749   4.085  14.422  0.2975  0.1123  0.0393
  516TMC3    O1 7674   1.182   3.857  14.475  0.3038  0.5815  0.3166
  516TMC3    O2 7675   0.632   4.070  14.445  0.7227 -0.9192  0.6511
  517MPD2     C 7676   1.201   1.021   0.469 -0.1181 -0.2024 -0.3406
  517MPD2    C1 7677   1.325   0.980   0.441 -1.4812 -0.6198 -0.6118
  517MPD2    C2 7678   1.431   1.043   0.490  0.2667  0.2058 -1.1301
  517MPD2    C3 7679   1.415   1.141   0.586  0.3904  0.0172 -0.0445
  517MPD2    C4 7680   1.293   1.178   0.633 -0.4946 -0.4956 -0.4086
  517MPD2    C5 7681   1.183   1.111   0.577 -0.7703 -0.0997 -0.4073
  517MPD2     H 7682   1.529   1.017   0.451  0.7112  0.5170 -0.2335
  517MPD2    H1 7683   1.279   1.241   0.719 -1.3544 -0.1737 -0.7802
  517MPD2    H2 7684   1.120   0.984   0.407 -1.5335  1.6132  0.4321
  517MPD2    H3 7685   1.078   1.124   0.601  0.2368  1.1887  3.2312
  517MPD2     N 7686   1.525   1.196   0.652 -0.7093 -0.5794 -0.1677
  517MPD2    H5 7687   1.505   1.249   0.737  0.5796 -0.4728  0.0654
  517MPD2    N1 7688   1.357   0.879   0.342  0.4267  0.1450  0.0966
  517MPD2    H7 7689   1.456   0.857   0.332  0.5695  0.7429  0.1642
  518TMC3    C1 7690   1.336   0.695   0.193 -0.6345 -0.5123 -0.8375
  518TMC3    C2 7691   1.275   0.576   0.177 -0.2921  0.6155  0.3924
  518TMC3    C3 7692   1.314   0.496   0.067 -0.4039  0.5092 -0.6795
  518TMC3    C4 7693   1.444   0.731   0.126  0.0697 -0.3349  0.3125
  518TMC3    C5 7694   1.492   0.646   0.033 -1.0198 -0.5266  0.0500
  518TMC3    C6 7695   1.426   0.531  17.693 -0.3548  0.4661 -0.0658
  518TMC3     C 7696   1.272   0.795   0.280 -0.7123  0.3760  0.0652
  518TMC3     O 7697   1.151   0.784   0.295 -0.3541  0.2752  0.4112
  518TMC3     H 7698   1.190   0.551   0.239 -1.0417  1.4185 -0.3230
  518TMC3    H1 7699   1.484   0.832   0.130  0.4811 -0.4919  0.1673
  518TMC3    H2 7700   1.464   0.464  17.616 -2.3834 -0.8144  0.0392
  518TMC3    C7 7701   1.627   0.675  17.684  1.1110  0.3746 -0.1413
  518TMC3    C8 7702   1.261   0.360   0.041 -0.2934 -0.5466 -0.0916
  518TMC3    O1 7703   1.673   0.786   0.016 -0.4526  0.0401 -0.6376
  518TMC3    O2 7704   1.321   0.299  17.650 -0.0845 -0.0889 -0.0360
  519MPD2     C 7705   2.779   4.529  13.747  0.4634  0.7418 -0.3387
  519MPD2    C1 7706   2.713   4.450  13.838 -0.0279  0.1185 -0.0215
  519MPD2    C2 7707   2.726   4.315  13.844  0.0893  0.7093  0.4557
  519MPD2    C3 7708   2.812   4.246  13.758  0.7449 -0.0636 -0.9975
  519MPD2    C4 7709   2.894   4.323  13.671 -0.1500 -0.7281 -0.5712
  519MPD2    C5 7710   2.875   4.464  13.673  0.0239  0.1062 -0.3428
  519MPD2     H 7711   2.662   4.254  13.906  2.2235 -0.9296  1.0451
  519MPD2    H1 7712   2.965   4.277  13.604  1.3562  2.6120 -1.2704
  519MPD2    H2 7713   2.767   4.635  13.733 -0.7278  0.8995  1.9600
  519MPD2    H3 7714   2.925   4.529  13.602  2.0257 -0.9436  0.0987
  519MPD2     N 7715   2.844   4.112  13.770  0.6643  0.7670 -0.3256
  519MPD2    H5 7716   2.896   4.084  13.687  2.0479  0.3252  0.6787
  519MPD2    N1 7717   2.615   4.514  13.920 -0.0831 -0.1894  1.2117
  519MPD2    H7 7718   2.600   4.611  13.893 -0.9034 -0.6227  0.1063
  520TMC3    C1 7719   2.825   3.889  13.845  0.1867  0.4461 -0.2288
  520TMC3    C2 7720   2.732   3.795  13.881 -0.0573  0.1722 -0.2285
  520TMC3    C3 7721   2.776   3.666  13.892 -0.1432 -0.4655  0.1040
  520TMC3    C4 7722   2.945   3.856  13.797 -0.4690 -0.6325 -0.7148
  520TMC3    C5 7723   2.975   3.718  13.792 -0.2071  0.1076 -0.5547
  520TMC3    C6 7724   2.898   3.626  13.852 -0.4448  1.1524  0.5666
  520TMC3     C 7725   2.786   4.026  13.861  0.0392  0.0026  0.2401
  520TMC3     O 7726   2.714   4.042  13.961 -0.3305 -0.1236 -0.2745
  520TMC3     H 7727   2.633   3.822  13.917 -0.6408 -2.4192  0.1131
  520TMC3    H1 7728   3.017   3.923  13.753 -0.1405 -0.9695 -0.6922
  520TMC3    H2 7729   2.924   3.522  13.867 -1.8652  0.5532 -1.1216
  520TMC3    C7 7730   3.113   3.690  13.753 -0.3104 -0.4856 -0.1246
  520TMC3    C8 7731   2.678   3.564  13.911 -0.6570 -0.0602 -0.3040
  520TMC3    O1 7732   3.185   3.769  13.697  0.2432  0.1776  0.6138
  520TMC3    O2 7733   2.706   3.449  13.881 -0.3404 -0.0290 -0.1112
  521MPD2     C 7734   3.106   2.482  17.293 -0.6117 -0.2882  0.5272
  521MPD2    C1 7735   3.099   2.363  17.235  0.0975  0.7601  0.5629
  521MPD2    C2 7736   3.218   2.297  17.200 -0.3696 -0.0294  0.2436
  521MPD2    C3 7737   3.340   2.363  17.211  0.3143  0.1803 -0.3587
  521MPD2    C4 7738   3.342   2.488  17.263 -0.0272 -0.2163 -0.4664
  521MPD2    C5 7739   3.228   2.542  17.311 -0.7054  0.2073 -0.2694
  521MPD2     H 7740   3.215   2.199  17.154 -0.1455  0.2762 -0.4173
  521MPD2    H1 7741   3.434   2.540  17.286  1.3406 -2.2109 -1.4104
  521MPD2    H2 7742   3.016   2.531  17.330 -0.7630  0.2096 -0.5065
  521MPD2    H3 7743   3.225   2.644  17.348  2.4000 -0.4718  1.8420
  521MPD2     N 7744   3.454   2.303  17.174 -0.2515 -0.2779  1.3032
  521MPD2    H5 7745   3.458   2.231  17.102 -0.7770  0.9376  0.0655
  521MPD2    N1 7746   2.966   2.306  17.226  0.5141 -0.0337 -0.6722
  521MPD2    H7 7747   2.885   2.351  17.267 -0.7980 -3.7315  0.7338
  522TMC3    C1 7748   3.686   2.254  17.161 -0.0017  0.0623  0.1657
  522TMC3    C2 7749   3.793   2.204  17.235 -0.0651 -0.5117  0.1381
  522TMC3    C3 7750   3.891   2.134  17.167 -0.8242 -0.1439 -0.3843
  522TMC3    C4 7751   3.661   2.213  17.030  0.5762 -0.5051  0.5398
  522TMC3    C5 7752   3.759   2.135  16.973  0.4247 -0.3202  0.6517
  522TMC3    C6 7753   3.879   2.105  17.033 -0.0751  0.9032 -0.8016
  522TMC3     C 7754   3.579   2.318  17.234 -0.1390  0.5186 -0.0463
  522TMC3     O 7755   3.602   2.382  17.341 -0.0513 -0.7055 -0.0081
  522TMC3     H 7756   3.813   2.229  17.338 -0.9595 -0.2422  0.2391
  522TMC3    H1 7757   3.588   2.257  16.964 -0.1599 -1.9854  0.3776
  522TMC3    H2 7758   3.946   2.041  16.976 -1.0307 -0.9802  0.1835
  522TMC3    C7 7759   3.762   2.109  16.830 -0.0152  0.5515  0.4500
  522TMC3    C8 7760   4.001   2.081  17.237 -0.9249  0.0013 -0.2233
  522TMC3    O1 7761   3.872   2.130  16.775  0.6463  0.1968  0.3158
  522TMC3    O2 7762   3.991   2.053  17.355 -0.3344  0.0409 -0.4294
  523MPD2     C 7763   1.131   1.565  10.208  0.1045  0.3260 -0.0143
  523MPD2    C1 7764   1.059   1.524  10.097  0.2078 -0.2990 -0.1384
  523MPD2    C2 7765   0.983   1.619  10.031  0.2485 -0.0321 -0.7426
  523MPD2    C3 7766   0.994   1.754  10.069  0.2144 -0.0912  0.7378
  523MPD2    C4 7767   1.068   1.790  10.177 -0.2872  0.0818  0.3546
  523MPD2    C5 7768   1.134   1.696  10.248 -1.3877 -0.2844  0.5575
  523MPD2     H 7769   0.930   1.598   9.939 -1.2994 -0.7337  0.3142
  523MPD2    H1 7770   1.090   1.891  10.209  0.2185 -0.0548  0.4323
  523MPD2    H2 7771   1.199   1.494  10.254 -0.4891  1.2419  2.2484
  523MPD2    H3 7772   1.185   1.727  10.338 -0.0540  1.7401 -0.9056
  523MPD2     N 7773   0.945   1.861   9.985  0.4000  0.0419  0.4869
  523MPD2    H5 7774   0.963   1.955  10.019  2.8247  0.1110 -0.9682
  523MPD2    N1 7775   1.054   1.384  10.058  0.6007 -0.2580 -0.2702
  523MPD2    H7 7776   1.130   1.327  10.092 -0.2212  0.6367  2.9960
  524TMC3    C1 7777   0.854   1.985   9.816 -0.0094 -0.5280 -0.5943
  524TMC3    C2 7778   0.939   2.040   9.727  0.2326  0.2930  0.4613
  524TMC3    C3 7779   0.940   2.179   9.716 -0.2857  0.4887 -0.4294
  524TMC3    C4 7780   0.776   2.053   9.903  0.1676 -0.8463  0.3367
  524TMC3    C5 7781   0.781   2.189   9.885  0.1410  0.3447 -0.2011
  524TMC3    C6 7782   0.868   2.257   9.800  0.5137  0.5311 -0.5996
  524TMC3     C 7783   0.901   1.855   9.856  0.9029 -0.6345  0.2634
  524TMC3     O 7784   0.913   1.769   9.766  0.3034 -0.3122 -0.5142
  524TMC3     H 7785   1.017   1.981   9.680 -0.1722 -1.6734  2.2917
  524TMC3    H1 7786   0.715   1.999   9.974  0.8653 -2.9814 -0.6926
  524TMC3    H2 7787   0.852   2.360   9.768 -1.0304  0.4034 -0.2358
  524TMC3    C7 7788   0.663   2.259   9.928  1.1075  0.6197  0.4326
  524TMC3    C8 7789   0.985   2.240   9.593 -0.0146  0.1676  0.5210
  524TMC3    O1 7790   0.609   2.205  10.022  0.3717  0.0295  0.2383
  524TMC3    O2 7791   1.006   2.358   9.603  0.0796 -0.0018  0.2060
  525MPD2     C 7792   3.798   3.315  14.279  0.1306 -0.2168  0.0362
  525MPD2    C1 7793   3.885   3.381  14.359  0.0282  0.2661  0.3799
  525MPD2    C2 7794   3.937   3.505  14.321 -0.0325  0.7080  0.2925
  525MPD2    C3 7795   3.878   3.565  14.211 -0.0465 -0.7116  0.6204
  525MPD2    C4 7796   3.777   3.502  14.137  0.4729 -0.4030  0.6352
  525MPD2    C5 7797   3.750   3.378  14.169  0.2330 -0.0551  0.1503
  525MPD2     H 7798   4.009   3.554  14.386 -0.1314  1.7735 -0.3951
  525MPD2    H1 7799   3.738   3.551  14.048 -0.9163 -1.6092  0.5818
  525MPD2    H2 7800   3.769   3.213  14.299  0.0789 -0.8167 -3.1056
  525MPD2    H3 7801   3.683   3.328  14.100 -1.7106 -2.1906  3.5437
  525MPD2     N 7802   3.905   3.692  14.160  0.0951  0.3295  0.2443
  525MPD2    H5 7803   3.838   3.734  14.098 -0.2039  0.2610  0.5198
  525MPD2    N1 7804   3.921   3.331  14.483 -0.1296  0.2895  0.1870
  525MPD2    H7 7805   3.993   3.377  14.540 -0.4173 -1.5672  2.0232
  526TMC3    C1 7806   3.903   3.212  14.683  0.1738  0.0453 -0.3492
  526TMC3    C2 7807   3.811   3.210  14.779 -0.1831 -0.3508 -0.7598
  526TMC3    C3 7808   3.850   3.165  14.905  0.0220 -0.1741  0.1772
  526TMC3    C4 7809   4.019   3.151  14.699  0.2757 -0.1213  0.4193
  526TMC3    C5 7810   4.056   3.092  14.820 -0.5721 -0.2068 -0.0478
  526TMC3    C6 7811   3.974   3.099  14.932  0.2281  0.1112 -0.6289
  526TMC3     C 7812   3.855   3.231  14.546 -0.8938  0.7389  0.0570
  526TMC3     O 7813   3.744   3.182  14.522  0.2719 -0.0874  0.1914
  526TMC3     H 7814   3.714   3.257  14.766 -1.0145 -1.8170  0.1158
  526TMC3    H1 7815   4.096   3.160  14.623 -1.4589  0.3685 -1.2631
  526TMC3    H2 7816   4.004   3.055  15.027 -0.5814 -0.6870 -0.7379
  526TMC3    C7 7817   4.171   3.008  14.838 -0.0170 -0.0080 -0.4436
  526TMC3    C8 7818   3.772   3.196  15.027  0.2886 -0.4167  0.4306
  526TMC3    O1 7819   4.215   3.003  14.953  0.3740 -0.7783  0.1642
  526TMC3    O2 7820   3.830   3.173  15.130 -0.8705 -0.2123  0.4517
  527MPD2     C 7821   1.836   1.756   1.371 -0.3072 -0.5003 -0.2350
  527MPD2    C1 7822   1.839   1.623   1.348  0.1460  0.0263  0.0072
  527MPD2    C2 7823   1.950   1.563   1.293 -0.2712  0.4139 -0.7583
  527MPD2    C3 7824   2.055   1.635   1.247  0.0464 -0.1051  0.5624
  527MPD2    C4 7825   2.053   1.767   1.262 -0.2394 -0.4839 -0.1629
  527MPD2    C5 7826   1.945   1.822   1.325  0.0017  0.3925 -0.2040
  527MPD2     H 7827   1.951   1.455   1.283  0.0534  0.5952 -2.6605
  527MPD2    H1 7828   2.140   1.828   1.240 -0.7498  0.9423  1.8409
  527MPD2    H2 7829   1.757   1.813   1.419  0.9532 -0.1765  1.4756
  527MPD2    H3 7830   1.943   1.929   1.344 -2.4972  0.1383  0.9887
  527MPD2     N 7831   2.151   1.564   1.172  0.3811  0.0151  0.7281
  527MPD2    H5 7832   2.150   1.464   1.190 -1.7189 -0.4739 -2.1554
  527MPD2    N1 7833   1.738   1.545   1.393  0.1812  0.0992  0.0384
  527MPD2    H7 7834   1.744   1.443   1.392  0.3226  0.1161 -0.6122
  528TMC3    C1 7835   1.528   1.480   1.466 -0.2311  0.3000  0.0333
  528TMC3    C2 7836   1.577   1.401   1.566  0.5002 -0.5462 -0.1663
  528TMC3    C3 7837   1.494   1.304   1.627 -0.7089  0.8421  0.0794
  528TMC3    C4 7838   1.400   1.463   1.422  0.1977 -0.3193  0.3218
  528TMC3    C5 7839   1.320   1.374   1.492 -0.8948 -0.6235 -0.5543
  528TMC3    C6 7840   1.360   1.292   1.597  0.8178 -0.0045 -0.5902
  528TMC3     C 7841   1.610   1.587   1.425 -0.1093 -0.2958 -0.0295
  528TMC3     O 7842   1.547   1.691   1.405 -0.5502 -0.7783 -0.1240
  528TMC3     H 7843   1.682   1.412   1.591  0.4733 -1.4114  0.3364
  528TMC3    H1 7844   1.361   1.527   1.344  0.8346 -0.9398 -0.5137
  528TMC3    H2 7845   1.296   1.215   1.637 -1.7365  1.3535 -2.0574
  528TMC3    C7 7846   1.177   1.373   1.477  0.0653  0.2930  0.5554
  528TMC3    C8 7847   1.564   1.214   1.704 -0.4279 -0.0659  0.1506
  528TMC3    O1 7848   1.112   1.314   1.562 -0.4947  0.0328  0.3720
  528TMC3    O2 7849   1.667   1.255   1.756  0.4118 -0.5706 -0.1903
  529MPD2     C 7850   4.468   0.469   0.413  0.1702  0.5870 -0.0955
  529MPD2    C1 7851   4.565   0.385   0.372 -0.1836  0.5297  0.0856
  529MPD2    C2 7852   4.647   0.433   0.278 -0.4714  0.9137 -0.1427
  529MPD2    C3 7853   4.645   0.561   0.223  0.8116 -0.0237 -0.3170
  529MPD2    C4 7854   4.543   0.643   0.258 -0.1055 -0.8674  0.6069
  529MPD2    C5 7855   4.451   0.594   0.353  0.2725  0.2020 -0.0496
  529MPD2     H 7856   4.722   0.364   0.240 -2.4999 -1.7673  0.7026
  529MPD2    H1 7857   4.523   0.742   0.219  0.2600 -1.1874 -0.3812
  529MPD2    H2 7858   4.403   0.440   0.494  4.2100 -0.8004  2.6859
  529MPD2    H3 7859   4.364   0.652   0.381 -1.7344 -1.9085 -1.9617
  529MPD2     N 7860   0.009   0.603   0.117  0.0865  0.0839 -0.4461
  529MPD2    H5 7861   4.718   0.693   0.072  1.7750  0.7995  0.4401
  529MPD2    N1 7862   4.587   0.253   0.423  0.4812 -0.0156 -0.3398
  529MPD2    H7 7863   4.675   0.212   0.397  1.1199 -0.2244  2.1319
  530TMC3    C1 7864   4.570   0.063   0.570 -0.2771  0.5095 -0.3567
  530TMC3    C2 7865   4.543   0.042   0.702 -0.1444  0.7011 -0.5137
  530TMC3    C3 7866   4.534   4.637   0.739 -0.8185 -0.0868 -0.3101
  530TMC3    C4 7867   4.597   4.689   0.476 -0.3278 -0.7447 -0.0554
  530TMC3    C5 7868   4.582   4.562   0.519 -0.1190 -0.1477  0.3320
  530TMC3    C6 7869   4.551   4.531   0.648  0.8784  0.0860  0.5630
  530TMC3     C 7870   4.513   0.192   0.527  0.1863 -0.3443  0.6235
  530TMC3     O 7871   4.415   0.234   0.591  0.2366 -0.1833 -0.2821
  530TMC3     H 7872   4.530   0.126   0.769 -1.3958 -1.3666  1.8607
  530TMC3    H1 7873   4.600   4.717   0.371 -0.4301  4.0201  1.2492
  530TMC3    H2 7874   4.549   4.429   0.686  0.3850 -0.2473 -0.3466
  530TMC3    C7 7875   4.544   4.465   0.425  0.4321  0.9081  0.8491
  530TMC3    C8 7876   4.548   4.617   0.887 -0.7225  0.3333 -0.7423
  530TMC3    O1 7877   4.606   4.476   0.324 -0.3598 -0.7223 -0.3274
  530TMC3    O2 7878   4.533   4.720   0.951 -0.5230  0.2359  0.3234
  531MPD2     C 7879   3.451   2.369  13.400  0.0642  0.0038 -0.4580
  531MPD2    C1 7880   3.311   2.377  13.399 -0.1849 -0.0918  0.2701
  531MPD2    C2 7881   3.244   2.312  13.291  0.4657  0.2625 -0.2580
  531MPD2    C3 7882   3.310   2.241  13.199  0.2307  0.1571  0.4043
  531MPD2    C4 7883   3.447   2.241  13.195  0.3594 -0.2287 -0.4193
  531MPD2    C5 7884   3.519   2.294  13.302 -0.0637 -0.3822  0.2337
  531MPD2     H 7885   3.136   2.306  13.292  0.6026 -1.8417  1.3868
  531MPD2    H1 7886   3.503   2.168  13.137 -0.5073  0.4047 -2.0430
  531MPD2    H2 7887   3.513   2.419  13.474  0.8026  1.4122 -2.0489
  531MPD2    H3 7888   3.625   2.271  13.310  0.3853  1.0716 -1.4707
  531MPD2     N 7889   3.230   2.164  13.114 -0.3938  0.8057 -0.4386
  531MPD2    H5 7890   3.130   2.182  13.126 -0.9205 -2.0729 -0.4537
  531MPD2    N1 7891   3.252   2.440  13.512 -0.6873  0.1074 -0.2518
  531MPD2    H7 7892   3.314   2.455  13.591  0.9160  2.1539 -1.9050
  532TMC3    C1 7893   3.084   2.475  13.670  0.2159 -0.3579  0.2360
  532TMC3    C2 7894   2.961   2.418  13.710 -0.1783  0.6165  0.1329
  532TMC3    C3 7895   2.959   2.354  13.831  0.1188 -0.0536 -0.1540
  532TMC3    C4 7896   3.193   2.469  13.754  0.5352 -0.6086 -0.8943
  532TMC3    C5 7897   3.185   2.399  13.872 -0.5416  0.1325  0.4304
  532TMC3    C6 7898   3.063   2.341  13.913 -0.0221  0.5953  0.3166
  532TMC3     C 7899   3.113   2.447  13.533 -1.3095 -0.2199  0.5541
  532TMC3     O 7900   3.018   2.432  13.460  0.2598 -0.0799  0.2979
  532TMC3     H 7901   2.868   2.441  13.660 -1.1602 -0.1865  1.5815
  532TMC3    H1 7902   3.288   2.520  13.737  1.1699  0.0454  4.3873
  532TMC3    H2 7903   3.072   2.276  13.999 -0.6190 -0.6701 -0.5755
  532TMC3    C7 7904   3.305   2.334  13.913  0.0852  0.2658  0.5472
  532TMC3    C8 7905   2.876   2.235  13.806 -0.5518  0.2700 -0.1937
  532TMC3    O1 7906   3.375   2.380  14.001 -0.2503 -0.0978 -0.0614
  532TMC3    O2 7907   2.830   2.168  13.895  0.0137 -0.5211  0.1204
  533TMC3    C1 7908   4.004   3.912  14.181  0.6022  0.1739  0.4852
  533TMC3    C2 7909   4.108   3.994  14.215  0.2397  0.5309 -0.0825
  533TMC3    C3 7910   4.082   4.118  14.252  0.7090 -0.2265  0.2082
  533TMC3    C4 7911   3.878   3.969  14.166 -0.5156  0.0147  0.2725
  533TMC3    C5 7912   3.849   4.094  14.219  0.0796 -0.7515 -0.7120
  533TMC3    C6 7913   3.958   4.168  14.259  0.4156 -0.9757 -0.4636
  533TMC3     C 7914   4.019   3.768  14.202 -0.2090 -0.6476  0.6553
  533TMC3     O 7915   4.120   3.736  14.265  0.9855  0.1421 -0.1335
  533TMC3     H 7916   4.208   3.952  14.213 -0.6013 -1.4520 -0.3481
  533TMC3    H1 7917   3.787   3.912  14.151 -0.7970 -0.2224  2.8577
  533TMC3    H2 7918   3.939   4.269  14.292 -1.2530 -1.3471 -0.2762
  533TMC3    C7 7919   3.755   4.072  14.325  0.0766  0.1502 -0.1174
  533TMC3    C8 7920   4.190   4.219  14.256  0.3718  0.4399  0.3775
  533TMC3    O1 7921   3.728   3.961  14.369  0.2206 -0.1824  0.2027
  533TMC3    O2 7922   4.159   4.337  14.240  0.1631 -0.4430 -0.1029
  534MPD2     C 7923   1.403   0.020   2.170 -0.2633  0.7006  0.2510
  534MPD2    C1 7924   1.422   0.023   2.039 -0.9358  0.0618 -0.0860
  534MPD2    C2 7925   1.337   4.677   1.950  0.4755  0.6148 -0.2812
  534MPD2    C3 7926   1.237   4.599   2.021  0.4541  0.3573  0.2864
  534MPD2    C4 7927   1.222   4.601   2.154 -0.1153 -0.2205 -0.4154
  534MPD2    C5 7928   1.304   4.675   2.231  0.4094  0.5206 -0.2533
  534MPD2     H 7929   1.359   4.679   1.844 -2.2336 -1.5549 -0.8977
  534MPD2    H1 7930   1.153   4.536   2.207  1.4823 -1.6420 -0.0795
  534MPD2    H2 7931   1.465   0.073   2.241 -0.1110  0.9437 -0.0613
  534MPD2    H3 7932   1.298   4.664   2.339  1.9242  0.6377 -0.1632
  534MPD2     N 7933   1.142   4.531   1.948 -0.2696 -0.0910 -0.3394
  534MPD2    H5 7934   1.078   4.478   2.006 -0.0764 -1.6679 -1.5893
  534MPD2    N1 7935   1.520   0.097   1.977  0.1461  0.3676  0.1562
  534MPD2    H7 7936   1.517   0.090   1.876  4.3616 -2.8011  0.2699
  535TMC3    C1 7937   1.034   4.423   1.764 -0.1453 -0.1434 -0.0420
  535TMC3    C2 7938   0.917   4.476   1.793  0.4099 -0.5040  0.5220
  535TMC3    C3 7939   0.807   4.421   1.747 -0.4324 -0.0287 -0.6634
  535TMC3    C4 7940   1.053   4.323   1.675  0.2944  0.5330  0.2771
  535TMC3    C5 7941   0.944   4.256   1.633 -0.2726 -0.0680 -0.7999
  535TMC3    C6 7942   0.819   4.302   1.682  0.0447 -0.6507 -0.0424
  535TMC3     C 7943   1.154   4.494   1.817 -0.3564 -0.9275  0.2976
  535TMC3     O 7944   1.243   4.523   1.737  0.4467  0.0754  0.6003
  535TMC3     H 7945   0.914   4.568   1.849 -1.5829 -0.5867  0.5443
  535TMC3    H1 7946   1.156   4.303   1.648  0.3974 -1.4296  2.1026
  535TMC3    H2 7947   0.728   4.253   1.648 -0.0112 -1.6272  1.5655
  535TMC3    C7 7948   0.948   4.199   1.494  0.2039  0.4708  0.0702
  535TMC3    C8 7949   0.699   4.497   1.676 -1.0919 -0.2435 -0.9430
  535TMC3    O1 7950   1.044   4.130   1.465  0.0698 -0.7138  0.0458
  535TMC3    O2 7951   0.672   4.457   1.562  0.5609  0.2805  0.0691
  536MPD2     C 7952   1.033   3.680  15.873  0.1772  0.3980  0.1549
  536MPD2    C1 7953   0.914   3.622  15.912  0.1824  0.1049 -0.0054
  536MPD2    C2 7954   0.801   3.631  15.829 -0.2863 -0.2802 -0.1009
  536MPD2    C3 7955   0.811   3.676  15.702  0.5395 -0.9699  0.2478
  536MPD2    C4 7956   0.931   3.731  15.666  0.0680 -0.7324  0.1163
  536MPD2    C5 7957   1.038   3.739  15.752 -0.1674  0.5162 -0.3670
  536MPD2     H 7958   0.703   3.601  15.865 -0.1252 -0.5284  0.1394
  536MPD2    H1 7959   0.939   3.773  15.567 -1.4965  1.2728  0.8443
  536MPD2    H2 7960   1.127   3.673  15.926  0.4853  2.1172 -0.1295
  536MPD2    H3 7961   1.132   3.776  15.713 -0.3208 -1.0126 -2.2022
  536MPD2     N 7962   0.707   3.682  15.614 -0.0965  0.2958 -0.4396
  536MPD2    H5 7963   0.735   3.715  15.522  0.3000 -1.0401 -0.7867
  536MPD2    N1 7964   0.922   3.546  16.034 -0.2642  0.3390  0.2327
  536MPD2    H7 7965   1.004   3.562  16.091  0.5444 -1.4256 -0.4352
  537TMC3    C1 7966   0.857   3.371  16.179 -0.6983 -0.4874 -0.0029
  537TMC3    C2 7967   0.989   3.367  16.221 -0.2638  0.6026 -0.1199
  537TMC3    C3 7968   1.009   3.322  16.348 -0.7833  0.1972 -0.2702
  537TMC3    C4 7969   0.754   3.315  16.245 -0.1239 -0.4573 -0.3381
  537TMC3    C5 7970   0.778   3.275  16.371 -0.7641  0.1664  0.8594
  537TMC3    C6 7971   0.908   3.267  16.427  0.7006 -0.8314  0.5012
  537TMC3     C 7972   0.823   3.457  16.070 -0.5817 -0.2979 -0.0071
  537TMC3     O 7973   0.709   3.444  16.017 -0.0189 -0.3073 -0.0638
  537TMC3     H 7974   1.072   3.394  16.158 -0.3946  1.2042 -0.0329
  537TMC3    H1 7975   0.650   3.311  16.214 -0.5542  0.9798  0.8927
  537TMC3    H2 7976   0.925   3.226  16.526  0.3211 -1.4360  0.3151
  537TMC3    C7 7977   0.672   3.202  16.432  0.2497 -0.4745  0.2305
  537TMC3    C8 7978   1.145   3.283  16.396 -0.0773 -0.0948  0.6031
  537TMC3    O1 7979   0.566   3.190  16.374  0.1252  0.1880  0.2711
  537TMC3    O2 7980   1.150   3.203  16.486 -0.5183  0.5810 -0.8573
  538TMC3    C1 7981   1.653   1.714  11.116 -0.1754 -0.1548  0.2634
  538TMC3    C2 7982   1.704   1.616  11.034 -0.0892  0.5201  0.0618
  538TMC3    C3 7983   1.673   1.622  10.905 -0.6759 -0.6688 -0.1183
  538TMC3    C4 7984   1.590   1.820  11.065  0.3176  0.4680 -0.0263
  538TMC3    C5 7985   1.556   1.814  10.933  0.2740  0.1403  0.2480
  538TMC3    C6 7986   1.594   1.713  10.848 -0.9239  0.2120  0.1390
  538TMC3     C 7987   1.721   1.730  11.244 -0.3990 -0.5739  0.2632
  538TMC3     O 7988   1.652   1.782  11.332 -0.4861 -0.4020 -0.4140
  538TMC3     H 7989   1.777   1.549  11.078  1.3185  2.5279  0.8028
  538TMC3    H1 7990   1.573   1.902  11.134  2.5939 -0.1573  1.3110
  538TMC3    H2 7991   1.571   1.707  10.742 -0.9428  1.6421  0.0613
  538TMC3    C7 7992   1.468   1.910  10.859  0.1520  0.7113 -0.1722
  538TMC3    C8 7993   1.720   1.515  10.812  0.6568 -0.1562  0.1530
  538TMC3    O1 7994   1.393   1.861  10.776  0.5851 -0.0048  0.1440
  538TMC3    O2 7995   1.646   1.485  10.720  0.0309 -0.2159  0.3817
  539MPD2     C 7996   1.348   1.034  11.705  0.0800  0.2790 -0.6514
  539MPD2    C1 7997   1.403   1.033  11.578 -0.4691  0.0938 -0.1110
  539MPD2    C2 7998   1.399   1.149  11.500  0.1117 -0.0770  0.2704
  539MPD2    C3 7999   1.336   1.265  11.550 -0.6499 -0.3711 -0.9152
  539MPD2    C4 8000   1.278   1.258  11.675  0.7776 -0.5193 -0.4687
  539MPD2    C5 8001   1.282   1.146  11.744 -0.1701  0.4146 -0.2196
  539MPD2     H 8002   1.445   1.151  11.402 -0.3436  0.0819  0.0595
  539MPD2    H1 8003   1.212   1.339  11.706  1.5170 -0.9347  2.2055
  539MPD2    H2 8004   1.364   0.957  11.780 -0.8064 -0.3283 -1.0982
  539MPD2    H3 8005   1.237   1.127  11.841 -1.1743 -0.6448 -0.9080
  539MPD2     N 8006   1.325   1.389  11.494  0.2098  0.5347 -0.2626
  539MPD2    H5 8007   1.274   1.462  11.542 -1.2310 -1.8632  1.8530
  539MPD2    N1 8008   1.459   0.920  11.508  0.3317 -0.6035 -0.5342
  539MPD2    H7 8009   1.478   0.943  11.411  2.1664 -0.1120 -0.0712
  540TMC3    C1 8010   1.322   1.555  11.340  0.3194  0.3387 -0.9615
  540TMC3    C2 8011   1.266   1.571  11.215 -0.4160  0.1183  0.0706
  540TMC3    C3 8012   1.194   1.685  11.195 -0.3293 -0.6441  0.0210
  540TMC3    C4 8013   1.303   1.650  11.445 -0.5254 -0.2096  0.0428
  540TMC3    C5 8014   1.242   1.769  11.413 -0.3751 -0.2060 -0.2722
  540TMC3    C6 8015   1.183   1.787  11.292  0.1432 -0.4855  0.3053
  540TMC3     C 8016   1.363   1.425  11.371 -0.4041  0.1030  0.0534
  540TMC3     O 8017   1.429   1.358  11.290  0.5849  0.1688 -0.2047
  540TMC3     H 8018   1.300   1.501  11.140  1.7867  2.4509 -1.1389
  540TMC3    H1 8019   1.350   1.631  11.541 -0.2507  1.0507  0.1561
  540TMC3    H2 8020   1.124   1.876  11.274 -1.4938 -1.3109  1.6137
  540TMC3    C7 8021   1.172   1.821  11.530  0.4711  0.8232  0.2144
  540TMC3    C8 8022   1.144   1.714  11.065 -0.0938  0.5750 -0.3998
  540TMC3    O1 8023   1.170   1.745  11.627 -0.0658  0.5449  0.4269
  540TMC3    O2 8024   1.144   1.829  11.033 -0.0762  0.3617  0.0539
  541MPD2     C 8025   0.065   2.661  13.284  0.2021 -0.5903  0.1672
  541MPD2    C1 8026   0.043   2.569  13.186  0.1843 -0.0540  0.0094
  541MPD2    C2 8027   0.032   2.613  13.056 -0.1689 -0.0418  0.3665
  541MPD2    C3 8028   0.057   2.741  13.021  0.0937  0.1512 -0.6795
  541MPD2    C4 8029   0.085   2.836  13.117 -0.1635  0.2209  0.7619
  541MPD2    C5 8030   0.084   2.798  13.246  0.2491  0.3576  0.4916
  541MPD2     H 8031   0.001   2.556  12.969  2.4069  0.9560 -1.2112
  541MPD2    H1 8032   0.105   2.939  13.091  0.0206 -0.2115 -0.8265
  541MPD2    H2 8033   0.073   2.635  13.389 -2.4386  1.8808  0.9685
  541MPD2    H3 8034   0.103   2.876  13.319  0.8983 -0.1459  0.8565
  541MPD2     N 8035   0.054   2.792  12.891  0.1064 -0.1479  0.0063
  541MPD2    H5 8036   0.063   2.892  12.874  0.0093  0.2103  2.0570
  541MPD2    N1 8037   0.016   2.439  13.216 -0.1713  0.6646  0.0797
  541MPD2    H7 8038   4.712   2.394  13.129  3.5432 -0.9829 -0.2349
  542TMC3    C1 8039   4.722   2.789  12.659  0.3054 -0.3256  0.1234
  542TMC3    C2 8040   0.013   2.727  12.534  0.7609  0.8853  0.2360
  542TMC3    C3 8041   4.682   2.777  12.420  0.6316 -0.4855 -0.4137
  542TMC3    C4 8042   4.634   2.889  12.667 -0.1458 -0.2038  0.4070
  542TMC3    C5 8043   4.574   2.939  12.549  0.0483 -0.2283 -0.6474
  542TMC3    C6 8044   4.604   2.886  12.425 -0.4603 -0.1318  0.1414
  542TMC3     C 8045   0.040   2.713  12.775  0.3384  0.7067  0.9487
  542TMC3     O 8046   0.059   2.594  12.755  0.2341 -0.3148  0.4988
  542TMC3     H 8047   0.078   2.642  12.523  0.7650  0.9890 -0.5573
  542TMC3    H1 8048   4.609   2.928  12.765  5.9000  0.1203  1.8224
  542TMC3    H2 8049   4.552   2.905  12.332  0.8611  1.0748 -0.3630
  542TMC3    C7 8050   4.450   3.009  12.553 -0.3040 -0.2292 -0.1165
  542TMC3    C8 8051   0.008   2.735  12.292 -0.8888  1.1674 -0.5354
  542TMC3    O1 8052   4.397   3.022  12.444 -0.1475  0.4448  0.8630
  542TMC3    O2 8053   0.007   2.615  12.266 -0.2737 -0.0845 -0.2142
  543TMC3    C1 8054   4.158   3.637  16.808 -0.1188  0.0108 -0.2513
  543TMC3    C2 8055   4.183   3.509  16.789 -0.4420  0.0359 -0.4943
  543TMC3    C3 8056   4.096   3.415  16.829 -0.7656  0.4733 -0.1546
  543TMC3    C4 8057   4.037   3.680  16.864  0.4320 -0.3837  0.1406
  543TMC3    C5 8058   3.948   3.581  16.904 -0.3338 -0.1258  0.0389
  543TMC3    C6 8059   3.979   3.445  16.892  0.6242  0.0695 -0.7699
  543TMC3     C 8060   4.253   3.723  16.752  0.3526  0.0903  0.7418
  543TMC3     O 8061   4.335   3.677  16.676  0.6913 -0.2344 -0.4498
  543TMC3     H 8062   4.278   3.474  16.750 -0.0478 -0.5262  0.9632
  543TMC3    H1 8063   4.013   3.786  16.865  0.4498 -0.4018  3.9360
  543TMC3    H2 8064   3.921   3.361  16.928 -1.8422  2.2840  0.4196
  543TMC3    C7 8065   3.842   3.616  17.000  0.4676 -0.1441 -0.5697
  543TMC3    C8 8066   4.128   3.278  16.783 -0.3255  0.0967 -0.8110
  543TMC3    O1 8067   3.736   3.558  16.988  0.5495 -0.2605 -0.8334
  543TMC3    O2 8068   4.180   3.274  16.676  0.2093  0.3909  0.6951
  544MPD2     C 8069   4.142   2.768  16.829  0.2102  0.0273  0.0734
  544MPD2    C1 8070   4.223   2.849  16.751 -0.5591 -0.2826 -0.3567
  544MPD2    C2 8071   4.196   2.989  16.764  1.1995  0.3765 -0.1759
  544MPD2    C3 8072   4.100   3.044  16.852 -0.6737  0.4049 -0.1139
  544MPD2    C4 8073   4.030   2.955  16.932  0.5217  0.0206  0.3328
  544MPD2    C5 8074   4.047   2.819  16.914  0.4248 -0.6487  0.0153
  544MPD2     H 8075   4.265   3.057  16.716  1.1152  0.2153 -0.5278
  544MPD2    H1 8076   3.952   2.979  17.003 -0.5817 -0.0987 -0.8417
  544MPD2    H2 8077   4.154   2.660  16.835  0.7681  0.0524 -0.6829
  544MPD2    H3 8078   3.993   2.751  16.979  0.0951 -1.0283 -0.6616
  544MPD2     N 8079   4.075   3.184  16.864 -0.6169 -0.2746 -0.1894
  544MPD2    H5 8080   4.023   3.208  16.948  1.2715  2.4067  0.1937
  544MPD2    N1 8081   4.328   2.790  16.664  0.7705  0.0706 -0.2086
  544MPD2    H7 8082   4.354   2.693  16.681  0.4410  0.2297  1.1785
  545TMC3    C1 8083   4.503   2.787  16.512 -0.2007 -0.3851 -0.5324
  545TMC3    C2 8084   4.563   2.858  16.408  0.6644 -0.2365  0.2859
  545TMC3    C3 8085   4.619   2.787  16.304 -0.0856 -0.4687 -0.4407
  545TMC3    C4 8086   4.497   2.647  16.507  0.6862  0.1004 -0.0310
  545TMC3    C5 8087   4.552   2.582  16.398  0.5255  0.3862  0.3507
  545TMC3    C6 8088   4.616   2.651  16.301  0.0955 -0.8051  0.2727
  545TMC3     C 8089   4.407   2.868  16.587 -0.1812  0.3860 -0.8215
  545TMC3     O 8090   4.387   2.986  16.555  0.1335  0.0276  0.0106
  545TMC3     H 8091   4.566   2.966  16.421 -0.8902 -0.5558  3.3410
  545TMC3    H1 8092   4.428   2.593  16.571  0.6493 -1.0753 -1.0529
  545TMC3    H2 8093   4.663   2.596  16.220 -0.5188 -1.9519  0.6929
  545TMC3    C7 8094   4.594   2.444  16.420  0.8546 -0.0797  0.3825
  545TMC3    C8 8095   4.674   2.846  16.183  0.7951  0.3872 -0.6776
  545TMC3    O1 8096   4.629   2.379  16.324 -0.0081  1.0332 -0.0078
  545TMC3    O2 8097   4.723   2.774  16.105  0.2715  0.1697 -0.1378
  546MPD2     C 8098   1.123   3.502  17.545 -0.0428 -0.3962 -0.3386
  546MPD2    C1 8099   1.079   3.587  17.447 -0.2335 -0.5303 -0.8582
  546MPD2    C2 8100   1.098   3.726  17.459 -0.8625  0.7705  0.0940
  546MPD2    C3 8101   1.164   3.778  17.566  0.5794 -0.7926 -0.7254
  546MPD2    C4 8102   1.218   3.693  17.656 -0.8096  0.0939  0.3666
  546MPD2    C5 8103   1.202   3.557  17.648 -0.1298  0.1061 -0.4075
  546MPD2     H 8104   1.055   3.790  17.383 -2.2076  0.7084  0.7973
  546MPD2    H1 8105   1.281   3.730   0.040  1.3139 -1.3878 -0.6497
  546MPD2    H2 8106   1.110   3.394  17.539  1.0313 -0.4878 -1.0475
  546MPD2    H3 8107   1.243   3.496   0.032 -2.0890  0.3857  0.8033
  546MPD2     N 8108   1.192   3.917  17.580 -0.6670 -0.0408  0.0806
  546MPD2    H5 8109   1.256   3.939  17.656  1.6156 -3.1418 -0.9338
  546MPD2    N1 8110   1.012   3.540  17.338  0.3257 -0.0197  0.5080
  546MPD2    H7 8111   0.995   3.440  17.330 -1.2353  0.1264  2.1792
  547TMC3    C1 8112   0.865   3.547  17.142 -0.2684 -0.4148 -0.2628
  547TMC3    C2 8113   0.812   3.627  17.037  0.6550 -0.4454  0.5160
  547TMC3    C3 8114   0.684   3.598  16.996  0.6347 -0.0145 -0.1008
  547TMC3    C4 8115   0.788   3.451  17.202 -0.2370  0.2161 -0.8777
  547TMC3    C5 8116   0.662   3.429  17.158 -0.4224  0.2597  0.8081
  547TMC3    C6 8117   0.608   3.493  17.047 -0.9470 -0.5065 -0.3465
  547TMC3     C 8118   0.969   3.608  17.223  0.2570 -0.3649 -0.1848
  547TMC3     O 8119   0.992   3.719  17.184 -0.1159 -0.6645 -0.2310
  547TMC3     H 8120   0.870   3.705  16.989 -1.9320  0.2443 -1.4925
  547TMC3    H1 8121   0.807   3.400  17.296  2.0351 -0.3112 -1.6238
  547TMC3    H2 8122   0.516   3.457  17.003 -1.5127 -0.2711  0.6346
  547TMC3    C7 8123   0.567   3.354  17.236  0.4478 -0.7180  0.3782
  547TMC3    C8 8124   0.615   3.671  16.886  0.9241 -0.0601  0.1209
  547TMC3    O1 8125   0.538   3.385  17.355 -0.0132 -0.1606  0.7225
  547TMC3    O2 8126   0.501   3.640  16.858  0.1706 -0.3703 -0.3458
  548MPD2     C 8127   0.554   4.710  12.190 -0.2979 -0.3930 -0.5346
  548MPD2    C1 8128   0.507   4.586  12.232 -0.1767  0.1008  0.3771
  548MPD2    C2 8129   0.572   4.476  12.184 -0.4801 -0.3459 -0.5897
  548MPD2    C3 8130   0.686   4.479  12.108 -0.3219  0.6751 -0.5609
  548MPD2    C4 8131   0.732   4.601  12.076 -0.1350 -0.2005  0.1479
  548MPD2    C5 8132   0.663   4.715  12.108 -0.4123 -0.1318 -0.3747
  548MPD2     H 8133   0.534   4.376  12.198  3.1483 -1.3055  2.3740
  548MPD2    H1 8134   0.827   4.607  12.024 -0.1253  2.4880  0.4969
  548MPD2    H2 8135   0.497   0.076  12.212 -0.5511 -0.9459  1.0905
  548MPD2    H3 8136   0.700   0.082  12.060  0.6125 -1.3019 -1.7928
  548MPD2     N 8137   0.740   4.357  12.062  0.1010 -0.1336 -0.1927
  548MPD2    H5 8138   0.686   4.272  12.076  1.4800 -0.8649  0.6422
  548MPD2    N1 8139   0.375   4.584  12.296  0.0589 -0.5162 -0.0503
  548MPD2    H7 8140   0.331   4.668  12.331  1.3698  0.6400 -1.2010
  549TMC3    C1 8141   0.171   4.508  12.364  0.1327 -0.1848 -0.6444
  549TMC3    C2 8142   0.128   4.638  12.356  0.0086 -0.5860 -0.0745
  549TMC3    C3 8143   0.022   4.671  12.434 -0.9359 -0.3100  0.3542
  549TMC3    C4 8144   0.087   4.414  12.423  0.6708 -0.3595  0.2428
  549TMC3    C5 8145   4.708   4.452  12.494  0.3653  1.1806  0.1155
  549TMC3    C6 8146   4.668   4.585  12.503  0.4363  0.4419  0.0882
  549TMC3     C 8147   0.297   4.472  12.314 -0.4716 -0.6191 -0.0805
  549TMC3     O 8148   0.322   4.354  12.285  0.0893 -0.1223  0.6504
  549TMC3     H 8149   0.168   0.000  12.303 -1.4545  0.8506  1.2019
  549TMC3    H1 8150   0.128   4.314  12.433 -0.9969 -0.9976  0.6521
  549TMC3    H2 8151   4.580   4.613  12.559 -0.8287 -0.3283 -1.4979
  549TMC3    C7 8152   4.607   4.359  12.545 -0.3488 -0.6831 -0.9434
  549TMC3    C8 8153   4.667   0.054  12.380 -0.5239  0.6338  0.1512
  549TMC3    O1 8154   4.520   4.400  12.621  0.2861 -0.4702 -0.2315
  549TMC3    O2 8155   4.642   0.059  12.261 -0.2815  0.5767  0.4952
  550TMC3    C1 8156   4.428   2.421  12.027 -0.4642  0.0989  0.3425
  550TMC3    C2 8157   4.433   2.509  12.130  0.3910 -0.0138  0.2863
  550TMC3    C3 8158   4.325   2.590  12.144  0.2692  0.3023  0.9897
  550TMC3    C4 8159   4.311   2.395  11.950 -0.1101  0.2670  0.0374
  550TMC3    C5 8160   4.199   2.465  11.984 -0.1809 -0.0968  0.3417
  550TMC3    C6 8161   4.206   2.563  12.076 -0.0074 -0.0124 -0.0795
  550TMC3     C 8162   4.546   2.340  11.992  0.8411  0.1936  0.5352
  550TMC3     O 8163   4.639   2.352  12.075 -0.1728  0.1515 -0.3123
  550TMC3     H 8164   4.531   2.537  12.166  0.6074 -2.4038  1.4779
  550TMC3    H1 8165   4.303   2.313  11.880  1.5295  1.3415 -1.4019
  550TMC3    H2 8166   4.115   2.602  12.120 -0.1187  1.0399 -1.2381
  550TMC3    C7 8167   4.065   2.408  11.970  0.1849 -0.0956 -0.1914
  550TMC3    C8 8168   4.309   2.647  12.278  0.2038 -0.3512 -0.2077
  550TMC3    O1 8169   3.963   2.474  11.991 -0.6375  0.3652 -0.0584
  550TMC3    O2 8170   4.216   2.721  12.284 -0.5931  0.3211  0.2270
  551TMC3    C1 8171   1.304   4.709  13.443 -0.5170  0.3710 -0.0094
  551TMC3    C2 8172   1.422   4.657  13.383 -0.2243 -0.2008  0.0717
  551TMC3    C3 8173   1.543   4.714  13.412 -0.2419  0.2248 -0.0033
  551TMC3    C4 8174   1.312   0.092  13.536  0.2272  0.4237  0.9649
  551TMC3    C5 8175   1.436   0.150  13.562  0.2241  0.4824  0.2039
  551TMC3    C6 8176   1.550   0.097  13.500 -0.0158  0.6756  0.8760
  551TMC3     C 8177   1.180   4.659  13.379  0.6637  0.8580 -0.6246
  551TMC3     O 8178   1.210   4.567  13.303  0.4109 -0.0877  0.2140
  551TMC3     H 8179   1.420   4.586  13.301 -0.9837  2.7512 -2.4884
  551TMC3    H1 8180   1.224   0.148  13.566 -0.2825  0.0271  0.2001
  551TMC3    H2 8181   1.644   0.147  13.523  1.2286 -0.5873 -1.4503
  551TMC3    C7 8182   1.464   0.218  13.688 -0.3821 -0.1122  0.3546
  551TMC3    C8 8183   1.650   4.710  13.315  0.5982 -0.7334  0.8652
  551TMC3    O1 8184   1.570   0.274  13.702  0.1557  0.4622  0.0392
  551TMC3    O2 8185   1.672   4.600  13.270  0.2589  0.7251 -0.3517
  552MPD2     C 8186   3.451   2.129  14.224 -0.5372  0.2513  0.3261
  552MPD2    C1 8187   3.445   2.006  14.181 -0.1730 -0.3385 -0.3810
  552MPD2    C2 8188   3.551   1.926  14.174 -0.6307 -0.3178 -0.2149
  552MPD2    C3 8189   3.675   1.975  14.210 -1.2101 -0.0546  0.3564
  552MPD2    C4 8190   3.684   2.102  14.258  0.0996 -0.0583 -0.2178
  552MPD2    C5 8191   3.570   2.179  14.270 -0.1780  0.0284  0.7323
  552MPD2     H 8192   3.545   1.825  14.137 -0.0824 -0.4490  0.0580
  552MPD2    H1 8193   3.783   2.140  14.283  0.0087  0.3764 -0.5261
  552MPD2    H2 8194   3.362   2.189  14.241 -2.0260 -1.9864  0.4665
  552MPD2    H3 8195   3.579   2.277  14.315 -3.2589  0.6629 -0.0431
  552MPD2     N 8196   3.792   1.897  14.206 -0.4380 -0.2943  0.3925
  552MPD2    H5 8197   3.872   1.954  14.230 -1.7807  0.8965  2.0428
  552MPD2    N1 8198   3.321   1.947  14.155  0.5512 -0.3329  0.0460
  552MPD2    H7 8199   3.314   1.850  14.127 -1.5940 -0.2804  0.4447
  553TMC3    C1 8200   3.099   1.917  14.113 -0.2857  0.1776 -0.0243
  553TMC3    C2 8201   3.057   1.933  13.983 -0.1704 -0.0093  0.1159
  553TMC3    C3 8202   3.012   1.825  13.910  0.5911  0.1200 -0.5575
  553TMC3    C4 8203   3.127   1.791  14.163  0.2511  0.7691 -0.1704
  553TMC3    C5 8204   3.097   1.686  14.078  0.4137  0.1350 -0.3616
  553TMC3    C6 8205   3.041   1.702  13.960 -0.4691  1.0654 -0.4305
  553TMC3     C 8206   3.202   2.012  14.150 -0.0668  0.1532  0.2802
  553TMC3     O 8207   3.168   2.122  14.183 -0.2266  0.1489  0.0809
  553TMC3     H 8208   3.054   2.030  13.934  2.9010 -0.1729 -0.4004
  553TMC3    H1 8209   3.163   1.779  14.264  1.8652 -1.5588 -1.0246
  553TMC3    H2 8210   3.018   1.609  13.909  2.4242  0.8039 -1.2065
  553TMC3    C7 8211   3.222   1.618  14.057  0.4175 -0.3948 -0.5645
  553TMC3    C8 8212   3.044   1.830  13.771  0.0574  0.0276 -0.0409
  553TMC3    O1 8213   3.306   1.630  14.143  0.3836  0.7084  0.3241
  553TMC3    O2 8214   3.139   1.896  13.740 -0.0111  0.0609 -0.5069
  554TMC3    C1 8215   0.920   1.025  11.504 -0.0094  0.4725 -0.5740
  554TMC3    C2 8216   0.873   0.943  11.404  0.4120  0.5413  0.5561
  554TMC3    C3 8217   0.909   0.975  11.277  0.1742  1.0862  0.1368
  554TMC3    C4 8218   0.991   1.141  11.483  0.8642  0.6132  0.2329
  554TMC3    C5 8219   1.016   1.171  11.355  0.2622 -0.2354  0.5155
  554TMC3    C6 8220   0.977   1.088  11.253  0.1485 -0.4140 -0.0424
  554TMC3     C 8221   0.882   0.992  11.641  0.2225  0.1102 -0.4107
  554TMC3     O 8222   0.914   1.078  11.727  0.6026 -0.3618 -0.5701
  554TMC3     H 8223   0.819   0.852  11.429  1.3861  0.1921  1.4000
  554TMC3    H1 8224   1.028   1.199  11.567  0.6914 -0.4153  1.0201
  554TMC3    H2 8225   1.001   1.126  11.154 -0.4909 -4.1100 -1.6042
  554TMC3    C7 8226   1.011   1.309  11.319  0.3613  0.3670 -0.8586
  554TMC3    C8 8227   0.831   0.933  11.158  0.8761 -0.0665  0.8334
  554TMC3    O1 8228   1.060   1.343  11.210 -0.0533  0.0913  0.1600
  554TMC3    O2 8229   0.825   1.013  11.071  0.1342 -0.0099 -0.6901
  555TMC3    C1 8230   4.224   1.068  15.506  0.3230 -0.2876 -0.0048
  555TMC3    C2 8231   4.322   1.129  15.587  0.0266 -0.4127  0.4247
  555TMC3    C3 8232   4.368   1.064  15.697  0.0636 -0.1821  0.1117
  555TMC3    C4 8233   4.195   0.939  15.531 -0.3593 -0.5870 -0.4925
  555TMC3    C5 8234   4.236   0.875  15.644  1.0246 -0.3478  0.5426
  555TMC3    C6 8235   4.319   0.937  15.737  0.1876 -0.2457  0.7643
  555TMC3     C 8236   4.269   1.075  15.369  0.8367  0.7413  0.9423
  555TMC3     O 8237   4.390   1.095  15.360 -0.5451 -0.3441 -0.4238
  555TMC3     H 8238   4.362   1.226  15.558 -3.9801  1.3149  0.6384
  555TMC3    H1 8239   4.122   0.890  15.467 -0.8969  0.4620 -0.6798
  555TMC3    H2 8240   4.371   0.890  15.820 -0.8030  0.0939  1.5790
  555TMC3    C7 8241   4.238   0.734  15.648 -0.6013 -0.6163  0.1950
  555TMC3    C8 8242   4.465   1.139  15.780  0.2792 -0.0535 -0.1239
  555TMC3    O1 8243   4.159   0.689  15.564 -0.0924 -0.6036 -0.2119
  555TMC3    O2 8244   4.458   1.263  15.775  0.3871  0.4240  0.2371
  556MPD2     C 8245   2.596   2.210  10.922  0.7074 -0.0184  0.1590
  556MPD2    C1 8246   2.647   2.111  11.000  0.1434 -0.5474 -0.0203
  556MPD2    C2 8247   2.673   1.989  10.944 -0.6287  0.4710 -0.0305
  556MPD2    C3 8248   2.658   1.970  10.802 -0.1997 -0.4199  0.5523
  556MPD2    C4 8249   2.624   2.082  10.728  0.0927  1.4248  0.0688
  556MPD2    C5 8250   2.580   2.196  10.787 -0.6606  0.0282 -0.8171
  556MPD2     H 8251   2.710   1.909  11.007 -1.0011  0.2760 -0.0633
  556MPD2    H1 8252   2.611   2.080  10.620  0.1189  0.7023  0.0785
  556MPD2    H2 8253   2.562   2.306  10.960 -0.2423  0.1470 -1.0928
  556MPD2    H3 8254   2.540   2.274  10.723  0.4714  0.8078 -0.5836
  556MPD2     N 8255   2.653   1.837  10.751  0.2137 -0.3811 -0.6316
  556MPD2    H5 8256   2.649   1.757  10.813  1.2286  0.1087  0.0572
  556MPD2    N1 8257   2.656   2.119  11.142 -0.4535 -0.0675 -0.2969
  556MPD2    H7 8258   2.701   2.042  11.192  0.5192  0.6621 -0.0501
  557TMC3    C1 8259   2.634   1.655  10.591  1.0109 -1.0749 -0.1213
  557TMC3    C2 8260   2.643   1.616  10.460  0.2179 -0.7518  0.7309
  557TMC3    C3 8261   2.558   1.525  10.411 -0.2094  0.4143 -0.0498
  557TMC3    C4 8262   2.560   1.583  10.678  0.2520 -0.1730 -0.8579
  557TMC3    C5 8263   2.480   1.482  10.633 -0.9569  0.3711 -0.5455
  557TMC3    C6 8264   2.484   1.448  10.499  0.4095 -0.5074  0.2007
  557TMC3     C 8265   2.655   1.797  10.624 -0.3178  0.1085 -0.2097
  557TMC3     O 8266   2.669   1.874  10.526 -0.2202  0.2057 -0.3570
  557TMC3     H 8267   2.679   1.691  10.391  1.1969 -0.2847  1.7391
  557TMC3    H1 8268   2.557   1.602  10.784 -0.7454 -1.6819 -0.6036
  557TMC3    H2 8269   2.407   1.382  10.461 -1.8171  1.6025  1.1064
  557TMC3    C7 8270   2.356   1.457  10.712  0.0402 -0.1977 -0.8301
  557TMC3    C8 8271   2.562   1.496  10.268  0.2256 -1.2810  1.0462
  557TMC3    O1 8272   2.333   1.535  10.805 -0.0556  0.5423 -0.3143
  557TMC3    O2 8273   2.576   1.590  10.193 -0.2560 -0.2787 -0.8293
  558TMC3    C1 8274   0.078   4.524   9.603  0.0784  1.2344  0.2538
  558TMC3    C2 8275   4.707   4.475   9.687  0.2209  0.1488 -0.2797
  558TMC3    C3 8276   4.577   4.495   9.648  0.9229  0.0255 -0.4704
  558TMC3    C4 8277   0.054   4.600   9.490 -0.4519 -0.0007 -0.0377
  558TMC3    C5 8278   4.645   4.597   9.444  0.0379  0.0688  0.6788
  558TMC3    C6 8279   4.546   4.542   9.523 -0.4287 -0.1390  0.7623
  558TMC3     C 8280   0.211   4.522   9.659 -0.0580  0.1136 -0.9850
  558TMC3     O 8281   0.226   4.530   9.779  0.5877 -0.7643  0.5056
  558TMC3     H 8282   0.008   4.404   9.765 -0.3524 -1.8275 -1.9024
  558TMC3    H1 8283   0.136   4.641   9.432  0.2187 -0.4274  0.6167
  558TMC3    H2 8284   4.440   4.547   9.497  0.2460  2.3861 -1.5140
  558TMC3    C7 8285   4.620   4.682   9.330  0.2523 -0.1393  1.1148
  558TMC3    C8 8286   4.472   4.424   9.715  0.8326  0.1761 -0.4783
  558TMC3    O1 8287   4.714   0.031   9.293  0.1818 -0.9438  1.2257
  558TMC3    O2 8288   4.377   4.393   9.648  0.4318 -0.3727  0.2665
  559MPD2     C 8289   0.394   0.518  10.459 -0.0547 -0.3173 -0.2560
  559MPD2    C1 8290   0.336   0.402  10.506  0.9800  0.5482  0.2519
  559MPD2    C2 8291   0.425   0.310  10.570 -0.0341  0.0036 -0.3981
  559MPD2    C3 8292   0.564   0.326  10.570  0.1527  0.6257  0.4283
  559MPD2    C4 8293   0.617   0.424  10.501  0.1706  0.1599 -0.0995
  559MPD2    C5 8294   0.531   0.519  10.450 -0.0242 -0.4848  1.2246
  559MPD2     H 8295   0.385   0.218  10.612  1.0990 -0.6184 -0.6915
  559MPD2    H1 8296   0.722   0.444  10.486  0.4396 -1.1352  0.1187
  559MPD2    H2 8297   0.341   0.600  10.411 -0.6386  0.1176  1.1452
  559MPD2    H3 8298   0.580   0.604  10.404 -1.2581  0.3488  1.4303
  559MPD2     N 8299   0.657   0.229  10.633  0.0280 -0.9658  0.1486
  559MPD2    H5 8300   0.618   0.144  10.672  0.3287 -1.5976 -0.9244
  559MPD2    N1 8301   0.199   0.390  10.514 -0.2298 -0.2565 -0.1073
  559MPD2    H7 8302   0.140   0.472  10.505  0.8818  0.2220 -2.8456
  560TMC3    C1 8303   0.814   0.207  10.806 -0.3464  0.8094 -0.1160
  560TMC3    C2 8304   0.715   0.122  10.843  0.0120 -0.1969  0.0545
  560TMC3    C3 8305   0.641   0.145  10.958 -0.3514 -0.6524 -0.2018
  560TMC3    C4 8306   0.860   0.294  10.900 -0.2908  0.2870 -0.4391
  560TMC3    C5 8307   0.786   0.312  11.013  0.1035 -0.7627  0.0268
  560TMC3    C6 8308   0.679   0.243  11.048 -0.3604  0.4192 -0.0907
  560TMC3     C 8309   0.781   0.267  10.682  0.0576  0.3097 -1.0258
  560TMC3     O 8310   0.828   0.378  10.667 -0.1718 -0.5905 -0.3943
  560TMC3     H 8311   0.687   0.044  10.773  1.2532  0.0745 -0.7473
  560TMC3    H1 8312   0.945   0.353  10.867  0.3106  1.3793  3.1052
  560TMC3    H2 8313   0.642   0.247  11.150  0.6216 -1.3602  0.3390
  560TMC3    C7 8314   0.854   0.371  11.127  0.1997 -0.0755 -0.3796
  560TMC3    C8 8315   0.505   0.088  10.947 -0.6810  0.3762  0.4162
  560TMC3    O1 8316   0.850   0.320  11.238  0.1582 -0.3675 -0.1827
  560TMC3    O2 8317   0.496   0.003  10.858 -0.9608  0.2940 -0.0481
  561TMC3    C1 8318   2.824   4.234  11.539 -1.0033 -0.7592 -0.4666
  561TMC3    C2 8319   2.768   4.205  11.661 -0.9670  0.2234 -0.2502
  561TMC3    C3 8320   2.699   4.305  11.726  0.2517  0.2239 -0.3167
  561TMC3    C4 8321   2.817   4.358  11.482  0.4820  0.1590 -0.3105
  561TMC3    C5 8322   2.757   4.460  11.556  0.5778 -0.6904  0.0621
  561TMC3    C6 8323   2.698   4.432  11.674 -0.0277 -0.8365 -0.2289
  561TMC3     C 8324   2.826   4.122  11.447 -0.5341  1.0423 -0.2824
  561TMC3     O 8325   2.734   4.043  11.464 -0.3300  0.0700 -0.0147
  561TMC3     H 8326   2.796   4.109  11.702 -3.3574 -0.6544 -0.6809
  561TMC3    H1 8327   2.861   4.377  11.385  1.7504 -2.2230 -0.1976
  561TMC3    H2 8328   2.674   4.516  11.739  0.6072 -1.0111  0.2379
  561TMC3    C7 8329   2.796   4.598  11.543 -0.4197  0.1483  0.3955
  561TMC3    C8 8330   2.650   4.272  11.860 -0.4075  0.0976 -0.0977
  561TMC3    O1 8331   2.749   4.685  11.615  0.0381  0.4626 -0.2490
  561TMC3    O2 8332   2.692   4.165  11.909  0.0773 -0.4318  0.2565
  562TMC3    C1 8333   4.425   1.295  16.311  0.4224  0.2370 -0.4006
  562TMC3    C2 8334   4.400   1.399  16.227  0.1310 -0.0716 -0.4815
  562TMC3    C3 8335   4.337   1.377  16.108 -0.7119  0.4460  0.1475
  562TMC3    C4 8336   4.398   1.161  16.277  0.3905  0.1631  0.2793
  562TMC3    C5 8337   4.339   1.141  16.155  0.4278 -0.2752 -0.1395
  562TMC3    C6 8338   4.297   1.245  16.068  0.2512  0.2628  0.4885
  562TMC3     C 8339   4.457   1.324  16.449 -0.8890  0.4664  0.0919
  562TMC3     O 8340   4.504   1.239  16.522  0.1180  0.3446 -0.4022
  562TMC3     H 8341   4.438   1.499  16.248 -0.2663  0.0260 -0.2195
  562TMC3    H1 8342   4.435   1.081  16.340  0.1559 -0.1674 -0.0061
  562TMC3    H2 8343   4.245   1.222  15.976 -0.9577  1.4185  0.8941
  562TMC3    C7 8344   4.299   1.006  16.115 -0.4872  0.3865 -0.3423
  562TMC3    C8 8345   4.309   1.501  16.030 -0.3964 -0.5942 -0.0787
  562TMC3    O1 8346   4.189   1.003  16.054  0.3854  0.4297  0.2799
  562TMC3    O2 8347   4.314   1.606  16.094  0.8266 -0.8727  0.2530
  563MPD2     C 8348   1.616   2.490  15.497  0.4075  0.2647  0.6117
  563MPD2    C1 8349   1.691   2.464  15.615  0.0176  0.1613  0.4453
  563MPD2    C2 8350   1.833   2.461  15.616  0.0651 -0.6737  0.7434
  563MPD2    C3 8351   1.902   2.517  15.508 -0.5743  0.4490 -0.7638
  563MPD2    C4 8352   1.824   2.564  15.399 -0.8005 -0.5431 -0.1404
  563MPD2    C5 8353   1.688   2.541  15.391  0.2224  0.2700  0.3302
  563MPD2     H 8354   1.888   2.428  15.703  1.2099 -2.1188 -0.5509
  563MPD2    H1 8355   1.876   2.599  15.311 -0.9828 -1.2106 -0.5113
  563MPD2    H2 8356   1.508   2.482  15.488  0.5339 -0.7619 -0.0364
  563MPD2    H3 8357   1.635   2.563  15.299  1.1825 -2.5836 -0.9220
  563MPD2     N 8358   2.044   2.502  15.503 -0.4011 -0.6547 -0.1157
  563MPD2    H5 8359   2.089   2.459  15.583 -0.3622 -0.0874  0.1664
  563MPD2    N1 8360   1.614   2.439  15.731  0.5147  0.2811  0.0199
  563MPD2    H7 8361   1.514   2.440  15.713  0.4500 -0.8692  0.3105
  564TMC3    C1 8362   1.559   2.415  15.948 -0.7862  0.5218  0.2252
  564TMC3    C2 8363   1.458   2.331  15.906 -0.4251  0.8398  0.2620
  564TMC3    C3 8364   1.368   2.307  16.005 -0.2494 -0.5540  0.4116
  564TMC3    C4 8365   1.580   2.470  16.073  0.5909  0.4423 -0.4931
  564TMC3    C5 8366   1.487   2.431  16.162  0.1575  0.2601  0.2483
  564TMC3    C6 8367   1.378   2.362  16.127  0.2686  0.2574  0.2856
  564TMC3     C 8368   1.663   2.447  15.856 -0.2818  0.2718 -0.3686
  564TMC3     O 8369   1.766   2.491  15.901  0.1360 -0.4734  0.2801
  564TMC3     H 8370   1.444   2.305  15.802  2.3829  1.2699 -0.2444
  564TMC3    H1 8371   1.670   2.516  16.113 -0.0750 -1.4302  3.1775
  564TMC3    H2 8372   1.297   2.339  16.195  1.0462  1.3287  1.5918
  564TMC3    C7 8373   1.547   2.394  16.292  0.2688  0.8459  0.1773
  564TMC3    C8 8374   1.315   2.170  16.017  0.0915  0.6031  0.0046
  564TMC3    O1 8375   1.662   2.428  16.310 -0.2445  0.1994 -0.3385
  564TMC3    O2 8376   1.313   2.118  16.133 -0.4307  0.1472 -0.0500
  565TMC3    C1 8377   2.272   3.060  10.270  0.4019  0.1901  0.3643
  565TMC3    C2 8378   2.305   3.026  10.401  0.3163 -0.2105 -0.2944
  565TMC3    C3 8379   2.279   2.901  10.449 -0.1201  0.0131  0.7067
  565TMC3    C4 8380   2.222   2.965  10.187 -0.3606 -0.4157  0.2012
  565TMC3    C5 8381   2.194   2.839  10.243 -0.3991  0.6197 -0.7817
  565TMC3    C6 8382   2.213   2.809  10.373 -0.0489  0.2272  0.7325
  565TMC3     C 8383   2.295   3.198  10.218  0.5476 -0.2881  0.0713
  565TMC3     O 8384   2.277   3.218  10.098 -0.7702 -0.4428  0.2532
  565TMC3     H 8385   2.360   3.094  10.465  0.3761 -1.7134  1.2532
  565TMC3    H1 8386   2.209   3.001  10.086 -2.9169  0.3741  0.8085
  565TMC3    H2 8387   2.206   2.706  10.407  0.8702 -0.1084 -0.1106
  565TMC3    C7 8388   2.132   2.739  10.165  0.4234 -0.3630  0.0831
  565TMC3    C8 8389   2.314   2.883  10.588  0.0648 -0.3806 -0.1991
  565TMC3    O1 8390   2.116   2.624  10.209 -0.4304 -0.2660 -0.1617
  565TMC3    O2 8391   2.323   2.979  10.658  0.2177  0.1378  0.1368
  566MPD2     C 8392   4.071   0.351  14.577  0.1140 -0.8735 -0.0437
  566MPD2    C1 8393   4.168   0.374  14.479 -0.0981 -0.0045  0.4195
  566MPD2    C2 8394   4.133   0.368  14.343  0.0120 -0.5999  0.3389
  566MPD2    C3 8395   3.996   0.370  14.312  0.2834 -0.3031  0.3308
  566MPD2    C4 8396   3.898   0.368  14.404 -0.5180 -0.0077 -0.6893
  566MPD2    C5 8397   3.940   0.361  14.538  0.1757 -0.2191  0.5427
  566MPD2     H 8398   4.214   0.372  14.272  0.1087 -1.8782  0.3662
  566MPD2    H1 8399   3.791   0.380  14.390 -0.3898  1.8181 -0.1130
  566MPD2    H2 8400   4.093   0.342  14.683  0.1958  0.4620  0.0531
  566MPD2    H3 8401   3.864   0.361  14.616  0.5678 -1.0634  0.9224
  566MPD2     N 8402   3.971   0.382  14.176 -0.8335  0.2057 -0.3328
  566MPD2    H5 8403   4.054   0.373  14.118 -1.2913  0.5410 -1.0445
  566MPD2    N1 8404   4.301   0.395  14.528 -0.3091 -0.4181  0.1367
  566MPD2    H7 8405   4.312   0.425  14.624 -0.9819 -0.9301  0.3756
  567TMC3    C1 8406   4.522   0.488  14.507  0.6847 -1.1785  0.1037
  567TMC3    C2 8407   4.575   0.574  14.415  0.3522  0.1268  0.2449
  567TMC3    C3 8408   4.663   0.671  14.458  0.4344  0.2759 -0.7421
  567TMC3    C4 8409   4.526   0.509  14.642 -0.1762  0.3087  0.1553
  567TMC3    C5 8410   4.619   0.606  14.681  0.1752 -0.7323 -0.0618
  567TMC3    C6 8411   4.686   0.686  14.589 -0.5183  0.2352 -0.4569
  567TMC3     C 8412   4.410   0.409  14.444 -0.3642 -0.3475 -0.1548
  567TMC3     O 8413   4.423   0.380  14.326 -0.0246 -0.5233 -0.3520
  567TMC3     H 8414   4.544   0.570  14.311 -0.4096 -1.4748  0.5348
  567TMC3    H1 8415   4.491   0.431  14.708  0.7641 -1.0732 -0.9877
  567TMC3    H2 8416   0.041   0.753  14.622 -0.1111  0.5724 -2.0783
  567TMC3    C7 8417   4.627   0.647  14.821 -0.4356  0.0666 -0.2284
  567TMC3    C8 8418   4.680   0.784  14.364 -0.0875 -0.2046  0.6036
  567TMC3    O1 8419   4.705   0.740  14.851  0.3853  0.1169  0.2456
  567TMC3    O2 8420   4.630   0.767  14.255 -0.0708  0.2344 -0.1244
  568MPD2     C 8421   1.631   0.768  16.523 -0.0137  0.7761 -0.1625
  568MPD2    C1 8422   1.565   0.836  16.627  0.9078  0.5474  0.0457
  568MPD2    C2 8423   1.485   0.945  16.611 -0.5826  0.5375  0.5415
  568MPD2    C3 8424   1.496   1.016  16.483  0.2424  0.0108 -0.3621
  568MPD2    C4 8425   1.573   0.955  16.387 -0.5537  0.4968 -0.4427
  568MPD2    C5 8426   1.628   0.828  16.407 -0.1234 -0.3248  0.4771
  568MPD2     H 8427   1.410   0.983  16.679 -0.0288  0.1633  1.3492
  568MPD2    H1 8428   1.599   0.983  16.286 -1.6205 -3.2719 -1.7437
  568MPD2    H2 8429   1.690   0.677  16.530  1.4208  1.6397 -0.9800
  568MPD2    H3 8430   1.682   0.787  16.322  1.2650  1.2016  0.6162
  568MPD2     N 8431   1.415   1.128  16.456  0.7445  0.1464 -0.2535
  568MPD2    H5 8432   1.366   1.162  16.538  0.2861 -0.4309 -0.2865
  568MPD2    N1 8433   1.583   0.763  16.746 -0.0230  0.4768 -0.4744
  568MPD2    H7 8434   1.647   0.685  16.740  0.8008  1.1712 -0.8387
  569TMC3    C1 8435   1.351   1.324  16.321  1.3750  0.8687 -0.5977
  569TMC3    C2 8436   1.315   1.381  16.433 -0.1554  0.4009  0.1515
  569TMC3    C3 8437   1.245   1.499  16.422 -0.3514  0.5005 -0.8653
  569TMC3    C4 8438   1.307   1.357  16.195  0.1497 -0.1229 -0.0611
  569TMC3    C5 8439   1.225   1.467  16.191  0.7218 -0.4850 -0.0392
  569TMC3    C6 8440   1.200   1.542  16.301 -0.2197  0.2328 -0.2891
  569TMC3     C 8441   1.423   1.197  16.335  0.6456 -0.3132 -0.2561
  569TMC3     O 8442   1.468   1.165  16.225 -0.0332 -0.2220  0.2922
  569TMC3     H 8443   1.362   1.351  16.526 -0.9759 -2.0685 -0.2244
  569TMC3    H1 8444   1.327   1.295  16.108 -1.7718 -0.4578 -0.2471
  569TMC3    H2 8445   1.125   1.620  16.293 -0.0377  0.1877 -2.4748
  569TMC3    C7 8446   1.191   1.530  16.063  0.2102  0.1674 -0.2507
  569TMC3    C8 8447   1.251   1.597  16.532 -0.2281 -0.1559 -0.0207
  569TMC3    O1 8448   1.125   1.469  15.982  0.1328 -0.6923  0.1656
  569TMC3    O2 8449   1.178   1.693  16.515 -0.1048 -0.4615 -0.1057
  570TMC3    C1 8450   1.281   0.060  16.297 -0.4238  0.2831 -0.2551
  570TMC3    C2 8451   1.303   0.113  16.173 -0.1210 -0.0514 -0.3840
  570TMC3    C3 8452   1.369   0.235  16.171 -0.2774  0.1648 -0.2250
  570TMC3    C4 8453   1.325   0.121  16.413 -0.6533 -0.5869 -0.1580
  570TMC3    C5 8454   1.380   0.247  16.402 -0.8260  0.4682 -0.6674
  570TMC3    C6 8455   1.403   0.307  16.284 -0.5030  1.1389  0.0620
  570TMC3     C 8456   1.222   4.651  16.304 -0.3729  0.0143 -0.2011
  570TMC3     O 8457   1.206   4.581  16.210 -0.5473 -0.6718 -0.4422
  570TMC3     H 8458   1.267   0.049  16.093  0.5372  0.8361 -1.3916
  570TMC3    H1 8459   1.310   0.074  16.509  0.5802  1.0269  0.8077
  570TMC3    H2 8460   1.449   0.405  16.275 -0.3885  1.1956  1.2883
  570TMC3    C7 8461   1.392   0.328  16.527  0.8992 -0.2032  0.0529
  570TMC3    C8 8462   1.431   0.271  16.045 -0.7164  0.2245 -0.0752
  570TMC3    O1 8463   1.391   0.256  16.628  0.4939  0.1225 -0.2704
  570TMC3    O2 8464   1.517   0.356  16.048  0.3484  0.4871  0.1901
  571MPD2     C 8465   3.615   1.831  17.300  0.2286 -0.1415 -0.3070
  571MPD2    C1 8466   3.497   1.767  17.284 -0.0636  0.0530  0.2719
  571MPD2    C2 8467   3.371   1.821  17.315 -0.1731  0.3441 -0.1916
  571MPD2    C3 8468   3.364   1.950  17.364  0.9555 -0.0249 -0.2964
  571MPD2    C4 8469   3.480   2.017  17.383 -0.9596 -0.0825 -0.7603
  571MPD2    C5 8470   3.602   1.959  17.347 -0.5447 -0.2817  0.2010
  571MPD2     H 8471   3.280   1.766  17.298  0.1904  0.0018 -1.0574
  571MPD2    H1 8472   3.484   2.109  17.440  1.7495  0.3029 -1.5846
  571MPD2    H2 8473   3.712   1.791  17.271  0.8753  2.6105 -1.9612
  571MPD2    H3 8474   3.695   2.015  17.359 -0.6358 -0.4379  1.5840
  571MPD2     N 8475   3.240   2.011  17.410 -0.0021  0.6533  0.2801
  571MPD2    H5 8476   3.250   2.101  17.456 -0.7713  0.2746  1.1839
  571MPD2    N1 8477   3.513   1.637  17.244 -0.6840 -0.0045 -0.1622
  571MPD2    H7 8478   3.602   1.612  17.201 -0.8697 -0.4063 -0.3161
  572TMC3    C1 8479   3.009   2.030  17.476  0.1346 -1.1640  0.6608
  572TMC3    C2 8480   2.905   1.957  17.529 -1.3100  0.4914  0.9528
  572TMC3    C3 8481   2.834   2.008  17.632 -0.5791  0.2384 -0.8217
  572TMC3    C4 8482   3.041   2.158  17.524  0.2894  0.2930  0.2875
  572TMC3    C5 8483   2.962   2.211  17.620  0.0213  0.0353  0.1044
  572TMC3    C6 8484   2.863   2.135  17.679 -0.4889  0.4910 -0.8248
  572TMC3     C 8485   3.110   1.956  17.405  0.1382  1.1184 -0.8943
  572TMC3     O 8486   3.076   1.853  17.348  0.1709  0.8386  0.2827
  572TMC3     H 8487   2.897   1.851  17.511  0.3468  0.1840  2.0541
  572TMC3    H1 8488   3.107   2.225  17.469 -1.2262  1.5383 -0.0351
  572TMC3    H2 8489   2.794   2.167   0.061  0.8345  1.1907  0.0449
  572TMC3    C7 8490   2.989   2.350  17.649  0.2636 -0.2563  0.2216
  572TMC3    C8 8491   2.750   1.921   0.011  0.7340  0.0880  0.2239
  572TMC3    O1 8492   3.087   2.399  17.598  0.1923 -0.1883  0.5435
  572TMC3    O2 8493   2.696   1.831  17.641 -0.7276 -0.1451  0.0232
  573MPD2     C 8494   0.267   1.875   0.158  0.0834 -0.8598 -0.0653
  573MPD2    C1 8495   0.293   2.015   0.158 -0.7231 -0.6412 -0.0497
  573MPD2    C2 8496   0.326   2.084   0.040 -0.6803 -0.3265  0.2456
  573MPD2    C3 8497   0.298   2.024  17.616 -0.4125  0.1414 -0.7318
  573MPD2    C4 8498   0.252   1.893  17.612  0.6446 -0.3611 -0.3576
  573MPD2    C5 8499   0.250   1.813   0.031 -0.0174 -0.1084  0.2218
  573MPD2     H 8500   0.365   2.185   0.048 -0.0904 -0.4231 -1.3695
  573MPD2    H1 8501   0.234   1.851  17.514  0.6259 -1.6761  0.2005
  573MPD2    H2 8502   0.246   1.822   0.250  0.4055 -0.7476  0.0743
  573MPD2    H3 8503   0.216   1.711   0.025  1.6343 -0.5556 -1.3034
  573MPD2     N 8504   0.310   2.087  17.491 -0.5695 -0.3000  0.2287
  573MPD2    H5 8505   0.292   2.031  17.408  1.0084  2.1423 -1.7437
  573MPD2    N1 8506   0.292   2.079   0.283  0.0139  0.8322  0.1908
  573MPD2    H7 8507   0.275   2.019   0.364 -1.0167  1.9342  0.7794
  574TMC3    C1 8508   0.374   2.255  17.330 -0.3950 -0.9611  0.1406
  574TMC3    C2 8509   0.322   2.182  17.225 -0.2961 -0.3415 -0.5327
  574TMC3    C3 8510   0.332   2.234  17.098 -0.3082 -0.5111 -0.8929
  574TMC3    C4 8511   0.439   2.376  17.309  0.2602  0.3229  0.2217
  574TMC3    C5 8512   0.448   2.422  17.184 -0.0505 -0.0674 -0.3283
  574TMC3    C6 8513   0.397   2.358  17.074  0.4309 -0.0956  0.4166
  574TMC3     C 8514   0.351   2.219  17.469 -0.3379  0.2381 -0.1456
  574TMC3     O 8515   0.392   2.301  17.551 -0.2697  0.3263  0.4822
  574TMC3     H 8516   0.267   2.091  17.244 -0.6895 -0.5977 -2.9325
  574TMC3    H1 8517   0.479   2.433  17.392 -3.3657  0.8185  1.6438
  574TMC3    H2 8518   0.411   2.413  16.982 -2.5149  0.5399  0.3489
  574TMC3    C7 8519   0.537   2.537  17.162 -0.6218 -0.4516  0.0270
  574TMC3    C8 8520   0.245   2.187  16.986 -0.6047  0.0002 -0.2550
  574TMC3    O1 8521   0.517   2.613  17.069  0.4448 -0.7814 -0.4832
  574TMC3    O2 8522   0.216   2.069  16.990  0.5163 -0.0546  0.0713
  575TMC3    C1 8523   2.413   3.122  11.382  0.6460  0.3479 -0.2761
  575TMC3    C2 8524   2.377   3.046  11.491  0.3568  1.1996 -0.5415
  575TMC3    C3 8525   2.340   2.911  11.475  0.8498 -0.0362 -0.4130
  575TMC3    C4 8526   2.422   3.071  11.256 -0.0344  0.4486  0.1699
  575TMC3    C5 8527   2.398   2.938  11.246 -0.4393 -1.1466 -0.0797
  575TMC3    C6 8528   2.365   2.850  11.354 -0.3795 -0.0746  0.3622
  575TMC3     C 8529   2.472   3.249  11.411 -0.5292 -0.5189  0.4560
  575TMC3     O 8530   2.492   3.276  11.532  0.0148 -0.5510  0.7794
  575TMC3     H 8531   2.370   3.079  11.594  0.3448  2.5995 -0.9957
  575TMC3    H1 8532   2.481   3.117  11.177  1.5647  1.9075  2.2145
  575TMC3    H2 8533   2.356   2.743  11.345 -1.8019  0.0146  0.6900
  575TMC3    C7 8534   2.379   2.898  11.120  0.6253 -0.7056 -0.4734
  575TMC3    C8 8535   2.278   2.829  11.579 -0.5442 -0.1896  0.3573
  575TMC3    O1 8536   2.362   2.988  11.039 -1.0802  0.8678  0.2049
  575TMC3    O2 8537   2.320   2.711  11.572 -0.1363 -0.5639  0.0617
  576MPD2     C 8538   1.572   4.708  12.768  0.0041  0.0261 -0.2395
  576MPD2    C1 8539   1.629   0.081  12.688  0.4849  0.5992  0.0927
  576MPD2    C2 8540   1.617   0.215  12.727 -0.1481  0.4469  0.2813
  576MPD2    C3 8541   1.528   0.242  12.831  0.0318  0.3123  0.1781
  576MPD2    C4 8542   1.470   0.145  12.912  0.0656  0.4627  1.0865
  576MPD2    C5 8543   1.500   0.017  12.882 -0.3832  0.8401 -0.3230
  576MPD2     H 8544   1.655   0.293  12.663  0.6692 -2.9175 -3.3196
  576MPD2    H1 8545   1.405   0.156  12.998  1.7510  2.3384  2.1095
  576MPD2    H2 8546   1.581   4.601  12.751 -3.5043  0.1366 -2.8309
  576MPD2    H3 8547   1.453   4.668  12.948 -0.2173  1.6797  0.7207
  576MPD2     N 8548   1.499   0.381  12.852 -0.1081  0.9546 -0.5421
  576MPD2    H5 8549   1.533   0.441  12.778  2.5424 -0.3591 -0.3910
  576MPD2    N1 8550   1.704   0.045  12.573  0.5282  0.2005  0.4941
  576MPD2    H7 8551   1.734   0.121  12.512 -0.6952  0.6339  0.4440
  577TMC3    C1 8552   1.788   4.643  12.393 -0.2965  0.2979  0.2117
  577TMC3    C2 8553   1.876   4.538  12.360 -0.8264 -0.0174  1.2104
  577TMC3    C3 8554   1.954   4.555  12.251 -0.3234 -0.4009  0.1929
  577TMC3    C4 8555   1.777   0.028  12.312  0.4448  0.3326  0.1851
  577TMC3    C5 8556   1.872   0.042  12.208  0.3952  0.2343  0.3332
  577TMC3    C6 8557   1.960   4.666  12.173  0.7585 -0.3234  0.6089
  577TMC3     C 8558   1.730   4.643  12.531 -0.6705  0.4945  0.0944
  577TMC3     O 8559   1.731   4.540  12.597  0.2330 -0.5493 -0.4454
  577TMC3     H 8560   1.863   4.452  12.424 -0.4193 -0.3066  0.8986
  577TMC3    H1 8561   1.711   0.111  12.336 -0.8452 -0.6806  0.1150
  577TMC3    H2 8562   2.028   4.676  12.090  0.5543 -1.5750  0.2872
  577TMC3    C7 8563   1.893   0.172  12.155 -0.3958 -1.1353  0.1616
  577TMC3    C8 8564   2.077   4.480  12.272  0.5280  0.0666  0.0109
  577TMC3    O1 8565   1.888   0.266  12.231  0.8192  0.2959  0.0564
  577TMC3    O2 8566   2.090   4.427  12.381  0.6951  0.3223  0.3536
  578MPD2     C 8567   4.698   0.576   0.634  0.2000 -0.4802 -0.1299
  578MPD2    C1 8568   0.087   0.493   0.602  0.9412 -0.2017  0.5805
  578MPD2    C2 8569   0.101   0.377   0.669  0.4465  0.2849  0.4164
  578MPD2    C3 8570   0.014   0.346   0.778 -0.0257 -0.0181  0.2636
  578MPD2    C4 8571   4.636   0.428   0.811 -0.1818  0.4934  0.5616
  578MPD2    C5 8572   4.616   0.540   0.739  0.3101  0.2130  0.3514
  578MPD2     H 8573   0.185   0.310   0.658  0.5154 -0.0059  2.6949
  578MPD2    H1 8574   4.568   0.397   0.890  0.4904 -1.5273  0.3553
  578MPD2    H2 8575   4.674   0.664   0.576  2.2515  0.4611  0.4623
  578MPD2    H3 8576   4.526   0.599   0.750 -1.0338 -1.9754  1.0440
  578MPD2     N 8577   0.067   0.245   0.866 -0.7111  0.6871  0.2301
  578MPD2    H5 8578   0.155   0.201   0.839  0.1926  3.7031 -1.7881
  578MPD2    N1 8579   0.169   0.547   0.503  0.1314 -0.0016  0.0442
  578MPD2    H7 8580   0.164   0.644   0.472  1.7801  0.0408 -0.0520
  579TMC3    C1 8581   0.084   0.110   1.066  0.1121  0.4078 -0.2821
  579TMC3    C2 8582   0.090   0.127   1.203 -1.1958 -0.2190  0.3450
  579TMC3    C3 8583   0.179   0.061   1.275  0.1608  0.8352  0.4638
  579TMC3    C4 8584   0.158   0.016   0.995  0.1999  1.3738  0.2708
  579TMC3    C5 8585   0.242   4.662   1.075 -0.8152  0.9333 -0.2001
  579TMC3    C6 8586   0.244   4.673   1.211 -0.6703  1.0822  1.1024
  579TMC3     C 8587   0.021   0.222   0.994  0.6323  0.5353  0.3639
  579TMC3     O 8588   4.673   0.292   1.064 -0.5385  0.0013 -0.2515
  579TMC3     H 8589   0.030   0.201   1.254  1.5527  0.7350  2.1791
  579TMC3    H1 8590   0.143   0.004   0.888  1.8840  2.1461 -0.0452
  579TMC3    H2 8591   0.300   4.599   1.268 -1.1150 -0.1462 -0.0676
  579TMC3    C7 8592   0.299   4.538   1.022 -0.1629 -0.2076  0.2254
  579TMC3    C8 8593   0.189   0.075   1.414  0.0510  0.2614 -0.7706
  579TMC3    O1 8594   0.406   4.499   1.070  0.4519 -1.1146 -0.1173
  579TMC3    O2 8595   0.100   0.140   1.467  0.2263 -0.3578 -0.1869
  580TMC3    C1 8596   4.045   3.889  11.536  0.4598 -0.0715  0.8684
  580TMC3    C2 8597   4.019   3.846  11.413 -0.6627  0.0269  0.7005
  580TMC3    C3 8598   4.059   3.716  11.382  0.7401  0.2022  0.0322
  580TMC3    C4 8599   4.101   3.819  11.635  0.1176  0.0539  0.1273
  580TMC3    C5 8600   4.146   3.697  11.600  0.0478  0.0144  0.2924
  580TMC3    C6 8601   4.121   3.645  11.478  0.2302 -0.3160  0.3039
  580TMC3     C 8602   4.043   4.036  11.537 -0.0093  0.2671 -0.6203
  580TMC3     O 8603   4.006   4.101  11.629 -0.3451  0.0067  0.1686
  580TMC3     H 8604   3.966   3.911  11.344  3.1329  3.3774  1.0093
  580TMC3    H1 8605   4.113   3.869  11.731  3.3083 -0.0062 -0.2265
  580TMC3    H2 8606   4.168   3.553  11.446 -0.6315 -0.6202 -0.0638
  580TMC3    C7 8607   4.232   3.630  11.694 -0.0835  0.4709 -0.4957
  580TMC3    C8 8608   4.120   3.718  11.247  0.1093 -0.2615  0.4441
  580TMC3    O1 8609   4.311   3.698  11.762  0.1814 -0.0767  0.2902
  580TMC3    O2 8610   4.044   3.764  11.164  0.1939 -0.1011 -0.2393
  581MPD2     C 8611   2.738   3.869  15.042  0.4051 -0.4517 -0.2930
  581MPD2    C1 8612   2.792   3.993  15.060 -0.1950  0.0721 -0.1579
  581MPD2    C2 8613   2.717   4.105  15.036  0.2906  0.1479 -0.1295
  581MPD2    C3 8614   2.575   4.094  15.013  0.4921  0.5888  0.3170
  581MPD2    C4 8615   2.525   3.966  15.006 -0.0530  0.0497  0.4870
  581MPD2    C5 8616   2.605   3.854  15.016 -0.3580  0.1192  0.1141
  581MPD2     H 8617   2.756   4.206  15.045 -0.8929  0.3874  2.1943
  581MPD2    H1 8618   2.421   3.952  14.978 -0.0679 -1.0586  1.1034
  581MPD2    H2 8619   2.792   3.775  15.041  2.6775  0.8783 -2.5770
  581MPD2    H3 8620   2.562   3.755  15.019  1.8535 -0.8295  1.1163
  581MPD2     N 8621   2.499   4.216  15.000  0.5200 -0.5240  0.2601
  581MPD2    H5 8622   2.549   4.304  15.008  1.0161 -0.8321  0.5556
  581MPD2    N1 8623   2.934   3.992  15.090 -0.1058 -0.0539 -0.7834
  581MPD2    H7 8624   2.980   3.904  15.110  2.6873  1.3163 -1.0980
  582TMC3    C1 8625   3.147   4.055  15.144 -0.3307  0.0715 -0.5607
  582TMC3    C2 8626   3.170   4.078  15.276  0.0291  0.1908 -0.6753
  582TMC3    C3 8627   3.242   3.982  15.346 -0.3093  0.5183  0.1084
  582TMC3    C4 8628   3.196   3.939  15.093  0.2106  0.5057 -0.0285
  582TMC3    C5 8629   3.278   3.855  15.158 -0.0615 -0.6115  0.0825
  582TMC3    C6 8630   3.291   3.865  15.296 -0.6753 -0.1111 -0.2972
  582TMC3     C 8631   3.012   4.100  15.111  0.4360 -0.6297 -0.3103
  582TMC3     O 8632   2.984   4.219  15.123 -0.0358 -0.0527  0.6609
  582TMC3     H 8633   3.123   4.159  15.331 -0.2491  0.7300 -1.6868
  582TMC3    H1 8634   3.180   3.933  14.986 -1.6183  0.5820  0.2452
  582TMC3    H2 8635   3.338   3.787  15.354  0.0181  0.8397  0.4143
  582TMC3    C7 8636   3.238   3.723  15.114 -0.1447 -0.2857  0.1200
  582TMC3    C8 8637   3.216   3.977  15.490 -0.3412  0.1161  0.3989
  582TMC3    O1 8638   3.280   3.685  15.009 -0.1809  0.3156 -0.1927
  582TMC3    O2 8639   3.109   4.023  15.531 -0.7000 -0.3310 -0.0256
  583MPD2     C 8640   2.265   0.441  16.699  0.7904 -0.2157 -0.1735
  583MPD2    C1 8641   2.337   0.554  16.668  0.2132  0.0453  0.0893
  583MPD2    C2 8642   2.357   0.647  16.761  0.5819 -0.3634 -0.6494
  583MPD2    C3 8643   2.340   0.629  16.897  0.3568  0.0676  0.8415
  583MPD2    C4 8644   2.273   0.514  16.932  0.5778  0.5562  0.2709
  583MPD2    C5 8645   2.233   0.425  16.834 -0.1105 -0.5423 -0.3396
  583MPD2     H 8646   2.416   0.734  16.732  0.2347  0.4942  1.1881
  583MPD2    H1 8647   2.252   0.484  17.033 -0.0640  0.6633  0.1684
  583MPD2    H2 8648   2.228   0.370  16.627  1.0300 -0.6595  0.1452
  583MPD2    H3 8649   2.180   0.345  16.885 -0.4674 -0.4339 -0.5382
  583MPD2     N 8650   2.384   0.731  16.978 -0.0551  0.1986  0.5858
  583MPD2    H5 8651   2.411   0.818  16.932  1.3389 -1.0429 -0.9201
  583MPD2    N1 8652   2.390   0.583  16.542  0.2063  0.4708  0.3110
  583MPD2    H7 8653   2.436   0.673  16.539  3.1729 -0.9390  3.7441
  584TMC3    C1 8654   2.384   0.863  17.163 -0.2966  0.1162 -0.5418
  584TMC3    C2 8655   2.346   0.971  17.082  0.8373 -0.5753 -0.6341
  584TMC3    C3 8656   2.358   1.096  17.138 -0.2434  0.3156 -0.5177
  584TMC3    C4 8657   2.435   0.874  17.289 -0.4096  0.4739 -0.9666
  584TMC3    C5 8658   2.447   0.999  17.338  0.4435  0.2259  0.6879
  584TMC3    C6 8659   2.406   1.115  17.267  0.0175  0.3394 -0.8861
  584TMC3     C 8660   2.365   0.729  17.113 -0.2604 -0.2140  0.2066
  584TMC3     O 8661   2.360   0.639  17.192 -0.4832  0.2556 -0.2972
  584TMC3     H 8662   2.303   0.960  16.983 -1.6405 -1.4085  0.5417
  584TMC3    H1 8663   2.474   0.787  17.340  0.9905  0.1263 -2.6213
  584TMC3    H2 8664   2.418   1.211  17.315  0.5438 -0.2247  0.1026
  584TMC3    C7 8665   2.492   1.008  17.475 -0.1534  0.2790 -0.2364
  584TMC3    C8 8666   2.324   1.212  17.053  0.3163 -0.0668 -0.2717
  584TMC3    O1 8667   2.494   0.897  17.525 -0.6199  0.0957 -0.0367
  584TMC3    O2 8668   2.287   1.181  16.941 -0.1923 -0.2340 -0.6461
  585MPD2     C 8669   1.565   4.463   0.502 -0.5234 -0.0567 -0.4050
  585MPD2    C1 8670   1.543   4.335   0.458  0.1356  0.4598  0.2125
  585MPD2    C2 8671   1.613   4.276   0.359  0.0663  0.6918  0.5319
  585MPD2    C3 8672   1.704   4.353   0.291  0.1471 -0.0331  0.2751
  585MPD2    C4 8673   1.733   4.486   0.329  0.3745  0.4988 -0.7068
  585MPD2    C5 8674   1.663   4.539   0.434 -0.3273 -0.2097 -0.1109
  585MPD2     H 8675   1.595   4.175   0.327 -0.9399  0.6791  1.1300
  585MPD2    H1 8676   1.805   4.547   0.277  0.0288  0.1086 -1.6389
  585MPD2    H2 8677   1.514   4.516   0.581 -1.0683 -1.2872  0.0702
  585MPD2    H3 8678   1.648   4.645   0.452 -0.9257 -0.1354 -1.0316
  585MPD2     N 8679   1.781   4.292   0.194 -0.0233 -0.4461 -0.7974
  585MPD2    H5 8680   1.848   4.352   0.148 -2.2821  1.9084 -1.0433
  585MPD2    N1 8681   1.456   4.265   0.546  0.3133  0.1447  0.6315
  585MPD2    H7 8682   1.423   4.316   0.628  3.5664  0.3597  1.7951
  586TMC3    C1 8683   1.878   4.137   0.061 -0.4021  0.2196 -0.4016
  586TMC3    C2 8684   2.004   4.159   0.110  0.0352  0.9985  0.4258
  586TMC3    C3 8685   2.112   4.102   0.043  0.5503  0.1349 -0.8152
  586TMC3    C4 8686   1.855   4.031  17.675 -0.1794 -0.1329  0.1223
  586TMC3    C5 8687   1.967   3.978  17.608 -0.1049  0.0028  0.3162
  586TMC3    C6 8688   2.093   4.023  17.635  0.2445  0.2484 -0.2497
  586TMC3     C 8689   1.763   4.170   0.138  0.0622 -0.2226 -0.2458
  586TMC3     O 8690   1.679   4.084   0.156 -0.4482 -0.0099  0.0516
  586TMC3     H 8691   2.011   4.217   0.201  1.6999 -0.2885  1.1097
  586TMC3    H1 8692   1.756   4.012  17.637 -0.6892  0.6082  1.0836
  586TMC3    H2 8693   2.177   3.968  17.594 -1.8997 -1.4135 -2.3825
  586TMC3    C7 8694   1.946   3.907  17.484 -0.3206  0.2228  0.5496
  586TMC3    C8 8695   2.247   4.099   0.103 -0.6139 -0.1044 -0.4898
  586TMC3    O1 8696   1.829   3.874  17.455 -0.2134 -0.2804  0.2705
  586TMC3    O2 8697   2.256   4.098   0.223 -0.4618  0.1119  0.5287
  587TMC3    C1 8698   4.501   2.779  15.899  0.0169  0.0050 -0.2681
  587TMC3    C2 8699   4.444   2.903  15.865 -0.7482 -1.0212 -1.0135
  587TMC3    C3 8700   4.504   2.969  15.758 -0.4999  0.6802  0.4368
  587TMC3    C4 8701   4.613   2.732  15.831 -0.2384  0.3303 -0.0573
  587TMC3    C5 8702   4.674   2.808  15.737 -0.1690 -0.7091 -0.2353
  587TMC3    C6 8703   4.618   2.923  15.695 -0.4684  0.4455 -0.1473
  587TMC3     C 8704   4.438   2.693  15.998 -0.1786 -0.0115 -0.3505
  587TMC3     O 8705   4.478   2.579  16.001 -0.3051  0.0403  0.0588
  587TMC3     H 8706   4.354   2.944  15.909  0.5252  1.2257 -0.5175
  587TMC3    H1 8707   4.683   2.661  15.876 -0.5974  0.4040  0.6221
  587TMC3    H2 8708   4.680   2.977  15.624  1.5039 -2.6978 -0.8520
  587TMC3    C7 8709   0.078   2.775  15.681 -0.4426 -0.4022  0.3054
  587TMC3    C8 8710   4.480   3.114  15.743  0.1725 -0.4822  0.2151
  587TMC3    O1 8711   0.162   2.864  15.672  0.4828 -0.6147 -0.9355
  587TMC3    O2 8712   4.527   3.164  15.644  0.0667 -0.5659  0.1633
  588TMC3    C1 8713   1.519   0.528   9.811  0.7799 -0.3183  0.3379
  588TMC3    C2 8714   1.464   0.414   9.762 -0.8353  0.2127  0.5047
  588TMC3    C3 8715   1.537   0.295   9.778  0.6492 -0.3688 -0.1894
  588TMC3    C4 8716   1.643   0.530   9.864  0.4202  0.4637  0.3846
  588TMC3    C5 8717   1.710   0.416   9.880 -0.1505  0.0407  0.0692
  588TMC3    C6 8718   1.664   0.293   9.840  0.0965 -0.2272 -0.3139
  588TMC3     C 8719   1.446   0.651   9.800  0.2789  0.5274  0.2591
  588TMC3     O 8720   1.366   0.660   9.706  0.3037  0.1144 -0.1973
  588TMC3     H 8721   1.368   0.421   9.711  0.0511 -0.3726 -1.2226
  588TMC3    H1 8722   1.678   0.623   9.907 -1.5157  1.1352  0.5171
  588TMC3    H2 8723   1.711   0.199   9.863  1.2059  0.0965 -1.2698
  588TMC3    C7 8724   1.837   0.414   9.947 -0.5923 -0.2565  0.4410
  588TMC3    C8 8725   1.469   0.183   9.713  0.0337 -0.2475 -0.0749
  588TMC3    O1 8726   1.874   0.308   9.998  0.3927 -0.1173 -0.4552
  588TMC3    O2 8727   1.354   0.198   9.672 -0.1759 -0.7703  0.3446
  589TMC3    C1 8728   0.611   3.060   0.960  0.1182  0.6725 -0.0254
  589TMC3    C2 8729   0.648   3.038   1.090  0.0191 -0.2084  0.5448
  589TMC3    C3 8730   0.751   2.960   1.118  0.0607 -0.2413 -0.5161
  589TMC3    C4 8731   0.682   2.998   0.861  0.0457 -0.0453  0.3329
  589TMC3    C5 8732   0.770   2.902   0.894 -0.1808  0.1689  0.0935
  589TMC3    C6 8733   0.812   2.884   1.025 -0.5181 -0.1295 -0.1286
  589TMC3     C 8734   0.527   3.176   0.927 -0.0523 -0.1235 -0.0815
  589TMC3     O 8735   0.537   3.208   0.807  0.0309 -0.3691  0.2847
  589TMC3     H 8736   0.600   3.096   1.168  1.1453  0.7125  0.5380
  589TMC3    H1 8737   0.658   3.016   0.757  2.3995 -0.2444 -0.2426
  589TMC3    H2 8738   0.883   2.809   1.056 -1.0046  0.4937  2.4620
  589TMC3    C7 8739   0.842   2.811   0.801  0.5023 -0.1350 -1.0377
  589TMC3    C8 8740   0.772   2.934   1.261 -0.4432 -0.7481  0.2233
  589TMC3    O1 8741   0.883   2.708   0.846  0.0548 -0.1873  0.5286
  589TMC3    O2 8742   0.684   2.968   1.338 -0.4216  0.6903 -0.7308
  590MPD2     C 8743   0.424   1.558  16.704  1.2628 -0.2676  0.2554
  590MPD2    C1 8744   0.374   1.654  16.620 -0.4985 -0.5363  0.1785
  590MPD2    C2 8745   0.444   1.678  16.501 -0.1509  0.5657 -0.4338
  590MPD2    C3 8746   0.566   1.619  16.484  0.2670 -1.4826  0.2425
  590MPD2    C4 8747   0.619   1.539  16.577 -0.0118 -0.0481  0.1200
  590MPD2    C5 8748   0.548   1.506  16.686 -0.3625 -0.0785  0.1796
  590MPD2     H 8749   0.407   1.748  16.428 -0.2286 -0.7963 -1.6924
  590MPD2    H1 8750   0.714   1.490  16.557  0.0155 -0.2175  0.6589
  590MPD2    H2 8751   0.388   1.548  16.806 -0.8994  0.3539 -0.4519
  590MPD2    H3 8752   0.588   1.440  16.762  0.4054  0.2610  0.0663
  590MPD2     N 8753   0.646   1.657  16.374 -0.4391 -0.0783 -0.1928
  590MPD2    H5 8754   0.608   1.730  16.315  0.8284  0.7622  0.0406
  590MPD2    N1 8755   0.248   1.719  16.625 -0.2229  0.3009  0.1435
  590MPD2    H7 8756   0.229   1.783  16.548  1.6525  0.7493  0.0533
  591TMC3    C1 8757   0.806   1.671  16.213 -0.1568 -0.0790 -0.0220
  591TMC3    C2 8758   0.819   1.608  16.093  0.4754 -0.1566  0.1790
  591TMC3    C3 8759   0.848   1.682  15.985 -0.3644  0.4539  0.3266
  591TMC3    C4 8760   0.827   1.805  16.219 -0.3602  0.4038 -0.0925
  591TMC3    C5 8761   0.858   1.872  16.103  0.4472  0.8845 -0.2837
  591TMC3    C6 8762   0.866   1.816  15.983 -0.0944  0.7100 -0.3109
  591TMC3     C 8763   0.768   1.604  16.334  0.3739  0.6334 -0.1506
  591TMC3     O 8764   0.838   1.510  16.369  0.6144  0.3604  0.3579
  591TMC3     H 8765   0.797   1.503  16.083 -2.6003  0.3964  0.9930
  591TMC3    H1 8766   0.809   1.859  16.311  1.7482  0.0742  0.5088
  591TMC3    H2 8767   0.886   1.863  15.887  0.7926  2.6189  0.8107
  591TMC3    C7 8768   0.879   2.018  16.120  0.3051 -0.3265 -0.4358
  591TMC3    C8 8769   0.831   1.612  15.864 -0.3884 -0.0679  0.3787
  591TMC3    O1 8770   0.927   2.053  16.224  0.1166  0.2167  0.1520
  591TMC3    O2 8771   0.859   1.494  15.848 -0.4228  0.3294  0.5592
  592MPD2     C 8772   0.687   3.430  10.977  0.2842 -0.0354 -0.2247
  592MPD2    C1 8773   0.684   3.508  11.092  0.1459 -0.8232 -0.1695
  592MPD2    C2 8774   0.598   3.464  11.186 -0.1197 -0.1170  0.5639
  592MPD2    C3 8775   0.523   3.350  11.183 -0.0772  0.5668 -0.5954
  592MPD2    C4 8776   0.528   3.274  11.069 -0.0962 -0.5444  0.4781
  592MPD2    C5 8777   0.601   3.318  10.965 -1.1235  0.1147 -0.2278
  592MPD2     H 8778   0.589   3.526  11.275 -2.0660 -0.6813  0.7580
  592MPD2    H1 8779   0.469   3.183  11.059 -0.7801 -0.4954  4.3416
  592MPD2    H2 8780   0.752   3.453  10.893  1.5205  1.0969  1.0509
  592MPD2    H3 8781   0.604   3.252  10.879  0.5650 -0.0861 -0.0133
  592MPD2     N 8782   0.461   3.323  11.306  0.3617  0.1657 -0.5502
  592MPD2    H5 8783   0.481   3.397  11.373 -2.1597  0.7117 -0.4119
  592MPD2    N1 8784   0.766   3.628  11.096  0.2756 -0.0215 -0.6720
  592MPD2    H7 8785   0.831   3.650  11.022 -1.2232  1.1343 -1.6429
  593TMC3    C1 8786   0.871   3.824  11.190  0.1932  0.2518 -0.6164
  593TMC3    C2 8787   0.863   3.923  11.280 -0.0872 -0.1408  0.3263
  593TMC3    C3 8788   0.958   4.021  11.274 -0.5550  0.6338 -0.0503
  593TMC3    C4 8789   0.987   3.808  11.118 -0.1423 -0.2478 -0.1051
  593TMC3    C5 8790   1.073   3.915  11.107  0.5373  0.1542  0.4512
  593TMC3    C6 8791   1.060   4.018  11.189  0.0667  0.9766 -0.0341
  593TMC3     C 8792   0.760   3.723  11.197  0.2847 -0.3518  0.4509
  593TMC3     O 8793   0.685   3.723  11.296  0.3513 -0.2058 -0.0808
  593TMC3     H 8794   0.774   3.943  11.338 -0.4301  0.1528 -0.3165
  593TMC3    H1 8795   1.001   3.723  11.051 -2.7199 -2.1641  1.7807
  593TMC3    H2 8796   1.135   4.096  11.190  2.0507 -0.9385  2.0190
  593TMC3    C7 8797   1.182   3.922  11.016  0.1505 -0.2281  0.6649
  593TMC3    C8 8798   0.937   4.126  11.377 -0.0989 -0.0359 -0.6767
  593TMC3    O1 8799   1.267   4.007  11.038 -0.4381  0.4836 -0.4787
  593TMC3    O2 8800   0.820   4.152  11.404  0.0988  0.9610 -0.0581
  594MPD2     C 8801   4.657   1.850  14.265 -0.0982  0.3145 -1.0974
  594MPD2    C1 8802   4.538   1.908  14.238  0.0764  0.4858 -0.7623
  594MPD2    C2 8803   4.534   2.043  14.221  0.3423  0.7636  0.0447
  594MPD2    C3 8804   4.652   2.123  14.214  0.1614 -0.0669  0.9255
  594MPD2    C4 8805   0.050   2.055  14.224 -0.5829 -0.1754 -0.0587
  594MPD2    C5 8806   0.053   1.919  14.246 -0.2428 -0.1666  0.3248
  594MPD2     H 8807   4.442   2.093  14.193  0.6033  1.5542  0.6235
  594MPD2    H1 8808   0.144   2.099  14.192 -1.2181  1.6417  0.5411
  594MPD2    H2 8809   4.665   1.746  14.295  0.6062  0.3915 -1.0279
  594MPD2    H3 8810   0.153   1.876  14.243 -1.1808 -2.4628  2.8807
  594MPD2     N 8811   4.645   2.262  14.202 -0.0805 -0.2338  0.1598
  594MPD2    H5 8812   4.550   2.298  14.195 -0.0877 -0.1868  0.5203
  594MPD2    N1 8813   4.422   1.826  14.232 -0.5067  0.3322  0.2724
  594MPD2    H7 8814   4.436   1.727  14.253  1.4061  0.8775  1.5261
  595TMC3    C1 8815   0.050   2.720  14.143 -0.0622  0.2557  0.2693
  595TMC3    C2 8816   0.082   2.589  14.157 -0.1081 -0.4775  0.0548
  595TMC3    C3 8817   4.710   2.496  14.202  0.2172  0.3827 -0.5985
  595TMC3    C4 8818   4.648   2.771  14.168  0.0214 -0.3371 -0.0818
  595TMC3    C5 8819   4.559   2.678  14.224  0.2214 -0.0456 -0.2378
  595TMC3    C6 8820   4.589   2.545  14.240  0.0223 -0.0690  0.1056
  595TMC3     C 8821   0.155   2.824  14.128  0.0215 -0.8992 -0.3567
  595TMC3     O 8822   0.135   2.937  14.172 -0.5507 -0.7267  0.0847
  595TMC3     H 8823   0.179   2.542  14.149 -0.1593 -0.9985  2.2660
  595TMC3    H1 8824   4.624   2.876  14.151 -0.6105 -0.0575  2.5418
  595TMC3    H2 8825   4.515   2.471  14.270  1.6924 -1.2996  1.2170
  595TMC3    C7 8826   4.480   2.728  14.336  0.0511 -0.6555 -0.4294
  595TMC3    C8 8827   0.025   2.353  14.206  0.2768  0.7061  0.1454
  595TMC3    O1 8828   4.419   2.828  14.306  0.5146  0.3615  0.5862
  595TMC3    O2 8829   0.145   2.335  14.204 -0.4972  0.0740  0.0106
  596MPD2     C 8830   3.337   0.662  16.587 -0.2914 -0.1705  0.1876
  596MPD2    C1 8831   3.281   0.776  16.528 -0.4382  0.3055 -0.3156
  596MPD2    C2 8832   3.262   0.779  16.390 -0.3689  0.3352  0.4698
  596MPD2    C3 8833   3.295   0.673  16.305 -0.1919  0.3997 -0.1468
  596MPD2    C4 8834   3.344   0.558  16.369 -1.4985  0.1799 -0.5126
  596MPD2    C5 8835   3.368   0.550  16.506  0.5089 -0.3947 -0.1737
  596MPD2     H 8836   3.226   0.874  16.353  1.9537  0.3507 -1.7358
  596MPD2    H1 8837   3.358   0.461  16.322  3.0468  1.8728 -2.6309
  596MPD2    H2 8838   3.362   0.655  16.692 -1.0255  1.5013  0.4617
  596MPD2    H3 8839   3.399   0.456  16.549 -0.6879 -0.1890  1.1399
  596MPD2     N 8840   3.272   0.665  16.169  0.2275 -0.0087  0.4021
  596MPD2    H5 8841   3.302   0.579  16.123  1.1809  2.1995 -3.1230
  596MPD2    N1 8842   3.245   0.894  16.600  0.2366  0.7648  0.1619
  596MPD2    H7 8843   3.208   0.974  16.549 -2.6920 -0.9389 -0.3708
  597TMC3    C1 8844   3.185   1.022  16.790  0.1294 -0.4041  0.3100
  597TMC3    C2 8845   3.244   1.134  16.746 -0.4051 -1.2792  0.5963
  597TMC3    C3 8846   3.220   1.254  16.806  0.3582 -0.5457 -0.6193
  597TMC3    C4 8847   3.100   1.025  16.895  1.0126 -0.2811  0.2234
  597TMC3    C5 8848   3.082   1.145  16.958 -0.6333  0.1175 -0.4012
  597TMC3    C6 8849   3.140   1.262  16.914  1.1104  0.7434 -0.4988
  597TMC3     C 8850   3.220   0.895  16.730  0.3326  0.0786 -0.5299
  597TMC3     O 8851   3.223   0.802  16.809 -0.8573  0.0722 -0.0716
  597TMC3     H 8852   3.313   1.115  16.665  1.3482  1.2473  1.4797
  597TMC3    H1 8853   3.066   0.930  16.933  0.0798  0.5363  1.4101
  597TMC3    H2 8854   3.125   1.361  16.956 -0.2054 -0.4065  1.7400
  597TMC3    C7 8855   3.049   1.126  17.102  0.0830  0.0543  0.1703
  597TMC3    C8 8856   3.318   1.357  16.786  0.3741 -0.1092 -0.1315
  597TMC3    O1 8857   3.020   1.017  17.144  0.5163  0.0881 -0.6791
  597TMC3    O2 8858   3.317   1.442  16.873 -0.0188  0.1395  0.4804
  598TMC3    C1 8859   1.498   2.027  15.581  0.0520  0.0553 -0.2373
  598TMC3    C2 8860   1.449   1.900  15.574  0.0365  1.1039  0.2146
  598TMC3    C3 8861   1.376   1.864  15.467  0.5607  0.4895  0.4172
  598TMC3    C4 8862   1.477   2.116  15.475  0.4148  0.2579 -0.6263
  598TMC3    C5 8863   1.390   2.074  15.372 -0.0288  0.2172 -0.5866
  598TMC3    C6 8864   1.340   1.948  15.373 -0.3338 -0.0067 -0.2687
  598TMC3     C 8865   1.590   2.065  15.682  0.0891 -0.3281  0.6087
  598TMC3     O 8866   1.668   2.154  15.647 -0.4092  0.2606 -0.8125
  598TMC3     H 8867   1.476   1.822  15.645 -0.4115 -0.9836 -1.9137
  598TMC3    H1 8868   1.520   2.215  15.465  0.4766  0.5250  2.2444
  598TMC3    H2 8869   1.269   1.920  15.297  0.6371  0.4533 -1.3423
  598TMC3    C7 8870   1.386   2.146  15.239 -0.1339  0.3437  0.0603
  598TMC3    C8 8871   1.351   1.724  15.438 -0.1649 -0.3141 -0.2625
  598TMC3    O1 8872   1.292   2.118  15.163 -0.3369 -0.4539 -0.0102
  598TMC3    O2 8873   1.298   1.701  15.332 -0.2113  0.2732 -0.7194
  599MPD2     C 8874   1.794   0.078  16.110 -0.0644  0.0543  0.0433
  599MPD2    C1 8875   1.768   4.672  16.071  0.2288  0.1795 -0.8787
  599MPD2    C2 8876   1.690   4.588  16.142  0.5207  0.0645  0.1414
  599MPD2    C3 8877   1.649   4.630  16.272  0.4177  0.1277  0.3323
  599MPD2    C4 8878   1.670   0.042  16.307  1.0721  0.1577 -0.3381
  599MPD2    C5 8879   1.744   0.120  16.228 -0.7213 -0.0337 -0.1158
  599MPD2     H 8880   1.664   4.492  16.099 -0.5520  1.0324 -1.3787
  599MPD2    H1 8881   1.636   0.092  16.398  1.6388  0.6719 -0.4035
  599MPD2    H2 8882   1.845   0.151  16.048 -0.7648  0.4522 -0.0678
  599MPD2    H3 8883   1.768   0.220  16.263  2.7098  0.0859 -2.8559
  599MPD2     N 8884   1.568   4.546  16.356  0.1015 -0.3621  0.2495
  599MPD2    H5 8885   1.552   4.580  16.450 -0.2653 -1.9903  0.7894
  599MPD2    N1 8886   1.834   4.627  15.947  0.1450  0.1136  0.1420
  599MPD2    H7 8887   1.899   4.693  15.905 -1.4448 -0.8746 -3.8292
  600TMC3    C1 8888   1.435   4.360  16.437 -0.8618  0.0096  0.4631
  600TMC3    C2 8889   1.422   4.226  16.424  0.1824  0.3306  0.2739
  600TMC3    C3 8890   1.396   4.147  16.538 -0.6752  0.1721  0.0355
  600TMC3    C4 8891   1.406   4.420  16.557 -0.0606  0.6660 -0.4494
  600TMC3    C5 8892   1.374   4.339  16.669 -0.4301 -0.9973 -0.5364
  600TMC3    C6 8893   1.366   4.204  16.656  0.9610 -0.6706 -0.0744
  600TMC3     C 8894   1.520   4.421  16.332  0.0436 -1.1143 -0.2975
  600TMC3     O 8895   1.525   4.362  16.227  0.4111 -0.3356  0.1971
  600TMC3     H 8896   1.428   4.176  16.328  0.2152 -0.5627  0.7346
  600TMC3    H1 8897   1.415   4.528  16.569  0.4719  0.7436 -1.5718
  600TMC3    H2 8898   1.329   4.147  16.740 -1.6041  0.2484 -0.5941
  600TMC3    C7 8899   1.323   4.417  16.783 -0.1643  0.0034  0.5451
  600TMC3    C8 8900   1.327   4.022  16.514  0.0351  0.5030 -0.7069
  600TMC3    O1 8901   1.301   4.536  16.762 -0.5256 -0.2804 -0.8066
  600TMC3    O2 8902   1.349   3.935  16.599  0.1292  0.4913 -0.1613
  601MPD2     C 8903   2.878   2.786   0.194  1.4349 -0.6330 -0.2380
  601MPD2    C1 8904   2.967   2.757   0.088 -0.2075 -0.6683  0.6364
  601MPD2    C2 8905   2.982   2.629   0.050 -0.3155  0.1645  0.4405
  601MPD2    C3 8906   2.912   2.524   0.111  1.0652  0.2164 -0.0482
  601MPD2    C4 8907   2.831   2.553   0.216 -0.1787  0.1759 -0.0106
  601MPD2    C5 8908   2.805   2.682   0.250  0.7873 -0.4968 -0.4455
  601MPD2     H 8909   3.051   2.599  17.668 -0.1534  0.6094  0.4181
  601MPD2    H1 8910   2.776   2.467   0.251  2.3928 -0.2267  3.0953
  601MPD2    H2 8911   2.852   2.884   0.232 -2.7852 -0.6946 -2.9029
  601MPD2    H3 8912   2.725   2.704   0.320  0.6179  1.6317 -1.3162
  601MPD2     N 8913   2.912   2.389   0.060  0.1720 -0.6860 -0.0774
  601MPD2    H5 8914   2.856   2.316   0.104 -0.8916 -0.7225 -1.4690
  601MPD2    N1 8915   3.046   2.856   0.020  0.4416 -0.8369  0.0224
  601MPD2    H7 8916   3.113   2.829  17.645  2.1648  0.4506  1.1447
  602TMC3    C1 8917   3.072   3.063  17.618 -0.1969  0.0578 -0.2494
  602TMC3    C2 8918   3.088   3.197  17.617  0.0009 -0.0001  0.5013
  602TMC3    C3 8919   3.093   3.269  17.499 -0.3466 -0.2766 -0.6779
  602TMC3    C4 8920   3.048   2.999  17.496  0.6489 -0.2226  0.7173
  602TMC3    C5 8921   3.066   3.069  17.380  0.4662  0.1712 -0.0691
  602TMC3    C6 8922   3.075   3.208  17.377  0.1659  0.2836 -0.0873
  602TMC3     C 8923   3.043   2.996   0.045 -0.3569 -0.8569  0.8114
  602TMC3     O 8924   3.014   3.058   0.149 -0.2379  0.1720 -0.0396
  602TMC3     H 8925   3.098   3.249   0.015 -1.3241 -0.5707  0.9620
  602TMC3    H1 8926   3.020   2.894  17.487  0.5721 -0.1388 -0.0303
  602TMC3    H2 8927   3.097   3.254  17.281  0.0968  0.4224 -0.0364
  602TMC3    C7 8928   3.016   3.010  17.261 -0.2336 -0.3231  0.3095
  602TMC3    C8 8929   3.063   3.413  17.510 -0.2272 -1.0208 -0.6956
  602TMC3    O1 8930   3.032   2.886  17.241 -0.1917  0.2229 -0.0273
  602TMC3    O2 8931   3.081   3.470  17.614  0.2634 -0.1700  0.2184
  603TMC3    C1 8932   1.985   2.597  11.040  0.8871 -0.1224 -0.9116
  603TMC3    C2 8933   2.027   2.644  11.156  0.8349  0.2892  0.5863
  603TMC3    C3 8934   2.047   2.780  11.165 -0.6608  0.1340  0.1947
  603TMC3    C4 8935   1.969   2.676  10.931 -0.4541 -0.4344 -0.5991
  603TMC3    C5 8936   1.997   2.812  10.937 -0.4332 -0.0796  0.3169
  603TMC3    C6 8937   2.019   2.865  11.057 -0.0459  0.4195  0.3734
  603TMC3     C 8938   1.968   2.454  11.029 -0.5579  0.0627 -0.0352
  603TMC3     O 8939   1.892   2.418  10.940 -0.1908  0.2871  0.5956
  603TMC3     H 8940   2.029   2.577  11.241  2.1960 -0.7342 -0.2495
  603TMC3    H1 8941   1.905   2.633  10.855 -1.2149  0.7938 -0.6604
  603TMC3    H2 8942   2.034   2.972  11.064  3.4098 -0.0489  0.3397
  603TMC3    C7 8943   2.008   2.892  10.818  0.3955  0.4227 -0.1222
  603TMC3    C8 8944   2.023   2.836  11.297  0.3675 -0.7541  0.2987
  603TMC3    O1 8945   2.009   3.012  10.839 -0.4102 -0.4552  0.2583
  603TMC3    O2 8946   2.051   2.755  11.384 -0.1633  0.0388  0.7361
  604MPD2     C 8947   2.583   1.959  16.523 -0.5855  0.5548  0.0211
  604MPD2    C1 8948   2.456   1.899  16.517  0.4098  0.0961 -0.3778
  604MPD2    C2 8949   2.432   1.796  16.427  0.7839  0.2910  0.0661
  604MPD2    C3 8950   2.522   1.769  16.328 -0.2414  0.2470 -0.8301
  604MPD2    C4 8951   2.651   1.826  16.332  0.4945  0.2740 -0.1763
  604MPD2    C5 8952   2.669   1.926  16.430  0.2711  0.0766 -0.3412
  604MPD2     H 8953   2.336   1.747  16.435 -0.5026  2.8141 -0.0033
  604MPD2    H1 8954   2.733   1.797  16.268 -0.6877  2.3227 -2.6111
  604MPD2    H2 8955   2.619   2.031  16.596 -4.1106  1.7191  0.6372
  604MPD2    H3 8956   2.768   1.967  16.448  0.4697 -0.4065 -0.3448
  604MPD2     N 8957   2.480   1.673  16.231  0.7000 -0.2213  0.1790
  604MPD2    H5 8958   2.381   1.649  16.238  0.7933 -0.3065  1.1696
  604MPD2    N1 8959   2.373   1.936  16.627 -0.0416  0.2417 -0.3025
  604MPD2    H7 8960   2.407   2.012  16.685  1.9861  0.7129 -2.1254
  605TMC3    C1 8961   2.189   1.975  16.748 -0.0362 -0.3150 -0.8089
  605TMC3    C2 8962   2.265   2.073  16.809  1.4703 -0.3801 -0.3394
  605TMC3    C3 8963   2.228   2.199  16.807  0.2764 -0.7960 -0.3061
  605TMC3    C4 8964   2.067   2.012  16.701 -0.0686  0.3547  1.1282
  605TMC3    C5 8965   2.038   2.145  16.702  0.7320  0.6417  0.1132
  605TMC3    C6 8966   2.108   2.241  16.759  0.4361 -0.0408 -0.0371
  605TMC3     C 8967   2.250   1.877  16.657  0.0990 -0.0679 -0.2652
  605TMC3     O 8968   2.181   1.787  16.611 -0.0577  0.0908 -0.6732
  605TMC3     H 8969   2.352   2.039  16.864  1.2875 -0.6372 -0.2076
  605TMC3    H1 8970   2.011   1.940  16.644  0.4244 -0.8057  2.1063
  605TMC3    H2 8971   2.069   2.342  16.755  0.0870 -0.1486  0.5668
  605TMC3    C7 8972   1.917   2.195  16.631 -0.5819 -0.1507 -0.3739
  605TMC3    C8 8973   2.342   2.279  16.782  0.4549 -1.0459 -1.0069
  605TMC3    O1 8974   1.910   2.307  16.581 -0.5164  0.7501  0.0656
  605TMC3    O2 8975   2.443   2.213  16.760  0.5371  0.3063  0.3340
  606TMC3    C1 8976   4.144   0.106  16.916 -0.1146  0.2318  0.1731
  606TMC3    C2 8977   4.273   0.162  16.908  0.4475 -0.8458  0.8743
  606TMC3    C3 8978   4.339   0.159  17.025 -0.2922  0.3938  0.5076
  606TMC3    C4 8979   4.096   0.045  17.027 -0.0532 -0.4336  0.1506
  606TMC3    C5 8980   4.173   0.042  17.134  0.2388 -0.2102 -0.3062
  606TMC3    C6 8981   4.298   0.097  17.141  0.5964  0.6482  0.4949
  606TMC3     C 8982   4.081   0.081  16.785  0.3152  0.3482 -0.3370
  606TMC3     O 8983   4.130   0.149  16.695  0.3232  0.0388  0.3818
  606TMC3     H 8984   4.324   0.193  16.818 -1.6960  1.2309  0.3639
  606TMC3    H1 8985   3.992   0.015  17.038 -1.0966  2.2875 -2.2909
  606TMC3    H2 8986   4.352   0.094  17.235  1.2913 -0.7991  0.0394
  606TMC3    C7 8987   4.124   0.001  17.267  0.7364 -0.4001 -0.1704
  606TMC3    C8 8988   4.469   0.224  17.041 -0.0269  0.1832  0.8525
  606TMC3    O1 8989   4.179   0.042  17.371 -0.3558 -0.1119 -0.7721
  606TMC3    O2 8990   4.517   0.217  17.155  0.1153  0.0698  0.2739
  607MPD2     C 8991   0.635   3.102  11.606 -1.2539 -0.1489 -0.4856
  607MPD2    C1 8992   0.654   3.200  11.699 -0.4608  0.5093  0.6587
  607MPD2    C2 8993   0.654   3.158  11.829  0.3926 -0.5926  0.0090
  607MPD2    C3 8994   0.617   3.033  11.870  0.0220  0.3370 -0.2788
  607MPD2    C4 8995   0.587   2.934  11.779  0.0167  0.4873  0.1285
  607MPD2    C5 8996   0.603   2.974  11.645  0.3838 -0.6022  0.6148
  607MPD2     H 8997   0.680   3.232  11.904 -1.7847  0.8794 -0.6899
  607MPD2    H1 8998   0.557   2.831  11.798  0.4592  0.6262  1.5792
  607MPD2    H2 8999   0.649   3.126  11.501  0.9735  1.3448  0.1610
  607MPD2    H3 9000   0.585   2.903  11.566  0.6145  0.2877 -0.2355
  607MPD2     N 9001   0.625   3.008  12.008 -0.2418  0.2008 -0.1180
  607MPD2    H5 9002   0.640   3.085  12.072  0.5313  0.5306 -0.7052
  607MPD2    N1 9003   0.676   3.342  11.683  0.6874 -0.2789 -0.6799
  607MPD2    H7 9004   0.687   3.388  11.773 -0.8729  1.2488 -1.2754
  608TMC3    C1 9005   0.775   3.531  11.590  0.4388  0.1722 -0.5997
  608TMC3    C2 9006   0.804   3.570  11.720  0.3606 -0.0905  0.3668
  608TMC3    C3 9007   0.918   3.645  11.749 -0.0426 -0.2254  0.5446
  608TMC3    C4 9008   0.870   3.552  11.491  0.7264 -0.4077  0.1625
  608TMC3    C5 9009   0.982   3.621  11.524 -0.8461 -0.3516  0.9699
  608TMC3    C6 9010   1.010   3.677  11.650  0.1541  0.0178 -0.0255
  608TMC3     C 9011   0.710   3.401  11.569 -0.0582  0.0743  0.2192
  608TMC3     O 9012   0.717   3.354  11.455 -0.4802  0.7272  0.5305
  608TMC3     H 9013   0.734   3.542  11.798 -1.5627  0.8302 -1.0213
  608TMC3    H1 9014   0.855   3.514  11.390  2.3974 -0.8170  0.0664
  608TMC3    H2 9015   1.110   3.705  11.681  0.3712  0.5130 -1.1934
  608TMC3    C7 9016   1.076   3.638  11.414 -0.0036 -0.2221  0.3405
  608TMC3    C8 9017   0.946   3.678  11.887 -0.3458 -0.2316  0.1470
  608TMC3    O1 9018   1.058   3.580  11.308  0.2389 -0.0810 -0.6044
  608TMC3    O2 9019   1.024   3.773  11.903  0.5492  0.2409  0.2782
  609TMC3    C1 9020   4.326   1.811   9.309  0.7654  0.1526  1.0323
  609TMC3    C2 9021   4.216   1.728   9.277  0.2321  0.1872 -0.9554
  609TMC3    C3 9022   4.258   1.610   9.223 -0.2311  0.3571 -0.4904
  609TMC3    C4 9023   4.455   1.776   9.282  0.6244 -0.6649 -0.4907
  609TMC3    C5 9024   4.478   1.651   9.232 -0.2622 -0.3971  0.4876
  609TMC3    C6 9025   4.383   1.563   9.210  0.9173 -0.6087  0.0483
  609TMC3     C 9026   4.299   1.925   9.396 -0.2016  1.4556 -0.5757
  609TMC3     O 9027   4.382   2.015   9.416  0.0231  0.2703 -0.3072
  609TMC3     H 9028   4.113   1.759   9.291 -0.8941 -3.2721 -1.7933
  609TMC3    H1 9029   4.527   1.837   9.336 -1.3904  0.8255  0.5134
  609TMC3    H2 9030   4.410   1.467   9.170 -0.4720 -1.7024  1.7460
  609TMC3    C7 9031   4.617   1.609   9.239  0.5781 -0.3786 -0.0950
  609TMC3    C8 9032   4.161   1.503   9.179  0.3580  0.0951  0.3621
  609TMC3    O1 9033   4.680   1.669   9.324  0.0439  0.1402  0.0704
  609TMC3    O2 9034   4.205   1.392   9.156 -0.3161  0.0586  0.6256
  610TMC3    C1 9035   1.404   2.980  12.544 -0.5643 -0.5020 -0.1180
  610TMC3    C2 9036   1.466   3.087  12.495 -0.3457  0.2211  0.2320
  610TMC3    C3 9037   1.607   3.083  12.498  0.4963  0.0687  0.2349
  610TMC3    C4 9038   1.464   2.868  12.593  0.0112 -0.2027 -0.2623
  610TMC3    C5 9039   1.599   2.873  12.609 -0.5480  1.0426  0.6531
  610TMC3    C6 9040   1.674   2.979  12.558 -0.0126 -0.4401 -0.7557
  610TMC3     C 9041   1.261   2.995  12.558 -0.0164  1.0338  0.3940
  610TMC3     O 9042   1.219   3.107  12.533  0.1688  0.4430 -0.7081
  610TMC3     H 9043   1.409   3.172  12.460 -0.4600  0.2521  0.5031
  610TMC3    H1 9044   1.411   2.794  12.652 -2.9306  0.1894 -2.4056
  610TMC3    H2 9045   1.782   2.969  12.550  0.3340  2.2911  0.7835
  610TMC3    C7 9046   1.661   2.779  12.691 -0.4709  0.3101 -0.3901
  610TMC3    C8 9047   1.683   3.156  12.394  0.0654  0.7181 -0.5487
  610TMC3    O1 9048   1.607   2.672  12.713 -0.1742 -0.2419 -0.1337
  610TMC3    O2 9049   1.802   3.167  12.408 -0.1029 -0.6790 -0.5479
  611MPD2     C 9050   0.946   2.899   9.821 -0.8661 -0.2104  0.8390
  611MPD2    C1 9051   0.951   2.789   9.903 -0.9097 -0.7658 -0.1945
  611MPD2    C2 9052   1.075   2.728   9.919  0.5510 -0.5062 -0.1767
  611MPD2    C3 9053   1.187   2.798   9.876 -0.5506  0.1106  0.2949
  611MPD2    C4 9054   1.182   2.916   9.807 -0.4935 -0.0713 -0.2706
  611MPD2    C5 9055   1.058   2.962   9.776  0.5575  0.5626  0.3405
  611MPD2     H 9056   1.074   2.637   9.977 -1.7367  0.4261  1.2701
  611MPD2    H1 9057   1.275   2.961   9.774 -0.2303 -0.6522 -0.3286
  611MPD2    H2 9058   0.851   2.946   9.795  0.2460  1.8083  0.4534
  611MPD2    H3 9059   1.048   3.054   9.718  1.9020 -0.5791 -1.7043
  611MPD2     N 9060   1.317   2.750   9.898 -0.4840 -0.5987 -0.0668
  611MPD2    H5 9061   1.397   2.801   9.862 -2.2493  1.9055 -0.4798
  611MPD2    N1 9062   0.830   2.747   9.967  0.8843  0.0348 -0.2433
  611MPD2    H7 9063   0.753   2.813   9.963  1.2200  0.3372 -1.7507
  612TMC3    C1 9064   1.491   2.614   9.963 -0.4617  0.1768 -0.1550
  612TMC3    C2 9065   1.572   2.718   9.999 -0.2874 -0.3164 -0.8837
  612TMC3    C3 9066   1.686   2.694  10.066 -0.5032  0.1464  0.4874
  612TMC3    C4 9067   1.527   2.486   9.986 -0.2367 -0.1272  0.0423
  612TMC3    C5 9068   1.649   2.465  10.053 -0.5812  0.3355  0.0559
  612TMC3    C6 9069   1.727   2.570  10.092  0.2125 -0.0824  0.1412
  612TMC3     C 9070   1.344   2.634   9.960  0.0601  0.4854  0.0325
  612TMC3     O 9071   1.279   2.535   9.994 -0.3303  0.0829 -0.0563
  612TMC3     H 9072   1.532   2.819   9.987  0.0668  0.1001  1.4307
  612TMC3    H1 9073   1.455   2.406   9.973  1.0619 -1.1808 -0.6536
  612TMC3    H2 9074   1.827   2.552  10.131  0.7050  1.1725 -0.5372
  612TMC3    C7 9075   1.678   2.336  10.113  0.1696 -0.5203 -0.8337
  612TMC3    C8 9076   1.733   2.805  10.148 -0.2810 -0.2218  0.4613
  612TMC3    O1 9077   1.753   2.334  10.212 -0.4294 -0.0192  0.8877
  612TMC3    O2 9078   1.703   2.916  10.112 -0.2087 -0.1343 -0.2405
  613MPD2     C 9079   0.598   0.355  16.701  0.1857  0.6240 -0.3799
  613MPD2    C1 9080   0.503   0.449  16.672  0.1797  0.7694 -0.0053
  613MPD2    C2 9081   0.375   0.395  16.646  0.5189  0.2683 -0.4428
  613MPD2    C3 9082   0.358   0.260  16.623 -0.6505 -0.3171  0.4415
  613MPD2    C4 9083   0.451   0.170  16.652  0.0123  0.2097 -0.0255
  613MPD2    C5 9084   0.572   0.222  16.698 -0.1294 -0.9520  0.5846
  613MPD2     H 9085   0.294   0.467  16.649 -1.6307 -2.0155 -2.9781
  613MPD2    H1 9086   0.436   0.064  16.636 -0.6153  0.4389 -0.9857
  613MPD2    H2 9087   0.699   0.386  16.722  0.2265  0.4616 -0.3298
  613MPD2    H3 9088   0.658   0.162  16.723  0.6867 -0.7429 -1.6948
  613MPD2     N 9089   0.238   0.216  16.568 -0.3971  0.7109  0.2858
  613MPD2    H5 9090   0.237   0.115  16.564 -0.9028  0.7324 -0.1986
  613MPD2    N1 9091   0.528   0.589  16.678  0.2170  0.6276  0.3503
  613MPD2    H7 9092   0.621   0.619  16.708  0.8743  1.2566 -2.2394
  614TMC3    C1 9093   0.414   0.681  16.491  0.3071  0.4821 -0.3923
  614TMC3    C2 9094   0.455   0.585  16.403  0.8269 -0.1606  0.1328
  614TMC3    C3 9095   0.404   0.578  16.274  0.1810 -0.3075 -0.0937
  614TMC3    C4 9096   0.325   0.777  16.446 -0.7188  0.2608 -0.7060
  614TMC3    C5 9097   0.288   0.783  16.313 -0.3899 -0.5545  0.0721
  614TMC3    C6 9098   0.324   0.678  16.227 -0.1662 -0.1475 -0.3090
  614TMC3     C 9099   0.454   0.695  16.628  0.1308 -0.0167  0.1914
  614TMC3     O 9100   0.441   0.803  16.679  0.6943  0.0316 -0.2471
  614TMC3     H 9101   0.540   0.524  16.433  0.6805 -1.1382 -1.4453
  614TMC3    H1 9102   0.295   0.863  16.505 -1.5516 -0.1102 -0.5849
  614TMC3    H2 9103   0.277   0.686  16.130 -2.3263  1.1300  0.8391
  614TMC3    C7 9104   0.236   0.911  16.266  0.3200  0.7800 -0.6379
  614TMC3    C8 9105   0.384   0.443  16.218  0.3647 -0.8788 -0.3445
  614TMC3    O1 9106   0.252   1.009  16.334  0.3125 -0.0815 -0.6794
  614TMC3    O2 9107   0.277   0.427  16.156  0.7147 -0.1642  0.5171
  615MPD2     C 9108   3.759   1.862  16.049 -0.7105  0.6404 -0.5739
  615MPD2    C1 9109   3.816   1.942  15.945  0.3828 -0.0262 -0.5063
  615MPD2    C2 9110   3.782   1.917  15.819 -0.3700 -0.3705  0.4359
  615MPD2    C3 9111   3.692   1.820  15.777 -0.2403 -0.5311  0.0852
  615MPD2    C4 9112   3.639   1.743  15.870 -0.2005 -0.0019  0.0066
  615MPD2    C5 9113   3.672   1.759  16.004  0.2104  0.6661 -0.5677
  615MPD2     H 9114   3.824   1.978  15.739  1.6973  0.8589  2.4649
  615MPD2    H1 9115   3.562   1.673  15.842  0.3626 -0.8725  0.6596
  615MPD2    H2 9116   3.768   1.877  16.156 -0.9933 -0.1987 -0.4317
  615MPD2    H3 9117   3.622   1.708  16.086  0.7044  0.4077 -0.4290
  615MPD2     N 9118   3.659   1.800  15.643 -0.0840 -0.1280  0.0619
  615MPD2    H5 9119   3.587   1.730  15.629  2.0359 -2.2189 -0.2995
  615MPD2    N1 9120   3.903   2.054  15.976  0.0038  0.1957  0.0690
  615MPD2    H7 9121   3.927   2.111  15.896  1.1394 -2.2092 -1.3061
  616TMC3    C1 9122   4.042   2.213  16.070 -0.6513  0.7714  0.1889
  616TMC3    C2 9123   4.176   2.193  16.093 -0.1239 -0.5209 -0.0841
  616TMC3    C3 9124   4.267   2.274  16.029  0.9502  0.0209 -0.1005
  616TMC3    C4 9125   3.999   2.302  15.981  1.0163 -0.6025 -0.5552
  616TMC3    C5 9126   4.089   2.385  15.916 -0.8247  1.0336 -0.1946
  616TMC3    C6 9127   4.224   2.373  15.944  0.5233 -0.4144  0.1556
  616TMC3     C 9128   3.962   2.095  16.092 -0.2801  0.1137  0.5078
  616TMC3     O 9129   3.970   2.050  16.203  0.0334  0.1642  0.0562
  616TMC3     H 9130   4.215   2.105  16.142 -1.0892 -1.1695 -0.4781
  616TMC3    H1 9131   3.897   2.297  15.945  0.8671 -1.4266 -0.0247
  616TMC3    H2 9132   4.291   2.449  15.906  0.3767  0.1758  1.0965
  616TMC3    C7 9133   4.044   2.495  15.831 -0.4990  0.3260  0.5365
  616TMC3    C8 9134   4.395   2.221  15.996  0.7217 -0.5363 -0.0538
  616TMC3    O1 9135   4.117   2.595  15.832 -0.0446 -0.0886  0.5232
  616TMC3    O2 9136   4.390   2.105  15.969 -0.1725  0.2032 -0.2243
  617MPD2     C 9137   2.025   0.358  13.355 -0.3942  0.6344  0.2998
  617MPD2    C1 9138   2.100   0.273  13.433  0.5052 -0.4062  0.3024
  617MPD2    C2 9139   2.047   0.232  13.558  0.0324  0.4205  0.4788
  617MPD2    C3 9140   1.921   0.261  13.588  0.0683 -0.1392  0.3449
  617MPD2    C4 9141   1.842   0.341  13.505 -0.1759  0.1690  0.1754
  617MPD2    C5 9142   1.899   0.394  13.390 -0.3713 -0.3716 -0.2341
  617MPD2     H 9143   2.114   0.185  13.628  1.6439  1.3840 -0.4115
  617MPD2    H1 9144   1.744   0.373  13.537 -0.7879  0.0233 -1.5805
  617MPD2    H2 9145   2.069   0.411  13.272  0.0376 -1.5679 -0.8598
  617MPD2    H3 9146   1.845   0.459  13.322 -0.0010  1.1329  0.8908
  617MPD2     N 9147   1.856   0.223  13.708 -0.3135 -0.2341  0.4367
  617MPD2    H5 9148   1.755   0.230  13.715 -0.3824 -1.1928  0.5019
  617MPD2    N1 9149   2.227   0.249  13.392 -0.1751  0.3582 -0.4620
  617MPD2    H7 9150   2.256   0.289  13.303 -3.7209 -2.5461 -2.9631
  618TMC3    C1 9151   2.437   0.157  13.369  0.3767 -0.0826 -0.2196
  618TMC3    C2 9152   2.506   0.046  13.368 -0.2287 -0.1261  0.1703
  618TMC3    C3 9153   2.622   0.044  13.296 -0.1151 -0.5030 -0.1643
  618TMC3    C4 9154   2.483   0.265  13.304 -0.0041 -0.0287 -0.2547
  618TMC3    C5 9155   2.592   0.256  13.223 -0.3766  0.1529  0.0528
  618TMC3    C6 9156   2.669   0.145  13.224  0.2755  0.1615  0.4835
  618TMC3     C 9157   2.319   0.173  13.460  0.3906  1.1240 -0.3564
  618TMC3     O 9158   2.320   0.114  13.564 -0.4149  0.8662 -0.5474
  618TMC3     H 9159   2.457   4.682  13.407  0.3429 -0.9589 -0.9737
  618TMC3    H1 9160   2.446   0.364  13.326 -2.2690 -1.0479  0.5647
  618TMC3    H2 9161   2.753   0.132  13.158 -0.4683  0.9422 -0.6086
  618TMC3    C7 9162   2.611   0.361  13.127  0.8439 -0.1530 -0.7549
  618TMC3    C8 9163   2.686   4.639  13.285  1.0859 -0.0233  0.3959
  618TMC3    O1 9164   2.613   0.473  13.171  0.0421  0.4841 -0.1956
  618TMC3    O2 9165   2.613   4.543  13.308  0.1681  0.6227 -0.1122
  619MPD2     C 9166   3.559   1.217  13.451  0.7081  0.1695  0.6743
  619MPD2    C1 9167   3.471   1.322  13.430 -0.1150 -0.0718 -0.3961
  619MPD2    C2 9168   3.343   1.319  13.474  0.2266 -0.0771 -1.0736
  619MPD2    C3 9169   3.306   1.212  13.555  1.0373  0.6840 -0.5248
  619MPD2    C4 9170   3.378   1.100  13.570 -0.0596 -0.1224  0.2937
  619MPD2    C5 9171   3.507   1.106  13.516 -0.6562 -0.4512  1.0115
  619MPD2     H 9172   3.277   1.405  13.471  0.6272  0.1939 -1.9348
  619MPD2    H1 9173   3.347   1.006  13.615  1.9255 -1.1499 -0.4757
  619MPD2    H2 9174   3.665   1.210  13.435  0.6368  1.9754 -0.5923
  619MPD2    H3 9175   3.573   1.026  13.549  2.1749  1.4607 -0.0335
  619MPD2     N 9176   3.179   1.212  13.614  0.2673  0.1974 -0.1157
  619MPD2    H5 9177   3.145   1.118  13.635  0.1040  0.3589  0.3405
  619MPD2    N1 9178   3.515   1.444  13.378 -0.1889  1.0258 -0.1131
  619MPD2    H7 9179   3.444   1.516  13.366 -1.0299  0.2073 -0.0034
  620TMC3    C1 9180   3.634   1.619  13.297  0.3185  0.2073  0.7077
  620TMC3    C2 9181   3.510   1.668  13.254  0.0646 -0.1304  0.5010
  620TMC3    C3 9182   3.480   1.798  13.264 -0.2971  0.1586  0.0825
  620TMC3    C4 9183   3.732   1.704  13.352  0.7865  0.0203 -0.0823
  620TMC3    C5 9184   3.681   1.830  13.378 -0.8468 -0.4957  0.4901
  620TMC3    C6 9185   3.570   1.886  13.315  0.3460  0.5804 -0.4457
  620TMC3     C 9186   3.638   1.478  13.333  0.4593 -0.4568  0.2755
  620TMC3     O 9187   3.751   1.432  13.347  0.1648 -0.2849  0.4848
  620TMC3     H 9188   3.445   1.612  13.188  1.8858 -1.0040 -0.5584
  620TMC3    H1 9189   3.808   1.654  13.411 -0.8076 -1.1924  0.9777
  620TMC3    H2 9190   3.562   1.994  13.308  3.3991  0.8768  0.4218
  620TMC3    C7 9191   3.719   1.880  13.505 -0.2455 -0.0876  0.2633
  620TMC3    C8 9192   3.355   1.821  13.320 -0.0559  0.0123  0.0325
  620TMC3    O1 9193   3.832   1.867  13.543  0.4815 -0.0248 -0.0433
  620TMC3    O2 9194   3.352   1.904  13.408  0.1332  0.3301 -0.4869
  621MPD2     C 9195   3.933   0.702  10.440  0.4210  0.0174 -0.3958
  621MPD2    C1 9196   4.034   0.666  10.359 -0.1883  0.5394 -0.3981
  621MPD2    C2 9197   4.130   0.762  10.322  0.2594  0.2171 -0.4457
  621MPD2    C3 9198   4.107   0.896  10.347  0.4144  0.0004  0.1966
  621MPD2    C4 9199   3.996   0.931  10.422 -0.3036  0.1853  0.6108
  621MPD2    C5 9200   3.909   0.839  10.463 -0.0344 -0.7478 -0.2308
  621MPD2     H 9201   4.211   0.730  10.257 -0.8620  0.8625 -2.1658
  621MPD2    H1 9202   3.973   1.031  10.458  1.0025  0.2968  1.1491
  621MPD2    H2 9203   3.860   0.641  10.492  0.1036  0.1351 -0.6967
  621MPD2    H3 9204   3.841   0.870  10.541 -0.2506 -0.8584 -0.3755
  621MPD2     N 9205   4.187   1.003  10.302 -0.4357  0.0122  0.2154
  621MPD2    H5 9206   4.155   1.097  10.320 -1.1841 -0.1723 -0.1396
  621MPD2    N1 9207   4.058   0.531  10.326 -0.5965  0.5542  0.4047
  621MPD2    H7 9208   4.133   0.499  10.265 -0.7924  0.5570  0.1597
  622TMC3    C1 9209   4.022   0.304  10.324 -0.1622 -0.4206  0.0005
  622TMC3    C2 9210   3.979   0.200  10.403  0.0936 -0.0720 -0.0777
  622TMC3    C3 9211   3.903   0.098  10.349 -0.4916  0.1996 -0.3180
  622TMC3    C4 9212   4.003   0.307  10.191 -0.1684 -0.3182 -0.4279
  622TMC3    C5 9213   3.927   0.206  10.138 -0.8579 -0.8554  0.0322
  622TMC3    C6 9214   3.880   0.096  10.217  0.0164 -0.0484  0.0579
  622TMC3     C 9215   3.991   0.427  10.386  0.0905 -0.5846 -0.3395
  622TMC3     O 9216   3.915   0.417  10.478  0.8175 -0.3171  0.5604
  622TMC3     H 9217   3.998   0.204  10.510  1.8999  2.5490 -0.4831
  622TMC3    H1 9218   4.035   0.387  10.126  1.0946  0.1893  0.8141
  622TMC3    H2 9219   3.790   0.043  10.188  0.7066 -1.6768  0.8848
  622TMC3    C7 9220   3.906   0.193   9.996 -0.6609 -0.9145  0.0365
  622TMC3    C8 9221   3.785   0.072  10.432 -0.4316  0.3477 -0.1871
  622TMC3    O1 9222   3.847   0.091   9.963 -0.5628  0.2286  0.0027
  622TMC3    O2 9223   3.733   4.689  10.435 -0.8147  0.8623  0.3272
  623MPD2     C 9224   2.602   2.058  15.794 -0.4332  0.0272  0.3339
  623MPD2    C1 9225   2.592   2.195  15.813 -0.0467 -0.4647 -0.4129
  623MPD2    C2 9226   2.660   2.249  15.921 -0.5168 -0.4160  0.3637
  623MPD2    C3 9227   2.722   2.165  16.019 -0.2611 -0.3307  0.5146
  623MPD2    C4 9228   2.712   2.027  16.003  0.5598  0.2357 -0.2379
  623MPD2    C5 9229   2.650   1.978  15.897 -0.7120 -0.5422 -0.5772
  623MPD2     H 9230   2.655   2.355  15.946 -0.9303 -0.6848  1.4112
  623MPD2    H1 9231   2.756   1.954  16.070  3.6086  0.3005 -2.1792
  623MPD2    H2 9232   2.559   2.005  15.710 -1.0710 -3.4693  2.8435
  623MPD2    H3 9233   2.648   1.870  15.883 -0.7313 -0.5814 -0.2820
  623MPD2     N 9234   2.784   2.240  16.118 -0.2970  0.2313  0.6770
  623MPD2    H5 9235   2.808   2.336  16.093  1.2719 -0.4786 -0.5615
  623MPD2    N1 9236   2.513   2.279  15.729  0.0099 -0.8822  0.3896
  623MPD2    H7 9237   2.520   2.379  15.740 -2.0105 -0.6603 -0.3432
  624TMC3    C1 9238   3.114   2.324  16.449 -0.0377  0.7354  0.2435
  624TMC3    C2 9239   3.054   2.443  16.479  0.3521  0.2320  0.2417
  624TMC3    C3 9240   2.934   2.482  16.422  0.3850  0.1404 -0.4631
  624TMC3    C4 9241   3.045   2.235  16.361 -0.2444 -0.1752  0.3661
  624TMC3    C5 9242   2.931   2.281  16.302  0.1449  0.2952  0.4987
  624TMC3    C6 9243   2.870   2.401  16.335 -0.5363 -0.1209  0.3537
  624TMC3     C 9244   3.240   2.288  16.520  0.2830  0.3339 -0.1545
  624TMC3     O 9245   3.252   2.335  16.629  0.3641  0.2533 -1.2206
  624TMC3     H 9246   3.096   2.507  16.555 -0.5242 -0.5659  1.3918
  624TMC3    H1 9247   3.075   2.131  16.352  0.0289 -0.0763  0.1072
  624TMC3    H2 9248   2.780   2.430  16.282 -1.5581 -3.0741  0.4601
  624TMC3    C7 9249   2.853   2.184  16.222  0.0709 -0.5621 -0.2987
  624TMC3    C8 9250   2.850   2.562  16.512  0.0168 -0.0174 -0.2636
  624TMC3    O1 9251   2.867   2.065  16.240 -0.3349  0.1445 -0.2148
  624TMC3    O2 9252   2.904   2.663  16.554  0.4039  0.2700  0.0016
  625MPD2     C 9253   3.642   2.785   0.269 -0.2153  0.4785 -0.3056
  625MPD2    C1 9254   3.691   2.910   0.255  0.5313  0.4203 -0.0237
  625MPD2    C2 9255   3.824   2.931   0.269  0.3407 -0.7930 -0.4159
  625MPD2    C3 9256   3.920   2.831   0.283  0.8361 -0.3306  0.1767
  625MPD2    C4 9257   3.876   2.703   0.287  0.2554 -0.4484 -0.5080
  625MPD2    C5 9258   3.737   2.680   0.287 -0.4432  0.7867  0.1960
  625MPD2     H 9259   3.868   3.030   0.276 -4.0530  1.0487  1.5665
  625MPD2    H1 9260   3.943   2.619   0.301  0.0297 -0.6033 -0.3420
  625MPD2    H2 9261   3.540   2.756   0.245  0.7911 -2.3111 -1.2923
  625MPD2    H3 9262   3.699   2.579   0.301 -2.7597  1.8100  1.3463
  625MPD2     N 9263   4.056   2.869   0.274 -0.2638 -0.0663 -0.1324
  625MPD2    H5 9264   4.069   2.969   0.265 -1.0627  0.0357 -0.1797
  625MPD2    N1 9265   3.610   3.019   0.219 -0.1207 -0.0179  0.2177
  625MPD2    H7 9266   3.664   3.105   0.214 -0.3977  0.1649  0.4434
  626TMC3    C1 9267   3.428   3.153   0.221  0.4011 -0.1581  0.4761
  626TMC3    C2 9268   3.429   3.258   0.127  0.0848  0.9063 -0.2299
  626TMC3    C3 9269   3.418   3.387   0.171  0.1261 -0.1592 -0.3157
  626TMC3    C4 9270   3.436   3.186   0.354 -0.2593  0.3757  0.3202
  626TMC3    C5 9271   3.422   3.324   0.390 -0.0767  0.1913  0.2495
  626TMC3    C6 9272   3.405   3.425   0.303 -0.1807 -0.1531  0.0757
  626TMC3     C 9273   3.477   3.020   0.199  0.5558  0.3472 -0.0491
  626TMC3     O 9274   3.395   2.930   0.212 -0.3817  0.3477 -0.3442
  626TMC3     H 9275   3.442   3.236   0.022 -0.6898 -0.8037  0.0268
  626TMC3    H1 9276   3.443   3.107   0.428 -1.2708  1.0943  1.1743
  626TMC3    H2 9277   3.384   3.526   0.335  1.9027  1.1190 -2.6517
  626TMC3    C7 9278   3.377   3.353   0.523 -0.0736 -0.3955  0.0102
  626TMC3    C8 9279   3.417   3.486   0.071  0.5124 -0.0757  0.5884
  626TMC3    O1 9280   3.365   3.467   0.563 -0.1289  0.0825  0.0418
  626TMC3    O2 9281   3.422   3.441  17.650 -0.4720  0.3617 -0.0437
  627MPD2     C 9282   1.737   4.300  14.757  0.5020  0.6361  0.4578
  627MPD2    C1 9283   1.855   4.238  14.787  0.2361 -0.6772  0.2525
  627MPD2    C2 9284   1.854   4.102  14.781 -0.1687  0.0195 -0.1850
  627MPD2    C3 9285   1.751   4.029  14.740  0.4966 -0.3921 -0.2516
  627MPD2    C4 9286   1.637   4.097  14.704 -1.1326 -0.1466 -0.0635
  627MPD2    C5 9287   1.626   4.231  14.715 -0.0489 -0.1659  0.0006
  627MPD2     H 9288   1.950   4.052  14.789 -0.0943  0.6146  2.4227
  627MPD2    H1 9289   1.550   4.046  14.664 -1.9611  2.3767 -1.4826
  627MPD2    H2 9290   1.730   4.409  14.758 -2.4325  0.4223  1.1549
  627MPD2    H3 9291   1.535   4.284  14.690  0.2856  0.5004  0.2001
  627MPD2     N 9292   1.776   3.894  14.726 -0.1954  0.3521  0.0815
  627MPD2    H5 9293   1.862   3.863  14.769 -2.3590  0.5522  4.6201
  627MPD2    N1 9294   1.968   4.305  14.847 -0.0548  0.6790  0.3134
  627MPD2    H7 9295   2.048   4.247  14.870 -1.0391 -1.6437 -2.1840
  628TMC3    C1 9296   2.101   4.464  14.945 -0.0426  0.5331  0.2899
  628TMC3    C2 9297   2.163   4.355  14.993  0.0072  0.0084  0.1702
  628TMC3    C3 9298   2.300   4.352  14.971 -0.3159  0.2033 -0.4789
  628TMC3    C4 9299   2.153   4.573  14.887 -0.0835 -0.3052  0.0314
  628TMC3    C5 9300   2.284   4.564  14.858  0.1594 -0.2882 -0.0518
  628TMC3    C6 9301   2.364   4.459  14.911 -0.3115 -0.0897 -0.2020
  628TMC3     C 9302   1.968   4.434  14.899 -0.1230 -0.4291  0.3281
  628TMC3     O 9303   1.892   4.529  14.878 -0.2087  0.0540 -0.4015
  628TMC3     H 9304   2.107   4.285  15.055 -0.0556  1.2608  1.5186
  628TMC3    H1 9305   2.083   4.644  14.844 -0.5594 -0.2496  0.9081
  628TMC3    H2 9306   2.466   4.455  14.874 -0.6500 -0.7711 -1.0686
  628TMC3    C7 9307   2.334   4.650  14.758  0.4772  0.5837 -0.0090
  628TMC3    C8 9308   2.358   4.214  14.984  0.3003 -0.2573  0.2627
  628TMC3    O1 9309   2.456   4.674  14.766 -0.7929  0.9185 -0.0703
  628TMC3    O2 9310   2.284   4.124  14.946 -0.4022  0.3532 -0.1765
  629MPD2     C 9311   0.161   2.256  15.832  0.8349 -0.2781  0.3395
  629MPD2    C1 9312   0.132   2.367  15.909 -0.8552  1.4702  0.3838
  629MPD2    C2 9313   0.008   2.374  15.974 -0.3793  0.1824 -0.6280
  629MPD2    C3 9314   4.634   2.272  15.960 -0.2417  0.3044  0.6050
  629MPD2    C4 9315   4.676   2.153  15.897  0.2485 -0.1521 -0.5657
  629MPD2    C5 9316   0.076   2.155  15.829 -0.4316  0.3164 -0.3110
  629MPD2     H 9317   4.699   2.458  16.035 -1.7119 -1.5521  1.0783
  629MPD2    H1 9318   4.617   2.063  15.887  0.7137 -0.3529 -1.5487
  629MPD2    H2 9319   0.260   2.246  15.788 -0.0522  0.1589 -1.7556
  629MPD2    H3 9320   0.114   2.070  15.773 -0.7009  0.3230 -0.5009
  629MPD2     N 9321   4.498   2.306  15.997  0.2196  0.0802 -0.7852
  629MPD2    H5 9322   4.477   2.405  16.012 -2.8607 -0.4735 -1.3329
  629MPD2    N1 9323   0.222   2.473  15.910 -0.3838 -0.2355 -0.5460
  629MPD2    H7 9324   0.288   2.474  15.833  0.3735 -2.7079  0.0781
  630TMC3    C1 9325   0.320   2.668  15.993  0.3485  0.4428 -0.5649
  630TMC3    C2 9326   0.371   2.699  15.871  0.4469  0.5599  0.1622
  630TMC3    C3 9327   0.458   2.805  15.868 -1.2341 -0.7643  0.3976
  630TMC3    C4 9328   0.361   2.733  16.105  0.3982  0.8232 -0.1388
  630TMC3    C5 9329   0.448   2.837  16.098 -0.0207  0.3813  0.5643
  630TMC3    C6 9330   0.492   2.875  15.978 -1.0389  0.3607  0.3910
  630TMC3     C 9331   0.230   2.556  16.015  0.0370 -0.7429 -0.1731
  630TMC3     O 9332   0.171   2.555  16.124 -0.2834  0.0753  0.6708
  630TMC3     H 9333   0.354   2.644  15.779 -1.8277 -0.1158  0.9935
  630TMC3    H1 9334   0.302   2.716  16.195 -1.7791  0.6165 -1.5961
  630TMC3    H2 9335   0.546   2.969  15.968 -2.5537  1.3099  1.1577
  630TMC3    C7 9336   0.548   2.828  16.203 -0.3619  0.6375 -0.2981
  630TMC3    C8 9337   0.566   2.801  15.781  0.5477 -0.6926 -0.0467
  630TMC3    O1 9338   0.522   2.749  16.292  0.1239  0.0812  0.2804
  630TMC3    O2 9339   0.556   2.816  15.661  0.1880  0.0351  0.1228
  631MPD2     C 9340   2.890   2.310  15.495  0.3084 -0.3792 -0.3249
  631MPD2    C1 9341   2.975   2.358  15.407 -0.3888 -0.4047  0.0903
  631MPD2    C2 9342   3.082   2.272  15.368  0.2421 -0.2500  0.6288
  631MPD2    C3 9343   3.098   2.143  15.412  0.3045  0.2352 -0.0022
  631MPD2    C4 9344   2.999   2.095  15.496 -0.0349 -0.7794  0.1275
  631MPD2    C5 9345   2.901   2.181  15.540  0.4935  0.6321 -0.1459
  631MPD2     H 9346   3.154   2.304  15.294 -0.1571  2.0669  1.2701
  631MPD2    H1 9347   2.999   1.993  15.533  1.8561 -0.4391  1.0401
  631MPD2    H2 9348   2.819   2.373  15.548  1.8471  1.9870 -1.0560
  631MPD2    H3 9349   2.838   2.147  15.621 -1.2754  0.2093 -1.6856
  631MPD2     N 9350   3.211   2.079  15.356 -0.3386  0.4482 -0.4680
  631MPD2    H5 9351   3.263   2.135  15.290  1.5946 -2.4039 -1.3842
  631MPD2    N1 9352   2.964   2.489  15.364 -0.5094  0.2535 -0.2615
  631MPD2    H7 9353   2.893   2.548  15.407  2.2134  2.7394  0.8030
  632TMC3    C1 9354   3.030   2.693  15.273 -0.3913  0.4378 -0.5180
  632TMC3    C2 9355   3.010   2.752  15.397  0.6621  0.4335 -0.2735
  632TMC3    C3 9356   3.078   2.869  15.420 -0.8141 -0.4934  0.0184
  632TMC3    C4 9357   3.098   2.751  15.176 -0.2946  0.4336 -0.0460
  632TMC3    C5 9358   3.143   2.878  15.195  0.1109 -0.3891  0.8553
  632TMC3    C6 9359   3.131   2.940  15.318 -0.0539  0.3200 -0.1595
  632TMC3     C 9360   3.029   2.549  15.262 -0.0286  0.8383  0.3001
  632TMC3     O 9361   3.093   2.496  15.167 -0.0618  0.8920  0.2430
  632TMC3     H 9362   2.955   2.696  15.472  0.2342  1.9906  0.5912
  632TMC3    H1 9363   3.110   2.702  15.079  1.6224  1.3455 -0.2693
  632TMC3    H2 9364   3.167   3.041  15.328 -1.0380  0.6627 -0.0571
  632TMC3    C7 9365   3.237   2.933  15.097 -0.5679 -0.7928  0.4579
  632TMC3    C8 9366   3.068   2.935  15.549 -0.2451  0.0507  0.7860
  632TMC3    O1 9367   3.301   3.026  15.146  0.2131  0.4792 -0.3045
  632TMC3    O2 9368   2.984   2.885  15.621 -0.2699  0.3980  0.1805
  633MPD2     C 9369   2.874   0.321  17.442  0.7997  0.3261  0.4417
  633MPD2    C1 9370   2.879   0.271  17.315  0.6736 -0.5754 -0.7053
  633MPD2    C2 9371   2.933   0.141  17.294 -0.5654 -0.2626  0.1294
  633MPD2    C3 9372   2.994   0.078  17.399  0.7731  0.4193  0.1550
  633MPD2    C4 9373   2.990   0.127  17.526 -0.6270  0.0327  0.0133
  633MPD2    C5 9374   2.932   0.250  17.541  0.7487 -0.5005  0.6075
  633MPD2     H 9375   2.928   0.097  17.195 -2.5086  0.1014  0.0754
  633MPD2    H1 9376   3.024   0.062  17.606 -1.2976  0.7248  0.8576
  633MPD2    H2 9377   2.833   0.416  17.473 -1.2404  0.1039 -1.6212
  633MPD2    H3 9378   2.917   0.289  17.641 -0.1642  1.4500 -0.2721
  633MPD2     N 9379   3.071   4.680  17.378 -0.2019  0.1856  0.3798
  633MPD2    H5 9380   3.093   4.634  17.466  1.7380 -0.1841 -0.3015
  633MPD2    N1 9381   2.824   0.335  17.197 -0.3976  0.5430 -0.0713
  633MPD2    H7 9382   2.854   0.295  17.108 -1.4801 -0.6672  0.1025
  634TMC3    C1 9383   2.738   0.503  17.066 -0.0844 -0.1599 -0.5876
  634TMC3    C2 9384   2.768   0.430  16.951 -0.1694 -0.8825 -0.1531
  634TMC3    C3 9385   2.770   0.490  16.828  0.5516 -0.5049  0.2400
  634TMC3    C4 9386   2.715   0.635  17.054  0.4042  0.3118 -0.2195
  634TMC3    C5 9387   2.727   0.693  16.932 -1.0787  0.1071 -0.6932
  634TMC3    C6 9388   2.736   0.620  16.818 -0.2640 -0.2991 -0.1092
  634TMC3     C 9389   2.752   0.446  17.197  0.0542  0.3346 -0.2524
  634TMC3     O 9390   2.708   0.515  17.288  0.6447 -0.2138 -0.4072
  634TMC3     H 9391   2.803   0.328  16.961 -0.5661 -0.9899  0.1863
  634TMC3    H1 9392   2.695   0.686  17.147  2.8898  2.2397 -0.7493
  634TMC3    H2 9393   2.733   0.681  16.729  3.8985  1.2290  0.8097
  634TMC3    C7 9394   2.692   0.833  16.927  0.4101 -0.7117  0.5196
  634TMC3    C8 9395   2.828   0.416  16.716 -0.2002 -0.1295 -0.4816
  634TMC3    O1 9396   2.633   0.864  16.824 -0.3583  0.1366  0.5943
  634TMC3    O2 9397   2.821   0.293  16.733 -0.3716 -0.2093 -0.0725
  635TMC3    C1 9398   3.444   1.410  17.189  0.4043 -0.0714 -0.4483
  635TMC3    C2 9399   3.401   1.300  17.263 -0.6262  0.8026 -0.1258
  635TMC3    C3 9400   3.415   1.174  17.207  0.1108  0.4638 -0.1508
  635TMC3    C4 9401   3.531   1.396  17.082 -0.1829  0.1158 -0.4146
  635TMC3    C5 9402   3.544   1.269  17.037 -0.2704 -0.4072 -0.7072
  635TMC3    C6 9403   3.474   1.163  17.084  1.0546 -0.2016 -0.3948
  635TMC3     C 9404   3.414   1.542  17.249 -1.0197  0.1095 -0.2099
  635TMC3     O 9405   3.316   1.546  17.319  0.3086  0.4669 -0.7261
  635TMC3     H 9406   3.357   1.311  17.362 -1.7751 -0.1523 -0.5425
  635TMC3    H1 9407   3.567   1.485  17.033 -2.7205  0.4685 -1.6505
  635TMC3    H2 9408   3.506   1.068  17.044  2.2263  0.7294 -1.6605
  635TMC3    C7 9409   3.626   1.262  16.907 -0.4007 -0.3887 -0.4894
  635TMC3    C8 9410   3.379   1.046  17.269  0.4469  0.1504  0.2692
  635TMC3    O1 9411   3.698   1.359  16.873  0.1791  0.4747 -0.8762
  635TMC3    O2 9412   3.383   0.946  17.197 -0.1850  0.2051 -0.4458
  636MPD2     C 9413   4.257   0.734  16.037 -0.6720 -0.6787  0.1688
  636MPD2    C1 9414   4.361   0.768  16.113  0.1943  0.2527 -0.3224
  636MPD2    C2 9415   4.446   0.678  16.172  0.2592 -1.2740  0.7124
  636MPD2    C3 9416   4.434   0.546  16.132  0.3148 -0.6973  0.0064
  636MPD2    C4 9417   4.333   0.511  16.046  0.7053 -0.2137  0.2599
  636MPD2    C5 9418   4.245   0.607  16.000 -0.5569  0.6916  0.0699
  636MPD2     H 9419   4.520   0.706  16.246  0.9983 -1.1899 -0.0645
  636MPD2    H1 9420   4.316   0.412  16.004 -1.5766 -0.5687  2.0078
  636MPD2    H2 9421   4.176   0.794  15.998 -2.4789 -3.7496 -0.8536
  636MPD2    H3 9422   4.173   0.574  15.925  0.8541 -2.3776  0.0669
  636MPD2     N 9423   4.515   0.451  16.197  0.4784 -0.3347  0.1703
  636MPD2    H5 9424   4.573   0.490  16.270 -1.2814  0.8531  0.9444
  636MPD2    N1 9425   4.384   0.903  16.149  0.0520 -0.2080 -0.2014
  636MPD2    H7 9426   4.464   0.918  16.209  0.1549  0.8892 -0.6161
  637TMC3    C1 9427   4.618   0.246  16.233  0.2455 -0.4990  0.4637
  637TMC3    C2 9428   4.679   0.291  16.355 -0.7916 -0.5877 -0.6930
  637TMC3    C3 9429   0.048   0.213  16.419 -0.9515  0.7697 -0.1098
  637TMC3    C4 9430   4.679   0.134  16.165  0.7109  0.1629 -0.0474
  637TMC3    C5 9431   0.059   0.072  16.228 -0.0832 -0.2238 -0.0565
  637TMC3    C6 9432   0.099   0.104  16.352  0.1425 -0.0667 -0.0997
  637TMC3     C 9433   4.523   0.321  16.155 -0.5142  0.1573 -0.7932
  637TMC3     O 9434   4.449   0.249  16.086 -0.2038 -0.9774 -0.6547
  637TMC3     H 9435   4.623   0.357  16.421  0.2998 -0.3108 -0.0502
  637TMC3    H1 9436   4.653   0.111  16.063  0.1705  0.6592 -0.0203
  637TMC3    H2 9437   0.179   0.047  16.398 -1.1216 -1.5179  0.2977
  637TMC3    C7 9438   0.110   4.683  16.144  0.2447  1.1959  0.1464
  637TMC3    C8 9439   0.138   0.287  16.510 -0.3761  0.9019 -0.6793
  637TMC3    O1 9440   0.031   4.632  16.061  0.9843  0.7445 -0.2671
  637TMC3    O2 9441   0.130   0.407  16.491 -0.1722  0.3236 -0.1007
  638MPD2     C 9442   3.648   4.341  14.554  0.3957 -0.0913 -0.3465
  638MPD2    C1 9443   3.682   4.213  14.515 -0.0359  0.1703  0.4700
  638MPD2    C2 9444   3.650   4.113  14.599  0.3754 -0.1222 -0.1342
  638MPD2    C3 9445   3.589   4.133  14.719 -0.0355  0.0083  0.1364
  638MPD2    C4 9446   3.569   4.263  14.767 -0.6393 -0.6031  0.6654
  638MPD2    C5 9447   3.584   4.364  14.674 -0.0394  0.8809 -0.1664
  638MPD2     H 9448   3.660   4.008  14.576  0.6910 -0.4501  1.4921
  638MPD2    H1 9449   3.538   4.294  14.866 -1.6335  0.6682 -0.0306
  638MPD2    H2 9450   3.653   4.421  14.481 -2.0203 -2.0735 -2.7069
  638MPD2    H3 9451   3.544   4.459  14.706 -0.0377  0.8370 -0.0334
  638MPD2     N 9452   3.565   4.019  14.796  0.0336 -0.2718  0.0762
  638MPD2    H5 9453   3.596   3.931  14.757  0.8914  0.0867 -0.0463
  638MPD2    N1 9454   3.730   4.189  14.388 -0.5696  0.2833  0.2820
  638MPD2    H7 9455   3.746   4.274  14.336 -0.2115  0.5933  0.8952
  639TMC3    C1 9456   3.555   3.865  14.964 -0.1727  1.4043  0.6298
  639TMC3    C2 9457   3.515   3.769  14.873 -0.8122  0.4336  0.3152
  639TMC3    C3 9458   3.568   3.645  14.883 -0.2870 -0.7562  0.6212
  639TMC3    C4 9459   3.647   3.832  15.063  0.1998  0.5715 -0.1770
  639TMC3    C5 9460   3.696   3.706  15.061 -0.4677  0.0702 -0.2795
  639TMC3    C6 9461   3.672   3.614  14.965  0.3206  0.1710  0.2871
  639TMC3     C 9462   3.550   4.005  14.932 -0.1533 -0.2973  0.7339
  639TMC3     O 9463   3.551   4.095  15.015  0.5919  0.2747  0.1835
  639TMC3     H 9464   3.433   3.781  14.802  0.3788  0.6214 -1.0398
  639TMC3    H1 9465   3.666   3.905  15.140 -2.1211  1.1310 -0.1252
  639TMC3    H2 9466   3.692   3.509  14.984 -1.4919 -0.1852  0.2629
  639TMC3    C7 9467   3.812   3.685  15.146 -0.2128  0.0946 -0.2312
  639TMC3    C8 9468   3.542   3.545  14.787  0.3411  0.0717  0.0603
  639TMC3    O1 9469   3.829   3.746  15.253 -0.0118  0.0784 -0.1003
  639TMC3    O2 9470   3.642   3.490  14.740 -0.1259 -0.9673  0.5262
  640MPD2     C 9471   4.388   2.356  10.145 -0.2398  0.0115 -0.0928
  640MPD2    C1 9472   4.383   2.445  10.045 -0.3851 -0.2965  0.6665
  640MPD2    C2 9473   4.297   2.546  10.059 -0.7533 -0.2781 -0.0337
  640MPD2    C3 9474   4.209   2.553  10.166  0.5388 -0.1488 -0.0640
  640MPD2    C4 9475   4.220   2.456  10.264  0.0906  0.4100 -0.1245
  640MPD2    C5 9476   4.315   2.367  10.256 -0.4742 -0.4957  0.0805
  640MPD2     H 9477   4.301   2.625   9.984  0.6803  0.9642  1.3513
  640MPD2    H1 9478   4.148   2.453  10.345  0.2158  2.7252  0.0716
  640MPD2    H2 9479   4.457   2.272  10.151 -1.3713 -0.9600 -0.6770
  640MPD2    H3 9480   4.340   2.299  10.337 -1.2762 -0.2737  0.5114
  640MPD2     N 9481   4.106   2.647  10.191 -0.2627  0.1850  0.4044
  640MPD2    H5 9482   4.046   2.637  10.271 -0.5924  1.6350  0.3458
  640MPD2    N1 9483   4.450   2.420   9.925 -0.0794  0.1864  0.0550
  640MPD2    H7 9484   4.508   2.336   9.920 -1.3173 -0.7615  1.6022
  641TMC3    C1 9485   4.596   2.514   9.750  0.4089  0.0313  0.0236
  641TMC3    C2 9486   4.701   2.426   9.778 -0.2592  0.3326  0.4542
  641TMC3    C3 9487   0.080   2.421   9.696 -0.3869  0.2316 -0.5970
  641TMC3    C4 9488   4.603   2.605   9.653  0.0983  0.2666  0.3571
  641TMC3    C5 9489   4.714   2.606   9.573 -0.0136 -1.0777  0.2588
  641TMC3    C6 9490   0.088   2.510   9.591  0.4920 -0.6133 -0.5399
  641TMC3     C 9491   4.467   2.514   9.827  0.4315  0.0656  0.6409
  641TMC3     O 9492   4.401   2.612   9.808 -0.1974  0.0463 -0.3377
  641TMC3     H 9493   4.698   2.370   9.871 -0.5069 -0.4814 -0.0360
  641TMC3    H1 9494   4.524   2.677   9.632  0.6991  0.4951 -1.0960
  641TMC3    H2 9495   0.177   2.496   9.531  0.5412 -0.9239 -0.3977
  641TMC3    C7 9496   0.004   2.715   9.490  0.4153  0.4301  0.2204
  641TMC3    C8 9497   0.187   2.325   9.712  0.0935  0.2207 -0.7488
  641TMC3    O1 9498   4.643   2.802   9.497 -0.4310  0.8390 -0.0971
  641TMC3    O2 9499   0.268   2.320   9.619  0.3148 -0.1743  0.3464
  642TMC3    C1 9500   0.864   4.212  11.927  0.3736  0.2075  0.2584
  642TMC3    C2 9501   0.989   4.163  11.898  0.0352  0.6237 -0.6077
  642TMC3    C3 9502   1.009   4.068  11.803  0.1277  0.2356 -0.1463
  642TMC3    C4 9503   0.752   4.158  11.871  0.0149 -0.1725  0.2501
  642TMC3    C5 9504   0.773   4.049  11.789 -0.1235 -0.8822  0.2097
  642TMC3    C6 9505   0.891   4.011  11.747 -0.2713  0.6212 -0.6472
  642TMC3     C 9506   0.860   4.341  11.992  0.2463  0.6362  0.3777
  642TMC3     O 9507   0.952   4.425  11.984 -0.1519  0.3157 -0.4294
  642TMC3     H 9508   1.074   4.210  11.947 -0.0339  2.4146 -2.1913
  642TMC3    H1 9509   0.654   4.202  11.884 -1.1745 -2.8102  0.1588
  642TMC3    H2 9510   0.908   3.930  11.677 -0.1291 -0.0295  0.1426
  642TMC3    C7 9511   0.677   3.945  11.776 -0.1076  0.0769  0.2945
  642TMC3    C8 9512   1.138   4.039  11.756 -0.3174 -0.8997  0.3544
  642TMC3    O1 9513   0.687   3.876  11.675  0.0690  0.5614  0.2523
  642TMC3    O2 9514   1.147   3.965  11.657  0.2688  0.0200  0.0110
  643TMC3    C1 9515   0.131   3.223   0.180 -0.1612 -0.1197 -0.1701
  643TMC3    C2 9516   0.005   3.246   0.134  0.1286  0.0788 -0.0417
  643TMC3    C3 9517   4.676   3.184   0.029 -0.1825  0.0447 -0.3773
  643TMC3    C4 9518   0.211   3.127   0.120 -0.0312 -0.1322  0.6879
  643TMC3    C5 9519   0.160   3.072   0.006  0.4020 -0.0220 -0.3957
  643TMC3    C6 9520   0.035   3.103  17.656 -0.0196 -0.1318 -0.3003
  643TMC3     C 9521   0.201   3.344   0.217  1.5886 -0.1180 -0.6132
  643TMC3     O 9522   0.135   3.446   0.213 -0.3200 -0.6004  0.2743
  643TMC3     H 9523   4.668   3.310   0.197 -0.5900 -1.9397  1.3295
  643TMC3    H1 9524   0.316   3.111   0.141  0.0717 -0.6546 -0.2278
  643TMC3    H2 9525   0.001   3.080  17.556  3.5393  0.3553 -1.6285
  643TMC3    C7 9526   0.258   3.090  17.595  0.4444  0.3162 -0.4911
  643TMC3    C8 9527   4.602   3.274  17.635  0.3540 -0.2159  0.4220
  643TMC3    O1 9528   0.325   3.191  17.605 -0.2350 -0.8093  0.0895
  643TMC3    O2 9529   4.528   3.238  17.545 -0.1789  0.4125  0.0828
  644MPD2     C 9530   4.453   3.105   9.658  0.3630  0.0948  0.0018
  644MPD2    C1 9531   4.539   3.181   9.583  0.1577 -0.0650 -0.1381
  644MPD2    C2 9532   4.505   3.311   9.532 -0.2588 -0.4253 -1.2595
  644MPD2    C3 9533   4.385   3.367   9.584  0.1059 -0.4946 -0.4946
  644MPD2    C4 9534   4.302   3.286   9.656  0.7661 -0.4682  0.4241
  644MPD2    C5 9535   4.331   3.158   9.693 -1.1997  0.0712  0.7723
  644MPD2     H 9536   4.572   3.367   9.468 -0.2305  2.3679  1.2272
  644MPD2    H1 9537   4.214   3.331   9.699  0.0981  1.2405 -2.7448
  644MPD2    H2 9538   4.477   2.999   9.668  1.4547  0.4859  1.3877
  644MPD2    H3 9539   4.265   3.101   9.756 -1.5935 -1.7572 -1.2867
  644MPD2     N 9540   4.360   3.504   9.557  0.1873 -0.3316  0.1437
  644MPD2    H5 9541   4.271   3.547   9.580  0.2184 -0.6608  0.8861
  644MPD2    N1 9542   4.663   3.121   9.557  0.4044  0.2965 -0.1913
  644MPD2    H7 9543   4.677   3.036   9.611  5.1016 -0.3206 -2.4303
  645TMC3    C1 9544   4.374   3.720   9.465 -0.9103  0.7497  0.5925
  645TMC3    C2 9545   4.454   3.818   9.410 -0.8726  0.1034  0.3302
  645TMC3    C3 9546   4.400   3.928   9.344  0.6424 -0.2686 -0.2446
  645TMC3    C4 9547   4.241   3.720   9.444  0.3880  0.0454  0.0118
  645TMC3    C5 9548   4.184   3.828   9.374 -0.2767 -0.2285  0.3431
  645TMC3    C6 9549   4.262   3.931   9.325 -0.2244  0.3099 -0.1717
  645TMC3     C 9550   4.439   3.598   9.498 -0.7772 -0.0992 -0.3837
  645TMC3     O 9551   4.560   3.605   9.505  0.2662  0.1178  0.0557
  645TMC3     H 9552   4.555   3.834   9.448 -0.4006 -1.6334 -0.2166
  645TMC3    H1 9553   4.182   3.643   9.491 -1.2120  0.1905 -1.7849
  645TMC3    H2 9554   4.211   4.018   9.284  2.3154  1.3904 -1.0707
  645TMC3    C7 9555   4.038   3.858   9.386  0.4073  0.2087 -0.5783
  645TMC3    C8 9556   4.474   4.046   9.297  0.5339 -0.3255 -0.2310
  645TMC3    O1 9557   4.008   3.977   9.373  0.0001 -0.2771  0.3713
  645TMC3    O2 9558   4.595   4.053   9.311  0.2296 -0.1261  0.3249
  646MPD2     C 9559   4.146   2.568  14.476 -0.5458  0.0114  0.0376
  646MPD2    C1 9560   4.050   2.615  14.564  0.1697 -0.0486 -0.3189
  646MPD2    C2 9561   3.965   2.712  14.511  0.5265  0.1942  0.1727
  646MPD2    C3 9562   3.972   2.746  14.375  0.4284 -0.0618 -0.8057
  646MPD2    C4 9563   4.059   2.692  14.289  0.6231  0.4509  0.7571
  646MPD2    C5 9564   4.151   2.610  14.346  0.6627 -0.0692 -0.2022
  646MPD2     H 9565   3.894   2.768  14.571  0.1980  3.3576 -3.1486
  646MPD2    H1 9566   4.079   2.714  14.185 -1.8215  0.2444  0.2497
  646MPD2    H2 9567   4.213   2.485  14.494 -0.4623  0.3983  1.4616
  646MPD2    H3 9568   4.229   2.566  14.285  2.2299 -0.7143  2.2690
  646MPD2     N 9569   3.853   2.819  14.340 -0.5294  0.5039  0.3477
  646MPD2    H5 9570   3.786   2.846  14.411 -2.2612  1.2198 -1.5407
  646MPD2    N1 9571   4.060   2.574  14.700  0.3967 -0.3253 -0.7686
  646MPD2    H7 9572   4.135   2.514  14.732  0.2862 -0.4260 -0.6946
  647TMC3    C1 9573   4.038   2.597  14.931 -0.0991 -0.0164  0.6455
  647TMC3    C2 9574   4.021   2.701  15.018  0.7442 -0.6931 -0.3857
  647TMC3    C3 9575   4.113   2.717  15.113 -0.0724  0.3730 -0.1751
  647TMC3    C4 9576   4.147   2.514  14.931 -0.1859 -0.2985  0.0997
  647TMC3    C5 9577   4.246   2.540  15.022 -0.7380 -0.3024 -0.5721
  647TMC3    C6 9578   4.225   2.639  15.113 -0.2678 -0.6033  0.0760
  647TMC3     C 9579   3.982   2.620  14.801  0.0168 -0.2526  0.5546
  647TMC3     O 9580   3.885   2.698  14.799 -0.0507  0.2192 -0.3001
  647TMC3     H 9581   3.931   2.759  15.036  2.8326  2.9197 -1.6406
  647TMC3    H1 9582   4.141   2.421  14.876  0.7329  0.0249 -0.5594
  647TMC3    H2 9583   4.292   2.642  15.199 -0.5545 -1.4628  0.3228
  647TMC3    C7 9584   4.327   2.424  15.068 -1.8026  0.1438  0.0574
  647TMC3    C8 9585   4.050   2.710  15.243 -1.4221  0.4345  0.6404
  647TMC3    O1 9586   4.442   2.443  15.098  0.0590  0.3941  0.7408
  647TMC3    O2 9587   4.118   2.753  15.338 -0.1380  0.2519  0.2416
  648TMC3    C1 9588   3.212   0.718  15.946  0.9573  0.6155  0.5045
  648TMC3    C2 9589   3.216   0.583  15.917  0.1778 -0.5323 -0.1832
  648TMC3    C3 9590   3.114   0.529  15.838  0.5400 -0.1283 -0.1734
  648TMC3    C4 9591   3.118   0.801  15.890 -0.2828 -0.5661  0.1626
  648TMC3    C5 9592   3.009   0.735  15.837 -0.0418  1.0525 -0.9030
  648TMC3    C6 9593   3.006   0.603  15.796  0.2589  0.6198 -0.1643
  648TMC3     C 9594   3.216   0.763  16.087 -0.0474 -0.0131 -0.6232
  648TMC3     O 9595   3.175   0.874  16.113  0.4796 -0.2505  0.6999
  648TMC3     H 9596   3.293   0.521  15.960  2.4063  1.4764 -1.2813
  648TMC3    H1 9597   3.108   0.907  15.912 -2.0527 -0.5269 -0.8449
  648TMC3    H2 9598   2.918   0.562  15.747  0.1490  2.4619 -1.4966
  648TMC3    C7 9599   2.879   0.803  15.841 -0.4512  0.2597  0.2086
  648TMC3    C8 9600   3.118   0.387  15.804 -0.5419 -0.2130  0.0891
  648TMC3    O1 9601   2.787   0.760  15.771 -0.1635 -0.3600  0.1757
  648TMC3    O2 9602   3.020   0.341  15.743  0.5457 -0.5077  0.0816
  649TMC3    C1 9603   1.725   1.378  13.106  0.2725  0.6941 -0.2098
  649TMC3    C2 9604   1.823   1.458  13.053 -0.9895  0.0482  0.2269
  649TMC3    C3 9605   1.951   1.439  13.101  0.7506  0.3255 -0.1778
  649TMC3    C4 9606   1.735   1.291  13.211 -0.1261  0.1457  0.2695
  649TMC3    C5 9607   1.866   1.277  13.261 -0.6962 -0.2201 -0.5709
  649TMC3    C6 9608   1.972   1.354  13.205  0.2834  0.0986 -0.1589
  649TMC3     C 9609   1.592   1.428  13.061  0.1055  0.2753 -0.4497
  649TMC3     O 9610   1.581   1.551  13.068 -0.0810  0.1210 -0.1171
  649TMC3     H 9611   1.790   1.525  12.974  2.7211  2.0784  0.3984
  649TMC3    H1 9612   1.653   1.227  13.240 -0.1612  0.7858  1.5646
  649TMC3    H2 9613   2.069   1.343  13.253 -0.0633  0.3497  0.6056
  649TMC3    C7 9614   1.873   1.269  13.400 -0.8743 -0.6934 -0.1937
  649TMC3    C8 9615   2.067   1.516  13.055  0.2995  0.3164  0.1662
  649TMC3    O1 9616   1.948   1.346  13.467 -0.3235  0.0524 -0.7284
  649TMC3    O2 9617   2.168   1.496  13.120 -0.0194 -0.3751 -0.3308
  650TMC3    C1 9618   0.208   3.471  12.299 -0.6154  0.4184  0.1913
  650TMC3    C2 9619   0.158   3.578  12.365  0.0289 -0.6769  0.7205
  650TMC3    C3 9620   0.030   3.614  12.339  0.1717 -0.0508 -0.6119
  650TMC3    C4 9621   0.135   3.382  12.225  0.0101  0.5689 -0.5556
  650TMC3    C5 9622   0.009   3.424  12.197 -0.4572  0.0754 -0.2896
  650TMC3    C6 9623   4.677   3.536  12.257  0.3143 -0.3841 -0.1370
  650TMC3     C 9624   0.321   3.420  12.375 -0.4581 -0.2245 -0.5604
  650TMC3     O 9625   0.397   3.503  12.421 -0.4655  0.5942  0.3282
  650TMC3     H 9626   0.207   3.629  12.447 -2.0827 -0.9596  2.1585
  650TMC3    H1 9627   0.181   3.295  12.180 -0.2908 -0.1060  0.4538
  650TMC3    H2 9628   4.573   3.564  12.241  0.6981  0.0384 -1.9194
  650TMC3    C7 9629   4.649   3.340  12.112 -0.5220 -1.1942  0.1100
  650TMC3    C8 9630   4.708   3.747  12.387 -0.8554 -0.3103 -0.5950
  650TMC3    O1 9631   4.669   3.221  12.116  0.4355 -0.4133  0.4294
  650TMC3    O2 9632   0.078   3.827  12.400 -0.2651  0.3441  0.5761
  651MPD2     C 9633   3.929   4.691  10.703  0.4945  0.6827  0.3416
  651MPD2    C1 9634   3.926   0.094  10.759  0.5312 -0.8106 -0.3422
  651MPD2    C2 9635   4.042   0.173  10.748 -0.3911 -0.8230  0.3084
  651MPD2    C3 9636   4.165   0.117  10.696 -0.3422 -0.2355 -0.0842
  651MPD2    C4 9637   4.160   4.715  10.630  0.3548 -0.6673 -0.4595
  651MPD2    C5 9638   4.042   4.644  10.642  0.3736  0.1065 -0.2527
  651MPD2     H 9639   4.044   0.270  10.797 -1.2835 -0.6957  0.0890
  651MPD2    H1 9640   4.253   4.667  10.603 -0.5326 -3.3127  1.1661
  651MPD2    H2 9641   3.855   4.614  10.719 -0.0894  1.0594 -0.5608
  651MPD2    H3 9642   4.033   4.540  10.613  0.0118 -0.2741  1.2492
  651MPD2     N 9643   4.281   0.191  10.696 -0.0942 -0.0440  0.0248
  651MPD2    H5 9644   4.267   0.271  10.756 -1.0812  0.1764 -0.5107
  651MPD2    N1 9645   3.815   0.138  10.833  0.0298 -0.6930 -0.4369
  651MPD2    H7 9646   3.821   0.231  10.873 -1.7188 -0.3152 -1.0402
  652TMC3    C1 9647   0.002   0.313  10.606  0.4414  0.1685  0.0282
  652TMC3    C2 9648   4.621   0.237  10.571  0.3070  0.4885  0.3888
  652TMC3    C3 9649   4.512   0.238  10.654  0.0524  0.0172  0.3108
  652TMC3    C4 9650   0.010   0.391  10.716 -1.1157 -0.0247  1.0855
  652TMC3    C5 9651   4.628   0.392  10.804  0.7489 -0.4949  0.8591
  652TMC3    C6 9652   4.517   0.309  10.776 -0.6362  0.6501  0.0710
  652TMC3     C 9653   0.136   0.278  10.557  0.1517 -0.2366  0.6005
  652TMC3     O 9654   0.157   0.162  10.519  0.0893 -0.4825  0.0205
  652TMC3     H 9655   4.613   0.185  10.476 -0.1011  1.4386 -0.0939
  652TMC3    H1 9656   0.110   0.427  10.737  0.4655 -3.1130 -1.0602
  652TMC3    H2 9657   4.441   0.301  10.852 -0.8749  0.3387 -0.1976
  652TMC3    C7 9658   4.640   0.470  10.927  0.1153  0.3238 -0.1072
  652TMC3    C8 9659   4.396   0.162  10.622  0.0070 -0.7482 -1.2920
  652TMC3    O1 9660   4.569   0.438  11.024 -0.1594  0.3690  0.3419
  652TMC3    O2 9661   4.400   0.093  10.521  0.0596 -0.1040 -0.6657
  653MPD2     C 9662   2.763   0.326   0.213 -0.3179 -0.2734 -0.0214
  653MPD2    C1 9663   2.723   0.412   0.110  0.2896 -0.1426  0.3656
  653MPD2    C2 9664   2.661   0.363  17.689 -0.8453  0.3042 -0.4254
  653MPD2    C3 9665   2.647   0.233  17.671 -0.0793  0.3675 -0.2238
  653MPD2    C4 9666   2.678   0.143   0.074  0.1780  0.7534  0.6478
  653MPD2    C5 9667   2.739   0.191   0.189  0.5788 -0.1827 -0.6730
  653MPD2     H 9668   2.628   0.431  17.611 -2.3316 -0.8138 -0.7531
  653MPD2    H1 9669   2.679   0.036   0.055  2.7525  0.4745  2.3180
  653MPD2    H2 9670   2.803   0.360   0.308 -1.0113  0.4150  0.0265
  653MPD2    H3 9671   2.765   0.118   0.265  0.3815  1.5262  1.0516
  653MPD2     N 9672   2.590   0.193  17.543  0.1585  0.0248  0.0070
  653MPD2    H5 9673   2.561   0.266  17.480  2.4541  0.8140 -0.1379
  653MPD2    N1 9674   2.750   0.547   0.107  0.7613 -0.2497  0.8164
  653MPD2    H7 9675   2.741   0.594   0.017  0.5535 -0.8952  0.4972
  654TMC3    C1 9676   2.550   0.066  17.351 -0.5401  0.3147  0.3975
  654TMC3    C2 9677   2.446   0.150  17.323  1.0811  0.2354 -0.1703
  654TMC3    C3 9678   2.424   0.170  17.199  0.2492 -0.8177  1.2080
  654TMC3    C4 9679   2.625   0.001  17.260 -0.0513  0.4745 -0.4730
  654TMC3    C5 9680   2.599   0.027  17.130 -0.1098  0.6115  0.2624
  654TMC3    C6 9681   2.508   0.118  17.092 -0.8946  0.0193  0.8616
  654TMC3     C 9682   2.597   0.067  17.488  0.3204 -0.3624  0.3479
  654TMC3     O 9683   2.662   4.697  17.526 -0.2431  0.4984  0.2503
  654TMC3     H 9684   2.388   0.196  17.402  0.0641  2.5582 -2.2521
  654TMC3    H1 9685   2.701   4.657  17.297 -0.8637 -0.4566 -0.5064
  654TMC3    H2 9686   2.497   0.139  16.987  0.4270  2.2981  1.1926
  654TMC3    C7 9687   2.679   4.695  17.028 -0.1507 -0.3350  0.1329
  654TMC3    C8 9688   2.289   0.211  17.158  0.8192 -0.1355  0.1818
  654TMC3    O1 9689   2.699   0.036  16.923 -0.1785 -0.3117  0.4324
  654TMC3    O2 9690   2.235   0.267  17.258  0.1964  0.5021 -0.4416
  655MPD2     C 9691   3.832   0.685  16.023 -0.5872  0.1832  0.2245
  655MPD2    C1 9692   3.763   0.769  15.933 -0.3480  0.1714 -0.5321
  655MPD2    C2 9693   3.774   0.756  15.794  0.4486 -0.8712 -0.3407
  655MPD2    C3 9694   3.850   0.653  15.743  0.6101 -0.3725  0.3882
  655MPD2    C4 9695   3.918   0.565  15.825  0.2310  0.5141  0.3143
  655MPD2    C5 9696   3.910   0.590  15.962  0.2907 -0.2332 -0.4005
  655MPD2     H 9697   3.723   0.835  15.739  1.7291  0.1897  0.0060
  655MPD2    H1 9698   3.989   0.492  15.790  1.4083  2.3659 -1.1881
  655MPD2    H2 9699   3.817   0.687  16.130  0.0232  1.1502  0.2961
  655MPD2    H3 9700   3.974   0.531  16.026 -1.0139 -1.4062 -0.1813
  655MPD2     N 9701   3.857   0.623  15.604 -0.5475 -0.2989  0.0779
  655MPD2    H5 9702   3.926   0.557  15.570 -1.3572 -0.6527 -0.8731
  655MPD2    N1 9703   3.675   0.866  15.979 -0.5146  0.1721 -0.0756
  655MPD2    H7 9704   3.645   0.938  15.914  2.4233  0.4286 -1.1461
  656TMC3    C1 9705   3.509   0.981  16.110 -0.5970  0.5370 -0.2707
  656TMC3    C2 9706   3.465   1.030  16.230  0.1071 -0.5598 -0.3143
  656TMC3    C3 9707   3.370   1.129  16.227  0.0570  0.0258 -0.8762
  656TMC3    C4 9708   3.466   1.033  15.985 -0.8409 -0.2755  0.3865
  656TMC3    C5 9709   3.376   1.132  15.991 -0.4951  1.0786 -0.5658
  656TMC3    C6 9710   3.328   1.185  16.108  0.3370 -0.5472  0.0470
  656TMC3     C 9711   3.616   0.883  16.108  0.1698  0.7301 -0.4759
  656TMC3     O 9712   3.636   0.805  16.203 -0.4825 -0.2332 -0.5654
  656TMC3     H 9713   3.499   0.984  16.322 -0.3645 -0.4944 -0.1071
  656TMC3    H1 9714   3.488   0.990  15.888  1.1412 -0.9376  1.1247
  656TMC3    H2 9715   3.250   1.261  16.105 -0.7076 -1.6682 -1.2648
  656TMC3    C7 9716   3.289   1.124  15.873  0.5410 -0.4323  0.7115
  656TMC3    C8 9717   3.272   1.135  16.335  0.1520 -0.3850  0.8865
  656TMC3    O1 9718   3.312   1.035  15.789  0.1600  0.0058  0.6756
  656TMC3    O2 9719   3.316   1.154  16.446 -0.0952 -0.0284  0.1805
  657TMC3    C1 9720   3.065   0.415  14.648 -0.2930 -0.1283 -0.1934
  657TMC3    C2 9721   3.071   0.398  14.787  0.3150  0.3240  0.0396
  657TMC3    C3 9722   2.966   0.434  14.870 -0.3660 -0.3004  0.3464
  657TMC3    C4 9723   2.962   0.491  14.603  0.2987 -0.1752  0.5176
  657TMC3    C5 9724   2.857   0.530  14.688  0.0601  0.0281 -0.6787
  657TMC3    C6 9725   2.861   0.504  14.822  0.8184  0.0222  0.1606
  657TMC3     C 9726   3.176   0.383  14.552  0.2180 -0.1522  0.0956
  657TMC3     O 9727   3.173   0.438  14.443 -0.0441 -0.2277  0.8149
  657TMC3     H 9728   3.157   0.350  14.832 -0.5780  0.2105  1.6067
  657TMC3    H1 9729   2.966   0.507  14.496 -2.0903 -0.7365  0.3538
  657TMC3    H2 9730   2.789   0.543  14.894  0.2134 -0.9180  0.0680
  657TMC3    C7 9731   2.793   0.662  14.660 -0.4023 -0.0295  0.1875
  657TMC3    C8 9732   2.983   0.417  15.013  0.8028 -0.0975  0.2248
  657TMC3    O1 9733   2.700   0.679  14.737  0.1602 -0.4789 -0.4162
  657TMC3    O2 9734   2.920   0.491  15.092  0.2616  0.0395  0.2150
  658MPD2     C 9735   4.410   0.675  15.286 -0.3011  0.8527 -0.2221
  658MPD2    C1 9736   4.323   0.614  15.197 -0.3192  0.0793  0.0951
  658MPD2    C2 9737   4.371   0.585  15.072  0.8483 -0.7759 -0.3039
  658MPD2    C3 9738   4.491   0.634  15.021  0.2163  0.5545 -0.2504
  658MPD2    C4 9739   4.576   0.696  15.105 -0.3231  0.3080  0.8813
  658MPD2    C5 9740   4.533   0.710  15.236  0.2964  0.3899  0.5362
  658MPD2     H 9741   4.303   0.545  14.998  0.8496  0.1776 -0.8320
  658MPD2    H1 9742   4.676   0.729  15.078 -0.1564 -1.8425 -1.1143
  658MPD2    H2 9743   4.389   0.690  15.391  1.0728 -1.5977  0.4109
  658MPD2    H3 9744   4.593   0.769  15.304  2.3532 -0.2958 -0.6808
  658MPD2     N 9745   4.517   0.612  14.887  0.3777 -0.3383  0.2100
  658MPD2    H5 9746   4.444   0.557  14.843 -0.4799 -0.0321  1.2486
  658MPD2    N1 9747   4.195   0.582  15.240  0.2547 -0.0563 -0.2180
  658MPD2    H7 9748   4.172   0.610  15.335  1.3115 -0.1400  0.0714
  659TMC3    C1 9749   3.968   0.549  15.211 -0.0767 -0.6301 -0.3825
  659TMC3    C2 9750   3.937   0.578  15.347  0.0519 -0.2721 -0.1850
  659TMC3    C3 9751   3.816   0.638  15.371  0.1416  0.0560 -0.0876
  659TMC3    C4 9752   3.886   0.602  15.119 -0.1244 -0.1016 -0.4375
  659TMC3    C5 9753   3.766   0.653  15.144 -1.2861 -0.0628  0.2339
  659TMC3    C6 9754   3.729   0.672  15.273  0.3557  0.5183 -0.5038
  659TMC3     C 9755   4.097   0.523  15.165 -0.2799  0.3301 -0.0144
  659TMC3     O 9756   4.107   0.479  15.048 -0.3482  0.1700  0.0825
  659TMC3     H 9757   4.004   0.555  15.430  0.2997  0.1215 -0.2789
  659TMC3    H1 9758   3.922   0.605  15.017 -1.6276  1.6822 -0.9356
  659TMC3    H2 9759   3.631   0.704  15.304  0.5611 -0.2365  0.9323
  659TMC3    C7 9760   3.677   0.711  15.044 -0.4356 -0.3666 -0.1296
  659TMC3    C8 9761   3.786   0.688  15.502  0.4434  0.6489  0.1010
  659TMC3    O1 9762   3.599   0.795  15.084 -0.4443 -0.4060 -0.0462
  659TMC3    O2 9763   3.711   0.783  15.512 -0.7481  0.0553  0.5027
  660MPD2     C 9764   2.051   4.127  12.135  0.2876 -0.1184  0.1540
  660MPD2    C1 9765   1.916   4.152  12.138  0.1571  0.0271  0.6555
  660MPD2    C2 9766   1.840   4.096  12.245  0.5424 -0.1213  0.2900
  660MPD2    C3 9767   1.894   4.031  12.355  0.3329 -1.0614 -0.7428
  660MPD2    C4 9768   2.027   3.999  12.341  0.6899  0.3841  0.1123
  660MPD2    C5 9769   2.098   4.037  12.227  1.2090  0.5865  1.1136
  660MPD2     H 9770   1.735   4.123  12.244  0.0004 -2.1682  1.5240
  660MPD2    H1 9771   2.073   3.933  12.414  1.1609  1.7649  1.0638
  660MPD2    H2 9772   2.105   4.166  12.050  1.8139  0.6135  1.4470
  660MPD2    H3 9773   2.200   4.000  12.229  0.4165 -1.4347  3.4958
  660MPD2     N 9774   1.829   3.980  12.466  0.3480  0.0343  0.3136
  660MPD2    H5 9775   1.886   3.953  12.545 -0.2914 -1.0822  0.3871
  660MPD2    N1 9776   1.864   4.236  12.037 -0.0565  0.2659  0.0363
  660MPD2    H7 9777   1.925   4.243  11.955  2.3213 -2.0743  1.5837
  661TMC3    C1 9778   1.703   4.360  11.919 -0.0299 -0.5634  0.2102
  661TMC3    C2 9779   1.773   4.343  11.801 -0.2735  0.8216 -0.6206
  661TMC3    C3 9780   1.722   4.394  11.686  1.0172  0.0466 -0.8385
  661TMC3    C4 9781   1.590   4.443  11.917 -0.0432  0.3697 -0.3199
  661TMC3    C5 9782   1.544   4.499  11.802  0.5516  0.3345  0.5528
  661TMC3    C6 9783   1.608   4.472  11.687  0.1627 -0.4976 -0.2533
  661TMC3     C 9784   1.744   4.305  12.042  0.7611 -0.4290 -0.4012
  661TMC3     O 9785   1.671   4.323  12.144  0.1121  0.0738  0.3673
  661TMC3     H 9786   1.872   4.300  11.793  0.5326  2.9059 -1.9831
  661TMC3    H1 9787   1.540   4.462  12.012  2.7843  0.6704  1.1011
  661TMC3    H2 9788   1.563   4.500  11.592  0.7843 -1.4781 -0.8475
  661TMC3    C7 9789   1.397   4.490  11.796  0.0002  0.1534 -0.0803
  661TMC3    C8 9790   1.795   4.367  11.567 -0.2649 -0.2806 -0.1255
  661TMC3    O1 9791   1.343   4.540  11.893  0.2873 -0.2740 -0.2086
  661TMC3    O2 9792   1.843   4.257  11.559  0.4786 -0.1140 -0.0976
  662MPD2     C 9793   2.719   3.948  17.676 -0.0034 -0.1699  0.3144
  662MPD2    C1 9794   2.620   3.896   0.062  0.6616  0.2677  1.3884
  662MPD2    C2 9795   2.503   3.959   0.092 -0.4212 -0.0189  0.3143
  662MPD2    C3 9796   2.473   4.068   0.007 -0.2254 -0.4529 -0.0833
  662MPD2    C4 9797   2.565   4.122  17.615 -0.4756  0.9537  0.9216
  662MPD2    C5 9798   2.690   4.060  17.614 -0.2094  0.1473  0.1182
  662MPD2     H 9799   2.432   3.905   0.154 -0.4002  0.8980  1.1471
  662MPD2    H1 9800   2.532   4.203  17.552  2.3940  1.9907  0.7301
  662MPD2    H2 9801   2.814   3.906  17.645  0.5696  1.5218 -0.2325
  662MPD2    H3 9802   2.771   4.106  17.559 -0.8734 -1.0998 -1.8786
  662MPD2     N 9803   2.341   4.116   0.005 -0.1776 -0.5915  0.0388
  662MPD2    H5 9804   2.308   4.158  17.615  2.1668  2.1920  0.5427
  662MPD2    N1 9805   2.626   3.761   0.115  0.0485  0.6737 -0.3124
  662MPD2    H7 9806   2.548   3.724   0.168  1.3710 -4.4804 -1.9820
  663TMC3    C1 9807   2.715   3.547   0.157 -0.8296 -0.0411 -0.3319
  663TMC3    C2 9808   2.608   3.549   0.242  0.2415  0.0236  0.4347
  663TMC3    C3 9809   2.557   3.426   0.282 -0.3859  0.0308 -0.0648
  663TMC3    C4 9810   2.772   3.437   0.104 -0.8635 -0.6153  0.7759
  663TMC3    C5 9811   2.709   3.316   0.135 -0.3781  0.3640 -0.1782
  663TMC3    C6 9812   2.609   3.314   0.227  0.2660  0.5453 -0.0339
  663TMC3     C 9813   2.732   3.676   0.090 -0.5899 -0.8304 -0.1839
  663TMC3     O 9814   2.838   3.685   0.028  0.0277  0.5224  0.0366
  663TMC3     H 9815   2.599   3.630   0.313  1.5408 -1.5189  2.3595
  663TMC3    H1 9816   2.846   3.444   0.025 -1.3498 -2.3607  0.1448
  663TMC3    H2 9817   2.552   3.223   0.241 -0.1161  0.6305 -1.0435
  663TMC3    C7 9818   2.696   3.231   0.025  0.0931 -1.1371 -0.6649
  663TMC3    C8 9819   2.421   3.457   0.236  0.1563  0.4286 -0.7128
  663TMC3    O1 9820   2.734   3.275  17.614  0.0817 -0.1763 -0.9071
  663TMC3    O2 9821   2.400   3.570   0.183 -0.4056 -0.1648  0.1853
  664MPD2     C 9822   0.655   2.134  16.923 -0.9441  0.2380  0.2075
  664MPD2    C1 9823   0.716   2.215  17.012  0.3167 -0.3968  0.4468
  664MPD2    C2 9824   0.713   2.183  17.144  0.0078  0.4189 -1.1841
  664MPD2    C3 9825   0.656   2.067  17.183  0.1315 -0.3465  0.2628
  664MPD2    C4 9826   0.603   1.975  17.092  0.2119 -0.0232 -0.0087
  664MPD2    C5 9827   0.609   2.008  16.961  0.1661 -1.1281  0.2575
  664MPD2     H 9828   0.754   2.254  17.215 -0.1241 -1.1927  0.5019
  664MPD2    H1 9829   0.562   1.881  17.127 -1.2979  0.4471 -0.5244
  664MPD2    H2 9830   0.635   2.168  16.822  2.4303  1.7065  0.0454
  664MPD2    H3 9831   0.563   1.937  16.894  0.5206 -1.8670  0.7974
  664MPD2     N 9832   0.645   2.056  17.323  0.0752 -0.7267 -0.2656
  664MPD2    H5 9833   0.710   2.118  17.370 -2.6716  0.5945  1.7400
  664MPD2    N1 9834   0.780   2.338  16.979 -0.6054  0.2261 -0.2190
  664MPD2    H7 9835   0.821   2.376  17.064 -0.3626  0.3888 -0.4096
  665TMC3    C1 9836   0.626   1.943  17.540  0.0648  0.0926  0.2184
  665TMC3    C2 9837   0.596   1.820  17.601  0.3999  0.0399 -0.7580
  665TMC3    C3 9838   0.599   1.822   0.044  0.0203  0.2217  0.0234
  665TMC3    C4 9839   0.671   2.050  17.604  0.2308 -0.2265 -0.2875
  665TMC3    C5 9840   0.671   2.052   0.043  0.1109 -0.4197 -0.2939
  665TMC3    C6 9841   0.644   1.936   0.109  0.2887  0.3650 -0.5539
  665TMC3     C 9842   0.609   1.942  17.395 -0.4856 -0.0679 -0.2561
  665TMC3     O 9843   0.546   1.845  17.354 -0.2744 -0.1757 -0.3458
  665TMC3     H 9844   0.549   1.733  17.557  0.1765 -0.9385  1.3688
  665TMC3    H1 9845   0.686   2.140  17.547  0.9947 -1.8845 -2.6849
  665TMC3    H2 9846   0.653   1.936   0.217 -2.6709  0.0137 -0.3251
  665TMC3    C7 9847   0.678   2.180   0.108 -0.0200  0.8121  0.2533
  665TMC3    C8 9848   0.556   1.702   0.110  1.2733 -0.5916 -0.4378
  665TMC3    O1 9849   0.684   2.276   0.030 -0.0645  0.0110 -0.3324
  665TMC3    O2 9850   0.552   1.596   0.048  0.0008 -0.1658  0.2415
  666TMC3    C1 9851   4.366   1.121  10.228 -0.6991 -0.2440  0.6272
  666TMC3    C2 9852   4.498   1.136  10.260 -0.6167  0.6628  0.7347
  666TMC3    C3 9853   4.556   1.261  10.258  0.4879  0.4199  0.0283
  666TMC3    C4 9854   4.292   1.233  10.195 -0.0469  0.3596  0.5438
  666TMC3    C5 9855   4.344   1.356  10.205 -0.4973 -0.5036  0.8041
  666TMC3    C6 9856   4.479   1.378  10.246  0.3654  0.8675 -0.6072
  666TMC3     C 9857   4.312   0.988  10.254  0.1592  0.3058 -0.5828
  666TMC3     O 9858   4.386   0.892  10.260  0.5668 -0.0877 -0.5462
  666TMC3     H 9859   4.558   1.048  10.283 -0.0126  1.0099  0.4685
  666TMC3    H1 9860   4.191   1.229  10.156  0.1194 -0.2659  0.1905
  666TMC3    H2 9861   4.517   1.478  10.264  0.7432  0.8305 -1.1977
  666TMC3    C7 9862   4.259   1.469  10.184  0.0317 -0.0867 -0.1984
  666TMC3    C8 9863   4.690   1.262  10.315 -0.2356  0.3902  0.3355
  666TMC3    O1 9864   4.145   1.460  10.224 -0.8119  0.2235  0.4954
  666TMC3    O2 9865   4.715   1.174  10.388  0.1484  0.0328  0.3139
  667MPD2     C 9866   0.777   2.601  14.706 -0.1480  0.2574  0.2910
  667MPD2    C1 9867   0.808   2.472  14.756 -0.4502  0.0327 -0.3479
  667MPD2    C2 9868   0.732   2.365  14.719  0.0539 -0.8763 -0.0271
  667MPD2    C3 9869   0.623   2.383  14.629 -0.5862 -0.6273  1.3294
  667MPD2    C4 9870   0.586   2.509  14.597 -0.1079  0.2514 -0.4755
  667MPD2    C5 9871   0.663   2.620  14.636 -0.1085 -0.1353 -0.4218
  667MPD2     H 9872   0.757   2.265  14.753  3.0011  0.1193  0.7191
  667MPD2    H1 9873   0.495   2.528  14.540  0.0828 -1.6543 -1.4452
  667MPD2    H2 9874   0.830   2.693  14.728  2.4743 -0.6002 -2.5414
  667MPD2    H3 9875   0.631   2.715  14.595 -0.0808  0.1689  0.2617
  667MPD2     N 9876   0.552   2.270  14.580 -0.2302 -0.1331  0.4524
  667MPD2    H5 9877   0.467   2.288  14.526 -1.5882  0.2892  2.7461
  667MPD2    N1 9878   0.923   2.448  14.835 -0.0163 -0.8383  0.0895
  667MPD2    H7 9879   0.938   2.355  14.871  0.9079 -0.8672 -0.3920
  668TMC3    C1 9880   1.098   2.507  14.987  0.3009 -0.2610 -0.8198
  668TMC3    C2 9881   1.202   2.591  15.019  0.0061 -0.2742  0.6218
  668TMC3    C3 9882   1.270   2.572  15.140 -0.2083  0.7865 -0.3961
  668TMC3    C4 9883   1.063   2.405  15.069  0.9398 -0.4450  0.1110
  668TMC3    C5 9884   1.132   2.397  15.190 -0.0093 -0.4227 -0.8141
  668TMC3    C6 9885   1.225   2.483  15.230  0.6678  0.2155 -0.5568
  668TMC3     C 9886   1.015   2.541  14.871  0.4612 -0.1224  0.1372
  668TMC3     O 9887   1.041   2.648  14.818  0.1003 -0.4369 -0.2134
  668TMC3     H 9888   1.222   2.678  14.957  0.6089 -0.4046  0.6373
  668TMC3    H1 9889   0.981   2.338  15.046  1.2755 -0.0539 -2.3167
  668TMC3    H2 9890   1.269   2.484  15.330 -0.5662  0.9039 -0.0249
  668TMC3    C7 9891   1.067   2.310  15.289  0.8019  0.4121 -0.2779
  668TMC3    C8 9892   1.387   2.657  15.174  0.6196  0.8379 -0.0779
  668TMC3    O1 9893   1.071   2.338  15.409  0.2369 -0.2113 -0.3632
  668TMC3    O2 9894   1.418   2.668  15.292  0.1598 -0.1995  0.4718
  669TMC3    C1 9895   4.100   1.574  14.332 -0.1605  0.1371  0.0456
  669TMC3    C2 9896   3.972   1.604  14.297  0.6049  0.3228 -0.4184
  669TMC3    C3 9897   3.944   1.730  14.244  0.1930  0.0757  0.0935
  669TMC3    C4 9898   4.206   1.661  14.305 -0.5891 -0.3418 -0.4402
  669TMC3    C5 9899   4.178   1.777  14.239 -0.3925 -0.1623 -1.3975
  669TMC3    C6 9900   4.048   1.814  14.212 -0.0653 -0.2639 -0.4273
  669TMC3     C 9901   4.111   1.497  14.462  0.4212  0.0611 -0.4810
  669TMC3     O 9902   4.022   1.518  14.544  0.2795 -0.2514  0.3124
  669TMC3     H 9903   3.891   1.537  14.322  1.2575 -0.7816 -1.2723
  669TMC3    H1 9904   4.296   1.648  14.363 -0.0364  1.1803 -0.9565
  669TMC3    H2 9905   4.035   1.902  14.149  1.2408 -0.4543 -0.9584
  669TMC3    C7 9906   4.288   1.877  14.212 -0.3403 -0.0220 -0.5692
  669TMC3    C8 9907   3.807   1.761  14.217  0.5928 -0.1835  0.3994
  669TMC3    O1 9908   4.250   1.991  14.185 -0.4071  0.0340 -0.6941
  669TMC3    O2 9909   3.713   1.678  14.231 -0.0017 -0.5724 -0.1874
  670MPD2     C 9910   1.860   4.470  13.528 -0.4774  0.2140  0.1898
  670MPD2    C1 9911   1.995   4.492  13.504 -0.1500  0.5035  0.0148
  670MPD2    C2 9912   2.080   4.532  13.602 -0.2165  0.3988  0.4474
  670MPD2    C3 9913   2.037   4.549  13.729 -1.0843  0.0300 -0.1948
  670MPD2    C4 9914   1.895   4.541  13.754  0.0614 -0.3474 -0.1477
  670MPD2    C5 9915   1.810   4.496  13.653 -0.2500  0.0370  0.1039
  670MPD2     H 9916   2.187   4.530  13.590 -0.0819  2.9244  1.3338
  670MPD2    H1 9917   1.839   4.554  13.846 -0.8237 -2.0795 -0.4460
  670MPD2    H2 9918   1.787   4.429  13.460 -0.5669 -1.2330  1.1602
  670MPD2    H3 9919   1.704   4.488  13.674 -0.2634  0.8222  0.3267
  670MPD2     N 9920   2.130   4.584  13.830 -0.5528 -0.0278 -0.1838
  670MPD2    H5 9921   2.227   4.584  13.800 -0.7346  2.9935 -0.7918
  670MPD2    N1 9922   2.049   4.459  13.372  0.0891 -0.5370 -0.3260
  670MPD2    H7 9923   2.145   4.487  13.356  0.5953 -0.9044  2.1321
  671TMC3    C1 9924   2.227   4.617  14.050  0.7616 -0.1291 -0.9309
  671TMC3    C2 9925   2.355   4.601  13.996 -0.0324  0.3766  0.0938
  671TMC3    C3 9926   2.448   4.550  14.081  0.7734 -0.4155 -0.8680
  671TMC3    C4 9927   2.201   4.597  14.183  0.2265 -0.7553  0.8289
  671TMC3    C5 9928   2.307   4.553  14.264 -0.6549 -0.2871 -0.1154
  671TMC3    C6 9929   2.424   4.521  14.208 -0.3963 -0.0579  0.7810
  671TMC3     C 9930   2.112   4.588  13.966  0.0081  0.0502 -0.3762
  671TMC3     O 9931   2.005   4.555  14.022 -0.5656 -0.2581  0.1100
  671TMC3     H 9932   2.366   4.607  13.888 -1.6297 -1.6367 -0.1778
  671TMC3    H1 9933   2.102   4.614  14.222  0.8515  0.4266  1.9260
  671TMC3    H2 9934   2.512   4.511  14.270  0.9624  1.6040 -0.8592
  671TMC3    C7 9935   2.257   4.453  14.348  0.3094 -0.3103  0.4833
  671TMC3    C8 9936   2.551   4.458  14.028 -0.0771  0.4027  0.2775
  671TMC3    O1 9937   2.137   4.427  14.345  0.3769  0.1543 -0.6649
  671TMC3    O2 9938   2.583   4.362  14.098 -0.0829  0.7145  0.3463
  672MPD2     C 9939   2.014   0.244   1.296 -0.8293  0.6807  0.1970
  672MPD2    C1 9940   2.137   0.198   1.239 -0.4227  0.2420 -0.2309
  672MPD2    C2 9941   2.252   0.258   1.288  0.4426  0.4244 -0.8054
  672MPD2    C3 9942   2.247   0.361   1.385 -0.3564 -0.1650 -0.2856
  672MPD2    C4 9943   2.124   0.416   1.422 -0.2828  0.0426 -0.2491
  672MPD2    C5 9944   2.006   0.358   1.379  0.3046 -0.1122 -0.6923
  672MPD2     H 9945   2.350   0.238   1.247  0.7321 -1.6307  0.8527
  672MPD2    H1 9946   2.120   0.495   1.496  1.0797  1.0190 -1.2164
  672MPD2    H2 9947   1.918   0.210   1.258 -0.2118 -0.3801 -0.4144
  672MPD2    H3 9948   1.909   0.396   1.409 -1.0272 -1.4549 -3.2292
  672MPD2     N 9949   2.363   0.420   1.435  0.2892 -0.4765  0.3695
  672MPD2    H5 9950   2.346   0.509   1.480 -0.7463  0.0871 -1.1234
  672MPD2    N1 9951   2.151   0.098   1.143  0.4161 -0.0050 -0.2539
  672MPD2    H7 9952   2.247   0.077   1.116  0.3232 -0.8669  0.0671
  673TMC3    C1 9953   2.091   4.632   1.019 -0.4855  0.3770 -1.1152
  673TMC3    C2 9954   2.087   4.506   1.063 -0.9196  0.0898  0.7095
  673TMC3    C3 9955   2.168   4.413   0.997 -0.2257  0.1017 -0.2592
  673TMC3    C4 9956   2.175   4.677   0.924 -0.1798 -0.0685  0.9145
  673TMC3    C5 9957   2.257   4.589   0.867  0.2070  0.2239  0.5046
  673TMC3    C6 9958   2.256   4.453   0.902 -0.1591 -0.5001 -0.1158
  673TMC3     C 9959   2.052   0.006   1.109  0.2816 -0.2477 -0.4469
  673TMC3     O 9960   1.944   4.717   1.163  0.0488 -0.4875 -0.3272
  673TMC3     H 9961   2.018   4.484   1.144  0.8652 -2.2988  1.5929
  673TMC3    H1 9962   2.165   0.054   0.886  3.2500 -0.0705  0.0411
  673TMC3    H2 9963   2.292   4.377   0.834  0.9137  1.0861 -1.3048
  673TMC3    C7 9964   2.344   4.625   0.749 -0.3996  0.1994 -0.1905
  673TMC3    C8 9965   2.196   4.292   1.070 -0.4899  0.2865 -0.4183
  673TMC3    O1 9966   2.397   4.535   0.689 -0.8898 -0.6697  0.3869
  673TMC3    O2 9967   2.106   4.227   1.126  0.6040 -0.8732 -0.3212
  674MPD2     C 9968   1.801   3.631   1.180  0.1760  0.5520 -0.2587
  674MPD2    C1 9969   1.823   3.614   1.047 -0.6599 -0.1919 -0.6023
  674MPD2    C2 9970   1.739   3.666   0.949 -0.6868 -0.4850 -0.0523
  674MPD2    C3 9971   1.619   3.724   0.994  0.2707  0.2686 -0.4255
  674MPD2    C4 9972   1.594   3.746   1.127 -0.4086 -0.0459 -0.0719
  674MPD2    C5 9973   1.689   3.698   1.215 -0.1285  0.6887 -0.3485
  674MPD2     H 9974   1.754   3.644   0.844  2.2431 -0.8788  0.4530
  674MPD2    H1 9975   1.508   3.801   1.163 -0.7948  0.0559 -1.1522
  674MPD2    H2 9976   1.869   3.591   1.254 -0.2241  0.1905 -0.0887
  674MPD2    H3 9977   1.667   3.702   1.322 -0.9670  0.9408 -0.5317
  674MPD2     N 9978   1.533   3.788   0.896  0.1882  0.0332 -0.1599
  674MPD2    H5 9979   1.562   3.792   0.799 -2.8563  0.8375 -1.0382
  674MPD2    N1 9980   1.952   3.554   1.028  0.1951 -0.2633 -0.2080
  674MPD2    H7 9981   2.002   3.519   1.109 -1.6443  1.9906  1.8859
  675TMC3    C1 9982   2.141   3.476   0.900  0.4107 -0.4995 -0.0387
  675TMC3    C2 9983   2.154   3.369   0.981 -0.1376 -1.0092 -0.9147
  675TMC3    C3 9984   2.248   3.282   0.949  0.7314 -0.1110  0.4351
  675TMC3    C4 9985   2.210   3.495   0.784  0.6526 -0.0811 -0.6278
  675TMC3    C5 9986   2.313   3.409   0.751  1.1969 -0.4518 -0.0941
  675TMC3    C6 9987   2.338   3.302   0.845  0.0001 -0.1832 -0.5559
  675TMC3     C 9988   2.014   3.546   0.907 -0.2755  0.2320  0.3626
  675TMC3     O 9989   1.967   3.583   0.800 -0.5646 -0.2345 -0.0234
  675TMC3     H 9990   2.092   3.353   1.069  2.4499 -1.1041  0.8891
  675TMC3    H1 9991   2.185   3.578   0.720  1.4076 -0.7114 -1.7329
  675TMC3    H2 9992   2.410   3.224   0.821  2.9494  2.2578  0.3125
  675TMC3    C7 9993   2.425   3.470   0.683  0.4133 -0.6456  0.1732
  675TMC3    C8 9994   2.239   3.145   1.012 -0.7965 -0.2722 -0.7185
  675TMC3    O1 9995   2.409   3.565   0.609  0.6038 -0.2361 -0.3429
  675TMC3    O2 9996   2.140   3.117   1.079  0.3788 -0.6029 -0.9920
  676MPD2     C 9997   4.716   2.717  10.851 -0.5563  0.2669 -0.0600
  676MPD2    C1 9998   4.717   2.665  10.975  0.5386 -0.5839 -0.3501
  676MPD2    C2 9999   0.049   2.544  10.999  0.2475 -0.4162  0.1771
  676MPD2    C310000   0.115   2.478  10.898  0.2073  0.8622  0.0346
  676MPD2    C410001   0.129   2.534  10.773 -1.5866  0.0483  0.1636
  676MPD2    C510002   0.069   2.658  10.748 -0.2751 -0.0488 -0.1883
  676MPD2     H10003   0.043   2.507  11.101  1.6502  1.6538  1.0076
  676MPD2    H110004   0.173   2.479  10.690  2.4716 -0.0682  2.3639
  676MPD2    H210005   4.661   2.807  10.824 -0.2225  0.0690 -1.4021
  676MPD2    H310006   0.060   2.695  10.646  1.7938  0.6019 -0.1308
  676MPD2     N10007   0.162   2.344  10.917 -0.5777  0.1777 -0.0958
  676MPD2    H510008   0.196   2.297  10.834  0.5523  4.2254 -1.9189
  676MPD2    N110009   4.653   2.725  11.088  0.1480 -0.1183 -0.3601
  676MPD2    H710010   4.644   2.673  11.175 -1.2001 -1.0661 -1.0599
  677TMC3    C110011   4.534   2.897  11.218 -0.4549 -0.7302 -0.1525
  677TMC3    C210012   4.445   2.813  11.274  0.3571 -0.0562  0.6840
  677TMC3    C310013   4.359   2.860  11.371  0.3390  0.3163  0.5226
  677TMC3    C410014   4.536   3.026  11.271  0.2385  0.4794 -0.2071
  677TMC3    C510015   4.445   3.066  11.363 -0.2602 -0.1010  0.4627
  677TMC3    C610016   4.357   2.989  11.418  0.3702 -0.3831 -0.1423
  677TMC3     C10017   4.613   2.861  11.098  0.4858  0.5042  0.1264
  677TMC3     O10018   4.627   2.949  11.010  0.9267 -0.3652 -0.4249
  677TMC3     H10019   4.429   2.716  11.228 -1.1335  0.8551 -0.7288
  677TMC3    H110020   4.599   3.097  11.218  0.8890  0.3584  0.3975
  677TMC3    H210021   4.290   3.016  11.499 -1.4500 -0.4459 -1.6206
  677TMC3    C710022   4.455   3.194  11.431  0.4749 -0.0644 -0.1622
  677TMC3    C810023   4.298   2.748  11.446  0.6278 -0.7051 -0.0225
  677TMC3    O110024   4.364   3.222  11.505 -0.2511 -0.0530  0.5373
  677TMC3    O210025   4.239   2.673  11.368 -0.2592  0.5326 -0.2722
  678MPD2     C10026   1.021   2.620   1.603  0.0339 -0.0745  0.0502
  678MPD2    C110027   1.103   2.658   1.504  0.1846 -0.0887  0.0984
  678MPD2    C210028   1.055   2.728   1.395 -0.1397 -0.5577  0.9038
  678MPD2    C310029   0.930   2.786   1.397 -1.0135 -0.6180  0.1504
  678MPD2    C410030   0.840   2.743   1.497  0.2658  0.2540  0.1941
  678MPD2    C510031   0.889   2.655   1.593 -0.2939  0.8023 -0.2615
  678MPD2     H10032   1.125   2.762   1.320 -2.1133  5.5743  1.8362
  678MPD2    H110033   0.733   2.758   1.490  0.0850 -0.8587  0.5470
  678MPD2    H210034   1.046   2.546   1.679  1.6141  0.8927  0.4758
  678MPD2    H310035   0.824   2.597   1.657 -0.7783  1.8782  0.2176
  678MPD2     N10036   0.890   2.863   1.285  0.6938  0.4159  0.5113
  678MPD2    H510037   0.949   2.864   1.203  0.3617 -0.9497  0.2535
  678MPD2    N110038   1.238   2.616   1.500  0.4867  0.0297 -0.2858
  678MPD2    H710039   1.293   2.636   1.418  0.1937 -2.0033 -0.9710
  679TMC3    C110040   1.628   2.378   1.599  0.6792 -0.2185 -0.6941
  679TMC3    C210041   1.509   2.431   1.644  0.3878  0.3118 -0.4211
  679TMC3    C310042   1.441   2.526   1.571 -0.1846 -0.4751 -0.0589
  679TMC3    C410043   1.674   2.421   1.474 -0.1799  0.1626 -0.1183
  679TMC3    C510044   1.613   2.530   1.414  0.4528 -0.2560  0.3187
  679TMC3    C610045   1.504   2.587   1.470 -0.2196  0.1866 -0.0954
  679TMC3     C10046   1.655   2.242   1.652  0.2240  0.0983 -0.0579
  679TMC3     O10047   1.575   2.198   1.735  0.1711  0.1307 -0.1676
  679TMC3     H10048   1.473   2.392   1.738 -2.5887  1.0931 -1.2560
  679TMC3    H110049   1.763   2.372   1.436  1.2746  1.5106  1.5254
  679TMC3    H210050   1.452   2.665   1.415 -0.9417 -1.3772 -1.6233
  679TMC3    C710051   1.682   2.622   1.327  0.2956 -0.4653 -0.5125
  679TMC3    C810052   1.301   2.552   1.600  0.2626  0.4871  0.0997
  679TMC3    O110053   1.668   2.742   1.360  0.1855 -0.2884 -0.6439
  679TMC3    O210054   1.259   2.512   1.708 -0.0589 -0.1684  0.0143
  680MPD2     C10055   1.569   2.090  13.774  0.5533  0.0292 -0.3409
  680MPD2    C110056   1.665   1.998  13.828 -0.6173  0.1159 -0.1022
  680MPD2    C210057   1.798   2.027  13.858 -0.1022  0.0198  0.0439
  680MPD2    C310058   1.841   2.153  13.823  0.2977  0.1555  0.3988
  680MPD2    C410059   1.759   2.236  13.761 -0.5162 -0.0148  0.2908
  680MPD2    C510060   1.626   2.209  13.738 -0.1948 -0.6533  0.2513
  680MPD2     H10061   1.862   1.945  13.890 -0.9243 -0.4706  0.4306
  680MPD2    H110062   1.786   2.336  13.726  0.8530 -0.3881  0.2864
  680MPD2    H210063   1.463   2.071  13.762  0.6652 -0.7062 -0.1567
  680MPD2    H310064   1.562   2.291  13.709  0.8068  0.2892  0.7258
  680MPD2     N10065   1.975   2.190  13.835 -0.0242  0.2845 -0.4740
  680MPD2    H510066   2.007   2.271  13.783  2.7567 -1.3344 -1.2823
  680MPD2    N110067   1.629   1.862  13.874 -0.0485 -0.0899  0.2462
  680MPD2    H710068   1.697   1.795  13.908  0.3413  0.9722  1.5583
  681TMC3    C110069   1.492   1.706  13.958  0.3534 -0.7120 -0.2447
  681TMC3    C210070   1.497   1.749  14.090  0.1521  0.3297  0.0593
  681TMC3    C310071   1.546   1.670  14.189  0.4648 -0.5567 -0.4709
  681TMC3    C410072   1.538   1.581  13.919  0.1125  0.0085  0.1420
  681TMC3    C510073   1.581   1.507  14.028  0.4506  0.1862  0.1654
  681TMC3    C610074   1.581   1.544  14.157  0.1161  0.0112 -0.1526
  681TMC3     C10075   1.500   1.813  13.867 -0.8911  0.9798 -0.6377
  681TMC3     O10076   1.396   1.857  13.817 -0.1472  0.6885  0.5120
  681TMC3     H10077   1.473   1.853  14.107  1.9885  1.0600 -1.7018
  681TMC3    H110078   1.525   1.550  13.816 -2.2011  1.7023 -0.0797
  681TMC3    H210079   1.612   1.472  14.232  0.1048  0.8729  0.6858
  681TMC3    C710080   1.637   1.381  13.996 -0.0108 -0.4075  0.0624
  681TMC3    C810081   1.586   1.735  14.306 -0.5255  0.5355  1.1712
  681TMC3    O110082   1.657   1.300  14.087  0.5516  0.1998  0.8505
  681TMC3    O210083   1.528   1.842  14.339  0.0211  0.0482 -0.7620
  682MPD2     C10084   3.966   2.697  10.602  0.1655 -0.3154 -0.5914
  682MPD2    C110085   3.982   2.584  10.676 -0.3605 -0.0652 -0.7502
  682MPD2    C210086   4.010   2.598  10.813  0.8199  0.5183  0.0619
  682MPD2    C310087   4.038   2.719  10.876  0.2755  0.0188  0.0339
  682MPD2    C410088   4.033   2.829  10.794 -0.2287 -0.1695  1.0272
  682MPD2    C510089   3.989   2.820  10.663  0.2166  0.7417 -0.0229
  682MPD2     H10090   3.998   2.511  10.876  3.8392 -0.2442 -0.4466
  682MPD2    H110091   4.041   2.928  10.837  0.2579  0.4095 -0.4075
  682MPD2    H210092   3.951   2.698  10.495 -0.4155 -1.1267 -0.5174
  682MPD2    H310093   3.968   2.910  10.607 -0.7049  1.0810  0.8714
  682MPD2     N10094   4.043   2.720  11.017  0.3640 -0.1574 -0.0199
  682MPD2    H510095   4.002   2.638  11.061 -1.0713  0.6162  0.0755
  682MPD2    N110096   3.960   2.454  10.618  0.1893 -0.0653  0.0697
  682MPD2    H710097   3.981   2.374  10.677 -0.6371  0.9473  1.7520
  683TMC3    C110098   3.948   2.916  11.438  0.7712  0.4460  0.4007
  683TMC3    C210099   3.861   2.811  11.458  0.5680 -0.0656 -0.4543
  683TMC3    C310100   3.827   2.718  11.364 -0.1523  0.1564 -0.1865
  683TMC3    C410101   4.016   2.925  11.315  0.5741 -0.1687 -0.0008
  683TMC3    C510102   3.986   2.830  11.220 -0.0718 -0.3254  0.6825
  683TMC3    C610103   3.894   2.729  11.245  0.2722 -0.1835  0.1358
  683TMC3     C10104   3.994   2.986  11.554  0.4934 -0.0674 -0.2214
  683TMC3     O10105   4.014   3.106  11.546 -0.2052 -0.3663 -0.3721
  683TMC3     H10106   3.803   2.806  11.549  1.1221 -1.0081 -0.1569
  683TMC3    H110107   4.087   3.007  11.306 -1.0239  1.4000  1.7901
  683TMC3    H210108   3.862   2.667  11.162  1.2305  0.4057 -0.6904
  683TMC3    C710109   4.061   2.836  11.094 -0.1537 -0.7472  0.2677
  683TMC3    C810110   3.753   2.601  11.396  0.2449 -0.0023 -0.3103
  683TMC3    O110111   4.126   2.940  11.076 -0.1213  0.2805  0.4335
  683TMC3    O210112   3.657   2.613  11.473  0.1624 -0.2087 -0.2564
  684MPD2     C10113   2.735   2.898  15.352 -0.0034  0.1396  0.6718
  684MPD2    C110114   2.618   2.890  15.428 -0.4489 -0.5025 -0.3562
  684MPD2    C210115   2.575   3.005  15.499  0.2062  0.0753 -0.4038
  684MPD2    C310116   2.658   3.116  15.506 -0.0122  0.0570 -0.5270
  684MPD2    C410117   2.773   3.121  15.424  0.2615 -0.0454 -0.1337
  684MPD2    C510118   2.802   3.016  15.347  0.4389 -0.3681 -0.0994
  684MPD2     H10119   2.490   2.993  15.564 -0.0507 -1.1064 -0.9539
  684MPD2    H110120   2.843   3.204  15.423 -0.0146  0.1992  1.0461
  684MPD2    H210121   2.775   2.814  15.297  0.3264 -0.5422  1.9687
  684MPD2    H310122   2.889   3.023  15.283  1.4097  5.1037  1.8516
  684MPD2     N10123   2.639   3.225  15.590 -0.5686  0.4354 -0.7449
  684MPD2    H510124   2.707   3.300  15.583  0.0497 -0.0024  0.6157
  684MPD2    N110125   2.542   2.775  15.441 -0.3037 -0.5842 -0.3209
  684MPD2    H710126   2.449   2.791  15.479 -0.4693  0.6685 -1.2310
  685TMC3    C110127   2.492   2.543  15.415  0.3667 -0.1571 -0.4068
  685TMC3    C210128   2.362   2.575  15.383  0.5586  0.4627  0.2931
  685TMC3    C310129   2.260   2.481  15.404 -0.3913  0.2041  0.1362
  685TMC3    C410130   2.515   2.432  15.499  0.0436 -0.4563  0.5098
  685TMC3    C510131   2.410   2.343  15.526 -0.0150 -0.3161  0.3860
  685TMC3    C610132   2.276   2.364  15.481 -0.0372  0.2055 -0.2726
  685TMC3     C10133   2.583   2.653  15.392  0.5040 -0.0270 -0.4334
  685TMC3     O10134   2.696   2.617  15.354  0.8200 -0.0719 -0.1338
  685TMC3     H10135   2.349   2.660  15.317 -0.7820  1.5593  1.9699
  685TMC3    H110136   2.615   2.403  15.526  0.3494  0.7478  0.6832
  685TMC3    H210137   2.204   2.285  15.499 -1.9933  1.7566 -1.3563
  685TMC3    C710138   2.432   2.237  15.625 -0.9308  0.6073 -0.0544
  685TMC3    C810139   2.126   2.538  15.395  0.7268  0.0927  0.2921
  685TMC3    O110140   2.356   2.141  15.617 -0.3503  0.6659  0.2674
  685TMC3    O210141   2.106   2.615  15.301 -0.0770 -0.2523  0.2827
  686MPD2     C10142   3.377   2.507  15.338 -0.0396  0.2159  0.0655
  686MPD2    C110143   3.428   2.399  15.408  0.2504  0.2184 -0.7176
  686MPD2    C210144   3.508   2.306  15.338 -0.7512 -0.6937 -0.4301
  686MPD2    C310145   3.523   2.323  15.203 -0.1838 -0.0661 -0.3226
  686MPD2    C410146   3.479   2.433  15.142 -0.0173  0.1165  0.4805
  686MPD2    C510147   3.395   2.524  15.204  0.6375  0.0273  0.1968
  686MPD2     H10148   3.546   2.221  15.394  0.4401  1.1971  1.6646
  686MPD2    H110149   3.491   2.450  15.036 -0.8243 -1.2773  0.1768
  686MPD2    H210150   3.320   2.582  15.392 -2.0209 -0.2456 -1.4180
  686MPD2    H310151   3.366   2.618  15.159  0.7073  0.4088  0.9417
  686MPD2     N10152   3.600   2.243  15.127  0.2209  0.2444  0.0581
  686MPD2    H510153   3.631   2.286  15.040 -0.2534 -1.0800 -0.7626
  686MPD2    N110154   3.381   2.369  15.538 -0.4538 -0.5021 -0.7541
  686MPD2    H710155   3.305   2.431  15.567  0.6631 -0.2803  1.7679
  687TMC3    C110156   3.583   2.032  15.242 -0.5105 -0.1348  0.0763
  687TMC3    C210157   3.444   2.012  15.253  0.3096 -0.0488 -0.0393
  687TMC3    C310158   3.396   1.937  15.357 -0.5244  0.1074  0.1735
  687TMC3    C410159   3.668   1.960  15.321 -0.0758  0.1612  0.8960
  687TMC3    C510160   3.615   1.891  15.429  0.1493 -0.0713  0.4686
  687TMC3    C610161   3.482   1.877  15.449  0.1930 -1.4402 -0.2808
  687TMC3     C10162   3.640   2.110  15.136  0.0903  0.1543  0.5810
  687TMC3     O10163   3.739   2.068  15.079 -0.5657 -0.2713 -0.3865
  687TMC3     H10164   3.381   2.054  15.174 -1.9170 -1.2311  1.1098
  687TMC3    H110165   3.770   1.995  15.309 -0.2443  0.5827  0.6809
  687TMC3    H210166   3.434   1.837  15.537  0.2817  0.4942  0.6609
  687TMC3    C710167   3.713   1.872  15.536 -0.6821  0.2642 -0.5522
  687TMC3    C810168   3.253   1.953  15.400 -0.8647  0.3182 -0.2419
  687TMC3    O110169   3.822   1.938  15.535 -0.4162 -0.3025 -0.8101
  687TMC3    O210170   3.203   1.874  15.481  0.5982 -0.2738  0.1183
  688MPD2     C10171   3.005   1.340  17.562  0.4458 -0.2049  0.1945
  688MPD2    C110172   2.975   1.208  17.532  0.4059  0.1909  0.0558
  688MPD2    C210173   2.981   1.178  17.392  0.6887  0.3685  0.3264
  688MPD2    C310174   3.022   1.274  17.300  0.0927  0.0999  0.0872
  688MPD2    C410175   3.047   1.407  17.336  0.6108  0.0510  0.3307
  688MPD2    C510176   3.040   1.434  17.469  0.0551 -0.1365 -0.1008
  688MPD2     H10177   2.955   1.076  17.368 -1.0308  1.0498 -0.6637
  688MPD2    H110178   3.081   1.479  17.263 -0.0097  0.6440  0.6338
  688MPD2    H210179   3.002   1.385  17.660 -1.5597  1.4607 -0.6359
  688MPD2    H310180   3.069   1.529  17.511  0.9112  1.3376 -4.0295
  688MPD2     N10181   3.046   1.246  17.164  0.3671  0.2623  0.1236
  688MPD2    H510182   3.060   1.327  17.104 -1.1490 -0.5523 -1.3142
  688MPD2    N110183   2.931   1.119  17.630  0.1074  0.1418  0.3253
  688MPD2    H710184   2.932   1.161   0.026 -0.2546 -1.6232  1.1424
  689TMC3    C110185   2.845   0.928   0.052 -0.3601  0.1419 -0.0981
  689TMC3    C210186   2.802   1.013   0.145 -0.1956 -0.1931 -0.7103
  689TMC3    C310187   2.798   0.965   0.276 -0.3307  0.4344 -0.4680
  689TMC3    C410188   2.850   0.795   0.066 -0.0818  0.6844  1.0129
  689TMC3    C510189   2.826   0.750   0.194  0.2211 -0.0424  0.9516
  689TMC3    C610190   2.811   0.833   0.301 -0.1176 -0.8007  0.4314
  689TMC3     C10191   2.898   0.988  17.622 -0.1844  0.5911  0.3148
  689TMC3     O10192   2.920   0.915  17.530 -0.0106 -0.2111  0.0261
  689TMC3     H10193   2.764   1.112   0.122 -1.1336 -0.7191 -1.4141
  689TMC3    H110194   2.885   0.738  17.677 -1.4955  1.4520 -0.0724
  689TMC3    H210195   2.802   0.798   0.403  3.5453 -0.7031  0.8036
  689TMC3    C710196   2.790   0.612   0.218  0.1683 -0.2510  0.2055
  689TMC3    C810197   2.780   1.057   0.384  0.0410  0.4876  0.6633
  689TMC3    O110198   2.770   0.583   0.337 -0.0654 -0.1908 -0.0383
  689TMC3    O210199   2.714   1.022   0.479  0.4777 -0.2453  0.9154
  690MPD2     C10200   0.505   3.315  15.632 -0.9251  0.6931 -0.6426
  690MPD2    C110201   0.517   3.264  15.504  0.3177  0.9593  0.0038
  690MPD2    C210202   0.648   3.246  15.455 -0.1209  0.6697  0.4840
  690MPD2    C310203   0.764   3.271  15.525  0.4546  0.2675  0.5883
  690MPD2    C410204   0.741   3.322  15.653  0.1985 -0.1297 -0.3025
  690MPD2    C510205   0.613   3.336  15.706  0.0208 -0.7667  0.0546
  690MPD2     H10206   0.659   3.205  15.355  1.9601 -2.1490  1.8441
  690MPD2    H110207   0.825   3.341  15.719  0.0783  1.4009 -0.5977
  690MPD2    H210208   0.407   3.328  15.678  0.7367 -0.5350  3.1931
  690MPD2    H310209   0.602   3.367  15.810 -0.6336 -2.4372  0.4902
  690MPD2     N10210   0.904   3.273  15.488  0.4127 -0.1378 -0.3323
  690MPD2    H510211   0.975   3.282  15.561 -1.0814  0.8162  1.0187
  690MPD2    N110212   0.408   3.214  15.424 -0.2119 -0.6449 -0.4656
  690MPD2    H710213   0.433   3.164  15.340  3.1978  1.6599 -0.8262
  691TMC3    C110214   0.188   3.131  15.383 -0.1088 -0.2947  0.0445
  691TMC3    C210215   0.051   3.159  15.381 -0.4451  0.5949 -0.6287
  691TMC3    C310216   4.703   3.064  15.312 -0.4363  0.5876 -0.6994
  691TMC3    C410217   0.257   3.033  15.313  0.0155  0.2067  0.0075
  691TMC3    C510218   0.175   2.949  15.242  0.1826  0.2438  0.0217
  691TMC3    C610219   0.040   2.965  15.244 -0.5476 -0.1130  0.3662
  691TMC3     C10220   0.273   3.219  15.460  0.6380 -0.4388  0.6087
  691TMC3     O10221   0.225   3.273  15.560  0.6695  0.0284  0.0797
  691TMC3     H10222   0.001   3.239  15.435 -1.9056  0.5753 -1.9425
  691TMC3    H110223   0.362   3.008  15.322 -0.4838 -2.0091 -0.1963
  691TMC3    H210224   4.710   2.905  15.172  1.1409 -1.1661  0.0040
  691TMC3    C710225   0.216   2.817  15.227  0.3101  0.7431  0.5253
  691TMC3    C810226   4.559   3.059  15.278  0.1910  0.1917 -0.1272
  691TMC3    O110227   0.336   2.790  15.208  0.5525 -0.2481 -0.0545
  691TMC3    O210228   4.525   2.982  15.189 -0.2980 -0.0710 -0.0050
  692TMC3    C110229   1.886   4.482  15.767  0.9970 -0.3017 -0.3536
  692TMC3    C210230   2.015   4.510  15.786 -0.0614  0.2678  0.0524
  692TMC3    C310231   2.109   4.449  15.704 -0.3905 -0.6310 -0.4969
  692TMC3    C410232   1.842   4.391  15.682 -0.0260 -0.0788  0.2686
  692TMC3    C510233   1.938   4.310  15.626  0.5124 -0.4268  0.2874
  692TMC3    C610234   2.072   4.325  15.650  0.8081 -1.3174  0.2733
  692TMC3     C10235   1.801   4.511  15.875 -0.3047  0.3911  0.5018
  692TMC3     O10236   1.708   4.431  15.889 -0.0911 -0.2117 -0.2168
  692TMC3     H10237   2.061   4.581  15.854 -1.8330  0.4070  1.0888
  692TMC3    H110238   1.738   4.361  15.675  0.0931 -1.1059  2.7401
  692TMC3    H210239   2.146   4.270  15.592  2.3208  2.9352 -1.8514
  692TMC3    C710240   1.901   4.176  15.585 -0.6155 -0.4651 -0.9068
  692TMC3    C810241   2.226   4.451  15.788  0.0910 -0.2153  0.5128
  692TMC3    O110242   1.783   4.164  15.553  0.0186  0.6588  0.1898
  692TMC3    O210243   2.315   4.527  15.761  0.2934 -0.3614  0.2648
  693MPD2     C10244   1.156   2.324  10.887 -0.3118 -0.2943  0.3495
  693MPD2    C110245   1.141   2.198  10.833 -0.0780 -0.0853 -0.3784
  693MPD2    C210246   1.243   2.099  10.834  0.2270 -0.9192  0.1089
  693MPD2    C310247   1.361   2.131  10.893 -0.1627  0.9056 -0.1642
  693MPD2    C410248   1.380   2.256  10.954  0.1019  0.1653  0.3297
  693MPD2    C510249   1.279   2.347  10.951 -0.1274 -0.0855  0.0032
  693MPD2     H10250   1.222   2.003  10.790  1.6090 -1.3374  0.3916
  693MPD2    H110251   1.472   2.277  11.007  0.7575 -2.5009  0.2551
  693MPD2    H210252   1.068   2.383  10.910  0.0376  0.8853 -1.3509
  693MPD2    H310253   1.291   2.439  11.008 -1.0109  0.3327 -0.4862
  693MPD2     N10254   1.470   2.034  10.919  0.2201 -0.6706  0.0590
  693MPD2    H510255   1.549   2.061  10.976 -0.1028  0.0639  0.1679
  693MPD2    N110256   1.012   2.156  10.800 -0.0385  0.5407 -0.2322
  693MPD2    H710257   0.940   2.218  10.834 -0.0680 -0.6881  1.9703
  694TMC3    C110258   0.854   2.002  10.767 -0.4927 -0.9359  0.4824
  694TMC3    C210259   0.811   1.902  10.680  0.2304  0.1621  0.6050
  694TMC3    C310260   0.744   1.796  10.728  0.0021 -0.5591  0.9433
  694TMC3    C410261   0.839   1.991  10.904  0.0738  0.3197 -0.3376
  694TMC3    C510262   0.766   1.883  10.949 -0.4327 -0.3465  0.3421
  694TMC3    C610263   0.715   1.789  10.861 -0.2956  0.0651  0.0640
  694TMC3     C10264   0.981   2.048  10.733  0.4383  0.5436 -0.1001
  694TMC3     O10265   1.049   1.985  10.651 -0.2268  0.0853  0.3207
  694TMC3     H10266   0.842   1.908  10.577 -0.4293  0.4891  0.4209
  694TMC3    H110267   0.894   2.052  10.975  0.3676  0.5729 -0.7872
  694TMC3    H210268   0.656   1.711  10.909 -0.6582  0.4614  0.2610
  694TMC3    C710269   0.772   1.866  11.087  0.7722  0.9959 -0.4300
  694TMC3    C810270   0.707   1.679  10.643  0.0395 -0.0969  0.0939
  694TMC3    O110271   0.753   1.970  11.153 -0.1077  0.0117 -0.8630
  694TMC3    O210272   0.649   1.581  10.695  0.2410  0.2158 -0.2169
  695MPD2     C10273   2.421   3.408  13.970  0.0138 -0.3763 -0.1035
  695MPD2    C110274   2.445   3.540  14.003  0.0272 -1.2566 -0.6128
  695MPD2    C210275   2.346   3.606  14.075  0.6397  0.2183  0.2432
  695MPD2    C310276   2.224   3.557  14.105  0.0252  0.7995 -0.1565
  695MPD2    C410277   2.197   3.432  14.064 -0.6117  0.4087 -0.0110
  695MPD2    C510278   2.296   3.360  14.001  0.2630 -0.2185  0.1394
  695MPD2     H10279   2.355   3.712  14.096  1.8846 -0.4367  3.0667
  695MPD2    H110280   2.103   3.382  14.085 -0.4867  0.0293 -0.3526
  695MPD2    H210281   2.498   3.351  13.921 -1.1601 -0.1182 -2.2950
  695MPD2    H310282   2.276   3.260  13.965  2.1986 -0.0636 -1.3301
  695MPD2     N10283   2.125   3.645  14.159 -0.4761 -0.7822 -0.3703
  695MPD2    H510284   2.153   3.741  14.178 -0.5905 -1.7152  4.4333
  695MPD2    N110285   2.563   3.610  13.976  0.4449 -0.7138 -0.0040
  695MPD2    H710286   2.574   3.701  14.021 -1.2634 -0.3426 -0.3242
  696TMC3    C110287   1.926   3.705  14.266 -0.1167 -1.2381 -0.4790
  696TMC3    C210288   1.984   3.770  14.371 -0.0189  0.0894  0.1248
  696TMC3    C310289   1.911   3.875  14.427  0.1614 -0.8927  0.2144
  696TMC3    C410290   1.805   3.744  14.213  0.0567 -0.0949 -0.2258
  696TMC3    C510291   1.747   3.850  14.263  0.2215  0.5375  0.5117
  696TMC3    C610292   1.800   3.916  14.366 -0.2490  0.8175  0.0294
  696TMC3     C10293   1.998   3.604  14.195  0.9447  0.5958  0.4407
  696TMC3     O10294   1.931   3.503  14.168  0.0382 -0.0057  0.0818
  696TMC3     H10295   2.072   3.728  14.419  1.5616  1.6936 -1.3552
  696TMC3    H110296   1.759   3.693  14.129  1.0673 -1.1962 -0.1213
  696TMC3    H210297   1.748   4.002  14.407  2.6390  2.5785  0.0292
  696TMC3    C710298   1.654   3.917  14.175 -0.4838  0.3512 -1.0033
  696TMC3    C810299   1.992   3.999  14.453 -0.3843 -0.0910 -0.0991
  696TMC3    O110300   1.583   3.855  14.099  0.2689  0.3816  0.4036
  696TMC3    O210301   1.955   4.101  14.398  0.2627  0.5605 -0.3479
  697MPD2     C10302   1.885   1.256  15.755 -0.1779 -0.3384  0.5674
  697MPD2    C110303   1.846   1.230  15.625  0.5706 -0.8828 -0.4932
  697MPD2    C210304   1.814   1.333  15.545  0.5524  0.9582 -0.2077
  697MPD2    C310305   1.813   1.462  15.598  0.6936 -0.3595 -0.8023
  697MPD2    C410306   1.838   1.477  15.731  0.2306  0.4254  0.3139
  697MPD2    C510307   1.883   1.383  15.810  0.3020  0.5715  0.4051
  697MPD2     H10308   1.781   1.304  15.446  2.9524  1.8649 -1.2871
  697MPD2    H110309   1.836   1.577  15.774  0.0912  0.3419  0.4964
  697MPD2    H210310   1.913   1.183  15.829 -2.5763 -1.5432  0.3158
  697MPD2    H310311   1.938   1.413  15.898  0.5401  2.4519 -0.3754
  697MPD2     N10312   1.781   1.560  15.500 -0.0089 -0.0169 -0.3042
  697MPD2    H510313   1.760   1.531  15.405 -1.0719 -1.2697  0.3072
  697MPD2    N110314   1.843   1.099  15.576  0.1245  0.7869 -0.0010
  697MPD2    H710315   1.808   1.096  15.481 -2.7688 -0.6977  1.1208
  698TMC3    C110316   1.735   1.771  15.405  0.2046 -0.2152  0.6375
  698TMC3    C210317   1.748   1.901  15.419  0.2167 -0.9173  0.7502
  698TMC3    C310318   1.728   1.974  15.307  0.6077  0.0908  0.7075
  698TMC3    C410319   1.669   1.710  15.300 -0.2763  0.1601  0.2064
  698TMC3    C510320   1.655   1.794  15.189 -0.2855 -0.4572 -0.7242
  698TMC3    C610321   1.682   1.927  15.189 -0.7199  0.5029  0.5584
  698TMC3     C10322   1.777   1.698  15.524 -0.2014  1.0124 -0.4851
  698TMC3     O10323   1.801   1.775  15.615  0.2598  0.3365  0.7430
  698TMC3     H10324   1.820   1.950  15.485 -1.5816  1.2310  1.1506
  698TMC3    H110325   1.645   1.604  15.301  0.3369  0.0395  1.4417
  698TMC3    H210326   1.683   1.986  15.098 -1.2291 -0.8967 -0.3575
  698TMC3    C710327   1.605   1.735  15.065 -0.6169  0.2201 -0.1574
  698TMC3    C810328   1.809   2.089  15.294  0.3615 -0.2468 -0.1198
  698TMC3    O110329   1.575   1.817  14.980  0.6052  0.0135 -0.1298
  698TMC3    O210330   1.779   2.192  15.350 -0.6802  0.3634 -0.6625
  699TMC3    C110331   1.656   3.959  12.635 -0.3383  0.4187  0.6880
  699TMC3    C210332   1.734   3.870  12.702 -0.3205  0.0949  0.8254
  699TMC3    C310333   1.704   3.849  12.834  0.4415  0.0272  0.6134
  699TMC3    C410334   1.548   4.029  12.688  0.2259  0.3574  0.2717
  699TMC3    C510335   1.529   4.001  12.824  0.4641  0.4585 -0.1402
  699TMC3    C610336   1.600   3.909  12.899 -0.4818 -0.2100  0.0674
  699TMC3     C10337   1.697   3.998  12.497  0.2702 -0.5706  0.3116
  699TMC3     O10338   1.603   4.032  12.428  0.2089 -0.7234  0.9820
  699TMC3     H10339   1.823   3.824  12.661 -1.6119  0.1565 -2.0874
  699TMC3    H110340   1.493   4.110  12.642 -1.7995 -0.7854  0.6829
  699TMC3    H210341   1.561   3.885  12.998  0.0998  1.6041  0.7439
  699TMC3    C710342   1.411   4.065  12.893 -0.2295 -0.8719 -0.1612
  699TMC3    C810343   1.747   3.737  12.908  0.9225  0.3351 -0.2371
  699TMC3    O110344   1.413   4.072  13.014 -0.2814  0.0629 -0.2252
  699TMC3    O210345   1.669   3.675  12.980  0.1300 -0.2872 -0.3991
  700TMC3    C110346   1.076   1.316  17.590 -0.2867  0.3292  0.7780
  700TMC3    C210347   1.100   1.185  17.603  0.4774 -0.2339  0.3975
  700TMC3    C310348   1.197   1.150  17.691 -0.4077 -0.3428 -0.2718
  700TMC3    C410349   1.159   1.413  17.637  0.5757 -0.4856  0.7266
  700TMC3    C510350   1.253   1.376   0.023 -0.0657 -0.2983 -0.2244
  700TMC3    C610351   1.270   1.244   0.057  1.2426  0.7779  0.4593
  700TMC3     C10352   1.014   1.347  17.460 -0.0142 -0.1666 -0.2140
  700TMC3     O10353   0.960   1.253  17.399 -0.2514  0.2923 -0.7075
  700TMC3     H10354   1.019   1.120  17.574  0.3074  1.3004 -2.4834
  700TMC3    H110355   1.130   1.515  17.615  1.9821 -0.1407  0.5038
  700TMC3    H210356   1.345   1.214   0.129 -2.1820 -1.9929  2.8445
  700TMC3    C710357   1.287   1.480   0.120  0.0707 -0.8706  0.3392
  700TMC3    C810358   1.253   1.020  17.680  0.4067 -0.2178  0.1267
  700TMC3    O110359   1.251   1.592   0.086 -0.1593 -0.0340 -0.5373
  700TMC3    O210360   1.373   1.014  17.695 -0.1158  0.1260 -0.0390
  701TMC3    C110361   0.976   0.033  15.251 -0.0579 -0.5726 -0.3826
  701TMC3    C210362   0.966   4.695  15.125  0.4687  0.5875  0.0511
  701TMC3    C310363   1.031   0.043  15.029 -0.1120  0.0718  0.1546
  701TMC3    C410364   1.029   0.157  15.270  0.1704 -0.7420 -0.5056
  701TMC3    C510365   1.103   0.212  15.171 -0.7103  0.4540  0.1499
  701TMC3    C610366   1.102   0.160  15.047 -0.1942  0.0571  0.4515
  701TMC3     C10367   0.925   4.690  15.361 -0.2604 -0.6449 -0.5781
  701TMC3     O10368   0.968   0.001  15.469 -0.2734  0.1027  0.2079
  701TMC3     H10369   0.936   4.591  15.121 -1.2727  1.0100  1.9606
  701TMC3    H110370   1.023   0.190  15.373 -0.1988 -1.7626 -0.1962
  701TMC3    H210371   1.146   0.214  14.965 -1.2244 -1.0543 -0.8263
  701TMC3    C710372   1.110   0.362  15.175 -0.1085  1.0178  0.3889
  701TMC3    C810373   1.043   4.695  14.904 -0.2899  0.2287  0.0624
  701TMC3    O110374   1.091   0.428  15.073 -0.1259 -0.5786 -0.0713
  701TMC3    O210375   1.148   4.713  14.846  0.0392  0.2631  0.2943
  702MPD2     C10376   0.476   1.910  10.487  0.2257  0.0366 -0.0213
  702MPD2    C110377   0.488   2.020  10.569  0.4101  0.1426  0.5571
  702MPD2    C210378   0.519   2.145  10.506 -0.0018 -0.2283  0.0561
  702MPD2    C310379   0.548   2.151  10.374 -0.0243  0.2916 -0.0275
  702MPD2    C410380   0.553   2.035  10.301 -0.3623 -0.3902  0.3351
  702MPD2    C510381   0.513   1.917  10.358 -0.3271 -0.0427  0.2176
  702MPD2     H10382   0.521   2.229  10.575  0.7206 -1.5223  1.6247
  702MPD2    H110383   0.591   2.022  10.200 -1.0855 -2.1339  0.2938
  702MPD2    H210384   0.450   1.809  10.517 -1.4739  0.0377 -1.4665
  702MPD2    H310385   0.537   1.829  10.300  1.2458  1.9209 -2.1448
  702MPD2     N10386   0.564   2.276  10.310  0.1904 -0.5333 -0.4056
  702MPD2    H510387   0.586   2.276  10.211  1.1317 -0.1107 -0.1991
  702MPD2    N110388   0.445   2.030  10.705 -0.2808 -0.3103  0.2372
  702MPD2    H710389   0.468   2.121  10.744 -1.9198  0.3984 -0.4475
  703TMC3    C110390   0.585   2.515  10.274 -0.6092 -0.6510 -0.2085
  703TMC3    C210391   0.502   2.623  10.296 -0.4359  0.2211  0.1464
  703TMC3    C310392   0.511   2.727  10.207  0.0744 -0.2244  0.0966
  703TMC3    C410393   0.660   2.504  10.164 -0.0398  0.1161  0.2265
  703TMC3    C510394   0.672   2.614  10.083 -0.6842  0.1052 -0.1055
  703TMC3    C610395   0.599   2.729  10.102  0.5607  0.1831 -0.4179
  703TMC3     C10396   0.556   2.401  10.363  0.1097  0.4680 -0.0452
  703TMC3     O10397   0.507   2.424  10.472 -0.0839  0.0718  0.1343
  703TMC3     H10398   0.435   2.621  10.381  0.0057  3.5803  0.5515
  703TMC3    H110399   0.723   2.416  10.154 -0.8994 -0.2829 -1.6425
  703TMC3    H210400   0.610   2.821  10.046  1.8977  0.7720  0.7954
  703TMC3    C710401   0.808   2.629  10.028  0.1362 -0.6263 -0.7020
  703TMC3    C810402   0.445   2.857  10.241 -0.1784  0.4163 -0.0909
  703TMC3    O110403   0.883   2.536  10.057 -0.1771 -1.0339 -0.3909
  703TMC3    O210404   0.486   2.958  10.188 -0.3158  0.0485 -0.3447
  704TMC3    C110405   2.636   0.829  12.575 -0.0709  0.0227 -0.5275
  704TMC3    C210406   2.769   0.846  12.543  0.7110 -0.4483 -0.7794
  704TMC3    C310407   2.865   0.749  12.567  0.8372 -0.1540  0.5448
  704TMC3    C410408   2.596   0.714  12.630 -0.5240 -0.0067  0.0323
  704TMC3    C510409   2.685   0.610  12.637  0.3197  0.4330  0.2168
  704TMC3    C610410   2.822   0.629  12.623 -1.1494 -0.8385  0.0325
  704TMC3     C10411   2.542   0.848  12.474  0.0838 -0.0235  0.4990
  704TMC3     O10412   2.427   0.811  12.490 -0.7835  0.1031 -0.6174
  704TMC3     H10413   2.798   0.941  12.499 -2.9008  1.0030 -0.0044
  704TMC3    H110414   2.498   0.707  12.675 -0.4607  2.1943  0.5131
  704TMC3    H210415   2.889   0.543  12.619  1.6926  1.3210  1.3046
  704TMC3    C710416   2.633   0.480  12.591  0.1573 -0.4545  0.8727
  704TMC3    C810417   2.962   0.751  12.460  0.2950 -0.0398  0.2932
  704TMC3    O110418   2.723   0.401  12.547 -0.7069  0.2022 -0.6756
  704TMC3    O210419   2.934   0.801  12.350 -0.0371 -0.4529  0.0331
  705MPD2     C10420   2.503   3.675  16.382 -0.0344  0.1455 -0.0894
  705MPD2    C110421   2.532   3.795  16.448 -0.0840  0.1749  0.0929
  705MPD2    C210422   2.470   3.823  16.571 -0.7941 -0.1062  0.2186
  705MPD2    C310423   2.370   3.738  16.618  0.1228 -0.4854  0.3522
  705MPD2    C410424   2.346   3.617  16.551  0.1665 -0.2873 -0.0538
  705MPD2    C510425   2.414   3.589  16.436  0.3147  0.3935 -0.0610
  705MPD2     H10426   2.494   3.914  16.626 -0.4064  0.4561 -0.8965
  705MPD2    H110427   2.265   3.550  16.576 -0.4407 -0.0834 -1.4951
  705MPD2    H210428   2.534   3.655  16.280  0.7933  3.0528 -0.4108
  705MPD2    H310429   2.374   3.508  16.376  1.7668 -0.2070 -0.2231
  705MPD2     N10430   2.286   3.759  16.727  0.2681 -0.8674 -0.2585
  705MPD2    H510431   2.204   3.700  16.735  0.0343 -1.2302 -5.6208
  705MPD2    N110432   2.624   3.889  16.391 -0.7440  0.5065  0.4556
  705MPD2    H710433   2.669   3.951  16.457 -0.2299 -0.6351  1.1761
  706TMC3    C110434   2.980   3.982  16.117  0.1326  0.3796 -0.9608
  706TMC3    C210435   3.014   4.100  16.181 -0.1835  0.2982  0.5632
  706TMC3    C310436   2.947   4.140  16.296  0.2724 -0.5043  0.6145
  706TMC3    C410437   2.864   3.922  16.133 -0.4487 -0.4192  0.1388
  706TMC3    C510438   2.798   3.961  16.247  0.3820 -0.4882 -0.0709
  706TMC3    C610439   2.845   4.060  16.333  0.1400 -0.4828  0.3655
  706TMC3     C10440   3.060   3.939  16.005 -0.2018  0.2345  0.6501
  706TMC3     O10441   3.011   3.872  15.914 -0.0945 -0.2608 -0.0006
  706TMC3     H10442   3.087   4.169  16.140  1.8796 -1.7654  0.7695
  706TMC3    H110443   2.835   3.842  16.066 -1.0898 -1.3804  1.5649
  706TMC3    H210444   2.785   4.101  16.414  0.0057  1.8004 -0.8856
  706TMC3    C710445   2.674   3.885  16.264  0.6198  0.4805 -0.6362
  706TMC3    C810446   2.934   4.283  16.320 -0.0774  0.5959  0.8720
  706TMC3    O110447   2.634   3.827  16.164 -0.0164  0.1438  0.1514
  706TMC3    O210448   2.980   4.350  16.229  0.3788  0.1739 -0.2846
  707TMC3    C110449   4.397   2.741   0.791 -0.5075 -0.4450  0.2865
  707TMC3    C210450   4.372   2.623   0.866  0.6861  0.2964  0.3076
  707TMC3    C310451   4.251   2.567   0.860  0.1135  0.5908 -0.1285
  707TMC3    C410452   4.294   2.811   0.721  0.4290 -0.2382 -0.0720
  707TMC3    C510453   4.167   2.751   0.726 -0.3542  0.7901  0.0396
  707TMC3    C610454   4.146   2.629   0.790  0.2450  0.1602 -0.1035
  707TMC3     C10455   4.539   2.783   0.796  0.0056 -0.8599  0.0616
  707TMC3     O10456   4.614   2.713   0.864  0.7972  0.2555 -0.1846
  707TMC3     H10457   4.455   2.577   0.917  0.4620 -0.4012  0.0479
  707TMC3    H110458   4.298   2.902   0.663 -1.7962  1.1219  1.9122
  707TMC3    H210459   4.045   2.592   0.805  0.6106 -0.4678  0.7795
  707TMC3    C710460   4.058   2.827   0.675 -0.0670 -0.1217 -0.3617
  707TMC3    C810461   4.242   2.422   0.848 -0.2379 -0.2707  0.0061
  707TMC3    O110462   4.078   2.945   0.665 -0.3578 -0.3667  0.1491
  707TMC3    O210463   4.127   2.382   0.829 -0.7463 -1.0464  0.2654
  708MPD2     C10464   1.035   2.744  13.600  0.3421  0.6280  1.2022
  708MPD2    C110465   0.982   2.618  13.600 -0.1879  0.2233 -0.4401
  708MPD2    C210466   1.058   2.511  13.637  0.0265  0.2566  0.7326
  708MPD2    C310467   1.191   2.532  13.674 -0.8314  0.8703 -0.4983
  708MPD2    C410468   1.246   2.660  13.666  0.1846 -0.5128 -0.2791
  708MPD2    C510469   1.171   2.760  13.628  0.3364 -0.0219  1.0508
  708MPD2     H10470   1.020   2.410  13.647  2.7169 -0.7959  0.3647
  708MPD2    H110471   1.350   2.686  13.679  0.5340 -2.0354 -0.0191
  708MPD2    H210472   0.975   2.825  13.560 -0.2674  0.4703  1.7988
  708MPD2    H310473   1.219   2.855  13.607 -0.3635  0.4509  1.6288
  708MPD2     N10474   1.272   2.428  13.725  0.0106  0.6961 -0.2772
  708MPD2    H510475   1.371   2.446  13.741  0.1861  1.4018 -2.1470
  708MPD2    N110476   0.845   2.600  13.576  0.2769  0.2108 -0.0742
  708MPD2    H710477   0.785   2.682  13.570  3.2143  2.1739 -2.7538
  709TMC3    C110478   0.647   2.480  13.566 -0.1089  0.0299  0.3521
  709TMC3    C210479   0.582   2.397  13.473  0.1536  0.2139  0.1349
  709TMC3    C310480   0.487   2.312  13.525  0.1012  0.0855 -0.2387
  709TMC3    C410481   0.608   2.497  13.701  0.1997 -0.3847  0.0629
  709TMC3    C510482   0.515   2.406  13.743  0.7867 -0.1279 -0.5110
  709TMC3    C610483   0.464   2.312  13.660  0.3047  0.0676  0.4097
  709TMC3     C10484   0.788   2.480  13.542 -0.4415 -0.5260 -0.1787
  709TMC3     O10485   0.838   2.380  13.487 -0.2336  1.0626 -0.1626
  709TMC3     H10486   0.621   2.366  13.377  0.3627  2.4015 -0.4854
  709TMC3    H110487   0.672   2.554  13.766 -0.2780  2.0005 -1.5710
  709TMC3    H210488   0.409   2.227  13.699 -0.2263 -0.6155 -1.8263
  709TMC3    C710489   0.553   2.344  13.870 -0.9561  0.0539 -0.5688
  709TMC3    C810490   0.399   2.236  13.436 -0.3295 -0.2239 -0.0624
  709TMC3    O110491   0.596   2.229  13.864  0.1212  0.3333 -0.2105
  709TMC3    O210492   0.346   2.136  13.480  0.0978 -0.2462 -0.2933
  710TMC3    C110493   1.611   3.330   0.799 -0.7967 -0.0063  0.2738
  710TMC3    C210494   1.708   3.342   0.698 -0.1086 -0.2892  0.4827
  710TMC3    C310495   1.824   3.272   0.719  0.3552  0.1774  0.4329
  710TMC3    C410496   1.629   3.241   0.900  0.1244 -0.5169  0.0657
  710TMC3    C510497   1.743   3.156   0.905 -0.0710 -0.2130  0.7754
  710TMC3    C610498   1.844   3.174   0.816 -0.3811 -0.7247  0.0169
  710TMC3     C10499   1.477   3.383   0.760 -0.0009  0.8104  0.6132
  710TMC3     O10500   1.458   3.398   0.639 -0.0763  0.9822  0.1715
  710TMC3     H10501   1.692   3.410   0.615 -0.2059 -0.1907  0.5820
  710TMC3    H110502   1.558   3.227   0.980  1.2310  0.0079  1.1592
  710TMC3    H210503   1.937   3.119   0.818 -0.8827 -1.5087  2.0470
  710TMC3    C710504   1.756   3.045   1.001  0.8870  0.7240 -0.0355
  710TMC3    C810505   1.924   3.275   0.619 -0.5427 -0.4045  0.0908
  710TMC3    O110506   1.677   3.036   1.094  0.1196  0.1657 -0.7328
  710TMC3    O210507   2.024   3.211   0.647 -0.3170  0.2969 -0.1457
  711TMC3    C110508   1.602   4.457  15.099 -0.0081  0.1819 -0.4267
  711TMC3    C210509   1.622   4.565  15.177 -0.3198 -0.4392 -0.2142
  711TMC3    C310510   1.737   4.572  15.252  0.4890  0.2441  0.5061
  711TMC3    C410511   1.686   4.350  15.090 -0.1366 -0.6356  0.5550
  711TMC3    C510512   1.792   4.355  15.173 -0.2327 -0.4343 -0.5649
  711TMC3    C610513   1.810   4.457  15.262  1.1890 -0.3343  0.2005
  711TMC3     C10514   1.468   4.436  15.040  0.1523  0.8501 -0.7972
  711TMC3     O10515   1.460   4.355  14.951  0.0046  0.3710  0.1258
  711TMC3     H10516   1.549   4.644  15.185 -2.3245 -2.4272  1.1033
  711TMC3    H110517   1.657   4.274  15.019  0.4247 -0.5101  0.1909
  711TMC3    H210518   1.887   4.460  15.338 -0.1364  1.0229  1.4960
  711TMC3    C710519   1.869   4.234  15.192 -0.3970  0.1621 -0.1838
  711TMC3    C810520   1.723   4.664  15.362 -0.0305 -0.1975  0.0172
  711TMC3    O110521   1.967   4.237  15.267  0.6271  0.5193  0.1975
  711TMC3    O210522   1.606   4.707  15.387 -0.0997 -0.3842 -0.0750
  712MPD2     C10523   2.634   0.537  13.629  0.2683 -1.1532 -0.4425
  712MPD2    C110524   2.545   0.638  13.617  0.3949 -0.6835  0.0649
  712MPD2    C210525   2.593   0.767  13.618 -0.1002 -0.0135  1.3173
  712MPD2    C310526   2.730   0.792  13.635  0.3544  0.1830  1.0423
  712MPD2    C410527   2.819   0.686  13.651 -0.2021  0.0280 -0.1143
  712MPD2    C510528   2.769   0.556  13.639 -0.1035 -0.5365 -0.8315
  712MPD2     H10529   2.520   0.846  13.609  1.1952  1.0844  0.3156
  712MPD2    H110530   2.926   0.696  13.658 -0.1723  0.3607 -1.1096
  712MPD2    H210531   2.608   0.432  13.617 -2.0239 -0.8331  1.7946
  712MPD2    H310532   2.841   0.476  13.626  1.0186  0.8560 -3.2054
  712MPD2     N10533   2.779   0.925  13.644 -0.4554 -0.4993 -0.3428
  712MPD2    H510534   2.880   0.931  13.653 -0.6649  3.1034 -0.3146
  712MPD2    N110535   2.405   0.623  13.612  0.7819 -0.0640  0.5810
  712MPD2    H710536   2.355   0.705  13.578 -1.1502 -1.2787  0.4622
  713TMC3    C110537   2.763   1.162  13.684 -0.1519  0.2752  0.3849
  713TMC3    C210538   2.896   1.168  13.667  0.2691  0.6036 -0.1624
  713TMC3    C310539   2.963   1.286  13.691 -0.3295  0.6400 -0.1602
  713TMC3    C410540   2.684   1.265  13.718  0.6260 -0.0062 -0.8627
  713TMC3    C510541   2.751   1.386  13.749 -0.1158 -0.2037  0.3772
  713TMC3    C610542   2.889   1.393  13.732 -0.1632  0.2995 -0.2837
  713TMC3     C10543   2.696   1.035  13.662 -0.1720 -0.2286 -0.7210
  713TMC3     O10544   2.578   1.037  13.690  0.0260 -0.8660 -0.4213
  713TMC3     H10545   2.952   1.087  13.622 -0.3226 -0.4444  1.0092
  713TMC3    H110546   2.577   1.251  13.718  0.4604  1.2453 -0.5612
  713TMC3    H210547   2.942   1.481  13.766 -2.4885  1.2619  0.8946
  713TMC3    C710548   2.686   1.516  13.770 -0.2711  1.0438 -0.1083
  713TMC3    C810549   3.100   1.323  13.648 -0.0644  0.0027  0.3157
  713TMC3    O110550   2.767   1.602  13.808 -0.4670  0.3240 -0.6942
  713TMC3    O210551   3.131   1.441  13.664 -0.2870  0.0344  0.1919
  714MPD2     C10552   4.682   4.329   1.293  0.1716  0.1605  0.7284
  714MPD2    C110553   4.701   4.251   1.179 -0.1323  0.4144 -0.4320
  714MPD2    C210554   4.658   4.293   1.055 -0.0969 -0.3871  0.1427
  714MPD2    C310555   4.617   4.425   1.031  0.2399  0.2077 -0.0961
  714MPD2    C410556   4.621   4.499   1.149  0.5071 -0.2349 -0.3458
  714MPD2    C510557   4.637   4.455   1.279 -0.2185 -0.1365 -0.0181
  714MPD2     H10558   4.655   4.232   0.965 -1.9024  1.1042 -0.8175
  714MPD2    H110559   4.593   4.604   1.147  0.2355 -0.3049 -0.1549
  714MPD2    H210560   4.709   4.290   1.390  1.6214 -0.7354 -0.0251
  714MPD2    H310561   4.644   4.524   1.363 -1.7928 -0.4446  0.3636
  714MPD2     N10562   4.585   4.482   0.906 -0.4222  0.4820 -0.4086
  714MPD2    H510563   4.589   4.415   0.830 -1.2945  0.5353 -0.5007
  714MPD2    N110564   0.029   4.114   1.207 -0.6682  0.3411 -0.1596
  714MPD2    H710565   0.034   4.089   1.305  0.7032  0.2077 -0.2687
  715TMC3    C110566   0.121   3.908   1.174  0.1980  0.1740 -0.3914
  715TMC3    C210567   0.247   3.882   1.130 -0.2851 -0.0753  0.8049
  715TMC3    C310568   0.348   3.845   1.222  0.6695  0.1687 -0.2414
  715TMC3    C410569   0.098   3.902   1.311 -0.2655  0.2384 -0.4126
  715TMC3    C510570   0.194   3.872   1.401  0.5704 -0.8547 -0.1915
  715TMC3    C610571   0.322   3.846   1.357  0.2526  0.3685 -0.0118
  715TMC3     C10572   0.071   4.024   1.114  0.3944 -1.0290 -0.2601
  715TMC3     O10573   0.070   4.035   0.995  0.3650 -0.8749  0.0339
  715TMC3     H10574   0.268   3.876   1.024 -1.0856 -2.6457  0.8013
  715TMC3    H110575   4.724   3.923   1.353 -0.5440 -2.3425  0.2445
  715TMC3    H210576   0.400   3.838   1.432 -0.5419  2.4902  1.0082
  715TMC3    C710577   0.171   3.927   1.526 -0.1611 -0.3407  1.1212
  715TMC3    C810578   0.452   3.749   1.178  0.2907 -0.5913 -0.5339
  715TMC3    O110579   0.088   4.015   1.536  0.0841 -0.1143  0.5655
  715TMC3    O210580   0.479   3.756   1.057  0.7407 -0.3839  0.3869
  716MPD2     C10581   0.226   2.077   9.997 -0.6834  0.4743  0.0039
  716MPD2    C110582   0.251   2.141   9.878 -0.0690  0.0676 -0.1963
  716MPD2    C210583   0.352   2.089   9.803 -0.1341  1.2062 -0.1348
  716MPD2    C310584   0.413   1.966   9.837  0.3329  0.2126 -0.1740
  716MPD2    C410585   0.404   1.924   9.968  1.4082  0.1444 -0.0377
  716MPD2    C510586   0.306   1.976  10.043 -0.6051 -0.1952  0.1681
  716MPD2     H10587   0.372   2.146   9.713 -3.1802  0.3055 -1.3721
  716MPD2    H110588   0.453   1.835  10.006  0.7507  0.5262  1.7239
  716MPD2    H210589   0.150   2.106  10.068 -2.5590  1.9429 -2.5703
  716MPD2    H310590   0.291   1.940  10.144  0.2095 -1.8716 -0.2987
  716MPD2     N10591   0.486   1.900   9.737  0.3541 -0.2693 -0.2750
  716MPD2    H510592   0.499   1.944   9.647  0.2330 -0.2246 -0.2706
  716MPD2    N110593   0.172   2.255   9.837  0.0183  0.9163  0.4324
  716MPD2    H710594   0.095   2.275   9.900 -1.3323  0.0613 -0.9360
  717TMC3    C110595   0.603   1.714   9.632 -0.0112  0.3065  0.4091
  717TMC3    C210596   0.522   1.711   9.528  0.7190  0.6386  0.2781
  717TMC3    C310597   0.536   1.616   9.429 -0.1077 -0.6973  0.2324
  717TMC3    C410598   0.693   1.615   9.651 -0.9241  0.6761  0.5466
  717TMC3    C510599   0.708   1.522   9.549  0.6493  0.5789 -0.2610
  717TMC3    C610600   0.625   1.510   9.443 -0.1702  0.7060 -0.8837
  717TMC3     C10601   0.558   1.783   9.756 -0.0060 -0.2270 -0.2137
  717TMC3     O10602   0.586   1.719   9.858  0.2432  0.6589 -0.3944
  717TMC3     H10603   0.437   1.777   9.538  0.4264  0.1887  0.7542
  717TMC3    H110604   0.746   1.612   9.745  1.1786 -0.1088 -0.6624
  717TMC3    H210605   0.630   1.430   9.371 -0.7833 -0.2632  0.1584
  717TMC3    C710606   0.839   1.467   9.524 -0.2330 -0.0001  0.0396
  717TMC3    C810607   0.422   1.608   9.341  0.2510 -0.1055  0.2174
  717TMC3    O110608   0.845   1.388   9.429 -0.2240 -0.1090 -0.5051
  717TMC3    O210609   0.345   1.698   9.340 -0.3792 -0.0254  0.0931
  718MPD2     C10610   4.324   1.023  12.966  0.0067 -0.0704 -0.3795
  718MPD2    C110611   4.259   1.079  12.854  0.1064 -0.3656 -0.4401
  718MPD2    C210612   4.122   1.083  12.848  0.6698 -0.3912 -0.9426
  718MPD2    C310613   4.046   1.050  12.958  0.1947  0.1489 -0.2008
  718MPD2    C410614   4.109   1.010  13.073  0.3400 -0.1681 -0.4187
  718MPD2    C510615   4.246   0.997  13.077  0.0702 -0.4913  0.5271
  718MPD2     H10616   4.080   1.128  12.760  0.2231  1.4483  0.2156
  718MPD2    H110617   4.052   0.994  13.164 -2.6532 -3.2347 -2.8374
  718MPD2    H210618   4.432   1.024  12.973 -0.0791 -4.1298  1.6116
  718MPD2    H310619   4.287   0.965  13.173  2.3204 -2.4735 -1.1032
  718MPD2     N10620   3.908   1.093  12.948 -0.1328 -0.1594 -0.4454
  718MPD2    H510621   3.876   1.110  12.853  1.2591  1.0312 -0.6968
  718MPD2    N110622   4.327   1.121  12.739 -0.3198 -0.1425 -0.1798
  718MPD2    H710623   4.275   1.162  12.661 -0.5693 -0.0440  0.0402
  719TMC3    C110624   4.477   1.209  12.592 -0.0786  0.4791 -0.5354
  719TMC3    C210625   4.368   1.191  12.511  0.6566  0.1718  0.3786
  719TMC3    C310626   4.326   1.299  12.437  0.8927  0.6147 -0.4356
  719TMC3    C410627   4.543   1.322  12.596  0.8911 -0.5075 -0.2368
  719TMC3    C510628   4.503   1.425  12.522  0.2667 -0.2055 -0.7109
  719TMC3    C610629   4.399   1.418  12.440  0.8714  0.0709  0.5545
  719TMC3     C10630   4.458   1.155  12.723  0.3998  0.7257  0.1038
  719TMC3     O10631   4.551   1.152  12.806 -0.3402  0.7612  0.4741
  719TMC3     H10632   4.314   1.097  12.501  0.7780  0.2515 -0.9699
  719TMC3    H110633   4.613   1.342  12.676  1.6417 -1.5502 -0.6121
  719TMC3    H210634   4.365   1.495  12.371  0.5053 -1.6666 -1.2017
  719TMC3    C710635   4.596   1.531  12.503  0.0277 -0.8345 -0.2952
  719TMC3    C810636   4.186   1.317  12.476 -0.3026  0.0635 -0.4338
  719TMC3    O110637   4.705   1.529  12.557  0.0636 -0.1994  0.3368
  719TMC3    O210638   4.152   1.236  12.558 -0.0198  0.1861 -0.2368
  720MPD2     C10639   2.818   2.824  13.796  0.0872  0.0371  0.7132
  720MPD2    C110640   2.936   2.812  13.730  0.1268  0.5341  0.0008
  720MPD2    C210641   3.054   2.786  13.793 -0.1871 -0.4370 -0.3023
  720MPD2    C310642   3.044   2.751  13.927 -0.4046 -0.0161 -0.2211
  720MPD2    C410643   2.922   2.760  13.994  0.5838  0.0708 -0.1246
  720MPD2    C510644   2.810   2.801  13.929 -0.2277  0.0408 -0.5620
  720MPD2     H10645   3.149   2.796  13.742 -0.7401  0.5925 -1.1234
  720MPD2    H110646   2.908   2.723  14.094 -0.4694 -0.4236 -0.4486
  720MPD2    H210647   2.729   2.863  13.748  0.7393 -0.8981 -1.2800
  720MPD2    H310648   2.712   2.806  13.976 -0.4587  1.3206 -1.1672
  720MPD2     N10649   3.172   2.724  13.989 -0.4081  0.2365  0.3845
  720MPD2    H510650   3.257   2.734  13.935  0.0611  0.2329  1.1119
  720MPD2    N110651   2.925   2.847  13.588  0.0061 -0.0577  0.1699
  720MPD2    H710652   2.839   2.876  13.544 -0.4260  1.2918  1.8849
  721TMC3    C110653   3.323   2.681  14.165  0.2854  0.0393 -0.2284
  721TMC3    C210654   3.341   2.690  14.298 -0.1774 -0.3762  0.1399
  721TMC3    C310655   3.468   2.667  14.337  0.4880 -0.4324  0.3999
  721TMC3    C410656   3.419   2.668  14.071  0.2489 -0.2383 -0.4943
  721TMC3    C510657   3.536   2.622  14.118  0.9158  0.6568  0.5892
  721TMC3    C610658   3.567   2.613  14.253  0.7310 -0.2292  0.0875
  721TMC3     C10659   3.183   2.689  14.122  0.3337 -0.5608 -0.0407
  721TMC3     O10660   3.095   2.699  14.209 -0.4220  0.5291  0.1609
  721TMC3     H10661   3.262   2.702  14.371  1.4022  3.0323  1.2903
  721TMC3    H110662   3.403   2.664  13.963 -2.2663 -2.4699 -0.0346
  721TMC3    H210663   3.670   2.588  14.275  0.0823 -1.7389  1.3988
  721TMC3    C710664   3.637   2.594  14.021  0.2721  0.0738 -0.2439
  721TMC3    C810665   3.504   2.694  14.472  0.4998 -0.4195 -0.1324
  721TMC3    O110666   3.644   2.656  13.915  0.3701 -0.1242  0.1373
  721TMC3    O210667   3.623   2.697  14.491  0.1382 -0.3623 -0.2448
  722MPD2     C10668   1.489   1.415  13.496  0.0405 -0.1266 -0.0293
  722MPD2    C110669   1.481   1.530  13.424  0.6601 -0.4159 -0.0272
  722MPD2    C210670   1.392   1.538  13.320  0.0737  0.0623 -1.3730
  722MPD2    C310671   1.316   1.427  13.283 -0.4951  0.5799 -0.2482
  722MPD2    C410672   1.347   1.301  13.336  0.3754  0.2385 -0.2082
  722MPD2    C510673   1.424   1.296  13.452  0.0320 -0.5151  0.5682
  722MPD2     H10674   1.382   1.632  13.267  0.0224 -1.6575 -4.3853
  722MPD2    H110675   1.314   1.206  13.295 -0.8951 -0.3383  2.1324
  722MPD2    H210676   1.564   1.394  13.572  1.0129  2.0395 -0.4136
  722MPD2    H310677   1.444   1.202  13.502 -1.6121 -0.5951  1.0670
  722MPD2     N10678   1.217   1.440  13.182 -0.1791 -0.3337  0.6402
  722MPD2    H510679   1.200   1.535  13.151  2.5124  0.6259  2.1480
  722MPD2    N110680   1.565   1.647  13.453 -0.0915  0.6500  0.1097
  722MPD2    H710681   1.573   1.721  13.383  0.1776  0.1277 -0.4097
  723TMC3    C110682   1.053   1.396  13.023 -0.4304  0.3369 -0.3302
  723TMC3    C210683   0.962   1.305  12.980 -0.1803  0.6388 -0.5624
  723TMC3    C310684   0.890   1.328  12.870 -0.2403 -0.7886 -0.2124
  723TMC3    C410685   1.063   1.519  12.967 -0.0987 -0.1351 -0.6272
  723TMC3    C510686   0.988   1.548  12.852  0.3875 -0.5343  0.2910
  723TMC3    C610687   0.897   1.453  12.805 -0.1871 -0.1946  0.6915
  723TMC3     C10688   1.144   1.343  13.124 -0.4692 -0.3034  0.0010
  723TMC3     O10689   1.150   1.219  13.135 -0.1486 -0.5133  0.5458
  723TMC3     H10690   0.954   1.206  13.025  1.9609  0.6385 -0.2133
  723TMC3    H110691   1.141   1.585  13.002 -0.7654  0.0442  0.5143
  723TMC3    H210692   0.838   1.470  12.717  0.4754  1.3513  0.5458
  723TMC3    C710693   0.989   1.671  12.771 -0.4870 -0.4098 -0.2967
  723TMC3    C810694   0.801   1.229  12.817  1.1253  0.1342 -0.7825
  723TMC3    O110695   0.980   1.665  12.649 -0.1239 -0.1832 -0.2169
  723TMC3    O210696   0.713   1.270  12.744  0.4641 -0.8842 -0.3614
  724TMC3    C110697   2.287   3.848  10.412 -0.3575  0.3809 -0.3952
  724TMC3    C210698   2.270   3.854  10.276 -0.0547  0.0557  0.3091
  724TMC3    C310699   2.357   3.927  10.209  0.2613 -0.2791  0.2960
  724TMC3    C410700   2.399   3.898  10.473 -0.4821 -0.0524 -0.2571
  724TMC3    C510701   2.494   3.966  10.396  0.0184 -0.5090 -0.1886
  724TMC3    C610702   2.473   3.974  10.265  0.1587  0.4485  0.2805
  724TMC3     C10703   2.203   3.757  10.492  0.1873  0.4467  0.3427
  724TMC3     O10704   2.232   3.746  10.610 -0.2197 -0.0204  0.2253
  724TMC3     H10705   2.172   3.842  10.230 -0.1066  0.3062  0.3539
  724TMC3    H110706   2.410   3.892  10.581  1.2862 -2.1544 -0.5701
  724TMC3    H210707   2.544   4.035  10.210 -0.7598  1.5086  0.2754
  724TMC3    C710708   2.631   4.009  10.434 -0.0419 -0.2423  0.4446
  724TMC3    C810709   2.340   3.946  10.072  0.3874 -0.4732  0.2553
  724TMC3    O110710   2.715   3.962  10.361  0.0462  0.0265 -0.3544
  724TMC3    O210711   2.258   3.874  10.015 -0.3068 -0.2373 -0.5128
  725TMC3    C110712   3.858   2.891  13.020  0.3611  0.4587  0.1286
  725TMC3    C210713   3.736   2.905  12.961  0.9885 -0.0805  0.4299
  725TMC3    C310714   3.722   2.897  12.827 -0.1251  0.1498 -0.0731
  725TMC3    C410715   3.964   2.872  12.932 -0.2677  0.7492  0.2956
  725TMC3    C510716   3.945   2.858  12.796  0.6164  0.8164 -0.0353
  725TMC3    C610717   3.825   2.866  12.740  0.5270  0.6793  0.0255
  725TMC3     C10718   3.876   2.993  13.128 -0.6511 -0.1785  0.7542
  725TMC3     O10719   3.972   3.068  13.110  0.1529  0.1645 -0.1061
  725TMC3     H10720   3.647   2.917  13.023  0.4597 -1.8287  0.0080
  725TMC3    H110721   4.056   2.861  12.988 -0.1134 -0.1695 -0.1406
  725TMC3    H210722   3.811   2.874  12.633  0.7366  1.9052  0.0953
  725TMC3    C710723   4.043   2.795  12.714 -0.2039 -0.5327 -0.1691
  725TMC3    C810724   3.633   3.001  12.776  0.4024  0.6834  0.5321
  725TMC3    O110725   4.017   2.788  12.596  0.2686  0.0514 -0.2988
  725TMC3    O210726   3.661   3.041  12.668 -0.4484  0.0012  0.6378
  726MPD2     C10727   1.456   4.292   9.993 -0.0221  0.5045 -0.0412
  726MPD2    C110728   1.357   4.357  10.066  0.2124  0.0503  0.1702
  726MPD2    C210729   1.254   4.284  10.131  0.3752 -0.0395  0.2566
  726MPD2    C310730   1.248   4.147  10.126  0.6538 -0.3629 -0.6921
  726MPD2    C410731   1.342   4.086  10.050  0.1824  0.3810 -0.3676
  726MPD2    C510732   1.451   4.156  10.000  0.0570 -0.5349 -0.1221
  726MPD2     H10733   1.175   4.344  10.175 -0.8166  1.2636 -3.6194
  726MPD2    H110734   1.345   3.978  10.039  1.6962  0.4142 -0.1943
  726MPD2    H210735   1.529   4.353   9.941 -1.5909 -1.0576 -4.0746
  726MPD2    H310736   1.524   4.108   9.936  0.9066 -2.4944  2.3013
  726MPD2     N10737   1.158   4.071  10.199 -0.5046 -0.2324  0.1423
  726MPD2    H510738   1.168   3.971  10.187 -1.7154 -0.4766  1.0479
  726MPD2    N110739   1.359   4.496  10.081  0.0443  0.1394  0.9569
  726MPD2    H710740   1.275   4.532  10.126 -0.7411  0.6587 -0.9290
  727TMC3    C110741   1.431   0.001  10.070 -0.2432  0.7724  0.2844
  727TMC3    C210742   1.525   0.083  10.114 -0.2684  0.2296  0.0314
  727TMC3    C310743   1.494   0.218  10.126  0.1414  0.4633  0.9381
  727TMC3    C410744   1.313   0.046  10.012 -0.4763  0.4852  0.8706
  727TMC3    C510745   1.282   0.181  10.037 -0.1261 -0.1758 -0.7489
  727TMC3    C610746   1.365   0.269  10.105  0.0003  0.5578  0.5550
  727TMC3     C10747   1.460   4.586  10.046  0.2889  0.7107 -0.4226
  727TMC3     O10748   1.580   4.561  10.032 -0.1128  0.7760  0.5619
  727TMC3     H10749   1.627   0.051  10.135 -0.2955  0.3793  0.3846
  727TMC3    H110750   1.233   4.705   9.979  1.1728 -1.8380  1.3959
  727TMC3    H210751   1.345   0.375  10.112  1.6129  0.9139 -0.1127
  727TMC3    C710752   1.169   0.240   9.975  0.0600  0.1059  0.7051
  727TMC3    C810753   1.575   0.309  10.209  0.1378 -0.0526  0.5526
  727TMC3    O110754   1.125   0.337  10.034  0.0046 -0.5548 -0.2191
  727TMC3    O210755   1.536   0.422  10.222 -0.2457 -0.5194  0.0621
  728TMC3    C110756   1.080   3.269  15.346 -0.9882  0.2216  0.3036
  728TMC3    C210757   1.171   3.221  15.441 -0.1717  0.2609 -0.0182
  728TMC3    C310758   1.301   3.197  15.412 -0.0672 -0.1510 -1.0448
  728TMC3    C410759   1.134   3.311  15.219 -0.6774  0.3032 -0.9200
  728TMC3    C510760   1.266   3.285  15.189  1.0354  0.7476  0.5071
  728TMC3    C610761   1.348   3.233  15.286 -0.3108 -0.0253 -0.5376
  728TMC3     C10762   0.943   3.257  15.358  0.0848 -0.1894  0.1556
  728TMC3     O10763   0.869   3.239  15.265 -0.6855 -0.4542  0.5896
  728TMC3     H10764   1.133   3.192  15.538 -0.2751 -0.6175 -0.3210
  728TMC3    H110765   1.059   3.334  15.143 -0.1695  2.7092 -0.7094
  728TMC3    H210766   1.455   3.223  15.268 -0.6644  0.8042 -3.0279
  728TMC3    C710767   1.311   3.325  15.060 -0.3206  0.1254  0.5943
  728TMC3    C810768   1.385   3.151  15.520  0.0105 -0.1350 -0.0077
  728TMC3    O110769   1.398   3.253  15.009 -0.4551  0.0769 -0.0809
  728TMC3    O210770   1.483   3.085  15.493  0.0907 -0.1691 -0.0201
  729MPD2     C10771   3.324   4.127  16.553 -0.2170  0.3897  0.7153
  729MPD2    C110772   3.288   4.258  16.565  0.0085  0.3720 -0.4169
  729MPD2    C210773   3.287   4.317  16.697  0.4052  0.4080  0.1636
  729MPD2    C310774   3.297   4.243  16.809 -0.8688 -0.0733 -0.1174
  729MPD2    C410775   3.325   4.113  16.795  0.7418  0.7253 -0.0801
  729MPD2    C510776   3.341   4.054  16.669  0.3181  0.3105  0.5927
  729MPD2     H10777   3.262   4.423  16.703 -1.8005  0.1137 -3.7996
  729MPD2    H110778   3.334   4.048  16.881  0.7056  0.1012 -0.5485
  729MPD2    H210779   3.321   4.081  16.455  0.3530  0.7879  0.5139
  729MPD2    H310780   3.345   3.948  16.649 -2.7186  0.1582  0.8539
  729MPD2     N10781   3.275   4.305  16.934  0.5763  0.0693 -0.1663
  729MPD2    H510782   3.235   4.397  16.919  1.7843  0.4148 -1.2411
  729MPD2    N110783   3.254   4.334  16.451 -0.1223 -0.4359  0.5427
  729MPD2    H710784   3.263   4.290  16.360 -0.7546  0.0088  0.2661
  730TMC3    C110785   3.297   4.340  17.166 -0.5598 -0.0226 -0.2105
  730TMC3    C210786   3.381   4.323  17.276  0.6545 -0.4195 -0.4764
  730TMC3    C310787   3.367   4.408  17.382  0.1114 -0.4328 -0.0797
  730TMC3    C410788   3.203   4.443  17.163 -0.6705  0.4201  0.1474
  730TMC3    C510789   3.196   4.523  17.280 -1.0149 -0.1501 -0.4804
  730TMC3    C610790   3.282   4.511  17.386  0.2253  0.6625  0.2319
  730TMC3     C10791   3.315   4.251  17.055  0.2054  0.2555 -0.6531
  730TMC3     O10792   3.381   4.151  17.076 -0.2349  0.1988  0.0123
  730TMC3     H10793   3.442   4.235  17.290  0.9401  0.2277  2.2081
  730TMC3    H110794   3.129   4.448  17.084 -1.9078 -1.7130  1.1571
  730TMC3    H210795   3.298   4.589  17.459  1.7678  0.3609  0.2181
  730TMC3    C710796   3.110   4.634  17.261  0.2043  0.0231 -0.4182
  730TMC3    C810797   3.485   4.441  17.463  0.2445  0.0695  0.3076
  730TMC3    O110798   3.093   4.662  17.143  0.0418  0.0323 -0.0729
  730TMC3    O210799   3.469   4.499  17.573  0.0976  0.0931  0.1651
  731MPD2     C10800   2.874   2.443  12.316 -0.2425  0.1547 -0.1383
  731MPD2    C110801   2.985   2.365  12.327  0.2240  0.5864 -0.3459
  731MPD2    C210802   3.022   2.304  12.451 -0.2481  0.5839 -0.3666
  731MPD2    C310803   2.936   2.308  12.557  0.5731 -0.8294 -0.3513
  731MPD2    C410804   2.820   2.379  12.537 -0.3444 -0.7112 -0.6775
  731MPD2    C510805   2.796   2.445  12.423 -0.1655 -0.4147 -0.5848
  731MPD2     H10806   3.121   2.261  12.462  0.1163  2.3188  3.3405
  731MPD2    H110807   2.751   2.377  12.620  0.0458 -2.9385 -0.4097
  731MPD2    H210808   2.834   2.484  12.224 -1.2583  0.8105  0.5961
  731MPD2    H310809   2.706   2.503  12.408 -1.1525 -1.3928  1.5414
  731MPD2     N10810   2.964   2.222  12.665 -0.2187 -0.2709  0.5475
  731MPD2    H510811   3.040   2.156  12.651 -0.2888 -0.0211 -1.0299
  731MPD2    N110812   3.049   2.336  12.205  0.0427  0.5746  0.3162
  731MPD2    H710813   3.002   2.373  12.123  1.5377 -1.0509 -1.2974
  732TMC3    C110814   3.198   2.255  12.050  0.0860 -0.1210 -0.1269
  732TMC3    C210815   3.094   2.255  11.956 -0.0151  0.0025 -0.3941
  732TMC3    C310816   3.112   2.197  11.830  0.2641  0.2980 -0.8513
  732TMC3    C410817   3.325   2.215  12.017  0.5272  0.4210  0.0269
  732TMC3    C510818   3.345   2.174  11.889 -0.0822 -0.1700  0.8716
  732TMC3    C610819   3.242   2.160  11.801  0.0879  0.0658 -0.2325
  732TMC3     C10820   3.170   2.278  12.187 -0.4013  0.0197 -0.2022
  732TMC3     O10821   3.264   2.263  12.262  0.3727  0.2238  0.5286
  732TMC3     H10822   2.992   2.276  11.983  0.4303  1.3110  0.2550
  732TMC3    H110823   3.409   2.198  12.084 -0.1940 -0.4468  0.7158
  732TMC3    H210824   3.263   2.120  11.702  2.4295 -0.2550  0.4076
  732TMC3    C710825   3.475   2.117  11.845  0.2068 -0.3151  0.3547
  732TMC3    C810826   3.013   2.125  11.761 -0.5618 -0.0842  0.4377
  732TMC3    O110827   3.466   2.022  11.770  0.0951 -0.5658  0.0044
  732TMC3    O210828   3.046   2.078  11.652 -0.0283 -0.4771 -0.1236
  733TMC3    C110829   3.482   1.253  13.026  0.5606  0.3872  1.1049
  733TMC3    C210830   3.594   1.184  13.071 -0.0311  0.0950 -1.0347
  733TMC3    C310831   3.716   1.203  13.008  0.2170  0.3024 -0.1527
  733TMC3    C410832   3.495   1.334  12.914  0.2814 -0.8927  0.3945
  733TMC3    C510833   3.617   1.354  12.869  0.2195  0.6957  0.3554
  733TMC3    C610834   3.729   1.293  12.911 -0.1318 -0.1127  0.2438
  733TMC3     C10835   3.357   1.256  13.094  0.3459 -0.6485  0.1261
  733TMC3     O10836   3.284   1.348  13.068 -0.0129  0.1689 -0.2989
  733TMC3     H10837   3.580   1.123  13.160 -1.5525 -1.6674 -2.4860
  733TMC3    H110838   3.405   1.374  12.869  0.1253 -1.2630  0.3700
  733TMC3    H210839   3.831   1.323  12.892  0.5440 -1.9404  0.9730
  733TMC3    C710840   3.633   1.438  12.752  0.4062  0.0989 -0.0840
  733TMC3    C810841   3.823   1.116  13.050 -0.1861  0.4717  0.5156
  733TMC3    O110842   3.552   1.528  12.728  1.2602 -0.3187  0.6195
  733TMC3    O210843   3.825   1.101  13.171 -0.1633  0.0727  0.7280
  734MPD2     C10844   0.991   3.499  12.373 -0.9262 -0.0198  0.6815
  734MPD2    C110845   0.927   3.409  12.291  0.4720 -0.1531 -0.1901
  734MPD2    C210846   0.900   3.439  12.159  0.0113  0.2068  0.7953
  734MPD2    C310847   0.941   3.562  12.102  0.5584  0.4299 -0.1453
  734MPD2    C410848   1.005   3.654  12.184 -0.2542 -0.1433  0.3260
  734MPD2    C510849   1.030   3.616  12.319 -0.3125  0.8904 -0.2962
  734MPD2     H10850   0.865   3.369  12.085 -1.3604  3.9822 -2.1172
  734MPD2    H110851   1.041   3.749  12.146 -0.3020 -0.9851 -1.7957
  734MPD2    H210852   1.018   3.462  12.471  2.1470 -2.0385 -0.9240
  734MPD2    H310853   1.100   3.673  12.379 -0.2765 -1.8393  2.2475
  734MPD2     N10854   0.906   3.581  11.973  0.2798 -0.1741 -0.0108
  734MPD2    H510855   0.849   3.507  11.933 -0.7934  0.8087 -0.2878
  734MPD2    N110856   0.870   3.289  12.345  0.3761 -0.8558  0.8148
  734MPD2    H710857   0.900   3.255  12.436 -0.5591 -0.9214  1.0938
  735TMC3    C110858   0.770   3.073  12.320 -0.7201  1.3016 -0.2525
  735TMC3    C210859   0.662   3.007  12.263  0.3036 -0.6038  0.1177
  735TMC3    C310860   0.675   2.884  12.200  0.0539  0.2374  0.8074
  735TMC3    C410861   0.893   3.010  12.324  0.4112 -0.2746  0.3692
  735TMC3    C510862   0.894   2.873  12.289  0.5303  0.6047 -0.3179
  735TMC3    C610863   0.789   2.807  12.229 -0.0394 -0.1737  0.1394
  735TMC3     C10864   0.773   3.211  12.282  0.0940  0.2697  0.5241
  735TMC3     O10865   0.710   3.238  12.179  0.5320 -0.2494 -0.3013
  735TMC3     H10866   0.579   3.074  12.249  0.5550 -0.4116 -0.4545
  735TMC3    H110867   0.979   3.066  12.358  0.2362 -0.0597  0.4526
  735TMC3    H210868   0.802   2.707  12.190  0.4127  0.5710 -1.6365
  735TMC3    C710869   1.027   2.824  12.279  0.4703 -0.5561  0.2083
  735TMC3    C810870   0.630   2.880  12.060  0.0415 -0.1135 -0.8138
  735TMC3    O110871   1.118   2.898  12.250  0.1008  0.7009 -0.4245
  735TMC3    O210872   0.642   2.769  12.006 -0.1065  0.0058 -0.2893
  736MPD2     C10873   1.112   2.474  12.364 -0.0978  0.5174 -0.6055
  736MPD2    C110874   1.135   2.603  12.317 -0.4000 -0.4092 -0.0649
  736MPD2    C210875   1.269   2.642  12.284 -0.2918 -0.0870  0.6001
  736MPD2    C310876   1.370   2.549  12.299 -0.3957 -0.1940 -0.9254
  736MPD2    C410877   1.344   2.417  12.348 -0.0371 -0.4549  0.2705
  736MPD2    C510878   1.214   2.382  12.377  0.2091  0.4133 -0.4264
  736MPD2     H10879   1.293   2.740  12.245 -0.4920 -0.2765 -0.0099
  736MPD2    H110880   1.417   2.338  12.362  1.6346  0.5146 -2.9135
  736MPD2    H210881   1.005   2.455  12.364 -0.3409  1.9007 -1.5836
  736MPD2    H310882   1.198   2.277  12.398 -0.6626  0.7194  0.4215
  736MPD2     N10883   1.503   2.579  12.265 -0.3779  0.0179 -0.1528
  736MPD2    H510884   1.565   2.500  12.251 -1.7166 -0.6815 -2.0720
  736MPD2    N110885   1.026   2.686  12.306  0.2767  0.2530 -0.2979
  736MPD2    H710886   0.932   2.652  12.324  0.9040 -0.7319  1.1463
  737TMC3    C110887   1.667   2.701  12.140 -0.2095  0.8978  0.1811
  737TMC3    C210888   1.673   2.812  12.055 -0.0836 -0.1475  0.4988
  737TMC3    C310889   1.742   2.799  11.942  0.0544  0.2466  0.9184
  737TMC3    C410890   1.725   2.589  12.103 -0.0604  0.2786 -0.0887
  737TMC3    C510891   1.798   2.582  11.991  0.3856  0.9628  0.1212
  737TMC3    C610892   1.814   2.687  11.906  0.4972 -0.1008 -0.3406
  737TMC3     C10893   1.550   2.707  12.234  0.1423  0.0049  0.3524
  737TMC3     O10894   1.498   2.823  12.248  0.3085  0.1262  0.0508
  737TMC3     H10895   1.627   2.906  12.084  0.5198 -0.0843  1.2337
  737TMC3    H110896   1.725   2.501  12.166  0.6126  1.7919  2.0165
  737TMC3    H210897   1.865   2.675  11.810 -1.8792  2.4478 -1.9155
  737TMC3    C710898   1.856   2.448  11.970 -0.2586  0.3037  0.2470
  737TMC3    C810899   1.723   2.906  11.846 -0.7266 -0.4363  0.5101
  737TMC3    O110900   1.794   2.353  12.014 -0.3646  0.1938 -0.1834
  737TMC3    O210901   1.622   2.977  11.863 -0.4211 -0.2352 -0.8953
  738MPD2     C10902   2.012   2.275  15.180 -0.2672  0.2603 -0.5850
  738MPD2    C110903   2.026   2.134  15.182  0.1759 -0.0780  1.0372
  738MPD2    C210904   2.140   2.077  15.137 -0.3407 -0.1467  0.2565
  738MPD2    C310905   2.241   2.161  15.088  0.1133  0.1855 -0.3734
  738MPD2    C410906   2.222   2.298  15.091  0.8758 -0.4042  0.3671
  738MPD2    C510907   2.108   2.353  15.130  0.4932 -0.5881  0.1519
  738MPD2     H10908   2.140   1.969  15.136  0.5636 -0.1418  0.7100
  738MPD2    H110909   2.297   2.369  15.058 -0.1645  0.2669 -0.5406
  738MPD2    H210910   1.921   2.319  15.218  0.6793  0.5504  1.3199
  738MPD2    H310911   2.086   2.459  15.131 -0.2711 -0.7579  0.7448
  738MPD2     N10912   2.353   2.120  15.025 -0.4561  0.0440  0.2924
  738MPD2    H510913   2.402   2.185  14.964 -3.0836 -0.8873 -2.7923
  738MPD2    N110914   1.920   2.049  15.228 -1.0845  0.2387 -0.2188
  738MPD2    H710915   1.928   1.949  15.212  2.1484  0.1759  1.6058
  739TMC3    C110916   2.527   1.996  14.967 -0.0155  0.0464  0.2797
  739TMC3    C210917   2.533   2.062  14.848  0.4740 -0.4774 -0.5929
  739TMC3    C310918   2.657   2.083  14.791 -0.1190  1.0116  0.2660
  739TMC3    C410919   2.634   1.924  15.017  0.0439  0.2779  0.0270
  739TMC3    C510920   2.757   1.935  14.947  0.5724  0.3015 -0.0475
  739TMC3    C610921   2.769   2.015  14.833 -0.8126 -0.0557  0.9240
  739TMC3     C10922   2.410   2.004  15.043 -0.2665  0.6544  0.1165
  739TMC3     O10923   2.382   1.918  15.127 -0.0894  0.8931 -0.2445
  739TMC3     H10924   2.443   2.106  14.805  0.8390 -0.9430 -1.8346
  739TMC3    H110925   2.622   1.868  15.108  0.4700 -0.6998 -0.5165
  739TMC3    H210926   2.854   2.018  14.766 -0.9168  0.4269  0.8117
  739TMC3    C710927   2.874   1.856  14.989 -0.0980 -0.1471 -0.4369
  739TMC3    C810928   2.647   2.120  14.648  0.7911  0.2341 -0.4343
  739TMC3    O110929   2.845   1.775  15.076 -0.9075 -0.4641 -0.1456
  739TMC3    O210930   2.542   2.103  14.591 -0.2454 -0.5268  0.3510
  740TMC3    C110931   2.740   3.025  14.191 -0.4737 -0.3404 -0.3388
  740TMC3    C210932   2.800   3.004  14.309 -0.4341  0.1352 -0.4251
  740TMC3    C310933   2.932   2.993  14.307 -0.1143 -0.1397 -0.4004
  740TMC3    C410934   2.810   3.069  14.082  0.1368 -0.1869 -0.3423
  740TMC3    C510935   2.946   3.079  14.095 -0.1556  0.4151 -0.2310
  740TMC3    C610936   3.010   3.040  14.207 -0.0381 -0.1355 -0.3089
  740TMC3     C10937   2.594   3.021  14.182  0.0461 -0.3415 -0.8556
  740TMC3     O10938   2.550   3.024  14.069 -0.1506  0.1152 -0.1195
  740TMC3     H10939   2.758   2.953  14.395  0.8658  3.9591  2.4669
  740TMC3    H110940   2.759   3.083  13.987 -1.9150 -0.9740  0.6479
  740TMC3    H210941   3.119   3.040  14.208 -0.0587 -1.1472  2.2399
  740TMC3    C710942   3.025   3.111  13.978  0.0506  0.5530  0.0953
  740TMC3    C810943   2.983   2.962  14.437  0.4626 -0.8767  0.0742
  740TMC3    O110944   3.148   3.098  13.999 -0.7721 -0.2224 -0.3586
  740TMC3    O210945   2.961   3.041  14.529 -0.0518  0.3590 -0.0711
  741TMC3    C110946   2.566   2.593  14.439 -0.2957 -0.5316 -0.5337
  741TMC3    C210947   2.486   2.492  14.482 -0.1100 -0.1235  0.7728
  741TMC3    C310948   2.471   2.493  14.615  0.3156  0.2152 -0.0218
  741TMC3    C410949   2.625   2.691  14.514 -0.5659 -0.4830  0.3391
  741TMC3    C510950   2.602   2.683  14.651  0.2439  0.6620 -0.0371
  741TMC3    C610951   2.512   2.591  14.697  0.0258 -0.9473  0.0057
  741TMC3     C10952   2.610   2.595  14.297  0.4806  0.3337  0.2645
  741TMC3     O10953   2.722   2.633  14.266 -0.5818  0.2519  0.1254
  741TMC3     H10954   2.466   2.405  14.420  2.9718  0.3430 -0.8727
  741TMC3    H110955   2.694   2.761  14.468  0.7035 -0.1446  2.7557
  741TMC3    H210956   2.477   2.591  14.800 -1.3866  0.9092 -0.4631
  741TMC3    C710957   2.633   2.809  14.713  0.7272 -1.0114 -0.6305
  741TMC3    C810958   2.386   2.394  14.685 -0.4649  0.6469 -0.1597
  741TMC3    O110959   2.674   2.904  14.648 -0.2486  0.4742  1.0123
  741TMC3    O210960   2.394   2.377  14.808  0.3142 -0.1548 -0.1521
  742TMC3    C110961   2.227   1.354  15.101  0.1046 -0.0597  0.0572
  742TMC3    C210962   2.170   1.323  14.981 -0.3326  0.0115  0.5897
  742TMC3    C310963   2.235   1.236  14.900 -0.0908 -0.0648  0.0243
  742TMC3    C410964   2.348   1.305  15.144 -0.3960  0.0070 -0.6219
  742TMC3    C510965   2.411   1.219  15.057  0.4739  0.0133 -0.2272
  742TMC3    C610966   2.358   1.182  14.938  0.1474  0.6242  0.3799
  742TMC3     C10967   2.149   1.444  15.182  0.2331  0.4166  0.4463
  742TMC3     O10968   2.090   1.528  15.110 -0.6975 -0.3819  0.1631
  742TMC3     H10969   2.069   1.357  14.962 -1.3744 -3.3683  0.1115
  742TMC3    H110970   2.397   1.341  15.233  0.2571 -0.7557 -0.6822
  742TMC3    H210971   2.403   1.115  14.866 -3.0740 -0.3944 -0.7041
  742TMC3    C710972   2.526   1.145  15.103  0.0984 -0.4998  0.3366
  742TMC3    C810973   2.177   1.177  14.783  0.2341 -0.6116 -0.8185
  742TMC3    O110974   2.570   1.068  15.019 -0.1358  0.3094 -0.4957
  742TMC3    O210975   2.233   1.080  14.728 -0.0931  0.0409  0.2572
  743MPD2     C10976   0.373   1.740   1.522  0.0122  0.1555 -0.2697
  743MPD2    C110977   0.448   1.742   1.407 -0.0453  0.4218  0.3835
  743MPD2    C210978   0.584   1.716   1.394 -0.3604 -0.4592  0.1253
  743MPD2    C310979   0.654   1.692   1.509 -0.0842 -0.2683  0.3256
  743MPD2    C410980   0.586   1.706   1.630  0.3030  0.0819 -0.2338
  743MPD2    C510981   0.446   1.732   1.636  0.1313  0.1553  0.1290
  743MPD2     H10982   0.625   1.714   1.294 -0.5141  0.8785  0.0327
  743MPD2    H110983   0.627   1.679   1.727 -2.3666  0.2646  0.9364
  743MPD2    H210984   0.269   1.768   1.524 -0.4938 -1.7197  0.2663
  743MPD2    H310985   0.392   1.725   1.729 -1.3561  1.8206 -0.6021
  743MPD2     N10986   0.795   1.671   1.504 -0.4058  0.5609  0.2270
  743MPD2    H510987   0.838   1.668   1.412  1.3649  2.3921  0.9895
  743MPD2    N110988   0.365   1.770   1.292  0.3037  0.5397 -0.1604
  743MPD2    H710989   0.265   1.782   1.306  0.4077  0.8070  0.3631
  744TMC3    C110990   0.304   1.789   1.059 -0.1414 -0.8249 -0.1179
  744TMC3    C210991   0.201   1.881   1.079  0.4532 -0.3753  0.2053
  744TMC3    C310992   0.127   1.914   0.966 -0.4284  0.1230  0.2233
  744TMC3    C410993   0.347   1.736   0.940 -0.1167 -0.0111  0.0914
  744TMC3    C510994   0.268   1.775   0.834  0.9345 -0.0373  0.3106
  744TMC3    C610995   0.156   1.851   0.847  0.0632 -0.3489  0.5125
  744TMC3     C10996   0.406   1.775   1.159 -0.7585 -0.5683 -0.9067
  744TMC3     O10997   0.518   1.759   1.114  0.0102 -0.0807 -0.4041
  744TMC3     H10998   0.184   1.942   1.167  2.7339  0.4910  0.0293
  744TMC3    H110999   0.433   1.670   0.936  1.8744  2.5615 -0.1107
  744TMC3    H211000   0.109   1.888   0.756 -1.1237  0.3772  1.4300
  744TMC3    C711001   0.337   1.775   0.707 -0.0025 -0.2292  0.5197
  744TMC3    C811002   0.013   2.002   0.990  0.0285  0.1350  0.6285
  744TMC3    O111003   0.281   1.843   0.617  0.1660  0.8171 -0.3095
  744TMC3    O211004   0.010   2.092   1.078  0.4109  0.3369  0.3273
  745TMC3    C111005   2.197   0.523  13.631  0.7893  0.2083  0.1722
  745TMC3    C211006   2.131   0.498  13.743 -0.0563  0.1155  0.1930
  745TMC3    C311007   2.004   0.555  13.757 -0.1345  0.0788  0.2540
  745TMC3    C411008   2.150   0.598  13.530 -0.0698  0.4214 -0.0445
  745TMC3    C511009   2.022   0.648  13.547 -0.1830 -0.2830 -0.7951
  745TMC3    C611010   1.944   0.618  13.653  0.5578  0.1151 -0.6113
  745TMC3     C11011   2.340   0.511  13.644  0.0954  0.5316  0.4049
  745TMC3     O11012   2.375   0.400  13.681 -0.0742  0.2586 -0.6485
  745TMC3     H11013   2.166   0.436  13.825 -2.2983 -0.2878  0.8636
  745TMC3    H111014   2.208   0.623  13.442 -0.4561  2.4029  0.2668
  745TMC3    H211015   1.846   0.665  13.660  0.0724 -1.0633  0.4418
  745TMC3    C711016   1.961   0.729  13.438  0.4291  0.3816  0.0561
  745TMC3    C811017   2.002   0.644  13.870  0.4452  0.5071  0.8084
  745TMC3    O111018   1.846   0.708  13.406  0.1194  0.1042 -0.6186
  745TMC3    O211019   1.899   0.718  13.879 -0.3906 -0.4062 -0.7059
  746TMC3    C111020   0.222   2.142  11.031 -0.9927  0.2474  0.6276
  746TMC3    C211021   0.306   2.105  10.933 -0.3788  0.5448  0.0588
  746TMC3    C311022   0.319   1.974  10.897 -0.0237  0.5659 -0.5505
  746TMC3    C411023   0.166   2.048  11.115  0.3575  0.5859 -0.4282
  746TMC3    C511024   0.187   1.914  11.085 -0.2326 -0.2397 -0.4850
  746TMC3    C611025   0.251   1.881  10.974 -0.4577 -0.1832 -0.0678
  746TMC3     C11026   0.179   2.281  11.037  0.7865 -1.1275 -0.0416
  746TMC3     O11027   0.191   2.331  11.148  0.1716  0.2600  0.0100
  746TMC3     H11028   0.355   2.180  10.872  0.9750 -1.0155 -0.7791
  746TMC3    H111029   0.088   2.080  11.183 -0.0098  0.1379 -0.6435
  746TMC3    H211030   0.250   1.776  10.946 -0.5805  0.4062 -2.2740
  746TMC3    C711031   0.079   1.826  11.119  0.1480 -0.0186 -0.1877
  746TMC3    C811032   0.383   1.928  10.769 -0.3495 -0.0428  0.0029
  746TMC3    O111033   0.032   1.762  11.026 -0.2767 -0.1389  0.0699
  746TMC3    O211034   0.363   1.814  10.740  0.0601  0.2187 -0.2385
  747TMC3    C111035   2.620   2.215  11.352 -0.2685  0.1330  0.1050
  747TMC3    C211036   2.502   2.241  11.424  0.1115  0.2386  0.1215
  747TMC3    C311037   2.514   2.311  11.544  0.2134 -0.4860 -0.6211
  747TMC3    C411038   2.741   2.263  11.395 -0.3910  0.2533  0.1464
  747TMC3    C511039   2.744   2.320  11.518  0.5774  0.5663 -0.4122
  747TMC3    C611040   2.634   2.352  11.593 -0.5742  0.1045  0.6633
  747TMC3     C11041   2.608   2.226  11.211 -0.3019  0.5192  0.2581
  747TMC3     O11042   2.557   2.332  11.180 -0.3018 -0.4281 -0.1175
  747TMC3     H11043   2.408   2.221  11.375  1.2590 -1.8040 -1.2252
  747TMC3    H111044   2.817   2.267  11.317 -0.2573  2.1244  0.3537
  747TMC3    H211045   2.637   2.401  11.689 -1.2433  0.0684  0.7032
  747TMC3    C711046   2.869   2.382  11.567  0.1009 -0.5470  0.4211
  747TMC3    C811047   2.400   2.338  11.621  0.8202 -0.3156  0.5284
  747TMC3    O111048   2.861   2.454  11.665  0.5226 -0.9913  0.2669
  747TMC3    O211049   2.405   2.434  11.697 -0.7533  0.0664  0.0078
  748MPD2     C11050   3.982   2.443   1.191 -0.0876 -0.2607 -0.2309
  748MPD2    C111051   4.117   2.404   1.186 -0.3150 -0.3363  0.6775
  748MPD2    C211052   4.215   2.501   1.176 -0.0472  0.8383  0.5906
  748MPD2    C311053   4.183   2.636   1.186 -0.2377  0.3828 -0.5664
  748MPD2    C411054   4.050   2.671   1.197  0.4054  0.0088  0.2415
  748MPD2    C511055   3.954   2.573   1.188 -0.1141 -0.2954  0.2044
  748MPD2     H11056   4.320   2.477   1.165 -0.2763  0.3542 -0.5560
  748MPD2    H111057   4.021   2.775   1.201 -1.0275 -0.3503 -0.6985
  748MPD2    H211058   3.893   2.381   1.187  0.0904 -0.5601  0.6116
  748MPD2    H311059   3.851   2.606   1.183  0.3267  1.5841  3.5374
  748MPD2     N11060   4.289   2.732   1.185 -0.4975 -0.1886 -0.2904
  748MPD2    H511061   4.381   2.697   1.211 -0.1639  1.6337  1.0012
  748MPD2    N111062   4.155   2.262   1.182 -0.7617  0.9183 -0.0355
  748MPD2    H711063   4.076   2.200   1.171 -0.0698 -0.0670  0.5672
  749TMC3    C111064   4.407   2.938   1.150 -0.3999 -0.1410  0.7199
  749TMC3    C211065   4.511   2.891   1.229  0.5225 -0.7925 -0.6280
  749TMC3    C311066   4.633   2.951   1.210 -0.2259 -0.4334  0.4083
  749TMC3    C411067   4.430   3.029   1.047 -0.8552 -0.1179  0.3202
  749TMC3    C511068   4.560   3.083   1.030  0.2255 -0.3541  0.4602
  749TMC3    C611069   4.664   3.043   1.113 -0.4257  0.0329  0.5371
  749TMC3     C11070   4.281   2.868   1.152  0.5248 -0.0373  0.2768
  749TMC3     O11071   4.192   2.923   1.093  0.0022  0.0830  0.5017
  749TMC3     H11072   4.494   2.822   1.310  2.1962  1.0439  1.2772
  749TMC3    H111073   4.354   3.059   0.977 -2.8142  0.0523  2.5364
  749TMC3    H211074   0.036   3.094   1.111 -1.2631  1.5293 -1.1333
  749TMC3    C711075   4.584   3.195   0.941  0.1808 -0.4786  0.6061
  749TMC3    C811076   0.010   2.917   1.308  0.7396  0.1147  0.9746
  749TMC3    O111077   4.485   3.266   0.929 -0.7529  0.2489  1.0549
  749TMC3    O211078   4.690   2.917   1.425  0.1435 -0.0022 -0.4153
  750MPD2     C11079   0.398   4.155  10.686  0.0048  0.4537  0.4315
  750MPD2    C111080   0.275   4.127  10.742 -0.4000 -0.0962  0.6630
  750MPD2    C211081   0.237   3.995  10.766 -0.0185  0.1549 -0.9533
  750MPD2    C311082   0.319   3.893  10.723 -0.7898 -0.5418  0.7008
  750MPD2    C411083   0.433   3.923  10.655 -1.2147 -0.3243 -0.1387
  750MPD2    C511084   0.473   4.053  10.637  0.8695 -0.5033  0.8477
  750MPD2     H11085   0.145   3.977  10.820  0.1559 -0.2276 -0.7794
  750MPD2    H111086   0.506   3.851  10.620 -1.2443  0.9498 -2.8546
  750MPD2    H211087   0.429   4.256  10.661 -2.3078  1.1441  0.3446
  750MPD2    H311088   0.562   4.067  10.576  0.4084  0.8141  0.4810
  750MPD2     N11089   0.294   3.756  10.746  0.2277  0.3969  0.1565
  750MPD2    H511090   0.377   3.701  10.724 -0.2230 -0.8427  1.5362
  750MPD2    N111091   0.198   4.240  10.788 -0.4037 -0.1529  0.5867
  750MPD2    H711092   0.243   4.331  10.779  0.6015 -0.7388 -0.4004
  751TMC3    C111093   0.210   3.564  10.850 -0.3915  0.5445  0.1491
  751TMC3    C211094   0.140   3.521  10.960 -0.2958 -0.8971  0.5338
  751TMC3    C311095   0.150   3.385  10.979  1.0281 -0.9545 -0.7490
  751TMC3    C411096   0.277   3.476  10.771  0.3011  0.0858 -0.2953
  751TMC3    C511097   0.275   3.338  10.789 -0.0201 -0.5017  0.3249
  751TMC3    C611098   0.209   3.288  10.896 -0.3006 -0.0062  0.1276
  751TMC3     C11099   0.196   3.705  10.821 -0.6648 -0.0029 -0.6781
  751TMC3     O11100   0.110   3.758  10.887 -0.3841  0.2760 -0.1969
  751TMC3     H11101   0.114   3.592  11.039  0.1535 -0.0912 -0.0436
  751TMC3    H111102   0.336   3.510  10.687 -2.0802 -0.9052 -2.3852
  751TMC3    H211103   0.220   3.188  10.935 -0.0157 -0.1829 -0.4191
  751TMC3    C711104   0.345   3.259  10.697  0.1736  0.6603  0.0884
  751TMC3    C811105   0.030   3.324  11.040  0.2903 -0.3201  0.7734
  751TMC3    O111106   0.428   3.312  10.623  0.4122  0.2563  0.1872
  751TMC3    O211107   0.040   3.206  11.074  0.1436 -0.1776  0.3543
  752TMC3    C111108   4.199   4.498  16.378 -0.7587 -0.2098  0.6544
  752TMC3    C211109   4.170   4.366  16.346  1.0524  0.6170  0.4954
  752TMC3    C311110   4.162   4.277  16.449 -0.5290  0.4568  0.1208
  752TMC3    C411111   4.207   4.540  16.512  0.3310  0.3117 -0.2312
  752TMC3    C511112   4.186   4.449  16.609 -0.2744  0.0360  0.0087
  752TMC3    C611113   4.167   4.314  16.585 -0.4877  0.1914 -0.6565
  752TMC3     C11114   4.139   4.599  16.295  0.6451  0.3071 -0.1191
  752TMC3     O11115   4.204   4.703  16.289  0.2688  0.2283 -0.5372
  752TMC3     H11116   4.165   4.321  16.247 -0.5476  1.7607  0.0360
  752TMC3    H111117   4.207   4.644  16.543 -0.2594 -0.1453  1.3117
  752TMC3    H211118   4.152   4.238  16.661 -0.0030  0.4643 -0.2866
  752TMC3    C711119   4.235   4.492  16.743  0.1740 -0.1641  0.8049
  752TMC3    C811120   4.140   4.143  16.410 -0.0395 -0.2182  0.0120
  752TMC3    O111121   4.310   4.588  16.747 -0.1253 -1.1517  0.3042
  752TMC3    O211122   4.179   4.104  16.300 -0.0904 -0.0330  0.2903
  753TMC3    C111123   0.862   1.134  13.340 -0.0658  0.2791 -0.1538
  753TMC3    C211124   0.973   1.129  13.416  0.2205  0.1314  0.3238
  753TMC3    C311125   1.034   1.009  13.441 -0.2948 -0.6296  0.8430
  753TMC3    C411126   0.814   1.018  13.280 -0.4856 -0.1895 -0.5436
  753TMC3    C511127   0.877   0.898  13.305 -0.0981  0.1222  0.0294
  753TMC3    C611128   0.994   0.891  13.379 -0.9832 -0.1682  0.2452
  753TMC3     C11129   0.816   1.265  13.292 -0.3173  0.5074  0.6835
  753TMC3     O11130   0.742   1.253  13.198  0.2996  0.2608  0.3361
  753TMC3     H11131   1.026   1.218  13.447  1.7297  0.0638 -2.1066
  753TMC3    H111132   0.735   1.017  13.205 -0.0362  2.1324 -1.0478
  753TMC3    H211133   1.039   0.794  13.396  1.5160  1.1894  1.4585
  753TMC3    C711134   0.832   0.781  13.231 -0.3987  0.1150  0.0142
  753TMC3    C811135   1.122   0.989  13.554  0.1790  0.6320  0.2480
  753TMC3    O111136   0.714   0.778  13.208 -0.1637 -0.1956  0.4230
  753TMC3    O211137   1.181   0.881  13.557  0.5645  0.5071 -0.1660
  754MPD2     C11138   4.715   3.871  12.754 -0.0203  0.7098  0.4625
  754MPD2    C111139   4.661   3.745  12.753  0.0366  0.9270  0.4346
  754MPD2    C211140   4.528   3.726  12.786 -0.1858 -0.2511  0.3716
  754MPD2    C311141   4.453   3.835  12.837  0.5358 -0.1691 -0.5776
  754MPD2    C411142   4.508   3.965  12.827  0.6355 -0.4438  0.8622
  754MPD2    C511143   4.639   3.984  12.780  0.2745  0.0564  0.8734
  754MPD2     H11144   4.483   3.628  12.782  0.9975 -0.7520 -0.6779
  754MPD2    H111145   4.452   4.056  12.847  0.2537 -0.7492  1.1973
  754MPD2    H211146   0.092   3.885  12.718 -0.3022 -1.4293 -1.1729
  754MPD2    H311147   4.682   4.082  12.764  3.1807 -1.5196 -0.7947
  754MPD2     N11148   4.322   3.827  12.885 -0.2317  0.1900 -0.0980
  754MPD2    H511149   4.272   3.912  12.910  0.5663  1.0357 -1.3950
  754MPD2    N111150   0.024   3.641  12.716 -0.1520  0.4377 -0.1046
  754MPD2    H711151   0.103   3.667  12.656 -0.4931  1.7932  0.0293
  755MPD2     C11152   3.793   4.463  13.009 -0.3187  0.4139  0.1191
  755MPD2    C111153   3.757   4.378  13.115  0.1016  0.6306 -0.0312
  755MPD2    C211154   3.788   4.246  13.114  0.2644 -0.0461  0.3625
  755MPD2    C311155   3.849   4.196  13.002 -0.1413  0.2979  0.0342
  755MPD2    C411156   3.884   4.283  12.895 -0.0168  0.0745  0.3498
  755MPD2    C511157   3.861   4.417  12.896 -0.7869  0.6974  0.3667
  755MPD2     H11158   3.768   4.185  13.201 -2.2391 -0.3308 -0.4251
  755MPD2    H111159   3.933   4.238  12.809 -1.7163 -0.8891 -0.1298
  755MPD2    H211160   3.781   4.570  13.008  1.3712  0.6187  2.6405
  755MPD2    H311161   3.865   4.478  12.806  0.3677  0.0892  0.0089
  755MPD2     N11162   3.889   4.059  12.996 -0.1333  0.0073  0.0424
  755MPD2    H511163   3.945   4.031  12.916 -0.3001  0.7737 -0.3409
  755MPD2    N111164   3.707   4.428  13.239  0.5050  0.3349 -0.3046
  755MPD2    H711165   3.688   4.368  13.319  1.2856  1.1091  0.4620
  756MPD2     C11166   4.541   0.032   9.062  0.5577 -0.3367 -0.6030
  756MPD2    C111167   4.455   4.700   9.155  0.2290  0.5738  0.3178
  756MPD2    C211168   4.330   4.668   9.121  0.1970  0.6733  0.1409
  756MPD2    C311169   4.282   4.713   9.000 -0.1547  0.4208 -0.5460
  756MPD2    C411170   4.366   0.049   8.911  0.0734  0.4168  0.2372
  756MPD2    C511171   4.495   0.072   8.942 -0.3225 -0.2003  0.0498
  756MPD2     H11172   4.265   4.634   9.202 -0.4277 -0.6680 -0.9318
  756MPD2    H111173   4.334   0.076   8.811  2.3647 -1.2487 -0.9542
  756MPD2    H211174   4.645   0.058   9.081 -0.0306 -0.2876  2.5866
  756MPD2    H311175   4.565   0.124   8.877  0.7113 -1.5673  0.0750
  756MPD2     N11176   4.144   4.685   8.979 -0.4993 -0.3681 -0.1897
  756MPD2    H511177   4.095   4.626   9.046 -1.8548  0.4235 -0.4714
  756MPD2    N111178   4.494   4.651   9.282 -0.3317  0.1829  0.1445
  756MPD2    H711179   4.434   4.581   9.324 -0.4735  0.0241 -0.3230
  757MPD2     C11180   3.639   4.270   9.511 -0.3480  0.0315 -0.0980
  757MPD2    C111181   3.765   4.234   9.476  0.0229 -0.2327  0.3914
  757MPD2    C211182   3.821   4.274   9.362  0.2335 -0.7928  0.7699
  757MPD2    C311183   3.745   4.346   9.270  0.2250  0.2025 -0.7539
  757MPD2    C411184   3.611   4.375   9.293  0.7737  0.6462  0.0226
  757MPD2    C511185   3.561   4.332   9.417  0.7766 -0.1028  0.4755
  757MPD2     H11186   3.921   4.236   9.348  0.5055  1.0859 -2.2507
  757MPD2    H111187   3.543   4.426   9.226  0.5094 -1.7192 -1.5053
  757MPD2    H211188   3.600   4.241   9.608  0.5782 -1.2218 -0.1136
  757MPD2    H311189   3.458   4.358   9.440  0.2872 -3.0706  1.6691
  757MPD2     N11190   3.800   4.383   9.147  0.0402  0.4084  0.2452
  757MPD2    H511191   3.901   4.380   9.137  0.0344 -0.1716  0.3255
  757MPD2    N111192   3.853   4.161   9.558  0.1948 -0.0646  0.0985
  757MPD2    H711193   3.948   4.142   9.527 -0.8050 -0.7870 -2.4958
  758MPD2     C11194   4.625   3.889  15.635  0.1289 -0.1191  0.4572
  758MPD2    C111195   0.008   3.823  15.692 -0.5887 -0.2721  0.8537
  758MPD2    C211196   4.717   3.789  15.830  0.3018  0.6077  0.5706
  758MPD2    C311197   4.612   3.832  15.904  0.6822  0.1279  0.1253
  758MPD2    C411198   4.514   3.894  15.838  0.9325 -0.6301 -1.5125
  758MPD2    C511199   4.520   3.928  15.707 -0.5152  0.7407 -0.3833
  758MPD2     H11200   0.074   3.735  15.879 -0.1542 -0.4891  0.1209
  758MPD2    H111201   4.437   3.940  15.898  1.4497 -0.5923 -0.8822
  758MPD2    H211202   4.619   3.936  15.538  1.9650  0.7501  0.7628
  758MPD2    H311203   4.450   3.998  15.663 -0.1351  1.9310  0.9173
  758MPD2     N11204   4.604   3.825  16.045  0.1354  0.6380 -0.3141
  758MPD2    H511205   4.536   3.884  16.093  1.3662  1.2636  0.6850
  758MPD2    N111206   0.121   3.771  15.622 -0.5600 -0.7011 -0.1388
  758MPD2    H711207   0.166   3.703  15.683 -0.4280 -0.3664  0.1398
  759MPD2     C11208   3.791   1.343  10.595 -0.2918  0.3520  0.9676
  759MPD2    C111209   3.691   1.319  10.506  0.3506  0.4340 -1.1318
  759MPD2    C211210   3.662   1.402  10.402  0.4292  0.4189  0.6278
  759MPD2    C311211   3.732   1.520  10.393  0.1574 -1.1463  0.0212
  759MPD2    C411212   3.843   1.535  10.471  0.1815  0.4556 -0.4657
  759MPD2    C511213   3.864   1.453  10.578 -0.3526  0.6818 -0.6843
  759MPD2     H11214   3.576   1.389  10.338 -0.3876 -1.6884  2.1706
  759MPD2    H111215   3.907   1.622  10.460 -0.5235  0.9409 -0.7199
  759MPD2    H211216   3.799   1.284  10.686 -0.1746 -0.8917  0.1547
  759MPD2    H311217   3.947   1.475  10.644 -0.0934  0.4487 -0.9328
  759MPD2     N11218   3.680   1.611  10.307  0.1861 -0.0450 -0.6192
  759MPD2    H511219   3.600   1.577  10.253 -0.7619  0.1127  0.6764
  759MPD2    N111220   3.612   1.202  10.524 -0.2567  0.0904  0.1597
  759MPD2    H711221   3.527   1.226  10.472  0.8344  1.2830 -1.0747
  760MPD2     C11222   2.952   4.175  12.120  0.3585  0.3861 -0.2990
  760MPD2    C111223   3.073   4.170  12.052  0.0876  0.3701  0.0228
  760MPD2    C211224   3.174   4.095  12.103  0.2648 -0.7082 -0.0612
  760MPD2    C311225   3.167   4.044  12.235 -1.0450 -1.0790  0.6841
  760MPD2    C411226   3.044   4.057  12.303  0.0522 -0.2591  0.2436
  760MPD2    C511227   2.943   4.126  12.250 -0.0346  0.1790 -0.0780
  760MPD2     H11228   3.262   4.096  12.040  0.4030 -1.2608  0.1311
  760MPD2    H111229   3.027   4.014  12.400 -1.5122 -1.0819 -0.3968
  760MPD2    H211230   2.862   4.225  12.088 -1.0240 -1.6187  0.4266
  760MPD2    H311231   2.855   4.132  12.312 -0.2234 -0.3411 -0.2966
  760MPD2     N11232   3.273   3.964  12.291  0.3277  0.0698  0.2674
  760MPD2    H511233   3.258   3.922  12.383 -1.3692 -0.9093 -0.4543
  760MPD2    N111234   3.098   4.246  11.930 -0.4177 -0.6225 -0.1485
  760MPD2    H711235   3.187   4.237  11.880  0.1931  0.2912  0.7769
  761MPD2     C11236   4.272   3.233  11.091  0.4260  0.4918 -0.0028
  761MPD2    C111237   4.368   3.167  11.018  0.3670 -0.5462  1.6041
  761MPD2    C211238   4.493   3.215  11.001  0.3072  0.0900  0.0141
  761MPD2    C311239   4.515   3.344  11.050 -0.9987  0.5799 -0.4958
  761MPD2    C411240   4.413   3.422  11.106  0.4693  0.0625  0.2191
  761MPD2    C511241   4.295   3.360  11.138  0.1315  0.0019  0.1092
  761MPD2     H11242   4.569   3.160  10.946 -1.3831 -0.5957 -1.6105
  761MPD2    H111243   4.433   3.521  11.146 -0.4287  0.3814 -0.1338
  761MPD2    H211244   4.167   3.204  11.092  1.1424 -1.9793  1.7079
  761MPD2    H311245   4.217   3.405  11.199  1.5070  0.7192  1.3244
  761MPD2     N11246   4.648   3.402  11.044 -0.3544 -0.7050  0.1052
  761MPD2    H511247   4.651   3.503  11.037 -1.7768 -0.7960 -1.7397
  761MPD2    N111248   4.321   3.056  10.941 -0.0444 -0.3812 -0.2582
  761MPD2    H711249   4.235   3.009  10.968 -0.4592  0.4187 -0.2019
  762MPD2     C11250   0.031   3.107  10.423  0.3063 -0.6693 -0.8949
  762MPD2    C111251   0.010   2.974  10.438 -0.1234  0.3977  0.9028
  762MPD2    C211252   0.112   2.891  10.409  0.1805 -0.0842 -0.1400
  762MPD2    C311253   0.236   2.938  10.349  0.0857 -0.3731 -1.2541
  762MPD2    C411254   0.256   3.075  10.343 -0.0341  0.7985  0.1341
  762MPD2    C511255   0.152   3.155  10.391 -0.1687 -0.2941 -0.1242
  762MPD2     H11256   0.102   2.784  10.425 -0.4289  0.0200  0.1634
  762MPD2    H111257   0.342   3.129  10.306  0.3699 -0.2575 -0.4379
  762MPD2    H211258   4.680   3.179  10.454  1.2467 -0.1428  0.1656
  762MPD2    H311259   0.155   3.262  10.404  0.7193 -0.4511  0.9782
  762MPD2     N11260   0.332   2.836  10.313 -0.3893  0.7050  0.0675
  762MPD2    H511261   0.302   2.739  10.318 -0.4661  0.4766 -4.8395
  762MPD2    N111262   4.611   2.937  10.488  0.0192  0.0709  0.7332
  762MPD2    H711263   4.577   3.002  10.558  0.9857 -0.9858  2.1895
  763MPD2     C11264   1.486   3.771  16.096 -0.2803 -0.0790 -0.3653
  763MPD2    C111265   1.607   3.728  16.051 -0.0999  0.0994  0.3202
  763MPD2    C211266   1.709   3.741  16.146  0.3690  0.0920  0.0931
  763MPD2    C311267   1.703   3.823  16.257 -0.4901  0.4432 -0.1479
  763MPD2    C411268   1.580   3.880  16.284  0.0980 -0.7375  0.0702
  763MPD2    C511269   1.472   3.847  16.212 -0.4222 -0.6484  0.4186
  763MPD2     H11270   1.804   3.698  16.117 -0.8179 -1.6636 -1.2014
  763MPD2    H111271   1.571   3.930  16.380 -0.7750 -0.2149 -0.2926
  763MPD2    H211272   1.392   3.770  16.043 -0.3731  2.3943 -0.2524
  763MPD2    H311273   1.372   3.885  16.231  0.0053  0.9155 -0.4849
  763MPD2     N11274   1.805   3.831  16.346 -0.7847  0.7846  0.7850
  763MPD2    H511275   1.785   3.887  16.428 -0.1175  2.0924  0.0587
  763MPD2    N111276   1.628   3.668  15.924 -0.1031  0.1390 -0.5339
  763MPD2    H711277   1.719   3.629  15.903  0.6736  1.0595  1.1258
  764MPD2     C11278   4.506   1.185  17.152  0.5267 -0.0437 -0.2194
  764MPD2    C111279   4.535   1.065  17.086  0.0772  0.0655 -0.1673
  764MPD2    C211280   4.621   0.980  17.148  0.8185 -0.8148  0.1408
  764MPD2    C311281   4.675   1.006  17.270  0.0431 -0.0704  0.0125
  764MPD2    C411282   4.652   1.127  17.324 -0.8236 -0.1660 -0.2193
  764MPD2    C511283   4.569   1.215  17.265  0.0001 -0.3187  0.1447
  764MPD2     H11284   4.649   0.884  17.105  0.4796 -0.5942 -0.5697
  764MPD2    H111285   4.704   1.155  17.415 -2.0321 -1.6170  0.9115
  764MPD2    H211286   4.429   1.255  17.121  2.2098  0.6209 -2.9570
  764MPD2    H311287   4.550   1.314  17.304  0.8598  0.5001 -1.5100
  764MPD2     N11288   0.019   0.895  17.327  0.0538  1.0198  0.4025
  764MPD2    H511289   0.003   0.805  17.283 -0.0359 -0.4298  3.4267
  764MPD2    N111290   4.466   1.019  16.965 -1.0955 -0.5111 -0.3739
  764MPD2    H711291   4.496   0.929  16.927  1.5120 -0.1344  0.8205
  765MPD2     C11292   4.062   3.132  15.376 -0.1712 -0.7894  0.3303
  765MPD2    C111293   4.128   3.218  15.465  0.0360 -0.3058 -0.4786
  765MPD2    C211294   4.269   3.209  15.467  0.6237 -0.0386  0.1352
  765MPD2    C311295   4.337   3.135  15.366  0.0369 -0.3863  0.0154
  765MPD2    C411296   4.262   3.063  15.277  0.2108  0.1231 -0.1896
  765MPD2    C511297   4.125   3.062  15.280  0.2512 -0.3573 -0.3128
  765MPD2     H11298   4.320   3.270  15.541 -0.3761  1.8516 -0.7514
  765MPD2    H111299   4.310   3.018  15.191 -1.3587  2.2524 -2.1753
  765MPD2    H211300   3.955   3.129  15.362 -0.3387 -0.4182  1.5582
  765MPD2    H311301   4.077   3.000  15.205 -1.9166  1.6291 -0.5558
  765MPD2     N11302   4.478   3.133  15.366  0.1128  1.2185  0.4338
  765MPD2    H511303   4.517   3.175  15.450  0.7744 -0.3504  0.9052
  765MPD2    N111304   4.047   3.311  15.540 -0.8193 -0.4675  0.0676
  765MPD2    H711305   3.946   3.300  15.543 -0.8282 -0.6479 -1.2390
  766MPD2     C11306   3.410   3.429  15.287 -0.3118 -0.1815  0.6893
  766MPD2    C111307   3.536   3.404  15.322  0.0175 -0.0126  0.3532
  766MPD2    C211308   3.614   3.338  15.226  0.1578  0.4664  0.3360
  766MPD2    C311309   3.566   3.298  15.103  0.4376  0.0718  0.2781
  766MPD2    C411310   3.437   3.330  15.077  0.1386  0.0149 -0.8498
  766MPD2    C511311   3.353   3.384  15.170  0.0199  0.7751 -0.8175
  766MPD2     H11312   3.720   3.335  15.247  0.3784  0.4883 -0.7424
  766MPD2    H111313   3.391   3.304  14.982  0.8284  0.7140 -1.3747
  766MPD2    H211314   3.353   3.489  15.357 -2.1442 -0.7806 -0.2770
  766MPD2    H311315   3.249   3.406  15.149 -0.4374 -1.1879 -0.6771
  766MPD2     N11316   3.645   3.232  15.005 -0.3010 -0.2959 -0.2823
  766MPD2    H511317   3.613   3.242  14.910  0.1024  1.1505 -0.2605
  766MPD2    N111318   3.590   3.463  15.432  0.3453 -0.3967 -0.1219
  766MPD2    H711319   3.536   3.534  15.480 -2.6582 -1.4937 -1.8940
  767MPD2     C11320   3.236   3.340  14.767  1.1326 -0.0081  0.2173
  767MPD2    C111321   3.364   3.379  14.735  0.8171  0.2896 -0.4197
  767MPD2    C211322   3.434   3.307  14.642 -0.0781  0.1767  0.8359
  767MPD2    C311323   3.386   3.190  14.590  0.8329 -0.0427 -0.1757
  767MPD2    C411324   3.259   3.153  14.622 -0.7354 -0.1257 -0.5194
  767MPD2    C511325   3.198   3.222  14.722  0.7281  0.2567 -0.0115
  767MPD2     H11326   3.528   3.346  14.604 -0.4414 -1.2377 -1.4786
  767MPD2    H111327   3.218   3.059  14.588  2.0584 -1.2292 -0.8197
  767MPD2    H211328   3.181   3.398  14.840 -0.5335  1.8108 -2.4774
  767MPD2    H311329   3.096   3.188  14.739  0.8195 -0.3862 -0.7135
  767MPD2     N11330   3.460   3.136  14.482  0.0040 -0.0022 -0.1532
  767MPD2    H511331   3.555   3.170  14.467 -0.0080  0.3152  0.5071
  767MPD2    N111332   3.416   3.492  14.802 -0.4755 -0.1359 -0.3511
  767MPD2    H711333   3.356   3.546  14.864 -1.9733  0.0354 -1.9317
  768MPD2     C11334   4.582   1.418  10.778  0.6830  0.2272  0.6522
  768MPD2    C111335   4.576   1.372  10.909 -0.7643  0.1410  0.1716
  768MPD2    C211336   4.684   1.384  10.992 -0.3986 -0.4877  0.0276
  768MPD2    C311337   0.084   1.419  10.942 -0.2265  0.0030 -0.3538
  768MPD2    C411338   0.091   1.457  10.810 -0.4265  0.0605  0.6022
  768MPD2    C511339   4.704   1.450  10.729  0.8043  0.3432 -0.0736
  768MPD2     H11340   4.656   1.356  11.093 -1.8352  1.3256  0.1231
  768MPD2    H111341   0.181   1.496  10.765  0.2239 -1.8253  0.3041
  768MPD2    H211342   4.497   1.426  10.712  1.0607  0.5510  0.2021
  768MPD2    H311343   4.707   1.473  10.623  0.0303  0.7631 -0.0070
  768MPD2     N11344   0.201   1.440  11.025  0.4965 -0.3141 -0.3975
  768MPD2    H511345   0.283   1.472  10.975  0.7288  0.0318  0.2108
  768MPD2    N111346   4.458   1.314  10.969  0.1262  0.2958 -0.2400
  768MPD2    H711347   4.457   1.298  11.069  2.4416  1.9906  0.0734
  769MPD2     C11348   0.812   4.458  14.501  0.0133  0.1607 -0.4413
  769MPD2    C111349   0.726   4.453  14.609  0.6651  0.0860  0.0823
  769MPD2    C211350   0.772   4.505  14.728 -0.0282  0.8516  0.2893
  769MPD2    C311351   0.900   4.568  14.743 -0.1601 -0.1651  0.0666
  769MPD2    C411352   0.980   4.574  14.625  0.1684 -0.4968  0.0343
  769MPD2    C511353   0.935   4.516  14.503  0.0411  0.3187 -0.5550
  769MPD2     H11354   0.711   4.498  14.817  1.5112 -0.1887  1.2696
  769MPD2    H111355   1.068   4.637  14.623 -0.1409 -0.0786 -0.2143
  769MPD2    H211356   0.764   4.418  14.412  0.0185  0.1869 -0.4559
  769MPD2    H311357   0.985   4.537  14.409  0.9348 -2.1480 -0.6235
  769MPD2     N11358   0.928   4.633  14.865 -0.9399  0.1410 -0.1368
  769MPD2    H511359   0.852   4.639  14.932 -0.4572 -1.8656  0.5977
  769MPD2    N111360   0.596   4.400  14.588  0.0895 -0.4897  0.3192
  769MPD2    H711361   0.569   4.393  14.491  1.2143  0.1645 -0.0453
  770MPD2     C11362   0.271   3.431  14.742  0.0826 -0.8124 -0.3346
  770MPD2    C111363   0.159   3.477  14.687  0.2635  0.0672  0.5616
  770MPD2    C211364   0.156   3.611  14.663 -0.4901  0.4909 -0.1455
  770MPD2    C311365   0.256   3.701  14.690  0.3970 -0.4273 -0.2232
  770MPD2    C411366   0.372   3.644  14.733 -0.2140 -0.1121  0.6975
  770MPD2    C511367   0.376   3.510  14.763  0.2688 -0.0900  0.4620
  770MPD2     H11368   0.065   3.657  14.627 -0.1157  1.2177 -0.1681
  770MPD2    H111369   0.457   3.705  14.761  1.3244 -2.3782  0.8949
  770MPD2    H211370   0.276   3.330  14.782  3.0735  0.5692  2.7472
  770MPD2    H311371   0.466   3.481  14.817 -0.2411  0.2719  1.5107
  770MPD2     N11372   0.232   3.843  14.669 -0.7920  0.0674 -0.2905
  770MPD2    H511373   0.145   3.880  14.632 -1.7487 -2.6326 -0.7303
  770MPD2    N111374   0.054   3.381  14.674 -0.7050  0.0266  0.3333
  770MPD2    H711375   0.075   3.283  14.692 -0.6722 -0.2005 -0.9839
  771MPD2     C11376   1.753   2.617  13.507 -0.2281 -0.3778  0.1784
  771MPD2    C111377   1.674   2.722  13.468 -0.3514 -0.2758  0.0435
  771MPD2    C211378   1.546   2.710  13.435 -0.3883 -0.0808 -0.5196
  771MPD2    C311379   1.494   2.586  13.403  0.1205  0.5829 -0.8260
  771MPD2    C411380   1.577   2.476  13.433  0.2040 -0.4266  0.7504
  771MPD2    C511381   1.705   2.491  13.485 -0.2751 -0.6779 -0.3865
  771MPD2     H11382   1.482   2.794  13.409 -0.4534  0.4890  1.4947
  771MPD2    H111383   1.540   2.374  13.431 -0.8090 -0.0018 -1.4998
  771MPD2    H211384   1.853   2.618  13.547 -0.0182 -1.0106 -0.3287
  771MPD2    H311385   1.767   2.406  13.512 -0.3056 -0.4897  0.2788
  771MPD2     N11386   1.357   2.576  13.360 -0.0321 -0.8209  0.3323
  771MPD2    H511387   1.312   2.663  13.334 -0.3503 -1.7389 -2.2987
  771MPD2    N111388   1.720   2.852  13.470 -0.0587 -0.1418 -0.4528
  771MPD2    H711389   1.649   2.924  13.456  0.0526  0.2173  0.8929
  772MPD2     C11390   1.498   3.387  13.833  0.5800 -0.2314  0.0106
  772MPD2    C111391   1.466   3.301  13.731 -0.0723 -0.3435  0.3040
  772MPD2    C211392   1.343   3.247  13.734 -1.0478 -0.7080 -0.6994
  772MPD2    C311393   1.248   3.280  13.835 -0.4844 -0.0250  0.5310
  772MPD2    C411394   1.281   3.369  13.929 -0.8685 -0.8443  0.3804
  772MPD2    C511395   1.409   3.414  13.932  0.3391 -0.9318  0.5457
  772MPD2     H11396   1.327   3.171  13.658 -0.0980 -1.2225 -0.3794
  772MPD2    H111397   1.209   3.408  14.001  0.4883  1.6679  0.3806
  772MPD2    H211398   1.597   3.425  13.849 -0.0281  1.0013  0.8089
  772MPD2    H311399   1.442   3.465  14.022 -1.3660  1.3214 -0.1060
  772MPD2     N11400   1.116   3.240  13.838 -0.3164  0.0545 -0.5345
  772MPD2    H511401   1.064   3.277  13.918 -0.2333  0.9373 -0.8837
  772MPD2    N111402   1.559   3.271  13.626 -0.8051  0.6399 -0.1326
  772MPD2    H711403   1.526   3.198  13.565  0.4919 -0.5026  0.5171
  773MPD2     C11404   0.736   3.913  17.644 -0.2948 -0.1575  0.1899
  773MPD2    C111405   0.618   3.848  17.634  0.3363  0.5206 -0.3813
  773MPD2    C211406   0.619   3.713  17.670  0.4661  0.3304  0.1750
  773MPD2    C311407   0.732   3.653   0.026  0.1908  0.4164  0.4722
  773MPD2    C411408   0.843   3.729   0.043 -0.2152 -0.6684  0.4234
  773MPD2    C511409   0.848   3.852   0.004  0.7500  0.4711  0.3851
  773MPD2     H11410   0.523   3.662  17.667  1.1485 -0.9313 -0.4053
  773MPD2    H111411   0.934   3.685   0.079  0.4390  0.4640  0.1577
  773MPD2    H211412   0.746   4.018  17.619 -0.6861  0.3390  2.0614
  773MPD2    H311413   0.939   3.909   0.015  2.1733 -1.5340 -0.9198
  773MPD2     N11414   0.730   3.515   0.058 -0.2796 -0.2255  0.2343
  773MPD2    H511415   0.646   3.462   0.039  0.4020 -1.3787  0.3888
  773MPD2    N111416   0.497   3.906  17.589 -0.2484  0.0829  0.2673
  773MPD2    H711417   0.409   3.859  17.610  0.2214 -0.1814  1.6636
  774MPD2     C11418   4.392   2.759  13.276  0.0293 -0.1043  0.0183
  774MPD2    C111419   4.384   2.869  13.359  0.1313  0.8923  0.2787
  774MPD2    C211420   4.395   2.993  13.302  0.5318 -0.6851  0.5006
  774MPD2    C311421   4.439   3.003  13.171  0.5135  0.0318  0.3414
  774MPD2    C411422   4.453   2.892  13.097 -0.2557 -0.7626  0.6115
  774MPD2    C511423   4.423   2.769  13.147  0.4177 -0.0938 -0.5029
  774MPD2     H11424   4.380   3.083  13.360 -1.9191 -1.4387  1.0490
  774MPD2    H111425   4.476   2.891  12.991 -0.2316 -0.2158  0.6107
  774MPD2    H211426   4.370   2.659  13.312 -0.7336  0.1183  0.1674
  774MPD2    H311427   4.440   2.680  13.089  2.0858 -0.6242  0.8023
  774MPD2     N11428   4.470   3.131  13.128  0.6051  0.1077 -0.2493
  774MPD2    H511429   4.458   3.208  13.194  1.3091  0.4200 -0.4746
  774MPD2    N111430   4.365   2.840  13.496  0.1838  0.1935 -0.3525
  774MPD2    H711431   4.371   2.741  13.515  0.5148 -0.0356 -1.6178
  775MPD2     C11432   1.330   0.159  15.707  0.0645  0.5084  0.6570
  775MPD2    C111433   1.403   0.224  15.802 -0.7141  0.0958  0.2911
  775MPD2    C211434   1.493   0.321  15.754 -0.1859 -0.4717 -0.3694
  775MPD2    C311435   1.493   0.372  15.628  0.0462  0.7512 -0.1298
  775MPD2    C411436   1.407   0.312  15.543 -0.6624  0.4418 -0.2467
  775MPD2    C511437   1.328   0.207  15.579  0.0369 -0.4424 -0.4564
  775MPD2     H11438   1.546   0.381  15.827 -0.9818 -1.6233  1.1440
  775MPD2    H111439   1.402   0.348  15.441 -2.1963  4.1649  1.1443
  775MPD2    H211440   1.263   0.079  15.736 -0.3913  0.4674 -0.5110
  775MPD2    H311441   1.263   0.166  15.503 -1.4716 -1.7920  1.5805
  775MPD2     N11442   1.557   0.483  15.581  0.5860  0.5036 -0.0132
  775MPD2    H511443   1.537   0.502  15.483 -2.3628  1.9987  0.8733
  775MPD2    N111444   1.374   0.206  15.942 -0.0961  0.1969 -0.7765
  775MPD2    H711445   1.303   0.140  15.973 -0.3823 -0.1099 -2.0700
  776MPD2     C11446   0.594   4.527  11.112  0.2067  0.1805 -0.2030
  776MPD2    C111447   0.482   4.544  11.190 -0.5770  0.4080 -0.0963
  776MPD2    C211448   0.491   4.616  11.306 -0.3034 -0.0124  0.1903
  776MPD2    C311449   0.614   4.668  11.349 -0.0220  0.4916  0.2455
  776MPD2    C411450   0.728   4.645  11.279  0.1421  0.1396  0.8400
  776MPD2    C511451   0.713   4.577  11.163 -0.6624 -0.8321  0.3917
  776MPD2     H11452   0.402   4.639  11.364 -1.7458 -1.4076 -1.4826
  776MPD2    H111453   0.825   4.666  11.322  1.0531 -1.7414 -0.2857
  776MPD2    H211454   0.596   4.473  11.018 -1.2712  0.2727 -0.2761
  776MPD2    H311455   0.796   4.533  11.108  0.0884  1.3818 -0.2190
  776MPD2     N11456   0.629   0.026  11.463 -0.3264 -0.2004  0.4702
  776MPD2    H511457   0.721   0.068  11.473 -0.2163 -0.1047 -0.8898
  776MPD2    N111458   0.353   4.502  11.137 -0.0802  0.5735 -0.3482
  776MPD2    H711459   0.345   4.469  11.042 -0.2853  0.1123 -0.1691
  777MPD2     C11460   0.660   2.521   0.489 -0.2864 -0.4319 -0.0788
  777MPD2    C111461   0.706   2.405   0.545  0.3827 -0.0990 -0.1601
  777MPD2    C211462   0.730   2.294   0.465  0.4141 -0.1586 -0.3899
  777MPD2    C311463   0.684   2.302   0.327 -0.8315  0.0363 -0.0162
  777MPD2    C411464   0.629   2.418   0.286 -0.4222 -0.0797  0.2962
  777MPD2    C511465   0.617   2.528   0.363  0.7278 -0.4287 -0.6212
  777MPD2     H11466   0.754   2.195   0.500 -0.8248 -0.3084  0.0463
  777MPD2    H111467   0.584   2.424   0.187 -0.9319 -0.2438  0.5151
  777MPD2    H211468   0.630   2.602   0.554  0.7674 -1.2674  1.4716
  777MPD2    H311469   0.562   2.618   0.334 -1.2914 -1.6121 -0.5030
  777MPD2     N11470   0.681   2.185   0.249 -0.2470  0.1689 -0.2852
  777MPD2    H511471   0.699   2.096   0.295 -0.4114  0.1216 -0.3092
  777MPD2    N111472   0.723   2.406   0.685 -0.4453  0.5475  0.9247
  777MPD2    H711473   0.703   2.495   0.729 -0.6619  1.5569 -1.1721
  778MPD2     C11474   1.571   2.884  15.163 -0.0447 -0.3331  0.3441
  778MPD2    C111475   1.549   2.797  15.055 -0.3754 -0.5516  0.0591
  778MPD2    C211476   1.611   2.823  14.941 -0.0372  0.9684  0.1488
  778MPD2    C311477   1.698   2.935  14.932 -1.2934 -0.5761 -0.1994
  778MPD2    C411478   1.726   3.017  15.036 -0.0608  0.1341 -0.3592
  778MPD2    C511479   1.658   2.988  15.151  0.1794  0.1892  0.2907
  778MPD2     H11480   1.587   2.768  14.851 -0.5234  0.2904  0.6932
  778MPD2    H111481   1.792   3.102  15.047  0.2303  0.0112 -1.1695
  778MPD2    H211482   1.520   2.869  15.257 -0.0458  1.0224  0.5518
  778MPD2    H311483   1.679   3.048  15.239  2.3464  1.4244 -1.0767
  778MPD2     N11484   1.752   2.961  14.804  0.4518  0.2919 -0.7175
  778MPD2    H511485   1.714   2.907  14.728  0.1714  0.0855 -0.4326
  778MPD2    N111486   1.450   2.698  15.055 -0.3894 -0.3047 -0.1206
  778MPD2    H711487   1.425   2.646  14.972 -1.1914  1.3529 -0.9150
  779MPD2     C11488   1.044   2.067  14.429  0.7301  0.0161 -0.0173
  779MPD2    C111489   1.173   2.034  14.435 -0.0453 -0.6325  0.3650
  779MPD2    C211490   1.261   2.123  14.494 -0.5576 -0.1267  0.2355
  779MPD2    C311491   1.224   2.254  14.520 -0.4579  0.6643 -0.4977
  779MPD2    C411492   1.092   2.285  14.513  0.6803  0.0865  0.2546
  779MPD2    C511493   1.006   2.193  14.467 -0.1262  0.4627 -0.4107
  779MPD2     H11494   1.366   2.096  14.495 -0.9331 -1.6641 -1.9412
  779MPD2    H111495   1.049   2.380  14.542  0.8146 -0.8885  3.5445
  779MPD2    H211496   0.967   1.999  14.393  0.1345 -0.8333  2.8122
  779MPD2    H311497   0.902   2.224  14.469 -0.5479 -0.8328 -2.3149
  779MPD2     N11498   1.326   2.347  14.546  0.0013  0.0277  0.4900
  779MPD2    H511499   1.421   2.311  14.540 -0.5846 -1.4468  0.2433
  779MPD2    N111500   1.220   1.904  14.400 -0.0865 -0.5668 -0.1937
  779MPD2    H711501   1.318   1.882  14.418  0.0371 -0.9052 -1.2753
  780MPD2     C11502   1.379   1.075   1.333 -0.2302 -0.5325 -0.1801
  780MPD2    C111503   1.330   1.156   1.233  0.6927 -0.3393 -0.2859
  780MPD2    C211504   1.412   1.215   1.145 -0.2870 -1.1727  0.3210
  780MPD2    C311505   1.547   1.207   1.162  0.6388  0.1007  0.3933
  780MPD2    C411506   1.599   1.136   1.264  0.7379 -0.1595 -0.2170
  780MPD2    C511507   1.517   1.068   1.345 -0.1655 -0.5501 -0.3113
  780MPD2     H11508   1.368   1.270   1.063 -1.0473  0.1698  1.6353
  780MPD2    H111509   1.706   1.126   1.282  0.4336  1.2727  2.2639
  780MPD2    H211510   1.318   1.018   1.403 -2.8388  2.3645 -0.0662
  780MPD2    H311511   1.567   1.010   1.422 -0.3578  0.1028  0.3086
  780MPD2     N11512   1.622   1.274   1.068  0.2193  0.3483  0.5683
  780MPD2    H511513   1.582   1.315   0.985 -3.2764 -1.2634  1.4545
  780MPD2    N111514   1.184   1.151   1.222 -0.0227 -0.3524 -0.1526
  780MPD2    H711515   1.129   1.104   1.293 -3.4237  2.1016 -1.1868
  781MPD2     C11516   2.708   3.064  11.837 -0.1314 -0.5509  1.2425
  781MPD2    C111517   2.751   3.057  11.964  0.0794 -0.1029  0.2181
  781MPD2    C211518   2.891   3.042  11.986  0.2483 -0.2119 -0.4087
  781MPD2    C311519   2.983   3.012  11.888  0.9121 -0.4052  0.6624
  781MPD2    C411520   2.930   2.989  11.764 -0.2206 -0.0823  0.1933
  781MPD2    C511521   2.801   3.028  11.740  0.5035  0.1329  0.5540
  781MPD2     H11522   2.929   3.061  12.086  0.4980 -5.1150  0.4675
  781MPD2    H111523   2.989   2.952  11.682 -1.1015 -1.8519  0.3560
  781MPD2    H211524   2.607   3.086  11.803 -0.2265 -0.2306  1.7319
  781MPD2    H311525   2.757   3.017  11.642  0.0513  1.9599  0.5457
  781MPD2     N11526   3.125   2.983  11.903  0.4818 -0.0084  0.1652
  781MPD2    H511527   3.173   2.930  11.830  0.5507 -2.8143  2.2408
  781MPD2    N111528   2.669   3.087  12.069 -0.1126  0.1655 -0.1637
  781MPD2    H711529   2.712   3.096  12.161 -0.4436 -0.8394  0.0848
  782MPD2     C11530   0.554   3.291  10.113 -0.2039 -0.0510 -0.1565
  782MPD2    C111531   0.691   3.281  10.140 -1.0541 -0.7757 -0.5015
  782MPD2    C211532   0.761   3.395  10.177 -0.0468  0.1705 -0.8074
  782MPD2    C311533   0.702   3.517  10.177 -0.3345 -0.0537  0.5299
  782MPD2    C411534   0.574   3.533  10.139  0.9317 -0.2428 -0.8657
  782MPD2    C511535   0.507   3.419  10.095 -0.5719  0.2146 -0.1161
  782MPD2     H11536   0.862   3.385  10.213 -1.4431 -0.6864  2.9447
  782MPD2    H111537   0.529   3.631  10.135  1.0296 -0.2600 -2.2252
  782MPD2    H211538   0.494   3.210  10.074 -2.2323  1.2473  0.2674
  782MPD2    H311539   0.407   3.434  10.055  0.5935  2.1106 -2.2692
  782MPD2     N11540   0.774   3.627  10.235  0.5212  0.2842 -0.2064
  782MPD2    H511541   0.855   3.607  10.293  0.7467  2.0133  0.0732
  782MPD2    N111542   0.746   3.149  10.137 -0.0598 -0.2792  0.0707
  782MPD2    H711543   0.679   3.079  10.107  1.1926 -1.1397 -0.7362
  783MPD2     C11544   0.350   2.884  10.711 -0.1166 -0.6644 -0.1099
  783MPD2    C111545   0.394   3.010  10.671  0.3678 -0.1773  0.0802
  783MPD2    C211546   0.509   3.025  10.599  0.4449  0.3668  0.4723
  783MPD2    C311547   0.584   2.911  10.564 -0.3470  0.3466  0.5766
  783MPD2    C411548   0.537   2.785  10.610 -1.1037  0.1724  0.0342
  783MPD2    C511549   0.424   2.774  10.680 -0.2672  0.0043  0.6181
  783MPD2     H11550   0.542   3.124  10.568  0.2424 -0.2200 -1.6164
  783MPD2    H111551   0.594   2.693  10.606 -0.5017  0.4802  1.9682
  783MPD2    H211552   0.259   2.877  10.770 -1.5572 -1.9013 -2.4784
  783MPD2    H311553   0.390   2.677  10.713 -2.9230  0.6829 -0.0534
  783MPD2     N11554   0.696   2.926  10.482 -0.8429 -0.0238  0.8433
  783MPD2    H511555   0.715   3.016  10.440  3.9258 -2.5544 -2.4170
  783MPD2    N111556   0.318   3.122  10.713 -0.0400  0.2174  0.2382
  783MPD2    H711557   0.231   3.103  10.761  0.6275  1.5779  1.9733
  784MPD2     C11558   2.544   3.996   1.312  0.6257  0.1710 -0.2188
  784MPD2    C111559   2.604   4.111   1.272 -0.1563 -0.0857 -0.1932
  784MPD2    C211560   2.531   4.213   1.212  0.2170  0.0691 -0.1140
  784MPD2    C311561   2.394   4.191   1.177  0.4231  0.7067  0.0696
  784MPD2    C411562   2.337   4.065   1.200 -0.7340 -0.2725  0.0944
  784MPD2    C511563   2.415   3.974   1.279  0.1230 -0.0500 -0.0663
  784MPD2     H11564   2.583   4.305   1.186  0.2517  0.6824  2.1170
  784MPD2    H111565   2.230   4.051   1.185 -0.8882  1.3918 -0.3928
  784MPD2    H211566   2.598   3.920   1.367 -0.4311 -0.5792 -0.2066
  784MPD2    H311567   2.377   3.874   1.300  0.0823 -0.2043 -0.8558
  784MPD2     N11568   2.332   4.293   1.111  0.4326 -0.7672 -0.3334
  784MPD2    H511569   2.388   4.375   1.090  1.7901 -0.6225  3.9068
  784MPD2    N111570   2.741   4.136   1.301 -0.6758 -0.5384 -0.0229
  784MPD2    H711571   2.779   4.229   1.282 -1.0228 -0.9446 -2.6481
  785MPD2     C11572   3.354   2.705  11.303 -0.4902  0.2438 -0.0587
  785MPD2    C111573   3.261   2.806  11.293  0.0406  0.1548 -0.3726
  785MPD2    C211574   3.132   2.778  11.264 -0.9836  0.2410 -0.4152
  785MPD2    C311575   3.089   2.647  11.250  0.2297 -0.3407 -0.5147
  785MPD2    C411576   3.178   2.540  11.262  0.0020 -0.7623 -0.5507
  785MPD2    C511577   3.305   2.580  11.293  0.2319 -0.2278  0.0456
  785MPD2     H11578   3.054   2.853  11.256  0.4470  1.8875  0.9720
  785MPD2    H111579   3.152   2.434  11.263 -1.0042 -0.4800  1.9388
  785MPD2    H211580   3.460   2.725  11.316 -1.0397  1.7650  2.1426
  785MPD2    H311581   3.373   2.497  11.307  1.5199  1.1481  2.0021
  785MPD2     N11582   2.958   2.624  11.204 -0.8645  0.2606 -0.3005
  785MPD2    H511583   2.898   2.705  11.196 -1.1461  0.3134  2.1739
  785MPD2    N111584   3.308   2.943  11.314  0.2400 -0.1193 -0.7694
  785MPD2    H711585   3.408   2.955  11.324  0.9225 -2.7598 -4.4789
  786MPD2     C11586   1.799   1.099  14.448  0.4905  0.6040 -0.1370
  786MPD2    C111587   1.895   1.016  14.492 -0.0434 -0.3193  0.7406
  786MPD2    C211588   1.985   1.058  14.588 -0.2266  0.2638 -0.1259
  786MPD2    C311589   1.975   1.188  14.637 -0.0980 -0.1092  0.8324
  786MPD2    C411590   1.870   1.270  14.592  0.1658 -0.5197  0.3624
  786MPD2    C511591   1.788   1.229  14.494 -0.5125 -0.5338 -0.0822
  786MPD2     H11592   2.041   0.981  14.641 -0.0382 -0.9433 -2.0880
  786MPD2    H111593   1.854   1.370  14.632 -0.0814 -0.0861 -0.8343
  786MPD2    H211594   1.726   1.068  14.374 -0.5940 -0.8889  1.5634
  786MPD2    H311595   1.707   1.293  14.462  0.4005  0.6825  0.0717
  786MPD2     N11596   2.060   1.239  14.745 -0.1834  0.5957 -0.2757
  786MPD2    H511597   2.026   1.322  14.792 -1.9890 -1.2808  1.7441
  786MPD2    N111598   1.906   0.884  14.447 -0.5746  0.0419 -0.1055
  786MPD2    H711599   1.986   0.826  14.472 -0.7103 -0.5009 -0.9151
  787MPD2     C11600   1.823   0.175  14.823 -0.4294  0.2580  1.1519
  787MPD2    C111601   1.929   0.238  14.751  0.5856  0.9317  0.4570
  787MPD2    C211602   2.051   0.240  14.812  0.5525  0.2817  0.1638
  787MPD2    C311603   2.072   0.185  14.940  0.5799  0.3186 -0.1044
  787MPD2    C411604   1.969   0.117  15.006  0.2673  0.2696 -1.0817
  787MPD2    C511605   1.847   0.116  14.945  1.0391 -0.0490  0.2728
  787MPD2     H11606   2.129   0.287  14.753 -0.2667 -0.5801 -1.6071
  787MPD2    H111607   1.983   0.070  15.103  1.7754  1.0360 -0.9366
  787MPD2    H211608   1.721   0.166  14.790  0.0927  0.3067 -0.4933
  787MPD2    H311609   1.766   0.066  14.997 -0.7453  1.8098 -0.7179
  787MPD2     N11610   2.200   0.197  14.997 -0.4927 -0.1333 -0.1589
  787MPD2    H511611   2.270   0.239  14.937  0.3797 -1.2555  0.0666
  787MPD2    N111612   1.886   0.310  14.633  0.3552 -0.0378  0.6416
  787MPD2    H711613   1.788   0.303  14.609  1.1491  0.7024 -2.8702
  788MPD2     C11614   4.449   3.486   0.290  0.5205 -0.3083  0.2547
  788MPD2    C111615   4.345   3.400   0.266  0.2720  0.0528  0.0876
  788MPD2    C211616   4.231   3.442   0.199  0.0612  0.0309 -0.4569
  788MPD2    C311617   4.227   3.572   0.143 -0.6384 -0.0160  0.0448
  788MPD2    C411618   4.334   3.653   0.171  0.4148  1.1287 -0.4780
  788MPD2    C511619   4.441   3.612   0.247  0.6608  0.3909  0.1002
  788MPD2     H11620   4.146   3.377   0.180 -0.5401  0.1815  1.6654
  788MPD2    H111621   4.312   3.756   0.146 -1.3414  0.4099 -1.9160
  788MPD2    H211622   4.539   3.460   0.343 -0.5094  0.0395  2.1630
  788MPD2    H311623   4.521   3.684   0.257  1.9686 -0.8868 -1.1778
  788MPD2     N11624   4.126   3.607   0.057  0.8108 -0.1663  0.3056
  788MPD2    H511625   4.147   3.694   0.009 -0.3051  0.0353  0.1789
  788MPD2    N111626   4.334   3.265   0.311 -0.5617  0.1760 -0.1358
  788MPD2    H711627   4.255   3.210   0.279 -0.6093  0.0998  0.1107
  789MPD2     C11628   4.482   3.410  15.800 -0.7656 -0.1020  0.5068
  789MPD2    C111629   4.404   3.316  15.863  0.3081  0.5918 -0.3001
  789MPD2    C211630   4.306   3.363  15.948 -0.4929 -0.8897  0.1203
  789MPD2    C311631   4.279   3.493  15.963  0.0092 -0.2332 -0.3015
  789MPD2    C411632   4.359   3.582  15.898  0.5575 -0.3118  0.3711
  789MPD2    C511633   4.462   3.545  15.819 -0.0544 -0.0296  0.1975
  789MPD2     H11634   4.254   3.285  16.002 -1.2163 -0.6719 -0.2756
  789MPD2    H111635   4.352   3.689  15.915 -0.3745 -0.2004 -0.7737
  789MPD2    H211636   4.557   3.370  15.733 -2.3366 -1.7820 -0.2499
  789MPD2    H311637   4.520   3.620  15.768  1.1786 -0.4936  0.9291
  789MPD2     N11638   4.167   3.548  16.029 -0.3009  0.3781  0.4865
  789MPD2    H511639   4.153   3.648  16.016 -1.7619  0.1062 -0.0963
  789MPD2    N111640   4.422   3.181  15.851 -0.3957 -0.3327 -0.2050
  789MPD2    H711641   4.397   3.116  15.925  1.4068 -0.1126  0.6191
  790MPD2     C11642   0.156   0.444  13.722  0.6165 -0.8066  0.1669
  790MPD2    C111643   0.233   0.354  13.651  0.2051 -0.1588 -0.6423
  790MPD2    C211644   0.211   0.335  13.517  0.5194 -0.0113  0.1100
  790MPD2    C311645   0.112   0.404  13.447 -0.1465 -0.5800  0.3053
  790MPD2    C411646   0.045   0.503  13.515 -0.2485  0.0531  0.2394
  790MPD2    C511647   0.071   0.524  13.650 -0.2643 -0.4276  0.3596
  790MPD2     H11648   0.257   0.254  13.463  1.8917 -0.4435  1.9294
  790MPD2    H111649   4.703   0.577  13.470 -2.3251 -1.5711  0.6578
  790MPD2    H211650   0.170   0.462  13.828 -1.3137  1.9197 -0.0382
  790MPD2    H311651   0.002   0.586  13.705  0.3157 -0.4132  1.0705
  790MPD2     N11652   0.091   0.381  13.311  0.7093 -0.0435  0.1980
  790MPD2    H511653   0.136   0.297  13.277  1.2570  0.3753 -0.1100
  790MPD2    N111654   0.328   0.278  13.725  0.0828 -0.4328 -0.0962
  790MPD2    H711655   0.331   0.302  13.824  1.4872 -0.2908 -0.1734
  791MPD2     C11656   4.207   0.628  12.854 -0.6631  0.2687 -0.7131
  791MPD2    C111657   4.252   0.497  12.837  0.0274  0.2374  0.4355
  791MPD2    C211658   4.172   0.416  12.759  0.0707  0.0816 -0.1133
  791MPD2    C311659   4.052   0.457  12.710  0.0908  0.0512 -0.2299
  791MPD2    C411660   4.014   0.589  12.723  0.4283 -0.9415  0.7068
  791MPD2    C511661   4.090   0.672  12.799  0.0130 -0.5410  0.6642
  791MPD2     H11662   4.192   0.312  12.735  0.9967  0.2928 -0.2543
  791MPD2    H111663   3.913   0.627  12.717  1.2764  1.3941  1.3570
  791MPD2    H211664   4.251   0.704  12.918 -0.6851 -0.5715  0.3023
  791MPD2    H311665   4.062   0.773  12.827 -1.3181 -0.2795 -1.6579
  791MPD2     N11666   3.970   0.359  12.651 -0.5165  0.0407 -0.4094
  791MPD2    H511667   4.006   0.266  12.669  0.4820  0.5362  0.1557
  791MPD2    N111668   4.373   0.443  12.902  0.4717 -0.4094 -1.5429
  791MPD2    H711669   4.431   0.512  12.950  0.0348  0.0621 -1.6912
  792MPD2     C11670   0.183   0.174  11.092  0.0056  0.3354 -0.4107
  792MPD2    C111671   0.269   0.127  10.998  0.5188  0.2755  0.2262
  792MPD2    C211672   0.212   0.043  10.901 -0.7095  0.3067 -0.1197
  792MPD2    C311673   0.078   0.014  10.882  0.7273  0.4771  0.7537
  792MPD2    C411674   4.723   0.063  10.980  0.0212 -0.0476 -0.0525
  792MPD2    C511675   0.049   0.132  11.086 -0.3845 -0.2272 -0.2164
  792MPD2     H11676   0.271   4.719  10.824  0.1089  1.3250 -0.1271
  792MPD2    H111677   4.615   0.053  10.969 -0.2859  1.6270  1.4546
  792MPD2    H211678   0.210   0.241  11.172  2.2671 -0.5453 -0.4246
  792MPD2    H311679   4.707   0.148  11.171 -1.1540  0.6215 -0.9739
  792MPD2     N11680   0.037   4.663  10.770  0.0266  0.4274  0.2740
  792MPD2    H511681   0.114   4.650  10.706  0.5830  2.3379  0.5416
  792MPD2    N111682   0.403   0.159  11.012  0.0155 -0.0798  0.4311
  792MPD2    H711683   0.430   0.243  11.061 -1.3963  0.1409  0.8259
  793MPD2     C11684   4.300   4.322   9.934 -0.1270  0.4135  0.0707
  793MPD2    C111685   4.412   4.385   9.954  0.1968  0.0138 -0.6056
  793MPD2    C211686   4.456   4.417  10.076  0.9074 -0.7144 -0.5899
  793MPD2    C311687   4.381   4.377  10.187  0.4058  0.7569 -0.5239
  793MPD2    C411688   4.260   4.310  10.170 -0.1354 -0.3954  0.0732
  793MPD2    C511689   4.223   4.285  10.040  0.4686 -0.4361 -1.2974
  793MPD2     H11690   4.549   4.471  10.089  1.2518 -1.4350 -0.0339
  793MPD2    H111691   4.201   4.281  10.256  0.8012  1.4677  1.3479
  793MPD2    H211692   4.270   4.292   9.835  0.5220  0.3377 -0.1038
  793MPD2    H311693   4.126   4.244  10.017 -1.1828  1.6509  2.0177
  793MPD2     N11694   4.449   4.384  10.312 -0.2327  0.0482  0.0629
  793MPD2    H511695   4.542   4.425  10.313 -0.8643  1.4657  1.9079
  793MPD2    N111696   4.496   4.433   9.849  0.2628  0.0478 -0.0365
  793MPD2    H711697   4.566   4.495   9.888  0.6602  1.0616 -2.4050
  794MPD2     C11698   0.165   4.651  17.228 -0.0332  0.9045 -0.3862
  794MPD2    C111699   0.142   4.528  17.164  0.3489  0.7890  0.3376
  794MPD2    C211700   0.081   4.530  17.042 -0.0932  0.2960 -0.0086
  794MPD2    C311701   0.047   4.650  16.982  0.1235  0.3531 -0.6772
  794MPD2    C411702   0.089   0.038  17.038 -0.2648  0.1451  0.6850
  794MPD2    C511703   0.134   0.037  17.167 -0.8837 -0.1759  0.3388
  794MPD2     H11704   0.064   4.436  16.992 -1.0679  0.9027 -0.8114
  794MPD2    H111705   0.080   0.136  16.993 -0.9654  1.0526  2.7773
  794MPD2    H211706   0.206   4.652  17.328 -2.6544  0.5183  0.6654
  794MPD2    H311707   0.144   0.132  17.220  1.6062  1.1298 -2.4809
  794MPD2     N11708   4.709   4.667  16.854 -0.3770  0.1460  0.1586
  794MPD2    H511709   4.711   0.039  16.818  1.3396  0.3202  0.7312
  794MPD2    N111710   0.165   4.398  17.222  0.2355  0.4944 -0.7762
  794MPD2    H711711   0.124   4.322  17.169 -1.3804  0.0952  1.0231
  795MPD2     C11712   2.289   1.834  13.795  0.2008  0.3761  0.2755
  795MPD2    C111713   2.260   1.749  13.690 -0.1891 -0.2475 -0.0514
  795MPD2    C211714   2.352   1.645  13.665  0.0575 -0.0533 -0.0719
  795MPD2    C311715   2.466   1.632  13.744 -0.0723  0.1777  0.0956
  795MPD2    C411716   2.489   1.729  13.842  0.0585 -1.3422  0.0756
  795MPD2    C511717   2.395   1.826  13.868  0.5938 -0.0036 -0.2229
  795MPD2     H11718   2.320   1.578  13.586  0.2507  0.7036 -0.7834
  795MPD2    H111719   2.567   1.710  13.915  0.7162  0.3700 -0.1949
  795MPD2    H211720   2.228   1.920  13.820  0.8491  0.9554 -0.1509
  795MPD2    H311721   2.405   1.874  13.965 -1.2600 -1.7917  0.8559
  795MPD2     N11722   2.557   1.526  13.718 -0.3529  0.6632  0.5449
  795MPD2    H511723   2.517   1.445  13.673  0.1391  1.3754 -1.1710
  795MPD2    N111724   2.146   1.767  13.614  0.4966 -0.4663 -0.2662
  795MPD2    H711725   2.100   1.687  13.573 -0.4259  0.9227 -1.9095
  796MPD2     C11726   1.977   3.676  15.565  0.2232 -0.1229  0.5887
  796MPD2    C111727   2.079   3.737  15.638  0.4632  0.1996  0.3980
  796MPD2    C211728   2.086   3.873  15.654 -0.6491 -0.2999  0.2739
  796MPD2    C311729   1.996   3.955  15.595  0.0685 -0.6951 -0.4627
  796MPD2    C411730   1.896   3.905  15.516  0.2033  0.1702 -0.0537
  796MPD2    C511731   1.898   3.767  15.498 -0.3871 -0.0502  0.1025
  796MPD2     H11732   2.174   3.912  15.703 -2.1674  2.7238  0.6058
  796MPD2    H111733   1.823   3.961  15.459 -2.5908 -0.0340  3.2860
  796MPD2    H211734   1.979   3.569  15.549  1.0452 -0.1482  0.8354
  796MPD2    H311735   1.820   3.724  15.436 -1.1070 -0.0268  0.9902
  796MPD2     N11736   1.995   4.087  15.629  0.7468 -0.0667 -0.0404
  796MPD2    H511737   2.078   4.126  15.672 -0.4219 -1.0758  3.0980
  796MPD2    N111738   2.178   3.643  15.692 -0.0437 -0.5068 -0.5729
  796MPD2    H711739   2.161   3.545  15.673 -0.7970 -1.1092  3.1581
  797MPD2     C11740   2.847   2.942  17.019  0.5296 -0.4137 -0.2818
  797MPD2    C111741   2.841   3.059  17.087 -0.1461 -0.0539 -0.3383
  797MPD2    C211742   2.769   3.161  17.037 -0.6679 -0.3986  0.3850
  797MPD2    C311743   2.699   3.156  16.915  0.0658  0.4654  0.8510
  797MPD2    C411744   2.700   3.029  16.851  0.2932  0.0634  0.0557
  797MPD2    C511745   2.772   2.928  16.905  0.4038  0.2974 -0.0110
  797MPD2     H11746   2.785   3.258  17.083 -0.7018  1.1687 -2.8626
  797MPD2    H111747   2.639   3.012  16.763 -2.3657  2.1620  1.4989
  797MPD2    H211748   2.903   2.856  17.054  1.3302 -0.1588 -0.9539
  797MPD2    H311749   2.773   2.830  16.859  1.7535 -0.0619  0.7655
  797MPD2     N11750   2.612   3.258  16.870  0.8719  0.1070 -0.3351
  797MPD2    H511751   2.574   3.259  16.776  1.0663 -2.9893 -0.4631
  797MPD2    N111752   2.925   3.091  17.198 -0.3570  0.0257 -0.3677
  797MPD2    H711753   2.909   3.186  17.231 -1.0903  0.7104 -2.6997
  798MPD2     C11754   2.830   3.802  17.272 -0.2176  0.2608  0.3462
  798MPD2    C111755   2.809   3.682  17.205 -0.4599  0.4637 -0.1413
  798MPD2    C211756   2.859   3.567  17.257 -0.0478 -0.2323 -0.3040
  798MPD2    C311757   2.945   3.564  17.358 -0.4564 -0.3299  0.1078
  798MPD2    C411758   2.978   3.683  17.418  0.9542  0.1880 -0.1178
  798MPD2    C511759   2.909   3.803  17.381 -0.0753 -0.6579 -0.2685
  798MPD2     H11760   2.824   3.473  17.216  0.2669  0.7283 -2.7643
  798MPD2    H111761   3.053   3.694  17.496  0.6612 -0.6199  0.2818
  798MPD2    H211762   2.795   3.897  17.233 -0.9485 -0.2665 -0.3047
  798MPD2    H311763   2.934   3.897  17.429  0.6413 -0.9597 -0.0499
  798MPD2     N11764   2.988   3.434  17.398  0.9664 -0.0655  0.1441
  798MPD2    H511765   2.969   3.357  17.335 -1.0619  2.0128 -1.8172
  798MPD2    N111766   2.724   3.677  17.088 -0.2338 -0.4631  0.1755
  798MPD2    H711767   2.713   3.579  17.064  0.7510 -0.5219 -0.0378
  799MPD2     C11768   2.380   0.100  14.524 -0.2828 -0.0981 -0.0503
  799MPD2    C111769   2.266   0.038  14.555 -0.3369 -0.5354  0.1001
  799MPD2    C211770   2.147   0.067  14.480 -0.7395  0.2763  0.4423
  799MPD2    C311771   2.152   0.146  14.368 -0.2569  0.2012  0.4514
  799MPD2    C411772   2.269   0.201  14.331 -0.8174 -0.3530  1.0717
  799MPD2    C511773   2.376   0.185  14.416 -0.1322 -0.0415 -0.1553
  799MPD2     H11774   2.054   0.020  14.509 -2.5201  2.7316 -1.2513
  799MPD2    H111775   2.277   0.259  14.239  1.5437  0.4217  1.7559
  799MPD2    H211776   2.473   0.074  14.573 -0.4903  1.4952  1.1657
  799MPD2    H311777   2.468   0.236  14.393  0.5025 -0.9773  0.3163
  799MPD2     N11778   2.046   0.158  14.284 -0.0718  0.0828  0.0144
  799MPD2    H511779   2.060   0.219  14.204 -0.7404 -0.0713 -0.2197
  799MPD2    N111780   2.244   4.675  14.662  0.0969 -0.1681 -0.0454
  799MPD2    H711781   2.159   4.619  14.669  0.6659 -0.9016  0.9614
  800MPD2     C11782   2.250   0.993  14.122 -0.3612 -0.0305 -0.0000
  800MPD2    C111783   2.340   0.903  14.075  0.0836  0.4273 -0.5432
  800MPD2    C211784   2.298   0.793  14.008  0.2755 -0.5612  0.0887
  800MPD2    C311785   2.160   0.765  13.998 -0.4604 -0.9438  0.1093
  800MPD2    C411786   2.072   0.846  14.075  0.3998 -0.1182 -0.6819
  800MPD2    C511787   2.119   0.962  14.126 -0.3761  0.8265 -0.0078
  800MPD2     H11788   2.362   0.738  13.940 -0.7919  0.0731 -1.4132
  800MPD2    H111789   1.968   0.821  14.096  0.6760 -1.2004 -0.5933
  800MPD2    H211790   2.270   1.091  14.162 -0.8306  0.8760 -1.9571
  800MPD2    H311791   2.049   1.020  14.184  0.1492  2.5692 -1.1196
  800MPD2     N11792   2.122   0.659  13.919 -0.0615 -0.2533  0.1690
  800MPD2    H511793   2.200   0.615  13.872  0.2297  0.9660 -0.5013
  800MPD2    N111794   2.476   0.946  14.091 -0.0875  0.1794  0.2694
  800MPD2    H711795   2.490   1.026  14.151  1.2364  0.4581 -0.4115
  801MPD2     C11796   2.805   1.556  14.172 -0.0661 -0.2374 -0.7924
  801MPD2    C111797   2.739   1.448  14.217  0.1732 -0.5585 -0.3254
  801MPD2    C211798   2.637   1.478  14.310 -0.5869  0.6116 -0.3060
  801MPD2    C311799   2.609   1.597  14.371 -0.2081  0.4116  0.2651
  801MPD2    C411800   2.679   1.706  14.321  0.0308  0.7517 -0.6237
  801MPD2    C511801   2.773   1.686  14.226 -0.2305  0.8236  0.4083
  801MPD2     H11802   2.575   1.392  14.332  1.4950 -0.5799  1.0165
  801MPD2    H111803   2.673   1.809  14.355 -0.6581  0.1522  1.0790
  801MPD2    H211804   2.876   1.541  14.091 -0.2336 -0.6429 -0.8647
  801MPD2    H311805   2.812   1.779  14.185 -0.5485  0.3379 -1.0175
  801MPD2     N11806   2.517   1.613  14.474 -0.3856  0.8249 -0.3085
  801MPD2    H511807   2.483   1.707  14.487 -2.7239  0.0580 -0.8771
  801MPD2    N111808   2.754   1.319  14.155 -0.3490 -0.6749 -0.3520
  801MPD2    H711809   2.689   1.246  14.183 -1.8803  0.6380 -0.4820
  802MPD2     C11810   1.363   1.346  17.350 -0.4059  0.2992 -0.1788
  802MPD2    C111811   1.467   1.371  17.431  0.4115 -0.5564  0.2530
  802MPD2    C211812   1.558   1.275  17.463 -0.2963  0.0350 -0.3623
  802MPD2    C311813   1.536   1.147  17.417 -0.7901 -0.1718 -0.4266
  802MPD2    C411814   1.423   1.118  17.344  1.0669 -0.6253  0.1005
  802MPD2    C511815   1.335   1.219  17.315 -0.6583  0.1825 -0.0172
  802MPD2     H11816   1.641   1.293  17.530 -0.1851 -0.0963 -0.4660
  802MPD2    H111817   1.402   1.017  17.309  1.6381 -0.8420  0.3798
  802MPD2    H211818   1.284   1.418  17.328  0.4955  1.0413 -0.9821
  802MPD2    H311819   1.238   1.193  17.274 -0.1704  1.0320 -1.7039
  802MPD2     N11820   1.642   1.052  17.434  1.1243  0.2929 -0.6438
  802MPD2    H511821   1.719   1.080  17.495  0.4825 -1.0674  0.8178
  802MPD2    N111822   1.488   1.499  17.493  0.6202 -0.3524  0.4903
  802MPD2    H711823   1.579   1.513  17.535  1.8391 -0.0344 -2.2671
  803MPD2     C11824   2.802   0.565  11.689  0.1105 -0.3765  0.5159
  803MPD2    C111825   2.906   0.495  11.751  0.4241  0.0597  0.2069
  803MPD2    C211826   2.889   0.376  11.813  0.4528  0.1585 -0.0914
  803MPD2    C311827   2.760   0.322  11.811  0.2644  0.3499  0.0713
  803MPD2    C411828   2.656   0.382  11.745 -0.2541  0.3566  0.9877
  803MPD2    C511829   2.677   0.503  11.695 -0.5155  0.0177 -0.3853
  803MPD2     H11830   2.975   0.323  11.850 -0.1120 -1.1696 -0.6768
  803MPD2    H111831   2.553   0.347  11.741 -0.0936 -0.0645  0.5783
  803MPD2    H211832   2.806   0.655  11.629 -1.8864  0.1026  1.1404
  803MPD2    H311833   2.594   0.541  11.636 -1.3225 -1.7427 -0.3813
  803MPD2     N11834   2.740   0.193  11.868  0.6412  0.2064 -0.2909
  803MPD2    H511835   2.647   0.156  11.885  0.5156  0.0165 -1.3774
  803MPD2    N111836   3.039   0.538  11.747  0.2608 -0.6447 -0.3174
  803MPD2    H711837   3.095   0.498  11.822 -0.9160 -1.8751 -0.0928
  804MPD2     C11838   2.330   1.464  16.902 -0.4612 -0.3644 -0.1792
  804MPD2    C111839   2.363   1.459  17.036 -1.1389 -0.1381 -0.3125
  804MPD2    C211840   2.427   1.566  17.097  0.1095  0.2717 -0.1089
  804MPD2    C311841   2.461   1.680  17.021  0.5060  1.2812  0.4776
  804MPD2    C411842   2.426   1.685  16.888  0.3112 -0.0972 -0.1990
  804MPD2    C511843   2.362   1.580  16.829 -0.1002 -0.4187  0.0200
  804MPD2     H11844   2.467   1.547  17.196  1.8051  0.8231 -0.6822
  804MPD2    H111845   2.451   1.766  16.821 -1.4536 -0.1834 -0.9645
  804MPD2    H211846   2.288   1.381  16.848 -1.5340 -0.5906  0.9931
  804MPD2    H311847   2.351   1.575  16.721  0.2005  0.2996 -0.0406
  804MPD2     N11848   2.520   1.788  17.093  0.7294 -0.5836 -0.0694
  804MPD2    H511849   2.530   1.775  17.193  0.0274  1.1465  0.2410
  804MPD2    N111850   2.357   1.339  17.108  0.8298 -0.5885 -0.1559
  804MPD2    H711851   2.376   1.338  17.208  1.7298  2.2922 -0.3183
  805MPD2     C11852   1.787   0.103  15.611 -0.1561 -0.0309 -0.2673
  805MPD2    C111853   1.877   0.033  15.535  0.9764  0.0238 -0.6000
  805MPD2    C211854   2.009   0.039  15.567 -0.0951  0.0653 -0.3508
  805MPD2    C311855   2.055   0.108  15.683  0.6015  1.1788  0.3278
  805MPD2    C411856   1.960   0.176  15.757  0.0564 -0.3525 -0.7835
  805MPD2    C511857   1.824   0.178  15.716  0.0873  0.0458  0.7733
  805MPD2     H11858   2.078   4.701  15.512 -0.4346 -2.1519  1.7410
  805MPD2    H111859   1.986   0.236  15.844 -2.0289 -1.6177  0.7250
  805MPD2    H211860   1.684   0.098  15.576 -0.0042 -1.3744 -0.5421
  805MPD2    H311861   1.742   0.208  15.779 -2.2380  0.1435 -2.3031
  805MPD2     N11862   2.190   0.100  15.727  0.1637 -0.4989  0.3338
  805MPD2    H511863   2.265   0.090  15.660  0.6037  0.5296  0.6825
  805MPD2    N111864   1.844   4.681  15.416 -0.7026  0.2424  0.2451
  805MPD2    H711865   1.916   4.624  15.372 -0.5080 -0.1396  1.0414
  806MPD2     C11866   2.448   2.706   1.160  0.2861  0.6825 -0.4163
  806MPD2    C111867   2.549   2.778   1.091  0.1145 -0.4206  0.2239
  806MPD2    C211868   2.511   2.897   1.042  0.3829 -0.1967 -0.3031
  806MPD2    C311869   2.377   2.945   1.057 -0.0967  0.0855  0.2021
  806MPD2    C411870   2.284   2.874   1.119  0.4372 -0.7728  0.4493
  806MPD2    C511871   2.322   2.752   1.166 -0.8990 -0.1870 -0.0678
  806MPD2     H11872   2.577   2.958   0.979  0.7975 -1.6293 -1.2523
  806MPD2    H111873   2.177   2.894   1.113  0.4326 -0.8612  0.2293
  806MPD2    H211874   2.474   2.615   1.212 -0.3831  0.0716 -1.1488
  806MPD2    H311875   2.238   2.699   1.209 -1.9069  0.2077 -1.5536
  806MPD2     N11876   2.350   3.073   1.000 -0.3350 -0.3915  0.7487
  806MPD2    H511877   2.427   3.125   0.960  0.7661 -2.0707  0.6792
  806MPD2    N111878   2.683   2.733   1.093 -0.0164 -0.2203 -0.3773
  806MPD2    H711879   2.691   2.638   1.129  1.4830  0.2406  0.5244
  807MPD2     C11880   3.031   2.363   1.580  0.5932 -0.4093 -1.0040
  807MPD2    C111881   2.932   2.451   1.535 -0.9531 -0.1587  1.1906
  807MPD2    C211882   2.807   2.455   1.588 -0.1261 -0.2460  0.5032
  807MPD2    C311883   2.767   2.362   1.677 -0.2296 -0.8184 -0.7467
  807MPD2    C411884   2.865   2.273   1.728  0.1541 -0.1327 -0.3435
  807MPD2    C511885   2.993   2.279   1.683 -0.8316 -0.1871 -0.4354
  807MPD2     H11886   2.740   2.537   1.566  1.6086  1.0683  0.0967
  807MPD2    H111887   2.845   2.207   1.812 -0.8303  1.0200  0.3295
  807MPD2    H211888   3.133   2.370   1.544 -0.2266 -0.1408 -3.2821
  807MPD2    H311889   3.062   2.205   1.721 -0.0529 -0.0330 -1.5381
  807MPD2     N11890   2.633   2.360   1.719 -1.0843 -0.2469 -0.1455
  807MPD2    H511891   2.572   2.423   1.668 -3.2519 -0.1239  2.6247
  807MPD2    N111892   2.952   2.540   1.427  0.2649 -0.5442 -0.2032
  807MPD2    H711893   2.875   2.598   1.394  0.5142 -0.8132 -1.2536
  808MPD2     C11894   2.581   0.448   9.433  0.0827  0.5105 -0.5018
  808MPD2    C111895   2.632   0.439   9.563  0.0911  0.3863  0.6578
  808MPD2    C211896   2.673   0.558   9.619 -0.0247  0.4570 -0.6198
  808MPD2    C311897   2.642   0.683   9.563 -0.5621  0.5556 -0.0798
  808MPD2    C411898   2.591   0.689   9.436 -0.3647 -0.3420  0.0338
  808MPD2    C511899   2.557   0.565   9.375  0.0960  0.1357  0.2045
  808MPD2     H11900   2.714   0.550   9.719 -1.5134  0.2323 -0.0276
  808MPD2    H111901   2.574   0.778   9.377 -1.5231 -0.0411  0.8210
  808MPD2    H211902   2.549   0.354   9.388 -0.1427  0.3829 -0.0675
  808MPD2    H311903   2.518   0.561   9.274  1.8438  0.6480 -0.4780
  808MPD2     N11904   2.686   0.809   9.619 -0.0441 -0.5639 -0.6143
  808MPD2    H511905   2.668   0.892   9.564  1.8856  0.6831  0.6679
  808MPD2    N111906   2.656   0.320   9.639  1.2956 -0.0762  0.2204
  808MPD2    H711907   2.692   0.328   9.733 -0.3728  1.3125  0.7249
  809MPD2     C11908   3.516   1.336   9.681  0.3514 -0.4507  0.5402
  809MPD2    C111909   3.475   1.219   9.608  0.1467  0.2045 -0.7114
  809MPD2    C211910   3.337   1.188   9.619  0.3060  0.0726 -0.0152
  809MPD2    C311911   3.247   1.275   9.680  0.0240  0.6380  0.5551
  809MPD2    C411912   3.296   1.394   9.726  0.2796  0.3294  1.1057
  809MPD2    C511913   3.426   1.425   9.737  0.9575  0.5277  0.8889
  809MPD2     H11914   3.299   1.099   9.570  0.1350  0.4152 -0.5057
  809MPD2    H111915   3.220   1.461   9.763 -0.1868  0.4904 -0.1331
  809MPD2    H211916   3.620   1.364   9.689  0.6465 -0.6164 -2.6819
  809MPD2    H311917   3.456   1.517   9.786 -0.7065  1.1112  0.8356
  809MPD2     N11918   3.111   1.246   9.698 -0.2802  0.1175 -0.1638
  809MPD2    H511919   3.054   1.323   9.734 -1.3241 -1.0737  0.7534
  809MPD2    N111920   3.561   1.132   9.547 -0.0000 -0.8645  0.2745
  809MPD2    H711921   3.534   1.046   9.500 -2.0813 -0.4770  0.7523
  810MPD2     C11922   2.251   4.678   9.727 -0.4874 -0.2373  0.4091
  810MPD2    C111923   2.240   4.592   9.829  0.2423 -0.7006 -0.1294
  810MPD2    C211924   2.301   4.630   9.946  0.2633  1.1624 -0.2032
  810MPD2    C311925   2.380   0.022   9.952 -0.3432 -0.3836 -0.7259
  810MPD2    C411926   2.390   0.105   9.842  0.2983 -0.1573 -0.6901
  810MPD2    C511927   2.318   0.075   9.732 -0.3695  0.2727  0.3580
  810MPD2     H11928   2.306   4.557  10.026 -1.1900  1.0993 -0.1697
  810MPD2    H111929   2.449   0.197   9.845 -1.6172  0.9908  1.4791
  810MPD2    H211930   2.211   4.647   9.631 -0.2741 -0.3969  0.3721
  810MPD2    H311931   2.322   0.133   9.640  0.5297  0.1062  0.2968
  810MPD2     N11932   2.455   0.055  10.070  0.9260  0.3067  0.7498
  810MPD2    H511933   2.497   0.147  10.066 -0.2753  0.7492 -1.5183
  810MPD2    N111934   2.172   4.469   9.816 -0.0513  0.0522 -0.0302
  810MPD2    H711935   2.138   4.446   9.724 -0.4490 -3.5609  1.0469
  811MPD2     C11936   1.483   4.411   9.551  0.1664 -0.1317  0.2976
  811MPD2    C111937   1.595   4.444   9.617 -0.1833  0.3900 -0.4210
  811MPD2    C211938   1.618   4.575   9.647  0.5945 -0.0909 -0.6225
  811MPD2    C311939   1.518   4.670   9.637 -0.4931  0.2743 -0.1671
  811MPD2    C411940   1.400   4.642   9.577 -0.2097 -0.4925 -0.3424
  811MPD2    C511941   1.388   4.507   9.535  0.0139 -0.1447  0.1994
  811MPD2     H11942   1.708   4.607   9.699  1.3393 -3.2669  0.0397
  811MPD2    H111943   1.323   4.717   9.564 -2.3798 -2.2806  2.1409
  811MPD2    H211944   1.461   4.311   9.516 -0.1915  0.3127 -0.7606
  811MPD2    H311945   1.293   4.478   9.491  0.2006  1.1368 -1.0379
  811MPD2     N11946   1.553   0.075   9.695  0.4207 -0.5228 -0.2589
  811MPD2    H511947   1.651   0.084   9.721  0.6415  1.2425 -1.7218
  811MPD2    N111948   1.682   4.336   9.657  0.4278 -0.4466 -0.1782
  811MPD2    H711949   1.652   4.241   9.638  0.0333 -0.5659  1.0014
  812MPD2     C11950   1.069   0.106  12.204 -0.7883 -0.9568 -0.6959
  812MPD2    C111951   1.031   0.167  12.318  0.4936 -0.3780  0.8387
  812MPD2    C211952   0.979   0.081  12.417 -0.9078  0.1767  0.2419
  812MPD2    C311953   0.967   4.665  12.396 -0.6510  0.2627 -0.7554
  812MPD2    C411954   0.993   4.615  12.274  0.0402  0.0726 -0.3847
  812MPD2    C511955   1.047   4.696  12.181 -0.0184 -0.4328  0.3060
  812MPD2     H11956   0.951   0.123  12.513  1.0058 -0.8680  1.2671
  812MPD2    H111957   0.979   4.510  12.248  0.7448  0.1889 -1.2298
  812MPD2    H211958   1.127   0.157  12.127 -0.4549  0.0855  0.2485
  812MPD2    H311959   1.075   4.651  12.087 -1.6420  0.1806 -0.4637
  812MPD2     N11960   0.918   4.581  12.506 -0.1285  0.3595 -0.2516
  812MPD2    H511961   0.908   4.619  12.600  1.1635  1.9271 -0.7411
  812MPD2    N111962   1.057   0.304  12.346 -0.0115 -0.1331  0.3288
  812MPD2    H711963   1.111   0.362  12.282 -0.4738 -1.6552 -1.4435
  813MPD2     C11964   4.710   2.156  12.523 -0.3062 -0.4512 -0.3793
  813MPD2    C111965   0.014   2.263  12.596  0.8942  0.1777 -0.5678
  813MPD2    C211966   4.694   2.255  12.726 -0.3646  0.1884 -0.7640
  813MPD2    C311967   4.641   2.143  12.785 -0.3065 -0.2192 -0.3509
  813MPD2    C411968   4.634   2.033  12.712 -0.0602  0.2323 -0.0214
  813MPD2    C511969   4.656   2.040  12.575  0.0197  0.6453 -0.2358
  813MPD2     H11970   4.715   2.336  12.794  1.7068 -0.2719 -0.8558
  813MPD2    H111971   4.608   1.944  12.769 -0.5180 -0.4406 -1.2861
  813MPD2    H211972   0.019   2.142  12.420 -1.7663  1.2360 -1.0601
  813MPD2    H311973   4.655   1.944  12.525 -1.7479  0.0454  0.9473
  813MPD2     N11974   4.613   2.149  12.924  0.2661 -0.2395  0.1865
  813MPD2    H511975   4.619   2.236  12.977  1.1832  0.2126 -0.6708
  813MPD2    N111976   0.090   2.376  12.553  0.1072  0.0420  0.1540
  813MPD2    H711977   0.111   2.446  12.624  0.1390 -2.3342  2.4827
  814MPD2     C11978   0.308   3.646  11.955  0.6273  0.1422  0.2541
  814MPD2    C111979   0.389   3.621  11.844  0.1489 -0.2019  0.2710
  814MPD2    C211980   0.478   3.721  11.818 -0.5383  0.5702  0.0190
  814MPD2    C311981   0.492   3.832  11.897 -0.7240  0.2763  0.1116
  814MPD2    C411982   0.415   3.847  12.011  0.9042  0.2443  0.5414
  814MPD2    C511983   0.322   3.755  12.041 -0.8781  0.4356 -0.2664
  814MPD2     H11984   0.546   3.709  11.734 -1.1024  0.1271 -0.3706
  814MPD2    H111985   0.420   3.939  12.067 -1.5092  0.1091  1.0017
  814MPD2    H211986   0.235   3.574  11.991  0.8982  1.0378  2.6211
  814MPD2    H311987   0.256   3.761  12.127 -0.3811  1.6758  0.0178
  814MPD2     N11988   0.589   3.937  11.878  0.1934  0.6410  0.1775
  814MPD2    H511989   0.604   4.012  11.945  0.7340  1.6736 -1.0915
  814MPD2    N111990   0.372   3.505  11.766  0.0568  0.0846  0.0384
  814MPD2    H711991   0.419   3.495  11.676 -1.0489  0.8555 -0.6131
  815MPD2     C11992   0.990   2.143  11.591 -0.3438 -0.2083 -0.4236
  815MPD2    C111993   1.023   2.008  11.599 -0.3716  0.2160  0.0202
  815MPD2    C211994   0.965   1.946  11.715 -0.2078  0.4356  0.0821
  815MPD2    C311995   0.887   2.009  11.812 -0.0299 -0.3659 -0.0795
  815MPD2    C411996   0.861   2.140  11.799  0.5131 -0.2393 -0.3627
  815MPD2    C511997   0.904   2.199  11.685 -0.4585  0.6499 -0.2870
  815MPD2     H11998   0.993   1.842  11.729 -2.0544  0.1929  2.1055
  815MPD2    H111999   0.797   2.199  11.864  0.9580  0.6996 -0.7666
  815MPD2    H212000   1.019   2.209  11.510  0.2276  2.0272  1.6174
  815MPD2    H312001   0.862   2.298  11.672 -0.4774  0.7714  0.7369
  815MPD2     N12002   0.819   1.928  11.906  0.8330 -0.0047 -0.8101
  815MPD2    H512003   0.833   1.828  11.896  2.1658  0.0985 -0.0233
  815MPD2    N112004   1.113   1.941  11.506  0.3548  0.6125 -0.3519
  815MPD2    H712005   1.135   1.996  11.423  2.2535  0.2723 -0.0851
  816MPD2     C12006   1.082   0.709  17.594 -0.3450 -0.6396 -0.3926
  816MPD2    C112007   1.179   0.800  17.579 -0.0281  0.1558 -0.6834
  816MPD2    C212008   1.286   0.775  17.497  0.4405 -0.6307  0.7363
  816MPD2    C312009   1.291   0.661  17.421 -0.4757 -0.4165 -0.2707
  816MPD2    C412010   1.194   0.566  17.445 -0.5375 -0.3307 -0.1797
  816MPD2    C512011   1.093   0.591  17.530 -0.2152 -0.5405  0.8065
  816MPD2     H12012   1.371   0.841  17.497 -2.0662  2.5620 -2.0958
  816MPD2    H112013   1.198   0.468  17.401  2.2072 -0.8498  1.2198
  816MPD2    H212014   0.991   0.722  17.652  0.5945 -0.3720  1.0026
  816MPD2    H312015   1.017   0.516  17.546  0.0394 -0.6002  1.7113
  816MPD2     N12016   1.401   0.646  17.337  0.5753 -0.1345  0.6518
  816MPD2    H512017   1.459   0.726  17.315 -2.1088  1.5299 -0.3279
  816MPD2    N112018   1.162   0.921  17.646 -0.0178  0.0723  0.4065
  816MPD2    H712019   1.067   0.938  17.678 -0.2043 -0.8719  0.3611
  817MPD2     C12020   0.418   2.415   9.971 -0.0287 -0.6104  0.2735
  817MPD2    C112021   0.508   2.440   9.871 -0.1896 -0.4636 -0.2028
  817MPD2    C212022   0.500   2.565   9.814 -0.0567 -0.1064  0.5743
  817MPD2    C312023   0.399   2.653   9.836 -0.2333 -0.0907 -0.2213
  817MPD2    C412024   0.300   2.617   9.934  1.0567 -0.0070  0.4099
  817MPD2    C512025   0.315   2.501  10.000  0.2904  0.2520  0.3094
  817MPD2     H12026   0.571   2.579   9.733  0.5816 -0.4752  1.0659
  817MPD2    H112027   0.233   2.692   9.974  1.2037  0.6412 -0.5613
  817MPD2    H212028   0.424   2.328  10.035  1.3412 -0.3609  0.4705
  817MPD2    H312029   0.245   2.468  10.076 -0.5569 -0.1102 -0.6326
  817MPD2     N12030   0.393   2.767   9.745 -0.4853  0.2262  0.3274
  817MPD2    H512031   0.463   2.754   9.673 -0.8012  0.1740  0.0314
  817MPD2    N112032   0.630   2.370   9.859  0.4160 -0.4145  0.1496
  817MPD2    H712033   0.687   2.382   9.776 -0.0266  0.1857 -0.0658
  818MPD2     C12034   4.220   1.953  10.013  0.1746 -0.6446  0.1162
  818MPD2    C112035   4.147   1.887  10.110 -0.4054 -0.1446  0.2447
  818MPD2    C212036   4.173   1.757  10.130 -0.2099 -0.4218  0.6005
  818MPD2    C312037   4.287   1.695  10.085 -0.4045  0.1670 -0.0165
  818MPD2    C412038   4.367   1.764   9.997 -0.7145 -0.2106 -0.8732
  818MPD2    C512039   4.321   1.884   9.954 -0.8875 -0.0220 -0.6571
  818MPD2     H12040   4.113   1.702  10.201  0.5429 -0.4787  1.1912
  818MPD2    H112041   4.455   1.713   9.959 -1.4241 -3.0438  1.2047
  818MPD2    H212042   4.193   2.054   9.981  2.3262  0.0111  0.3668
  818MPD2    H312043   4.385   1.927   9.878 -0.0221 -1.5264 -0.7933
  818MPD2     N12044   4.325   1.557  10.107  0.5470  0.3997  0.0294
  818MPD2    H512045   4.419   1.529  10.080 -0.4354 -0.7798 -2.1178
  818MPD2    N112046   4.058   1.945  10.198  0.6760  0.1586  0.3840
  818MPD2    H712047   4.007   1.884  10.261  0.1955 -1.6361 -1.7232
  819MPD2     C12048   2.619   4.049  15.874  0.6219  0.9091  0.3830
  819MPD2    C112049   2.660   4.019  15.746  0.1109 -0.0466  0.8635
  819MPD2    C212050   2.791   4.065  15.706  0.2491  0.2493 -0.2384
  819MPD2    C312051   2.849   4.170  15.781  0.2367  0.2422  0.0061
  819MPD2    C412052   2.786   4.208  15.899  0.8664  0.1939 -0.4523
  819MPD2    C512053   2.675   4.145  15.949 -0.2147  0.3173 -0.1322
  819MPD2     H12054   2.832   4.028  15.613 -0.9014 -0.6272 -0.4012
  819MPD2    H112055   2.826   4.273  15.976  0.8707  0.0415 -0.3275
  819MPD2    H212056   2.532   4.000  15.915  0.6182  0.9945  0.4778
  819MPD2    H312057   2.624   4.169  16.042 -1.0738 -1.7403 -0.0942
  819MPD2     N12058   2.984   4.218  15.747  0.2989 -0.2248  0.3047
  819MPD2    H512059   3.031   4.173  15.670  0.3307  0.6950 -0.2168
  819MPD2    N112060   2.584   3.928  15.668 -0.4254 -0.8102  0.0139
  819MPD2    H712061   2.492   3.897  15.698 -1.4349  1.6312 -0.6088
  820MPD2     C12062   1.769   3.900  15.075  0.0853  0.4909  0.2563
  820MPD2    C112063   1.855   3.992  15.120  0.4760  0.6058  1.1132
  820MPD2    C212064   1.977   3.951  15.173 -0.3084 -0.1704  0.8536
  820MPD2    C312065   2.009   3.816  15.200  0.4643 -1.1465 -0.1348
  820MPD2    C412066   1.916   3.720  15.151 -0.6099  0.2500 -0.3085
  820MPD2    C512067   1.797   3.763  15.086 -0.3068  0.5508 -1.0719
  820MPD2     H12068   2.044   4.036  15.188 -0.5446  0.2588 -0.5649
  820MPD2    H112069   1.933   3.614  15.169 -1.3855 -0.1009 -1.7113
  820MPD2    H212070   1.670   3.926  15.040  0.3761  1.1574 -0.0747
  820MPD2    H312071   1.719   3.696  15.052  0.8785 -1.6308  0.4714
  820MPD2     N12072   2.124   3.759  15.266 -0.3468 -0.3116  0.1229
  820MPD2    H512073   2.132   3.658  15.276 -0.4362 -0.0487  2.7516
  820MPD2    N112074   1.812   4.128  15.117 -0.6150 -0.5354 -0.3505
  820MPD2    H712075   1.719   4.151  15.084 -0.6416  1.7010  1.2871
  821MPD2     C12076   1.997   0.821  13.151  1.0083 -0.3522 -0.6924
  821MPD2    C112077   2.058   0.878  13.262  0.3669  0.7719 -0.0123
  821MPD2    C212078   2.143   0.990  13.248  0.5872  0.1401  0.4551
  821MPD2    C312079   2.161   1.054  13.126  0.1442 -0.0646 -0.0737
  821MPD2    C412080   2.086   1.004  13.023 -0.3434 -0.0769  0.3901
  821MPD2    C512081   2.020   0.885  13.030 -0.3012  0.1386 -0.0561
  821MPD2     H12082   2.197   1.020  13.338  0.3071 -0.8617  0.9550
  821MPD2    H112083   2.091   1.056  12.929  1.4595 -1.5713 -0.3389
  821MPD2    H212084   1.937   0.731  13.152  0.8403 -0.2413 -0.8210
  821MPD2    H312085   1.964   0.848  12.945 -0.4816 -0.7236  0.4367
  821MPD2     N12086   2.258   1.153  13.104 -0.3844 -0.2427 -0.3270
  821MPD2    H512087   2.257   1.205  13.017  0.0179 -0.7611 -0.6381
  821MPD2    N112088   2.054   0.811  13.383 -0.0593  0.5307 -0.2199
  821MPD2    H712089   2.136   0.826  13.441  1.0413  0.3092 -1.7168
  822MPD2     C12090   2.625   0.952  15.911 -0.3153  0.2365  0.0431
  822MPD2    C112091   2.751   0.979  15.966  0.2269 -0.2025 -0.1824
  822MPD2    C212092   2.775   1.084  16.052  0.1800 -0.2205  0.1898
  822MPD2    C312093   2.669   1.149  16.107  0.4008  0.3951 -0.4501
  822MPD2    C412094   2.543   1.129  16.049  0.0949  0.0098 -0.4001
  822MPD2    C512095   2.528   1.042  15.953 -0.5240  0.5052 -0.6143
  822MPD2     H12096   2.876   1.112  16.081  1.0895 -4.6579  1.4539
  822MPD2    H112097   2.455   1.188  16.071 -1.7433 -2.8600 -0.1129
  822MPD2    H212098   2.599   0.879  15.835 -3.4817  0.3855  0.9717
  822MPD2    H312099   2.432   1.033  15.904 -1.0683 -0.4179  0.6324
  822MPD2     N12100   2.694   1.250  16.206  0.2473  0.1999  0.7118
  822MPD2    H512101   2.792   1.265  16.231  0.2038  1.7779 -0.0522
  822MPD2    N112102   2.864   0.902  15.930  0.0209  1.0140 -0.7364
  822MPD2    H712103   2.952   0.930  15.973 -1.4475  2.7405  1.1632
  823MPD2     C12104   2.694   1.325  17.083 -0.8714 -0.4599 -0.3366
  823MPD2    C112105   2.669   1.271  16.958 -0.2266 -0.4262  0.2614
  823MPD2    C212106   2.664   1.126  16.948 -0.7422  0.6352  0.3624
  823MPD2    C312107   2.698   1.049  17.057 -0.5915  0.2188  0.3431
  823MPD2    C412108   2.714   1.100  17.178 -0.6787 -1.1653 -0.4343
  823MPD2    C512109   2.708   1.239  17.195 -0.9323 -0.8510  0.0494
  823MPD2     H12110   2.651   1.077  16.852 -0.4105 -0.5674  0.9381
  823MPD2    H112111   2.726   1.035  17.264  0.6807 -0.1493  0.1493
  823MPD2    H212112   2.695   1.433  17.094  0.0996 -0.2700 -2.2819
  823MPD2    H312113   2.729   1.267  17.297 -0.7726 -2.2391  0.3888
  823MPD2     N12114   2.715   0.901  17.048 -0.3425 -0.4545 -0.0824
  823MPD2    H512115   2.757   0.856  17.129 -2.2520 -0.9033  0.6618
  823MPD2    N112116   2.654   1.353  16.842 -0.5823  0.2662  0.2804
  823MPD2    H712117   2.655   1.454  16.856 -0.2961  0.1798  0.8684
  824MPD2     C12118   3.206   0.110  15.783  0.1837 -0.7184 -0.3483
  824MPD2    C112119   3.293   0.214  15.788 -0.0824 -0.2414  0.4966
  824MPD2    C212120   3.431   0.184  15.776 -0.5382  0.7670 -0.3253
  824MPD2    C312121   3.477   0.058  15.744  0.0023 -0.5382 -0.2872
  824MPD2    C412122   3.388   4.670  15.734 -0.0868 -0.6178 -1.3535
  824MPD2    C512123   3.253   4.701  15.755 -0.5410 -0.0577 -0.3152
  824MPD2     H12124   3.504   0.263  15.787  0.5593 -0.2720 -0.2073
  824MPD2    H112125   3.419   4.566  15.733  0.2372 -0.5436  0.2227
  824MPD2    H212126   3.098   0.120  15.779  0.2436 -0.6755 -1.7133
  824MPD2    H312127   3.186   4.615  15.759  0.5101 -0.7941  1.4472
  824MPD2     N12128   3.614   0.047  15.730 -0.4960  0.0198 -0.6954
  824MPD2    H512129   3.671   0.131  15.722 -1.2976  0.7461  1.3033
  824MPD2    N112130   3.248   0.348  15.810 -0.2486  0.2952 -0.1776
  824MPD2    H712131   3.321   0.417  15.818  0.1409 -0.0291 -0.9261
  825MPD2     C12132   4.439   0.272  15.708 -0.2655 -0.2570  0.4346
  825MPD2    C112133   4.312   0.308  15.673 -0.4136 -0.1325  0.7000
  825MPD2    C212134   4.279   0.441  15.669 -0.8046  0.6590  0.4552
  825MPD2    C312135   4.379   0.537  15.689 -0.1170  0.6160 -0.1573
  825MPD2    C412136   4.505   0.491  15.738 -0.2894  0.2658  0.6091
  825MPD2    C512137   4.538   0.359  15.750  0.2260  0.0284 -1.1479
  825MPD2     H12138   4.176   0.476  15.665 -0.4506  1.5572 -0.9762
  825MPD2    H112139   4.582   0.560  15.771 -0.1706  0.8636 -0.9379
  825MPD2    H212140   4.461   0.166  15.715 -1.2661 -0.6133 -1.8014
  825MPD2    H312141   4.633   0.331  15.794 -0.1899 -0.6375 -0.6685
  825MPD2     N12142   4.353   0.676  15.692 -0.5189 -0.2716 -0.2941
  825MPD2    H512143   4.440   0.729  15.695 -0.0354 -0.9830 -1.7234
  825MPD2    N112144   4.226   0.204  15.648 -0.3727 -0.2293  0.4344
  825MPD2    H712145   4.268   0.112  15.662  1.7361  0.8424  1.1529
  826MPD2     C12146   4.325   4.562  13.701 -0.1117  0.4760  0.0010
  826MPD2    C112147   4.267   4.638  13.598 -0.0365  0.4672  0.0580
  826MPD2    C212148   4.222   0.044  13.620 -0.3413  0.1469  0.2825
  826MPD2    C312149   4.227   0.092  13.753  0.4057 -0.2715  0.8900
  826MPD2    C412150   4.294   0.018  13.848 -0.2190 -0.7654  0.4933
  826MPD2    C512151   4.340   4.617  13.821  1.0409  0.2398 -0.4650
  826MPD2     H12152   4.166   0.104  13.549  0.1898 -0.4159 -0.5945
  826MPD2    H112153   4.304   0.048  13.952  0.8601  1.7701 -0.3644
  826MPD2    H212154   4.346   4.457  13.679  0.0806  0.5294 -0.0686
  826MPD2    H312155   4.397   4.566  13.898  0.6944  1.3736  0.5460
  826MPD2     N12156   4.184   0.216  13.794 -0.0155  0.2760 -0.4298
  826MPD2    H512157   4.178   0.222  13.895 -0.9057 -0.1304 -0.4481
  826MPD2    N112158   4.263   4.562  13.480 -0.5252 -0.4212  0.4371
  826MPD2    H712159   4.300   4.468  13.483  1.1881  0.3391  2.7423
  827MPD2     C12160   0.118   1.145   9.948 -0.3985  0.6390  0.0343
  827MPD2    C112161   0.113   1.052  10.049 -0.0590  0.5897 -0.8511
  827MPD2    C212162   4.722   0.974  10.061  0.4753 -0.1683  0.1718
  827MPD2    C312163   4.623   0.980   9.967  0.0920 -0.1869 -0.4102
  827MPD2    C412164   4.622   1.089   9.880 -0.0953  0.3317  0.5038
  827MPD2    C512165   0.012   1.165   9.863 -0.6095 -0.1693  0.1503
  827MPD2     H12166   4.712   0.894  10.133  0.3803 -0.1235  0.2090
  827MPD2    H112167   4.542   1.103   9.808 -0.3761  4.1874  1.5475
  827MPD2    H212168   0.206   1.206   9.930  0.1925 -0.6148 -1.3475
  827MPD2    H312169   0.022   1.230   9.777  2.5897 -3.5208 -2.0079
  827MPD2     N12170   4.516   0.886   9.974 -0.3840 -0.2940 -0.1161
  827MPD2    H512171   4.515   0.807  10.037 -0.8946 -0.9872 -0.9849
  827MPD2    N112172   0.216   1.042  10.147  0.0926 -0.5819  0.1559
  827MPD2    H712173   0.289   1.112  10.141 -0.8437  0.3440 -0.5573
  828MPD2     C12174   2.972   1.065  12.843 -0.6956  0.4126  0.3962
  828MPD2    C112175   2.984   1.106  12.709  0.1646  0.6591 -0.8340
  828MPD2    C212176   3.108   1.093  12.637 -0.1009  0.6152 -0.5475
  828MPD2    C312177   3.207   1.024  12.695  0.0392 -0.2417 -0.0281
  828MPD2    C412178   3.191   0.972  12.824 -0.2427 -0.0789 -0.5133
  828MPD2    C512179   3.083   1.010  12.891 -0.6700  0.4821 -0.3339
  828MPD2     H12180   3.113   1.130  12.536 -1.0824 -0.1090 -0.8680
  828MPD2    H112181   3.275   0.929  12.876 -1.3205 -1.0121  0.4456
  828MPD2    H212182   2.876   1.074  12.894 -1.2400  1.6760 -0.8612
  828MPD2    H312183   3.066   0.982  12.994 -0.1526  0.1981 -0.3251
  828MPD2     N12184   3.334   0.997  12.635 -0.0574  0.0212 -0.2670
  828MPD2    H512185   3.406   0.955  12.692 -0.1071  1.6174  0.9869
  828MPD2    N112186   2.874   1.152  12.631  0.2883 -0.1341 -0.3794
  828MPD2    H712187   2.892   1.163  12.531  0.1203 -0.2118 -0.4193
  829MPD2     C12188   2.998   1.325  11.822  0.1279  0.8026 -0.0879
  829MPD2    C112189   2.869   1.376  11.828  0.1922 -0.8854  0.7878
  829MPD2    C212190   2.794   1.350  11.942 -0.6348  0.5023  0.2997
  829MPD2    C312191   2.850   1.287  12.052 -0.3539  0.3278  0.0825
  829MPD2    C412192   2.977   1.232  12.046  0.1320  0.2557  0.4360
  829MPD2    C512193   3.046   1.249  11.932 -0.2870  0.6305 -0.0917
  829MPD2     H12194   2.700   1.403  11.952 -1.0736 -0.2014 -0.0422
  829MPD2    H112195   3.021   1.192  12.137 -2.3766 -0.0133  1.5467
  829MPD2    H212196   3.057   1.314  11.732  2.2474  0.4208  1.3599
  829MPD2    H312197   3.147   1.208  11.927 -1.0022 -1.4435  2.6888
  829MPD2     N12198   2.785   1.269  12.180 -0.4563 -0.6078  0.3028
  829MPD2    H512199   2.838   1.220  12.251 -0.5723  0.7657  1.3398
  829MPD2    N112200   2.827   1.449  11.709  0.2026  0.4985  0.1905
  829MPD2    H712201   2.899   1.479  11.644 -0.8811 -1.3258 -1.8290
  830MPD2     C12202   3.238   4.423  15.163 -0.2805  0.7730  0.7731
  830MPD2    C112203   3.341   4.394  15.252  0.9486 -0.2304 -0.0643
  830MPD2    C212204   3.471   4.410  15.205 -0.0339 -0.3014  0.2105
  830MPD2    C312205   3.494   4.460  15.075 -0.0412  0.5738  1.0920
  830MPD2    C412206   3.393   4.490  14.991  0.1566 -0.4550 -0.2961
  830MPD2    C512207   3.263   4.475  15.040  0.3104 -0.2990 -1.1024
  830MPD2     H12208   3.551   4.381  15.273 -0.2842  0.3241  0.7816
  830MPD2    H112209   3.407   4.522  14.888  0.2228  1.9041  0.4577
  830MPD2    H212210   3.134   4.414  15.191 -0.4272  1.4778  0.4601
  830MPD2    H312211   3.183   4.491  14.969 -0.3862 -0.1285 -0.2817
  830MPD2     N12212   3.618   4.498  15.029  0.0098 -0.6241  0.1462
  830MPD2    H512213   3.623   4.548  14.941  1.6077  1.5399  1.4702
  830MPD2    N112214   3.311   4.354  15.386 -0.7362  0.3129 -0.1547
  830MPD2    H712215   3.217   4.376  15.420 -1.1038 -1.7981  0.1831
  831MPD2     C12216   3.007   1.142  16.489 -0.0710 -0.7211 -0.6754
  831MPD2    C112217   3.033   1.074  16.367 -0.2244 -0.3502 -0.2046
  831MPD2    C212218   2.946   0.979  16.329 -0.6920 -0.3626  0.4133
  831MPD2    C312219   2.828   0.952  16.399  0.7377 -0.7262 -0.4555
  831MPD2    C412220   2.797   1.021  16.517  0.0364 -0.2848  0.5752
  831MPD2    C512221   2.892   1.115  16.563 -0.3347  0.7581 -0.4284
  831MPD2     H12222   2.965   0.920  16.240 -1.4842  1.0873 -0.7158
  831MPD2    H112223   2.706   1.016  16.577  1.0526  1.2917  2.2683
  831MPD2    H212224   3.066   1.223  16.530  0.9664 -0.7989 -2.0054
  831MPD2    H312225   2.862   1.168  16.653  1.0777 -1.1537  1.1696
  831MPD2     N12226   2.735   0.857  16.357 -0.1223 -0.2450 -0.0002
  831MPD2    H512227   2.648   0.852  16.408  0.8629  1.9107  1.9073
  831MPD2    N112228   3.154   1.081  16.294 -0.9884 -0.5404  0.3129
  831MPD2    H712229   3.150   1.040  16.201  1.5195  0.6408 -0.2965
  832MPD2     C12230   1.929   2.018  17.444  0.3813  0.0880  0.0516
  832MPD2    C112231   1.888   2.142  17.405  0.5602 -0.2103  0.1886
  832MPD2    C212232   1.767   2.156  17.336 -0.8409  0.6301  0.9888
  832MPD2    C312233   1.675   2.057  17.315 -0.2189 -0.2974 -0.0882
  832MPD2    C412234   1.716   1.935  17.361  0.3077 -0.0562  0.7621
  832MPD2    C512235   1.841   1.912  17.409 -0.2947  0.1409 -0.5867
  832MPD2     H12236   1.734   2.254  17.306  2.0695  1.1068 -0.6491
  832MPD2    H112237   1.650   1.851  17.342  1.9820 -0.1930 -4.3663
  832MPD2    H212238   2.028   2.007  17.487  0.8790  2.1339 -0.5984
  832MPD2    H312239   1.858   1.810  17.442  2.6328  1.1641  1.0627
  832MPD2     N12240   1.546   2.066  17.255 -0.6715  0.2199  0.1862
  832MPD2    H512241   1.494   1.980  17.241 -0.7250  0.1358  0.9307
  832MPD2    N112242   1.959   2.257  17.421  0.4653 -0.2859  0.6092
  832MPD2    H712243   1.924   2.346  17.386 -0.9854 -0.6569  1.0962
  833MPD2     C12244   3.668   3.674  12.816  0.2039 -0.6622  0.4839
  833MPD2    C112245   3.701   3.774  12.725 -0.4957  0.3989 -0.2224
  833MPD2    C212246   3.794   3.741  12.633  0.1629 -1.3701  0.3864
  833MPD2    C312247   3.858   3.614  12.627  0.6781  0.5234  0.5562
  833MPD2    C412248   3.815   3.519  12.722  0.3850 -0.8043  0.3828
  833MPD2    C512249   3.730   3.553  12.819  0.3566 -0.0332  0.1113
  833MPD2     H12250   3.835   3.812  12.562  0.0684 -0.6751  1.0266
  833MPD2    H112251   3.851   3.417  12.732  0.9031 -0.6297  0.2868
  833MPD2    H212252   3.595   3.682  12.896  2.6724  1.5374  2.5527
  833MPD2    H312253   3.694   3.482  12.892 -0.2545 -1.5066 -1.6457
  833MPD2     N12254   3.960   3.569  12.532  0.1728 -0.3513 -0.1346
  833MPD2    H512255   3.989   3.472  12.533  0.3080 -0.3548 -2.8039
  833MPD2    N112256   3.636   3.897  12.725 -0.3006 -0.1981 -0.1040
  833MPD2    H712257   3.558   3.899  12.789 -2.2258 -0.7382 -2.4326
  834MPD2     C12258   3.996   2.847  11.891 -0.3551 -0.6487 -0.1217
  834MPD2    C112259   3.999   2.950  11.806 -0.2569 -0.6353  0.3124
  834MPD2    C212260   4.007   3.084  11.848  0.4293  0.2036 -0.4109
  834MPD2    C312261   4.000   3.114  11.986 -0.6751 -0.5448 -0.1149
  834MPD2    C412262   3.981   3.006  12.069 -0.2953  0.8331  0.0207
  834MPD2    C512263   3.986   2.876  12.022 -0.8583  0.3377 -0.0834
  834MPD2     H12264   4.020   3.169  11.782 -0.6132  0.0192 -0.8582
  834MPD2    H112265   3.976   3.013  12.177  1.3450 -0.3694  0.1633
  834MPD2    H212266   3.987   2.743  11.864 -0.6923 -0.7310  0.3161
  834MPD2    H312267   3.986   2.797  12.096 -3.1831 -0.3688 -0.8494
  834MPD2     N12268   4.022   3.247  12.032  0.7784  0.3247 -0.0282
  834MPD2    H512269   4.053   3.308  11.957  0.6316  0.0357 -0.3211
  834MPD2    N112270   3.982   2.914  11.672  0.0931 -0.1599  0.3533
  834MPD2    H712271   3.976   2.813  11.659  1.4589 -0.0848 -0.8831
  835MPD2     C12272   3.970   1.087  11.252 -0.5224 -0.1759  0.2372
  835MPD2    C112273   3.867   1.162  11.291  0.1122 -1.1322 -0.0249
  835MPD2    C212274   3.843   1.193  11.419 -0.7628 -0.0013  0.3063
  835MPD2    C312275   3.920   1.145  11.521  0.6548  0.2054 -0.6908
  835MPD2    C412276   4.021   1.057  11.487 -0.4911 -0.5477 -0.1483
  835MPD2    C512277   4.042   1.031  11.351  0.2629 -0.6174  0.5852
  835MPD2     H12278   3.764   1.264  11.443 -0.1394  0.1452  1.9516
  835MPD2    H112279   4.086   1.008  11.558  1.8269  1.6771 -0.7543
  835MPD2    H212280   3.998   1.063  11.150 -1.6686 -0.2052 -0.0650
  835MPD2    H312281   4.119   0.964  11.313 -0.2555 -0.8758  0.0001
  835MPD2     N12282   3.899   1.185  11.661 -0.1345  0.1876  0.5795
  835MPD2    H512283   3.955   1.141  11.732 -1.2108 -2.6368 -0.3407
  835MPD2    N112284   3.781   1.230  11.197 -0.1446 -0.0260  0.6551
  835MPD2    H712285   3.704   1.289  11.226 -0.9156 -0.2540 -0.9202
  836MPD2     C12286   3.452   1.337  12.448  0.1357  0.6886  1.4357
  836MPD2    C112287   3.443   1.379  12.310  0.6193  0.4197 -0.0769
  836MPD2    C212288   3.318   1.423  12.262 -0.1809 -0.5916 -0.1695
  836MPD2    C312289   3.207   1.436  12.339 -0.5702 -0.3285  0.3760
  836MPD2    C412290   3.223   1.408  12.472  0.7593 -0.4790  0.3798
  836MPD2    C512291   3.340   1.355  12.522  0.0125 -0.7428 -0.5144
  836MPD2     H12292   3.324   1.468  12.163 -0.4232 -2.2360 -0.9378
  836MPD2    H112293   3.150   1.440  12.546  0.9585 -1.5967  1.0556
  836MPD2    H212294   3.544   1.302  12.494  0.7096  1.9533  1.2415
  836MPD2    H312295   3.343   1.327  12.626  0.6203  3.0671  0.5002
  836MPD2     N12296   3.086   1.502  12.297  0.3747  0.7128 -0.1597
  836MPD2    H512297   3.020   1.499  12.374  0.8968 -1.8476  0.1806
  836MPD2    N112298   3.556   1.366  12.226  0.3298 -1.0204 -0.4151
  836MPD2    H712299   3.640   1.327  12.267  0.9975 -0.3761 -1.1653
  837MPD2     C12300   2.061   0.518  10.120  0.2559  0.1072  0.2278
  837MPD2    C112301   1.986   0.589  10.034 -0.0591  0.1293 -0.3472
  837MPD2    C212302   2.000   0.724  10.034 -0.8455 -0.5782  0.2117
  837MPD2    C312303   2.082   0.789  10.125  0.1211  0.3484  0.3038
  837MPD2    C412304   2.156   0.714  10.212 -0.4185 -0.1071  0.4644
  837MPD2    C512305   2.135   0.583  10.217  0.1028  0.0249 -1.0410
  837MPD2     H12306   1.937   0.776   9.963  1.8200  1.4342 -0.6900
  837MPD2    H112307   2.209   0.758  10.295  1.1662 -1.7200  0.3029
  837MPD2    H212308   2.044   0.412  10.139  0.0233  0.2695  0.9247
  837MPD2    H312309   2.203   0.518  10.272 -0.2092  0.3247 -0.3030
  837MPD2     N12310   2.064   0.929  10.135 -0.1201 -0.0403  0.3687
  837MPD2    H512311   2.011   0.969  10.059 -2.2862 -3.9264 -0.1623
  837MPD2    N112312   1.888   0.540   9.946 -0.4261 -0.1371  0.2976
  837MPD2    H712313   1.837   0.611   9.894 -0.9569 -1.7663 -1.4224
  838MPD2     C12314   4.525   3.981  11.064  0.0339  0.7804 -0.9804
  838MPD2    C112315   4.560   3.911  11.180  0.5957  1.0172 -0.5849
  838MPD2    C212316   4.475   3.819  11.232  0.0635  0.7481 -0.5796
  838MPD2    C312317   4.345   3.804  11.183  0.0954  0.8542  0.4799
  838MPD2    C412318   4.311   3.876  11.075  0.2818  0.3864  0.3034
  838MPD2    C512319   4.401   3.961  11.011 -0.2510 -0.8365  0.0725
  838MPD2     H12320   4.501   3.759  11.318  1.1412 -1.9820 -2.8262
  838MPD2    H112321   4.208   3.878  11.040  0.0331  1.1729  1.0876
  838MPD2    H212322   4.591   4.053  11.017  1.1758 -0.5111 -1.3581
  838MPD2    H312323   4.373   4.010  10.918  0.0033  0.1656  0.5256
  838MPD2     N12324   4.254   3.731  11.265 -0.0983  0.0755 -0.3498
  838MPD2    H512325   4.301   3.689  11.344  0.4914 -0.8108 -1.1640
  838MPD2    N112326   4.680   3.928  11.250  0.6409  0.3007 -0.1149
  838MPD2    H712327   4.694   3.870  11.332 -0.4497  1.7953  1.1302
  839MPD2     C12328   4.601   3.372  11.613  0.0647 -0.1105  0.1934
  839MPD2    C112329   4.640   3.352  11.484 -0.3544 -0.1892 -0.3830
  839MPD2    C212330   0.015   3.428  11.440  0.0733  0.0233  0.2064
  839MPD2    C312331   0.064   3.528  11.525  0.4915  0.7619  0.4903
  839MPD2    C412332   0.021   3.549  11.655  0.1341  0.1529  0.4413
  839MPD2    C512333   4.657   3.463  11.695  0.7543  0.3317  0.6638
  839MPD2     H12334   0.024   3.427  11.332  0.5570  1.7447  0.2292
  839MPD2    H112335   0.067   3.619  11.724  0.0757  2.0514 -1.4347
  839MPD2    H212336   4.520   3.316  11.659 -0.3892 -0.7538 -1.3722
  839MPD2    H312337   4.623   3.473  11.798 -2.2978 -0.0056 -0.3300
  839MPD2     N12338   0.152   3.626  11.480  0.6314 -0.1227 -0.1579
  839MPD2    H512339   0.176   3.702  11.543  1.5082 -1.0068  0.5842
  839MPD2    N112340   4.573   3.261  11.395  0.0453 -0.0713  0.2055
  839MPD2    H712341   4.621   3.233  11.311 -0.4593  1.9628 -0.7628
  840MPD2     C12342   0.634   1.472  10.184  0.0270 -0.0661  0.1059
  840MPD2    C112343   0.636   1.417  10.311 -0.3654 -0.5855 -0.1088
  840MPD2    C212344   0.675   1.494  10.421  0.1316 -0.3316  0.3049
  840MPD2    C312345   0.719   1.617  10.400 -0.2530 -0.4598 -0.2600
  840MPD2    C412346   0.732   1.673  10.278  0.1533  0.1525  0.5479
  840MPD2    C512347   0.684   1.601  10.170  0.5205  0.6145  0.1992
  840MPD2     H12348   0.682   1.445  10.518 -0.1491 -0.9310  0.0185
  840MPD2    H112349   0.782   1.769  10.267 -2.7463  1.5912 -0.0631
  840MPD2    H212350   0.613   1.420  10.091  0.8421 -0.3932  0.1041
  840MPD2    H312351   0.697   1.647  10.073  0.9841 -1.6552 -0.8076
  840MPD2     N12352   0.742   1.702  10.509 -0.2974  0.6967 -0.5903
  840MPD2    H512353   0.768   1.798  10.487  2.1471 -0.1128 -1.1570
  840MPD2    N112354   0.606   1.280  10.318 -0.6614 -0.1058  0.8557
  840MPD2    H712355   0.577   1.236  10.231  3.3702  0.6655 -0.8904
  841MPD2     C12356   4.649   1.609  14.972 -0.0372  0.0511  0.5704
  841MPD2    C112357   0.027   1.540  14.909 -0.1294  0.2519  0.6858
  841MPD2    C212358   0.099   1.605  14.804 -0.4661 -0.7992  0.1091
  841MPD2    C312359   0.072   1.734  14.776  0.3449  0.0229  0.3407
  841MPD2    C412360   4.688   1.798  14.831 -0.0963  0.1599 -0.6501
  841MPD2    C512361   4.616   1.734  14.932 -0.2372 -0.0487  0.9575
  841MPD2     H12362   0.180   1.552  14.756 -1.5992 -1.3558 -1.1871
  841MPD2    H112363   4.675   1.904  14.814  1.7937  0.4972 -0.0186
  841MPD2    H212364   4.601   1.573  15.063 -1.3797  1.5641  0.4543
  841MPD2    H312365   4.545   1.790  14.991 -0.2594  1.2966 -0.3653
  841MPD2     N12366   0.170   1.797  14.692  0.6056  0.0443 -0.1489
  841MPD2    H512367   0.234   1.725  14.662 -1.1193 -1.4497 -0.2595
  841MPD2    N112368   0.070   1.408  14.939 -0.1386  0.1335  0.1075
  841MPD2    H712369   0.147   1.377  14.881  0.2042  1.9951 -0.4246
  842MPD2     C12370   0.895   2.958  16.211  0.0180 -0.1913 -0.4756
  842MPD2    C112371   0.787   2.891  16.257  0.2677  0.4033  0.1598
  842MPD2    C212372   0.794   2.831  16.379 -0.2858 -0.0519  0.3448
  842MPD2    C312373   0.917   2.817  16.441  0.0049  0.2987  0.2439
  842MPD2    C412374   1.025   2.874  16.391 -0.2575 -0.3403  0.0019
  842MPD2    C512375   1.014   2.953  16.278  0.6843  0.1586 -0.4381
  842MPD2     H12376   0.702   2.783  16.409  0.0606 -1.7207 -1.2331
  842MPD2    H112377   1.124   2.883  16.434 -0.9071  1.0177  1.1902
  842MPD2    H212378   0.885   3.016  16.120  1.1718  1.8738  0.7257
  842MPD2    H312379   1.103   2.999  16.234  0.0548  1.7815 -0.0255
  842MPD2     N12380   0.918   2.752  16.570  0.6530  0.4139  0.2964
  842MPD2    H512381   0.832   2.706  16.597  0.2984 -0.1290 -1.7651
  842MPD2    N112382   0.667   2.893  16.175  0.1471  0.3850 -0.0545
  842MPD2    H712383   0.654   2.963  16.103 -0.4525 -1.4433 -1.6940
  843MPD2     C12384   3.466   2.213   0.691 -0.6702 -0.9545  0.0872
  843MPD2    C112385   3.365   2.280   0.630 -0.5694 -0.3083  0.1358
  843MPD2    C212386   3.379   2.321   0.504 -0.0680 -0.2955  0.7133
  843MPD2    C312387   3.497   2.318   0.438 -0.3194  0.5743 -0.2907
  843MPD2    C412388   3.606   2.261   0.502  0.1932 -0.7190 -0.0603
  843MPD2    C512389   3.582   2.195   0.622 -0.0218  0.8724  0.2889
  843MPD2     H12390   3.295   2.370   0.456 -0.2036 -0.7735  0.4591
  843MPD2    H112391   3.705   2.250   0.460  0.1536 -1.1546 -0.0454
  843MPD2    H212392   3.467   2.170   0.791 -0.8282 -0.8494  0.1340
  843MPD2    H312393   3.657   2.130   0.667 -0.8324  0.6595  1.3225
  843MPD2     N12394   3.516   2.380   0.312 -0.5506  0.4810 -0.2031
  843MPD2    H512395   3.603   2.361   0.262 -0.3436 -2.4168  1.2587
  843MPD2    N112396   3.233   2.295   0.675 -0.5798  0.0155 -0.7320
  843MPD2    H712397   3.159   2.319   0.611 -0.6436 -1.4484 -1.2045
  844MPD2     C12398   1.304   1.751  16.788  0.6392 -0.3711 -0.4690
  844MPD2    C112399   1.398   1.668  16.729  0.7630 -0.1503  0.1111
  844MPD2    C212400   1.532   1.666  16.779 -0.5405 -0.0600  0.3821
  844MPD2    C312401   1.570   1.757  16.876 -0.3322 -0.1766  0.0085
  844MPD2    C412402   1.476   1.841  16.927 -0.0365 -1.3043 -0.1787
  844MPD2    C512403   1.342   1.828  16.894  0.5420  0.7012 -0.6676
  844MPD2     H12404   1.599   1.587  16.746  0.4554  0.3746  1.3649
  844MPD2    H112405   1.496   1.912  17.006  0.8793 -1.6554 -0.0841
  844MPD2    H212406   1.203   1.771  16.752  0.9898 -0.3350 -1.4366
  844MPD2    H312407   1.273   1.895  16.943 -0.2856 -0.4613 -0.2346
  844MPD2     N12408   1.703   1.753  16.933  0.0585 -0.3510  0.2419
  844MPD2    H512409   1.749   1.664  16.917 -3.5591 -2.3177  0.8617
  844MPD2    N112410   1.361   1.584  16.616  0.1926  0.3168 -0.2984
  844MPD2    H712411   1.428   1.509  16.601  1.4549  1.4192 -0.2032
  845MPD2     C12412   2.284   2.552  17.174  0.0181  0.2159  0.0932
  845MPD2    C112413   2.149   2.524  17.181 -0.0041 -0.4027 -0.6307
  845MPD2    C212414   2.097   2.401  17.165 -0.6988 -0.2541 -0.2670
  845MPD2    C312415   2.177   2.290  17.153 -0.1058  0.9525  0.5474
  845MPD2    C412416   2.318   2.316  17.135 -0.8195  0.8611 -0.4040
  845MPD2    C512417   2.368   2.444  17.145 -0.4156 -0.5092 -0.3781
  845MPD2     H12418   1.993   2.376  17.149 -1.5968  2.1588  2.0390
  845MPD2    H112419   2.385   2.232  17.133  0.9988  2.3729 -2.5900
  845MPD2    H212420   2.325   2.651  17.192 -0.9083  0.3969  1.2464
  845MPD2    H312421   2.475   2.457  17.140 -0.2027 -1.6088  1.1639
  845MPD2     N12422   2.108   2.167  17.129  0.3833 -0.6850 -0.2358
  845MPD2    H512423   2.008   2.170  17.114  0.0420  1.1570  2.4865
  845MPD2    N112424   2.072   2.644  17.195 -0.2736 -1.0046 -0.0828
  845MPD2    H712425   2.120   2.734  17.198  2.4789 -2.4730 -0.1935
  846MPD2     C12426   3.127   3.242  13.492  0.0115  0.2866  0.5147
  846MPD2    C112427   3.008   3.306  13.527 -1.1797 -0.3269 -0.6858
  846MPD2    C212428   2.958   3.287  13.655 -0.2636  0.5447 -0.8027
  846MPD2    C312429   3.013   3.196  13.743  0.0244  0.2274 -0.0504
  846MPD2    C412430   3.124   3.121  13.697 -0.6835  1.0622  0.3923
  846MPD2    C512431   3.183   3.153  13.580 -0.6423  0.5722 -0.3044
  846MPD2     H12432   2.868   3.336  13.691 -1.5324 -2.4085  0.0177
  846MPD2    H112433   3.179   3.048  13.755 -0.0462 -0.1580 -1.7125
  846MPD2    H212434   3.179   3.248  13.397  0.2114 -2.3705  0.4616
  846MPD2    H312435   3.261   3.089  13.541 -1.3925  0.0315 -0.9257
  846MPD2     N12436   2.961   3.182  13.876  0.5851  0.2721 -0.0858
  846MPD2    H512437   2.877   3.236  13.893 -0.5423 -1.6959  0.6879
  846MPD2    N112438   2.944   3.394  13.437 -0.7232  0.2877 -0.6617
  846MPD2    H712439   2.871   3.457  13.469 -0.8567  0.2214 -0.8301
  847MPD2     C12440   3.471   4.236  14.058  0.2285 -0.0822 -0.4044
  847MPD2    C112441   3.424   4.200  14.183 -0.2121  0.0876 -0.6630
  847MPD2    C212442   3.426   4.069  14.226 -0.2518 -0.1822  0.7218
  847MPD2    C312443   3.476   3.972  14.142  0.1571  0.5969 -0.3940
  847MPD2    C412444   3.521   4.006  14.018  0.0481 -1.5195 -0.0053
  847MPD2    C512445   3.514   4.137  13.969 -0.7226  0.6487  0.7989
  847MPD2     H12446   3.394   4.042  14.326 -0.6415  1.4085  1.0172
  847MPD2    H112447   3.556   3.928  13.951  0.7446  0.5436 -2.0285
  847MPD2    H212448   3.461   4.337  14.020  3.1494  0.2305 -0.3173
  847MPD2    H312449   3.529   4.159  13.864  2.8842 -1.4128  0.8691
  847MPD2     N12450   3.473   3.842  14.195  0.3099  0.3126  0.1120
  847MPD2    H512451   3.435   3.831  14.289 -1.3296 -1.7222 -0.7763
  847MPD2    N112452   3.368   4.293  14.277  0.3457 -0.4799 -0.1556
  847MPD2    H712453   3.299   4.270  14.348 -0.3389  0.2410 -0.5904
  848MPD2     C12454   1.069   2.218  16.575  0.1747  0.3837 -0.4167
  848MPD2    C112455   1.172   2.288  16.627 -0.1051 -0.2433 -0.0699
  848MPD2    C212456   1.211   2.403  16.563 -0.1956  0.0074  0.2863
  848MPD2    C312457   1.154   2.444  16.447 -0.0992  0.1467  0.0765
  848MPD2    C412458   1.048   2.372  16.390  1.2225 -0.3034  0.3263
  848MPD2    C512459   1.007   2.259  16.463  0.5049 -0.3513 -0.1873
  848MPD2     H12460   1.286   2.460  16.618  2.1682 -0.5625 -2.3406
  848MPD2    H112461   1.003   2.404  16.296 -3.3234 -0.3092  2.5037
  848MPD2    H212462   1.024   2.129  16.617 -0.1013  0.7849  0.1221
  848MPD2    H312463   0.925   2.196  16.429  1.2117 -0.5783 -1.4688
  848MPD2     N12464   1.206   2.558  16.385 -0.1729 -0.1177 -0.0046
  848MPD2    H512465   1.154   2.606  16.312  0.8850 -0.1153 -0.7552
  848MPD2    N112466   1.237   2.258  16.748  0.6219  0.4279 -0.0037
  848MPD2    H712467   1.300   2.328  16.785 -0.6942  1.1123  0.9613
  849MPD2     C12468   0.628   2.528  14.180 -0.0856 -0.7932  0.6399
  849MPD2    C112469   0.637   2.423  14.087  0.3171  0.0761  0.4329
  849MPD2    C212470   0.759   2.351  14.090 -0.2412 -0.3947 -0.6319
  849MPD2    C312471   0.861   2.367  14.178  0.4534  0.1919 -0.6794
  849MPD2    C412472   0.850   2.474  14.265 -1.0027  0.3348 -0.2525
  849MPD2    C512473   0.733   2.546  14.269 -0.5925  0.2987  0.4325
  849MPD2     H12474   0.765   2.271  14.016 -1.9398  0.0085 -1.2095
  849MPD2    H112475   0.935   2.494  14.330 -1.8987  1.4687  0.5851
  849MPD2    H212476   0.533   2.577  14.194  0.4672  0.7126 -0.8289
  849MPD2    H312477   0.729   2.626  14.342  0.8774  0.9383 -0.1913
  849MPD2     N12478   0.985   2.297  14.177  0.0346 -0.2311  0.8575
  849MPD2    H512479   1.057   2.340  14.235  0.8321  0.0004 -0.3213
  849MPD2    N112480   0.556   2.434  13.972 -0.2697 -0.4713  0.2376
  849MPD2    H712481   0.498   2.516  13.956  2.4962  1.2647 -0.9595
  850MPD2     C12482   3.406   0.646  14.604 -0.2385 -0.0652  0.0753
  850MPD2    C112483   3.369   0.709  14.719  0.4084 -0.4111  0.2706
  850MPD2    C212484   3.466   0.722  14.820  0.0924 -0.2420 -0.2393
  850MPD2    C312485   3.587   0.656  14.815  0.7828 -0.2071 -0.4523
  850MPD2    C412486   3.621   0.586  14.694  0.5927  0.0850 -0.0843
  850MPD2    C512487   3.531   0.589  14.589  0.1409 -0.3482  0.2002
  850MPD2     H12488   3.447   0.787  14.905  0.1344  0.9941 -1.1789
  850MPD2    H112489   3.722   0.552  14.678  0.6505  0.0153  0.4226
  850MPD2    H212490   3.343   0.651  14.516  3.6998  0.5457 -2.7319
  850MPD2    H312491   3.556   0.558  14.488  2.3968 -0.1021  0.6770
  850MPD2     N12492   3.688   0.653  14.919 -0.8315 -0.0341  0.8748
  850MPD2    H512493   3.754   0.575  14.917  1.4753  1.9531 -0.1242
  850MPD2    N112494   3.237   0.757  14.719  0.0421 -0.0903 -0.2398
  850MPD2    H712495   3.197   0.747  14.627 -0.8878 -2.2024  0.3823
  851MPD2     C12496   3.545   0.402  15.438  0.7600  1.0763  0.2049
  851MPD2    C112497   3.524   0.409  15.305 -0.2514  0.2159  0.4569
  851MPD2    C212498   3.621   0.351  15.222 -0.2648 -0.4064 -0.2612
  851MPD2    C312499   3.724   0.272  15.273  0.2919  0.3166  0.6677
  851MPD2    C412500   3.739   0.262  15.409  0.3144 -0.3924  0.8398
  851MPD2    C512501   3.654   0.333  15.486 -0.2987 -0.6309  0.3114
  851MPD2     H12502   3.618   0.384  15.119 -0.7663  0.5136  0.0510
  851MPD2    H112503   3.816   0.199  15.451  1.7514 -0.3842 -1.7914
  851MPD2    H212504   3.483   0.458  15.507 -1.1071 -1.0812  0.2839
  851MPD2    H312505   3.672   0.334  15.593  0.7589 -1.1624  0.1406
  851MPD2     N12506   3.810   0.185  15.194 -0.4970  0.3341 -0.1175
  851MPD2    H512507   3.891   0.138  15.232  0.3078  1.6434 -0.2392
  851MPD2    N112508   3.416   0.487  15.262  0.0911 -0.2496  0.2535
  851MPD2    H712509   3.367   0.537  15.335  0.6797  0.1395  0.3735
  852MPD2     C12510   2.960   2.481  10.471  0.7545 -0.8172  0.9360
  852MPD2    C112511   2.967   2.594  10.549 -0.2737  0.3725  0.1307
  852MPD2    C212512   3.054   2.695  10.519  0.2988 -0.2534  0.4457
  852MPD2    C312513   3.139   2.687  10.411  0.3168 -0.6262  1.0301
  852MPD2    C412514   3.140   2.569  10.342  0.7227  0.5642  0.7792
  852MPD2    C512515   3.047   2.473  10.369 -0.3993  0.3534 -0.0598
  852MPD2     H12516   3.054   2.792  10.568  3.9658 -0.8227  1.6149
  852MPD2    H112517   3.217   2.554  10.268 -0.4735  1.4568 -0.6457
  852MPD2    H212518   2.894   2.397  10.490 -0.4605 -0.2270 -0.7133
  852MPD2    H312519   3.057   2.385  10.307  0.4535 -0.5522  1.3814
  852MPD2     N12520   3.221   2.801  10.383 -0.6213 -0.2895 -0.0296
  852MPD2    H512521   3.231   2.878  10.448  0.3143  1.3947 -2.1614
  852MPD2    N112522   2.886   2.617  10.654  0.6023  0.4401 -0.0535
  852MPD2    H712523   2.905   2.701  10.708 -0.8814  0.7419  0.0012
  853MPD2     C12524   0.185   2.952  12.050  0.3364  0.6207  0.9354
  853MPD2    C112525   0.117   2.838  12.093  0.4636  0.1834  0.2580
  853MPD2    C212526   0.116   2.734  12.008  0.2131  0.5163 -0.2780
  853MPD2    C312527   0.180   2.746  11.882  0.1064 -0.2645  0.0552
  853MPD2    C412528   0.254   2.850  11.846  0.6981 -0.5408  0.6294
  853MPD2    C512529   0.256   2.960  11.932 -0.4244 -0.1745  0.8677
  853MPD2     H12530   0.055   2.646  12.025  1.8067 -0.9957 -2.4560
  853MPD2    H112531   0.313   2.853  11.755  1.0491  2.6651  0.9416
  853MPD2    H212532   0.190   3.033  12.121  0.7680  0.3463  1.2215
  853MPD2    H312533   0.314   3.043  11.892 -0.1676 -0.0667  1.4635
  853MPD2     N12534   0.174   2.645  11.785  0.0274 -0.1547  0.1816
  853MPD2    H512535   0.208   2.666  11.691  1.2148  0.6356  0.7879
  853MPD2    N112536   0.064   2.844  12.223  0.6044 -0.3959  0.1199
  853MPD2    H712537   0.076   2.928  12.279 -1.1221  0.9064 -1.4289
  854MPD2     C12538   1.906   2.834  12.967  0.1850 -0.2475 -0.4053
  854MPD2    C112539   1.835   2.762  12.873 -0.8423  1.0054 -1.0228
  854MPD2    C212540   1.836   2.626  12.887  0.0000  0.0162  0.0045
  854MPD2    C312541   1.911   2.563  12.987  0.4261  0.1982  0.1039
  854MPD2    C412542   1.979   2.644  13.076 -0.1802 -0.7587  0.9526
  854MPD2    C512543   1.988   2.778  13.058  0.6921  0.0963  0.0891
  854MPD2     H12544   1.772   2.569  12.820 -0.5106  1.2445 -0.5483
  854MPD2    H112545   2.041   2.595  13.150  1.4575  0.5722  0.4593
  854MPD2    H212546   1.902   2.941  12.952 -1.3168 -0.6590 -2.8794
  854MPD2    H312547   2.043   2.842  13.127  0.8072  1.3270 -1.1497
  854MPD2     N12548   1.922   2.422  13.000 -0.4411  0.5535 -0.5221
  854MPD2    H512549   1.954   2.378  13.086 -0.0563 -0.9046 -1.4084
  854MPD2    N112550   1.774   2.829  12.760 -0.3860 -0.5264  0.0900
  854MPD2    H712551   1.787   2.929  12.759  0.7248 -0.6448  2.9079
  855MPD2     C12552   2.531   2.184  13.355  0.2540  0.0738 -0.3063
  855MPD2    C112553   2.412   2.139  13.413  0.7495 -0.2304  0.0060
  855MPD2    C212554   2.317   2.075  13.336  0.8007 -0.3209  0.5476
  855MPD2    C312555   2.330   2.081  13.198 -0.4057 -0.2165 -0.5059
  855MPD2    C412556   2.445   2.120  13.145 -0.0875 -0.4181 -0.7915
  855MPD2    C512557   2.549   2.162  13.220 -0.3053  0.1351  0.4028
  855MPD2     H12558   2.233   2.023  13.381 -0.1456 -2.0417 -3.1160
  855MPD2    H112559   2.455   2.104  13.038  0.9630  0.6250 -0.8484
  855MPD2    H212560   2.610   2.227  13.415  2.2120  0.9538 -3.4842
  855MPD2    H312561   2.630   2.209  13.166 -2.1821  2.1438 -0.6965
  855MPD2     N12562   2.231   2.042  13.104 -0.2367 -0.0533  0.0491
  855MPD2    H512563   2.239   2.075  13.009  1.1928  0.2033  0.2475
  855MPD2    N112564   2.386   2.155  13.552 -0.9257  0.2717 -0.1863
  855MPD2    H712565   2.313   2.100  13.597  0.9846 -1.0736  1.2710
  856MPD2     C12566   3.923   3.327  13.692 -0.2686 -0.4095 -1.0106
  856MPD2    C112567   3.918   3.400  13.809 -0.8859 -0.3238  0.0780
  856MPD2    C212568   3.873   3.530  13.808 -0.2484  0.2067 -0.8549
  856MPD2    C312569   3.830   3.591  13.690 -0.1732  0.3238 -0.5242
  856MPD2    C412570   3.832   3.515  13.570 -0.4818 -0.2345 -0.3782
  856MPD2    C512571   3.871   3.379  13.571  0.0974 -0.3429  0.5780
  856MPD2     H12572   3.879   3.591  13.898  1.6461  1.0207 -1.5189
  856MPD2    H112573   3.794   3.557  13.478 -0.0026 -0.7660 -0.8222
  856MPD2    H212574   3.944   3.221  13.697 -3.5832 -1.0086  0.4515
  856MPD2    H312575   3.874   3.318  13.482  2.1541  0.5119  0.0722
  856MPD2     N12576   3.801   3.726  13.675  0.2936  0.3049 -0.3810
  856MPD2    H512577   3.778   3.761  13.582 -1.4612  2.1881  0.7710
  856MPD2    N112578   3.978   3.356  13.931 -0.1983  0.1452 -0.0981
  856MPD2    H712579   3.950   3.412  14.011 -1.2179 -0.0831 -0.2861
  857MPD2     C12580   0.653   0.757  12.675  0.0395  0.4637 -0.2980
  857MPD2    C112581   0.777   0.750  12.735 -0.4247 -0.4088  0.5588
  857MPD2    C212582   0.831   0.863  12.792 -0.4549  0.3303  0.9214
  857MPD2    C312583   0.766   0.982  12.790  0.6413  0.4959 -0.5047
  857MPD2    C412584   0.641   0.982  12.736  0.0150 -0.8007 -0.5352
  857MPD2    C512585   0.588   0.870  12.684 -0.1046 -0.0974  0.5585
  857MPD2     H12586   0.930   0.864  12.837 -1.1703 -1.1049  2.5343
  857MPD2    H112587   0.593   1.079  12.731  1.9738  0.3012  1.5403
  857MPD2    H212588   0.607   0.679  12.616  0.0635  1.7917 -2.1072
  857MPD2    H312589   0.498   0.886  12.626  0.5963  0.8676 -0.2617
  857MPD2     N12590   0.827   1.097  12.842  0.4770  0.0182 -0.5751
  857MPD2    H512591   0.916   1.084  12.889 -0.6724 -0.8287  1.3622
  857MPD2    N112592   0.850   0.625  12.733  0.0130 -0.4688 -0.8037
  857MPD2    H712593   0.790   0.550  12.701 -0.7950 -0.4907  0.7561
  858MPD2     C12594   1.699   4.152  16.831  0.3033 -0.1025 -0.2100
  858MPD2    C112595   1.821   4.200  16.803 -0.2562 -1.2197  0.0353
  858MPD2    C212596   1.874   4.309  16.874  0.3911 -1.1504 -0.0833
  858MPD2    C312597   1.803   4.370  16.974 -0.4148  0.5724  0.0933
  858MPD2    C412598   1.673   4.331  16.995 -0.8563 -0.0332 -0.2116
  858MPD2    C512599   1.621   4.222  16.928  0.2872 -0.1450  0.1827
  858MPD2     H12600   1.971   4.354  16.855 -0.3941  0.4533 -0.3069
  858MPD2    H112601   1.613   4.380  17.071 -0.0313  0.9001 -0.1574
  858MPD2    H212602   1.657   4.066  16.779 -2.2711  0.5044  0.8838
  858MPD2    H312603   1.519   4.195  16.955 -0.0238  0.9350  0.0571
  858MPD2     N12604   1.863   4.454  17.069  0.3996  0.3691  0.7226
  858MPD2    H512605   1.801   4.498  17.136  1.3513  1.6560  0.7785
  858MPD2    N112606   1.878   4.120  16.704  0.2426  0.6969 -0.6850
  858MPD2    H712607   1.824   4.044  16.665 -0.6918  0.5666  0.8850
  859MPD2     C12608   0.304   1.323  15.436 -0.0609 -0.5582 -0.6702
  859MPD2    C112609   0.312   1.366  15.304  0.2082 -0.3503  0.3436
  859MPD2    C212610   0.384   1.287  15.213 -0.0290 -0.3420  0.2630
  859MPD2    C312611   0.450   1.170  15.245  0.8488 -0.0126 -0.3213
  859MPD2    C412612   0.433   1.127  15.379 -0.4282 -0.0253 -0.2899
  859MPD2    C512613   0.367   1.207  15.468 -0.3653 -0.2558  0.5020
  859MPD2     H12614   0.390   1.324  15.111  0.7945 -0.9038  0.1035
  859MPD2    H112615   0.490   1.040  15.410 -0.4300 -0.1844 -0.7371
  859MPD2    H212616   0.236   1.369  15.507 -0.5704 -1.3616 -0.6398
  859MPD2    H312617   0.362   1.170  15.570  0.0995 -1.9703 -0.0862
  859MPD2     N12618   0.519   1.088  15.153 -0.7092 -0.3328  0.3462
  859MPD2    H512619   0.558   1.000  15.185 -0.5500 -0.3311  0.1628
  859MPD2    N112620   0.252   1.488  15.268  0.1640 -0.0951  0.3042
  859MPD2    H712621   0.202   1.546  15.335 -0.1146  1.0408 -0.8808
  860MPD2     C12622   2.750   2.018  11.651 -0.4909 -0.4394 -0.4424
  860MPD2    C112623   2.768   2.070  11.775 -0.3921 -0.2006 -0.2643
  860MPD2    C212624   2.655   2.086  11.854  0.1092  0.5649  0.4162
  860MPD2    C312625   2.533   2.028  11.817 -0.7547 -0.3040 -0.2013
  860MPD2    C412626   2.516   1.972  11.697  0.3163  0.0051 -0.6455
  860MPD2    C512627   2.625   1.979  11.611 -0.5754 -0.4291  0.4797
  860MPD2     H12628   2.663   2.133  11.951 -1.3486  2.1930 -0.2724
  860MPD2    H112629   2.422   1.933  11.660  0.5383  1.9182 -3.2391
  860MPD2    H212630   2.835   2.022  11.583 -0.0557 -1.5353  0.0351
  860MPD2    H312631   2.608   1.963  11.505 -2.7388 -0.8974  0.8952
  860MPD2     N12632   2.420   2.054  11.901  0.6458  0.4471 -0.8155
  860MPD2    H512633   2.425   2.121  11.977  0.3683 -0.1469 -0.2714
  860MPD2    N112634   2.891   2.115  11.823 -0.6808  0.5218 -0.6432
  860MPD2    H712635   2.893   2.152  11.917  0.8858  0.4685 -0.6530
  861MPD2     C12636   1.357   0.388  10.962 -0.3244 -0.1817 -0.0371
  861MPD2    C112637   1.367   0.521  10.990  0.0836 -0.5977 -0.2094
  861MPD2    C212638   1.294   0.607  10.903  0.8944  0.1556 -0.0689
  861MPD2    C312639   1.219   0.569  10.790  0.0524  0.4870 -0.1815
  861MPD2    C412640   1.220   0.436  10.762  0.1077 -0.4435  0.1634
  861MPD2    C512641   1.287   0.345  10.853 -0.6613  0.1947  0.5882
  861MPD2     H12642   1.295   0.710  10.938 -1.4173  0.5009 -1.0149
  861MPD2    H112643   1.159   0.388  10.686 -1.0122  0.7347  0.3091
  861MPD2    H212644   1.393   0.312  11.030  0.9904  1.5810  1.2357
  861MPD2    H312645   1.284   0.238  10.835  1.6677  0.2579 -0.1643
  861MPD2     N12646   1.142   0.649  10.704  0.0071  0.0694  0.2701
  861MPD2    H512647   1.087   0.614  10.626  0.9498 -0.9340  0.0592
  861MPD2    N112648   1.435   0.576  11.105 -0.0046 -0.4150 -0.1076
  861MPD2    H712649   1.424   0.674  11.130  1.6413 -0.4988  0.9471
  862MPD2     C12650   0.684   0.766  10.192  0.2177 -0.3984  0.3157
  862MPD2    C112651   0.806   0.706  10.227 -0.1774 -0.1670 -0.1645
  862MPD2    C212652   0.826   0.569  10.216  0.1684  0.7495  0.7887
  862MPD2    C312653   0.732   0.490  10.156 -0.2300 -0.1430  0.9337
  862MPD2    C412654   0.616   0.549  10.111 -0.3828 -0.5234 -0.0604
  862MPD2    C512655   0.600   0.683  10.120  0.4666 -0.4238  0.0067
  862MPD2     H12656   0.921   0.539  10.259 -0.3726  0.1973  1.6065
  862MPD2    H112657   0.539   0.492  10.061  1.0104  0.4111 -3.2754
  862MPD2    H212658   0.657   0.870  10.188  0.8088 -0.2406  0.4175
  862MPD2    H312659   0.504   0.726  10.093  0.3043 -0.4811  0.5040
  862MPD2     N12660   0.729   0.353  10.152 -1.0987  0.2627 -0.7910
  862MPD2    H512661   0.647   0.306  10.115 -0.8245 -0.2615 -0.7306
  862MPD2    N112662   0.911   0.782  10.290  0.1360 -0.0457  0.1540
  862MPD2    H712663   0.985   0.729  10.335 -0.2252 -0.1825  0.5875
  863MPD2     C12664   0.618   3.973  16.475 -0.0976  0.4153  0.2681
  863MPD2    C112665   0.519   3.899  16.523  0.1159 -0.6056 -0.6131
  863MPD2    C212666   0.545   3.824  16.632 -0.7361  0.7128 -0.1250
  863MPD2    C312667   0.668   3.835  16.700 -0.1002 -0.7873 -0.1660
  863MPD2    C412668   0.768   3.908  16.638  0.0984 -0.2515 -0.5579
  863MPD2    C512669   0.744   3.975  16.518  0.4750  1.0622 -0.6993
  863MPD2     H12670   0.469   3.754  16.667 -2.9773  1.2020 -4.0291
  863MPD2    H112671   0.868   3.909  16.680 -0.1984  2.2822  0.0374
  863MPD2    H212672   0.609   4.044  16.393 -0.2434  1.2056  0.9702
  863MPD2    H312673   0.825   4.036  16.479  0.4049  1.7047  0.1568
  863MPD2     N12674   0.701   3.758  16.820 -0.7488  0.4533 -0.7051
  863MPD2    H512675   0.797   3.759  16.853 -0.9981 -1.8897  0.1050
  863MPD2    N112676   0.390   3.903  16.455  0.0452 -0.6649 -0.6424
  863MPD2    H712677   0.364   3.979  16.392 -1.0666  0.2637  0.9419
  864MPD2     C12678   0.439   0.124  16.991  0.7860 -0.5093  0.0204
  864MPD2    C112679   0.538   0.037  17.040  0.3954 -0.0268  0.0638
  864MPD2    C212680   0.645   0.085  17.109 -0.3589  0.9552  0.7829
  864MPD2    C312681   0.656   0.218  17.142 -0.2151 -0.4974  0.0934
  864MPD2    C412682   0.554   0.299  17.099  0.3541  0.5066  0.2694
  864MPD2    C512683   0.452   0.254  17.026 -0.7484 -0.0900 -0.8033
  864MPD2     H12684   0.720   0.016  17.145 -1.0816  0.0030  0.4742
  864MPD2    H112685   0.560   0.406  17.108 -0.1537  0.4181  1.7046
  864MPD2    H212686   0.358   0.087  16.929 -0.4552  0.6258  0.9678
  864MPD2    H312687   0.379   0.319  16.979  2.1174  3.3316 -0.4826
  864MPD2     N12688   0.771   0.255  17.209  0.1274  0.4668 -0.2565
  864MPD2    H512689   0.836   0.177  17.215  0.8619  1.3072  2.9281
  864MPD2    N112690   0.535   4.619  17.011  0.3717  0.0530  0.4610
  864MPD2    H712691   0.613   4.565  17.047 -0.5486 -0.9888  0.8915
  865MPD2     C12692   1.275   0.674  16.582  0.2260  0.3428 -0.3111
  865MPD2    C112693   1.318   0.551  16.615  0.2617  0.2014  0.0113
  865MPD2    C212694   1.284   0.500  16.739  0.6284  0.1165 -1.1379
  865MPD2    C312695   1.205   0.575  16.825  0.2595 -0.7924 -0.2012
  865MPD2    C412696   1.170   0.705  16.780 -0.9737  0.0011  0.0562
  865MPD2    C512697   1.208   0.754  16.662 -0.0506  0.2577  0.2378
  865MPD2     H12698   1.318   0.402  16.772 -0.0763  0.4021  0.4514
  865MPD2    H112699   1.125   0.774  16.850 -1.4513 -0.2316 -0.0197
  865MPD2    H212700   1.312   0.703  16.484  0.3100 -0.1746 -0.4312
  865MPD2    H312701   1.191   0.859  16.644  0.6381  0.3218 -0.0358
  865MPD2     N12702   1.172   0.535  16.962  0.1512  0.1385  0.5949
  865MPD2    H512703   1.113   0.591  17.023  0.0739 -1.0026  1.5679
  865MPD2    N112704   1.373   0.463  16.512  0.5997  0.0095  0.0053
  865MPD2    H712705   1.386   0.508  16.421 -1.3146  0.9149  0.1886
  866MPD2     C12706   2.056   1.257  11.378 -0.1903 -0.2954 -1.4137
  866MPD2    C112707   2.037   1.186  11.258 -0.1208  0.5496  0.1711
  866MPD2    C212708   1.919   1.195  11.189  1.0672  0.5649 -0.2036
  866MPD2    C312709   1.808   1.255  11.239  0.4539 -0.9239 -0.3539
  866MPD2    C412710   1.822   1.310  11.366 -0.0719  0.4685  0.4499
  866MPD2    C512711   1.944   1.313  11.428 -0.2972 -0.0933 -0.2384
  866MPD2     H12712   1.925   1.158  11.087 -0.4468 -0.4816  0.0899
  866MPD2    H112713   1.734   1.349  11.416 -1.1158 -0.9071 -0.3273
  866MPD2    H212714   2.139   1.234  11.443 -0.7130  3.3870  0.5612
  866MPD2    H312715   1.938   1.353  11.529  0.7986 -0.0709 -0.1783
  866MPD2     N12716   1.683   1.254  11.172  0.2365  0.5179  0.1305
  866MPD2    H512717   1.608   1.299  11.224 -1.1586 -1.2586 -0.3264
  866MPD2    N112718   2.138   1.097  11.205 -0.8800  0.6903  0.3267
  866MPD2    H712719   2.129   1.048  11.116  2.8272 -0.4505  0.5834
  867MPD2     C12720   4.180   0.310  16.307 -0.5314 -0.0871 -0.0556
  867MPD2    C112721   4.273   0.320  16.405  0.4929 -0.4177 -0.6681
  867MPD2    C212722   4.289   0.433  16.479 -0.6730 -0.2007  0.6942
  867MPD2    C312723   4.220   0.546  16.436 -0.0050 -0.6682 -0.3475
  867MPD2    C412724   4.137   0.540  16.324 -0.5507 -0.1989  0.5585
  867MPD2    C512725   4.117   0.421  16.261 -0.6216  0.2537  0.4198
  867MPD2     H12726   4.355   0.436  16.564  0.5751  0.1677 -0.2913
  867MPD2    H112727   4.099   0.634  16.285 -0.2683 -0.5533 -0.5654
  867MPD2    H212728   4.180   0.216  16.253 -0.8650 -1.2194  1.9485
  867MPD2    H312729   4.046   0.419  16.179  1.0821 -1.8565 -0.9912
  867MPD2     N12730   4.233   0.677  16.493  0.3003 -0.0068  0.0016
  867MPD2    H512731   4.175   0.747  16.447 -1.6266 -1.4779  0.2053
  867MPD2    N112732   4.340   0.201  16.438 -0.1869  0.0249  0.2381
  867MPD2    H712733   4.321   0.118  16.384  1.8131 -1.0734  1.1877
  868MPD2     C12734   1.076   4.074  12.751  0.3610  0.3089 -0.2540
  868MPD2    C112735   1.170   4.102  12.847  0.6627  0.1292  0.1295
  868MPD2    C212736   1.128   4.141  12.980 -0.4791 -0.1207 -0.1295
  868MPD2    C312737   0.988   4.137  13.008 -0.3421  0.5059 -0.4953
  868MPD2    C412738   0.894   4.098  12.912  0.2768  0.1745  0.2365
  868MPD2    C512739   0.941   4.077  12.783  0.6275 -0.3313 -0.0928
  868MPD2     H12740   1.201   4.169  13.055 -2.2959  2.5232  0.6448
  868MPD2    H112741   0.786   4.099  12.925 -0.0442 -0.2678 -2.3028
  868MPD2    H212742   1.107   4.036  12.655 -0.3919  0.4563 -0.5495
  868MPD2    H312743   0.873   4.053  12.702  0.7467 -1.7168  0.2048
  868MPD2     N12744   0.955   4.192  13.132  0.6623  0.1462  0.3268
  868MPD2    H512745   1.027   4.235  13.190  2.5639  0.4681 -2.2717
  868MPD2    N112746   1.304   4.083  12.808  0.1700  1.1471 -0.2545
  868MPD2    H712747   1.321   4.053  12.713  0.5052  0.2084  0.0972
  869MPD2     C12748   2.626   1.145   2.161 -0.3696 -0.3816 -0.0763
  869MPD2    C112749   2.508   1.153   2.090 -0.0030  0.4051  0.1827
  869MPD2    C212750   2.475   1.270   2.027 -0.3746  0.5227  0.2241
  869MPD2    C312751   2.566   1.371   2.015 -0.3568  0.2342  0.8067
  869MPD2    C412752   2.687   1.360   2.090  0.0567  0.4773  0.2118
  869MPD2    C512753   2.716   1.248   2.157  0.6841  0.0378 -0.1053
  869MPD2     H12754   2.389   1.272   1.962  0.4075 -0.6097 -0.8503
  869MPD2    H112755   2.761   1.440   2.091 -0.0894  0.6054  1.4666
  869MPD2    H212756   2.633   1.064   2.232 -0.8300  0.4234  0.8795
  869MPD2    H312757   2.808   1.226   2.210 -0.8505 -0.4058  2.3923
  869MPD2     N12758   2.538   1.495   1.953 -0.7338  0.1629  0.8740
  869MPD2    H512759   2.611   1.563   1.972 -0.7074  0.2194  0.5806
  869MPD2    N112760   2.422   1.040   2.099 -0.5738  0.0048  0.3643
  869MPD2    H712761   2.449   0.951   2.141 -0.3138 -0.8637 -1.6653
  870MPD2     C12762   1.276   0.577   1.636  0.2028  0.1886  0.1839
  870MPD2    C112763   1.406   0.566   1.590  0.5009  0.1331  0.3834
  870MPD2    C212764   1.439   0.620   1.464 -0.6052 -0.0780  0.2810
  870MPD2    C312765   1.346   0.702   1.398  0.4822 -0.9063  0.2984
  870MPD2    C412766   1.228   0.725   1.458  0.0850 -0.6619  0.0651
  870MPD2    C512767   1.190   0.666   1.576 -0.4809 -1.2787 -0.2431
  870MPD2     H12768   1.541   0.618   1.428 -0.0164 -0.5966  1.9944
  870MPD2    H112769   1.163   0.800   1.413 -1.4902 -1.9188  0.2294
  870MPD2    H212770   1.239   0.521   1.721  3.2136  0.4261  1.6719
  870MPD2    H312771   1.090   0.673   1.618 -1.0277 -0.9876 -1.5838
  870MPD2     N12772   1.380   0.748   1.271  0.2186  0.0391 -0.3802
  870MPD2    H512773   1.477   0.737   1.245  0.1600 -0.3700 -0.4192
  870MPD2    N112774   1.496   0.486   1.667 -0.2626  0.0279 -0.4607
  870MPD2    H712775   1.457   0.450   1.754  0.3730  0.4902  0.0087
  871MPD2     C12776   2.961   0.535  16.408 -0.5182 -0.6273 -0.2760
  871MPD2    C112777   2.933   0.435  16.489 -0.1134  0.4583  0.7570
  871MPD2    C212778   2.938   0.299  16.458 -0.3322 -0.4158 -0.2720
  871MPD2    C312779   2.976   0.276  16.325 -0.2735  0.6426  0.3065
  871MPD2    C412780   3.014   0.373  16.242 -0.3235  1.3491 -0.8148
  871MPD2    C512781   3.005   0.502  16.281  0.1745 -0.1935 -0.5811
  871MPD2     H12782   2.911   0.222  16.530  1.8577  0.7495  1.7851
  871MPD2    H112783   3.055   0.349  16.145  1.4659 -1.0744  0.5206
  871MPD2    H212784   2.980   0.636  16.441  2.4065 -1.5414  0.8389
  871MPD2    H312785   3.031   0.584  16.215 -0.9688 -1.1177 -2.1930
  871MPD2     N12786   2.997   0.135  16.300 -0.0307  0.1644  0.0979
  871MPD2    H512787   2.978   0.070  16.375 -3.7241 -0.2745 -1.1780
  871MPD2    N112788   2.881   0.486  16.611 -0.1142  0.5031  0.1132
  871MPD2    H712789   2.868   0.586  16.601  3.2507  1.0053  0.8421
  872MPD2     C12790   4.086   2.348  13.952  0.8102 -0.0419  0.4751
  872MPD2    C112791   4.056   2.482  13.924  0.2517 -0.0785 -0.4891
  872MPD2    C212792   3.929   2.535  13.949 -0.8707 -0.4277  0.6922
  872MPD2    C312793   3.849   2.457  14.029  0.0325  0.1616 -0.3590
  872MPD2    C412794   3.886   2.330  14.066 -0.1226  0.2400 -0.3319
  872MPD2    C512795   4.004   2.269  14.024  0.1371  0.2927  0.0215
  872MPD2     H12796   3.903   2.636  13.921  1.4259 -0.0532 -0.0882
  872MPD2    H112797   3.813   2.265  14.113 -0.5882  1.5033  0.6906
  872MPD2    H212798   4.180   2.307  13.915 -1.0142 -2.3815 -1.5218
  872MPD2    H312799   4.027   2.165  14.047  1.3673  1.0411  2.1644
  872MPD2     N12800   3.716   2.494  14.066  0.5076 -1.4118 -0.2923
  872MPD2    H512801   3.676   2.437  14.140 -0.6492  1.2423  1.1323
  872MPD2    N112802   4.146   2.568  13.864 -0.0616 -0.0047  0.1282
  872MPD2    H712803   4.118   2.665  13.865 -0.4794 -0.1204 -0.3398
  873MPD2     C12804   0.850   2.837   0.424  0.2968 -0.1372 -0.3343
  873MPD2    C112805   0.880   2.781   0.550  0.0583  0.1530 -0.4954
  873MPD2    C212806   0.943   2.661   0.552 -0.0779 -0.4651  0.2769
  873MPD2    C312807   0.981   2.595   0.433  0.4369 -0.3838 -1.0440
  873MPD2    C412808   0.953   2.658   0.313  0.0131  0.0039  0.4673
  873MPD2    C512809   0.891   2.778   0.306  0.1764  0.1906  0.5742
  873MPD2     H12810   0.967   2.615   0.647  1.2677 -1.8020 -0.7121
  873MPD2    H112811   0.997   2.633   0.217 -1.3069  1.3165 -0.4686
  873MPD2    H212812   0.796   2.930   0.414 -0.0888 -0.6652 -3.0689
  873MPD2    H312813   0.884   2.830   0.211 -0.8968 -0.8383  0.0995
  873MPD2     N12814   1.036   2.466   0.430  0.0047  0.1145 -0.7474
  873MPD2    H512815   1.033   2.414   0.344  0.8421 -1.1372 -0.0143
  873MPD2    N112816   0.839   2.851   0.670 -0.4196 -0.0531 -0.0530
  873MPD2    H712817   0.806   2.944   0.646  0.7711  0.1044 -1.1264
  874MPD2     C12818   0.860   2.854  15.690 -0.2120 -0.4526 -0.0587
  874MPD2    C112819   0.822   2.817  15.818 -0.3990  0.2360 -0.2523
  874MPD2    C212820   0.913   2.798  15.919  0.7998 -0.1620 -0.0107
  874MPD2    C312821   1.039   2.841  15.898  0.2787 -0.0447  1.1721
  874MPD2    C412822   1.083   2.877  15.767  0.0629 -0.2136  0.6860
  874MPD2    C512823   0.990   2.874  15.667 -0.1750  0.0199 -0.3668
  874MPD2     H12824   0.876   2.750  16.008 -0.6128 -1.1424 -1.1255
  874MPD2    H112825   1.185   2.899  15.739  0.1013 -0.4714  0.6237
  874MPD2    H212826   0.788   2.875  15.611 -1.1367  1.0199  1.1728
  874MPD2    H312827   1.019   2.901  15.566 -0.0035  2.2631  0.2885
  874MPD2     N12828   1.128   2.823  16.002 -1.1841  0.0943  0.4384
  874MPD2    H512829   1.089   2.788  16.089  1.3795 -0.7364  1.2547
  874MPD2    N112830   0.683   2.797  15.857 -0.2446 -0.0605  0.3698
  874MPD2    H712831   0.662   2.763  15.951  0.0840 -0.4280  0.3092
  875MPD2     C12832   1.538   1.337  14.766  0.9099 -0.1261 -0.5790
  875MPD2    C112833   1.493   1.466  14.752  0.1164 -0.3098 -0.8686
  875MPD2    C212834   1.521   1.551  14.856  0.7631 -0.4642 -0.2937
  875MPD2    C312835   1.603   1.514  14.961  0.6672 -0.3031 -0.0439
  875MPD2    C412836   1.645   1.389  14.972  0.2692 -0.7875 -0.1440
  875MPD2    C512837   1.613   1.299  14.870  1.2018 -0.7867 -0.0921
  875MPD2     H12838   1.463   1.642  14.857  1.1778 -0.2003 -0.1727
  875MPD2    H112839   1.721   1.363  15.045 -1.9653 -0.9907  2.1073
  875MPD2    H212840   1.534   1.269  14.682  0.6769  0.6985 -1.2326
  875MPD2    H312841   1.665   1.204  14.864  0.8799 -0.9723  0.0756
  875MPD2     N12842   1.643   1.602  15.059 -0.6314 -0.0843  0.3403
  875MPD2    H512843   1.693   1.564  15.138 -1.9481 -0.8794  0.7790
  875MPD2    N112844   1.415   1.515  14.645 -0.2398  0.2076  0.3001
  875MPD2    H712845   1.359   1.599  14.653  2.2958  1.9129  0.1588
  876MPD2     C12846   1.022   2.452  15.889 -0.7308  0.1724 -0.1650
  876MPD2    C112847   0.944   2.380  15.803 -0.2443 -0.1441  0.2279
  876MPD2    C212848   0.891   2.260  15.847 -0.2666  0.1285 -0.0384
  876MPD2    C312849   0.922   2.209  15.970 -0.0950  0.2874 -0.1271
  876MPD2    C412850   1.002   2.277  16.058  0.2455 -0.8275 -0.2311
  876MPD2    C512851   1.045   2.399  16.013  0.0181 -0.1100  0.2485
  876MPD2     H12852   0.817   2.205  15.791  0.3991 -2.3012  1.4661
  876MPD2    H112853   1.038   2.247  16.156  1.6570 -0.3863 -0.6138
  876MPD2    H212854   1.069   2.548  15.869 -2.9225  1.5696  1.4558
  876MPD2    H312855   1.100   2.459  16.085 -0.5782  1.1687 -0.3587
  876MPD2     N12856   0.865   2.080  16.003  0.4101 -0.0800  0.2773
  876MPD2    H512857   0.810   2.033  15.932 -1.5843  2.8479 -0.1244
  876MPD2    N112858   0.903   2.444  15.686  0.1650  0.1740 -0.4882
  876MPD2    H712859   0.969   2.512  15.650 -0.0926 -0.2898 -1.8442
  877MPD2     C12860   1.099   2.923  15.126  1.2668  0.0795 -0.4739
  877MPD2    C112861   0.989   2.869  15.072 -0.0413  0.3806  0.0360
  877MPD2    C212862   0.950   2.897  14.943 -0.0678 -0.0473 -0.5653
  877MPD2    C312863   1.021   2.984  14.861  0.7663  0.6063  0.4153
  877MPD2    C412864   1.134   3.038  14.919 -0.2696 -0.2930  0.3342
  877MPD2    C512865   1.175   3.000  15.042  0.2329 -0.4242  0.3692
  877MPD2     H12866   0.862   2.844  14.908 -0.7474  0.4645  0.3733
  877MPD2    H112867   1.190   3.109  14.860 -0.7434 -0.8415 -0.7743
  877MPD2    H212868   1.132   2.909  15.229  0.0713  2.4833  0.2400
  877MPD2    H312869   1.263   3.035  15.094 -0.8256 -0.4703  2.1862
  877MPD2     N12870   0.988   3.025  14.731  0.7934 -0.6430  0.5904
  877MPD2    H512871   1.060   3.078  14.684  0.9182  0.4228  1.9801
  877MPD2    N112872   0.906   2.782  15.148  0.0854 -0.4334  0.3748
  877MPD2    H712873   0.810   2.772  15.117 -0.3516  0.5986  1.4053
  878MPD2     C12874   0.227   2.150  12.958  0.9348  0.0024  0.5593
  878MPD2    C112875   0.305   2.262  12.964  0.0215 -0.2659 -0.9912
  878MPD2    C212876   0.359   2.312  13.082 -0.2096  0.6627 -0.4763
  878MPD2    C312877   0.350   2.244  13.201 -0.0919  0.5195  0.2430
  878MPD2    C412878   0.297   2.118  13.195 -0.5275  0.2896  0.1504
  878MPD2    C512879   0.225   2.080  13.078 -0.0267 -0.4849 -0.1395
  878MPD2     H12880   0.414   2.405  13.088  1.6180 -0.4249 -0.1859
  878MPD2    H112881   0.286   2.053  13.281  0.8644  1.1002  0.9363
  878MPD2    H212882   0.176   2.116  12.869  0.1440 -1.6606  1.6610
  878MPD2    H312883   0.162   1.993  13.089 -0.5423  0.2569  2.8534
  878MPD2     N12884   0.393   2.302  13.319 -0.7906  0.5953  0.6558
  878MPD2    H512885   0.434   2.395  13.321  0.1192  0.1599  2.3356
  878MPD2    N112886   0.324   2.334  12.841 -0.7727  0.8897  0.2159
  878MPD2    H712887   0.298   2.279  12.760  2.8753 -1.7776  0.8408
  879MPD2     C12888   1.620   3.429  16.446 -0.1451 -0.0725 -0.4856
  879MPD2    C112889   1.538   3.365  16.532  0.5005 -0.2179  0.7046
  879MPD2    C212890   1.419   3.323  16.491 -0.2293  0.7106  0.1669
  879MPD2    C312891   1.372   3.364  16.364 -0.5999  0.0264 -0.8557
  879MPD2    C412892   1.459   3.440  16.281 -0.9437 -0.4325  0.2424
  879MPD2    C512893   1.585   3.464  16.318  0.4480 -0.7226 -0.6029
  879MPD2     H12894   1.355   3.270  16.559  1.3754 -0.1467  1.0210
  879MPD2    H112895   1.424   3.479  16.186  0.3085 -0.5227 -0.2576
  879MPD2    H212896   1.720   3.452  16.480 -0.0157  2.5303 -2.5822
  879MPD2    H312897   1.649   3.520  16.250  1.4179 -0.5716  0.4360
  879MPD2     N12898   1.241   3.345  16.323 -0.1695  0.0554  0.2539
  879MPD2    H512899   1.225   3.397  16.237 -1.2738 -0.1475  0.3380
  879MPD2    N112900   1.585   3.341  16.664 -0.3840 -0.3857 -0.3234
  879MPD2    H712901   1.678   3.377  16.683 -1.7578  1.8303  2.1275
  880MPD2     C12902   2.495   0.252   0.407  0.0943 -0.2672 -0.0701
  880MPD2    C112903   2.458   0.324   0.520  0.2169  0.2485  0.2397
  880MPD2    C212904   2.414   0.243   0.627  0.1000 -0.0033  0.6320
  880MPD2    C312905   2.412   0.107   0.627  0.6204  0.0573 -0.3504
  880MPD2    C412906   2.459   0.045   0.515 -0.7330  0.1146 -0.0720
  880MPD2    C512907   2.493   0.116   0.408  0.2398  0.2791  0.2467
  880MPD2     H12908   2.362   0.295   0.706 -2.3864 -1.9768  0.2758
  880MPD2    H112909   2.453   4.661   0.500  0.1670  0.1473 -0.6465
  880MPD2    H212910   2.547   0.301   0.325 -1.4690 -1.1395 -1.5819
  880MPD2    H312911   2.530   0.063   0.321  0.6203 -0.3671  0.8053
  880MPD2     N12912   2.352   0.037   0.736 -0.4242  0.3325  0.3290
  880MPD2    H512913   2.302   0.099   0.799 -0.3574  0.5584  0.1603
  880MPD2    N112914   2.466   0.467   0.513  0.3291 -0.0535 -0.1787
  880MPD2    H712915   2.500   0.508   0.426  2.8062 -0.8785  0.4027
  881MPD2     C12916   2.586   1.281  17.695  0.0092 -0.0023  0.4713
  881MPD2    C112917   2.549   1.153  17.668 -0.5495  0.1707 -0.2211
  881MPD2    C212918   2.504   1.071   0.070  0.3837  0.3180  0.5039
  881MPD2    C312919   2.499   1.116   0.203 -0.1389  0.3881  0.1683
  881MPD2    C412920   2.533   1.239   0.231  0.1551 -0.3720 -0.4589
  881MPD2    C512921   2.578   1.314   0.128  0.4067 -0.2291  0.6139
  881MPD2     H12922   2.470   0.973   0.039  1.3169  0.9952 -2.6806
  881MPD2    H112923   2.519   1.293   0.324 -0.5233 -0.1927 -0.6609
  881MPD2    H212924   2.608   1.358  17.622  0.7688  1.6003  2.3725
  881MPD2    H312925   2.600   1.416   0.158  0.7788 -0.3168  0.6350
  881MPD2     N12926   2.440   1.036   0.302 -0.2349  0.2712  0.5615
  881MPD2    H512927   2.418   1.082   0.389 -2.0313  0.6878 -0.1254
  881MPD2    N112928   2.531   1.133  17.525 -0.5112  0.3698 -0.2114
  881MPD2    H712929   2.539   1.213  17.463  0.9951  1.0496  0.8481
  882MPD2     C12930   0.641   2.901  13.978 -0.4414  0.2193  0.1676
  882MPD2    C112931   0.571   2.953  14.085  0.1151  0.3810  0.6531
  882MPD2    C212932   0.438   2.925  14.105 -0.0195  0.3948  0.3512
  882MPD2    C312933   0.377   2.829  14.019  0.2947  0.1204 -0.4865
  882MPD2    C412934   0.455   2.771  13.920  0.4269 -0.9941 -0.3466
  882MPD2    C512935   0.584   2.806  13.894  0.2549  0.2122  0.2862
  882MPD2     H12936   0.396   2.949  14.202  2.6194 -0.3332  1.6508
  882MPD2    H112937   0.415   2.692  13.857 -1.4885 -0.3066 -0.0175
  882MPD2    H212938   0.740   2.937  13.956  0.0893 -0.7261  1.0085
  882MPD2    H312939   0.644   2.767  13.812  1.7086  1.9644  0.5071
  882MPD2     N12940   0.250   2.775  14.047  0.0259  0.1382  0.2020
  882MPD2    H512941   0.227   2.683  14.011  0.2937  0.2832 -0.3490
  882MPD2    N112942   0.639   3.044  14.166  0.2948  0.4429  0.2504
  882MPD2    H712943   0.739   3.049  14.148  0.2725  1.9652  0.5409
  883MPD2     C12944   3.035   2.984  16.613  0.2343 -0.0949 -0.5761
  883MPD2    C112945   3.100   3.053  16.517 -0.0720  0.5225  0.6723
  883MPD2    C212946   3.236   3.046  16.501  0.2467 -0.3348  0.5863
  883MPD2    C312947   3.312   2.971  16.594 -0.6036  0.8088 -0.0189
  883MPD2    C412948   3.243   2.892  16.681 -0.4620 -0.1926 -0.1352
  883MPD2    C512949   3.109   2.892  16.686 -0.0524 -1.2014 -0.4382
  883MPD2     H12950   3.304   3.098  16.435  0.7215  0.0752  1.4043
  883MPD2    H112951   3.298   2.835  16.756 -0.2197  0.5830  0.2742
  883MPD2    H212952   2.927   2.986  16.616  0.3071  0.7156  1.2152
  883MPD2    H312953   3.058   2.831  16.760 -1.7105  1.0561  0.3081
  883MPD2     N12954   3.454   2.978  16.582 -0.4260 -0.1141  0.9815
  883MPD2    H512955   3.497   3.019  16.499 -0.8820 -2.3093 -0.3490
  883MPD2    N112956   3.034   3.135  16.425 -0.4144  0.2762  0.6657
  883MPD2    H712957   3.084   3.158  16.339  2.1610  0.8126  2.3232
  884MPD2     C12958   4.281   3.481  15.209 -0.0491  0.0336  0.0709
  884MPD2    C112959   4.233   3.459  15.079  0.0431 -0.4254  0.5174
  884MPD2    C212960   4.111   3.506  15.038 -0.3749 -0.4103  0.3413
  884MPD2    C312961   4.030   3.579  15.126 -0.0128 -0.5376  1.1420
  884MPD2    C412962   4.088   3.612  15.250  0.0893  0.0257  0.6643
  884MPD2    C512963   4.210   3.570  15.290  0.2410  0.6283  0.4178
  884MPD2     H12964   4.077   3.489  14.937  0.2393  2.2006 -0.2960
  884MPD2    H112965   4.028   3.673  15.316 -1.6619  0.6636 -1.5245
  884MPD2    H212966   4.379   3.450  15.242 -1.1085 -0.9870  2.2463
  884MPD2    H312967   4.251   3.597  15.387  1.6078 -0.8118  0.2371
  884MPD2     N12968   3.906   3.616  15.075  0.2440 -0.9677  0.2143
  884MPD2    H512969   3.876   3.596  14.980 -0.1259  0.3565  0.0469
  884MPD2    N112970   4.300   3.385  14.979  0.0134  0.2639 -0.2265
  884MPD2    H712971   4.242   3.386  14.896  1.3228  0.5429 -1.1284
  885MPD2     C12972   3.425   3.857   0.109 -0.1837 -0.4999 -0.1226
  885MPD2    C112973   3.395   3.731   0.047 -0.5666  0.3274  0.0612
  885MPD2    C212974   3.361   3.727  17.604  0.4111 -0.7377  0.3501
  885MPD2    C312975   3.337   3.846  17.533 -0.7041  0.5024  0.7200
  885MPD2    C412976   3.373   3.968  17.590 -0.0207 -0.1826 -0.2578
  885MPD2    C512977   3.415   3.968   0.024 -0.1137  0.4380  0.7711
  885MPD2     H12978   3.343   3.632  17.555  0.5564 -0.9519  0.7131
  885MPD2    H112979   3.357   4.066  17.545  1.6633 -0.0748 -0.6272
  885MPD2    H212980   3.457   3.864   0.212  0.8911 -0.2243 -0.4735
  885MPD2    H312981   3.421   4.066   0.070  0.9558  1.0684 -0.7257
  885MPD2     N12982   3.293   3.833  17.396  0.3564  0.4367 -0.3551
  885MPD2    H512983   3.303   3.741  17.354 -0.8534  0.9342 -1.7319
  885MPD2    N112984   3.419   3.613   0.122 -0.3562 -0.4606  0.0543
  885MPD2    H712985   3.421   3.622   0.223  3.2172 -0.1742 -0.0700
  886MPD2     C12986   3.942   2.312  15.524  0.6269  0.3634 -0.2813
  886MPD2    C112987   4.062   2.382  15.501  0.0114  0.3258 -0.6875
  886MPD2    C212988   4.061   2.489  15.411 -0.3371 -0.8357  0.5734
  886MPD2    C312989   3.950   2.523  15.345  0.4515  0.1043 -1.0141
  886MPD2    C412990   3.832   2.460  15.370 -0.4282 -0.7336  0.3344
  886MPD2    C512991   3.825   2.354  15.461 -0.4916 -0.1896 -0.5389
  886MPD2     H12992   4.159   2.533  15.395 -0.1454 -0.7992  1.8060
  886MPD2    H112993   3.745   2.481  15.309 -0.7238  0.9841  1.3360
  886MPD2    H212994   3.942   2.223  15.586 -0.6221  0.3018 -0.3847
  886MPD2    H312995   3.730   2.303  15.475 -0.1146 -1.0208 -1.0005
  886MPD2     N12996   3.953   2.613  15.243  0.6473 -0.6565 -0.4227
  886MPD2    H512997   3.886   2.604  15.167  0.3135  1.0098 -0.3277
  886MPD2    N112998   4.185   2.339  15.557  0.8092 -0.0649  0.9280
  886MPD2    H712999   4.259   2.404  15.532  0.4571  0.1251  0.3679
  887MPD2     C13000   0.119   2.321  15.265  0.1563  0.0358  0.1970
  887MPD2    C113001   0.020   2.383  15.333  0.2314 -0.0278 -0.1685
  887MPD2    C213002   0.015   2.518  15.320 -0.0529 -0.0004 -0.1640
  887MPD2    C313003   0.116   2.590  15.253 -0.7936  0.2614 -0.2545
  887MPD2    C413004   0.220   2.519  15.195 -0.1776  0.2804  0.3537
  887MPD2    C513005   0.217   2.383  15.205  0.3152  0.3216  0.2054
  887MPD2     H13006   4.662   2.574  15.372 -1.6620 -1.2722 -1.1574
  887MPD2    H113007   0.301   2.567  15.141 -0.8218 -1.1585 -1.9110
  887MPD2    H213008   0.135   2.214  15.269 -1.1688 -0.0907  2.0831
  887MPD2    H313009   0.304   2.330  15.170  0.7135  0.9088  0.3156
  887MPD2     N13010   0.113   2.733  15.255  0.2524 -0.3486  0.4808
  887MPD2    H513011   0.029   2.780  15.285  1.3959  1.8438  0.2216
  887MPD2    N113012   4.638   2.323  15.403  0.3158  0.0712  0.4216
  887MPD2    H713013   4.557   2.379  15.427 -0.1390 -0.6787  0.6141
  888MPD2     C13014   1.436   2.315  14.998 -0.2802  0.1422 -0.5145
  888MPD2    C113015   1.524   2.303  15.105 -0.6342  0.0742  0.1246
  888MPD2    C213016   1.643   2.383  15.103 -0.5023 -0.1675  0.2322
  888MPD2    C313017   1.676   2.462  14.989 -0.4428 -0.1994  0.6991
  888MPD2    C413018   1.593   2.462  14.884  0.3788 -0.0554 -0.7414
  888MPD2    C513019   1.475   2.389  14.887 -0.6058  0.4023 -0.5881
  888MPD2     H13020   1.712   2.375  15.186 -1.0227  0.5488  0.7306
  888MPD2    H113021   1.606   2.530  14.801  0.7233 -0.9430 -1.4117
  888MPD2    H213022   1.346   2.256  14.982 -1.5121  1.3145  2.1001
  888MPD2    H313023   1.402   2.408  14.809 -4.0575 -3.1968  1.7457
  888MPD2     N13024   1.787   2.549  14.992  0.4671  0.5815 -0.0929
  888MPD2    H513025   1.823   2.568  15.084 -0.7642  0.9738  0.3091
  888MPD2    N113026   1.503   2.222  15.217 -0.2266  0.3024 -0.1787
  888MPD2    H713027   1.584   2.228  15.278 -1.3497  3.9797  0.9384
  889MPD2     C13028   1.007   1.949  12.673  0.0509  0.6020  0.4015
  889MPD2    C113029   1.038   1.918  12.804  0.3001  0.3959 -0.8297
  889MPD2    C213030   1.042   2.023  12.896 -0.4346 -0.0350  0.4401
  889MPD2    C313031   1.034   2.154  12.859 -0.3771  0.0868 -0.0306
  889MPD2    C413032   1.019   2.181  12.730 -0.6165 -0.0567 -0.1692
  889MPD2    C513033   1.011   2.081  12.637  0.7617  0.5602  0.2269
  889MPD2     H13034   1.036   1.998  13.001 -1.1218 -1.9417 -0.0657
  889MPD2    H113035   1.016   2.283  12.693 -0.6395  0.4228  1.1377
  889MPD2    H213036   0.997   1.882  12.589  1.4012  1.4072 -0.4159
  889MPD2    H313037   1.015   2.112  12.533  0.2425 -0.5114 -0.1016
  889MPD2     N13038   1.042   2.252  12.961 -0.2065 -0.2428 -0.3710
  889MPD2    H513039   1.065   2.212  13.052 -0.3429  0.3908 -0.0619
  889MPD2    N113040   1.032   1.779  12.850  0.4267  0.3325  0.3407
  889MPD2    H713041   1.038   1.764  12.950 -0.7455 -0.5035  0.2865
  890MPD2     C13042   1.279   3.591  14.620 -0.8744  0.4762 -0.1661
  890MPD2    C113043   1.207   3.655  14.717  0.1851 -0.0079  0.3695
  890MPD2    C213044   1.183   3.593  14.837 -0.0723 -0.0676  0.1966
  890MPD2    C313045   1.256   3.483  14.869 -0.3757  0.2569  0.5888
  890MPD2    C413046   1.348   3.435  14.786  0.1301  0.3362 -0.6102
  890MPD2    C513047   1.355   3.487  14.661 -0.0970  0.2172  0.0489
  890MPD2     H13048   1.130   3.649  14.913  0.8481  1.8572 -0.5619
  890MPD2    H113049   1.414   3.354  14.814  1.4287  1.8583  0.7104
  890MPD2    H213050   1.286   3.631  14.519 -1.6328 -0.0848 -0.4381
  890MPD2    H313051   1.424   3.442  14.590 -2.0630 -1.5085 -0.7612
  890MPD2     N13052   1.238   3.430  15.005  0.0708 -0.0967  0.0673
  890MPD2    H513053   1.169   3.477  15.063 -2.3769 -1.2206 -1.9635
  890MPD2    N113054   1.138   3.779  14.698 -0.0159 -0.2533 -0.3681
  890MPD2    H713055   1.077   3.802  14.775 -0.3815 -0.6862 -0.5244
  891MPD2     C13056   3.535   2.120  16.376  0.8250  0.4565  0.0651
  891MPD2    C113057   3.440   2.152  16.476  0.2808  0.3472 -0.6693
  891MPD2    C213058   3.476   2.139  16.607  0.0568  0.5500  0.2888
  891MPD2    C313059   3.607   2.106  16.649  0.3575 -0.7906  0.0488
  891MPD2    C413060   3.698   2.072  16.552  0.4917  0.0588 -0.0757
  891MPD2    C513061   3.666   2.085  16.419  1.3635  0.4586  0.3313
  891MPD2     H13062   3.416   2.170  16.691  0.0765  1.1542  0.0810
  891MPD2    H113063   3.801   2.055  16.578  0.2220 -1.7931 -0.2186
  891MPD2    H213064   3.511   2.142  16.272 -0.7784 -2.1016 -0.1271
  891MPD2    H313065   3.741   2.105  16.342  0.2948 -0.6306 -0.9883
  891MPD2     N13066   3.634   2.105  16.778  0.4230  0.2895 -0.2769
  891MPD2    H513067   3.557   2.124  16.842  1.2483  0.7481  0.5810
  891MPD2    N113068   3.318   2.210  16.440  0.1833  0.3523 -0.6517
  891MPD2    H713069   3.285   2.213  16.344 -0.1929 -0.7830 -0.5478
  892MPD2     C13070   4.373   2.801  14.843  0.6884 -0.5494 -0.0052
  892MPD2    C113071   4.314   2.852  14.727  0.2700  0.0809 -0.1199
  892MPD2    C213072   4.356   2.807  14.605  0.8101  0.0168  0.0426
  892MPD2    C313073   4.463   2.717  14.585 -0.7259  1.1247 -0.0273
  892MPD2    C413074   4.505   2.658  14.699 -0.4727 -0.9509 -0.1628
  892MPD2    C513075   4.475   2.702  14.826 -0.0150  0.3088  0.5575
  892MPD2     H13076   4.307   2.841  14.514 -0.7814  0.9912  1.2787
  892MPD2    H113077   4.591   2.595  14.677 -0.4055 -0.7503 -0.4708
  892MPD2    H213078   4.359   2.821  14.949 -1.0931 -3.3173  0.2706
  892MPD2    H313079   4.521   2.655  14.912  1.5509  0.2595 -0.3094
  892MPD2     N13080   4.522   2.683  14.458 -0.5432 -0.4876  0.4875
  892MPD2    H513081   4.592   2.610  14.456 -0.3904 -0.3403  0.5422
  892MPD2    N113082   4.210   2.939  14.725 -0.4343  0.4699 -0.6429
  892MPD2    H713083   4.171   2.968  14.636 -2.6224 -0.7088 -0.0659
  893MPD2     C13084   0.962   1.537   1.225  0.2531  0.4861 -0.9489
  893MPD2    C113085   0.997   1.448   1.327  0.0601  0.1863  0.1108
  893MPD2    C213086   0.895   1.383   1.387 -0.0121  0.3477  0.0818
  893MPD2    C313087   0.764   1.391   1.333  0.1012  0.4641  0.3992
  893MPD2    C413088   0.733   1.487   1.243  0.1405 -0.6542  0.3761
  893MPD2    C513089   0.835   1.563   1.192  0.1102  0.0169 -0.1479
  893MPD2     H13090   0.912   1.324   1.476  1.9148  0.3191 -0.3125
  893MPD2    H113091   0.631   1.510   1.215  0.2782 -1.5302 -0.8380
  893MPD2    H213092   1.031   1.614   1.192  1.0470  0.4119  0.5409
  893MPD2    H313093   0.822   1.651   1.130  0.3737 -1.8267 -2.7928
  893MPD2     N13094   0.660   1.294   1.357  0.0542 -0.0792  0.2481
  893MPD2    H513095   0.568   1.306   1.316  0.1833  0.8005  0.2148
  893MPD2    N113096   1.135   1.435   1.367 -0.0348  0.2666 -0.4250
  893MPD2    H713097   1.206   1.474   1.306  0.5449 -0.1885 -0.0376
  894MPD2     C13098   4.290   4.028   0.304  0.8756 -0.4564  0.2525
  894MPD2    C113099   4.219   4.089   0.403 -0.4481  0.0750 -0.1767
  894MPD2    C213100   4.267   4.213   0.450 -0.1503 -0.4852 -0.2442
  894MPD2    C313101   4.382   4.267   0.397 -0.7366  0.3769 -0.2028
  894MPD2    C413102   4.439   4.219   0.282 -0.0862  0.7494 -0.2742
  894MPD2    C513103   4.397   4.098   0.242  0.1006 -0.5823 -0.3637
  894MPD2     H13104   4.212   4.255   0.533 -0.2868  0.5724 -0.8718
  894MPD2    H113105   4.526   4.262   0.233  0.9507  0.2534  1.1513
  894MPD2    H213106   4.271   3.926   0.272 -2.0966 -0.1850  1.0875
  894MPD2    H313107   4.441   4.047   0.157 -0.1048  0.6303 -1.2067
  894MPD2     N13108   4.441   4.379   0.465 -0.0062 -0.9246 -0.1329
  894MPD2    H513109   4.399   4.396   0.555 -0.9410  0.0011 -0.7477
  894MPD2    N113110   4.107   4.034   0.465 -0.0904 -0.3872 -0.2964
  894MPD2    H713111   4.056   4.084   0.538  0.5282  2.1116 -1.5754
  895MPD2     C13112   3.561   2.174  13.898  0.6566 -0.3811 -0.1837
  895MPD2    C113113   3.456   2.159  13.812 -0.0055 -0.5561 -0.6737
  895MPD2    C213114   3.473   2.080  13.699 -0.5982  0.1825 -0.0236
  895MPD2    C313115   3.597   2.021  13.669  0.2188  0.4956 -0.1337
  895MPD2    C413116   3.698   2.028  13.767 -0.3069  0.0209 -0.7824
  895MPD2    C513117   3.676   2.102  13.881 -0.1132 -0.0841  0.6308
  895MPD2     H13118   3.392   2.084  13.627 -2.0982  0.9865  1.6918
  895MPD2    H113119   3.793   1.978  13.753  1.3195  2.3803  1.9031
  895MPD2    H213120   3.548   2.241  13.982 -3.8223 -1.8014  0.2434
  895MPD2    H313121   3.761   2.117  13.946  0.7132 -1.0922 -0.2150
  895MPD2     N13122   3.612   1.952  13.548 -0.1069  0.3962 -0.2005
  895MPD2    H513123   3.524   1.948  13.498  0.2295  0.3719 -0.7882
  895MPD2    N113124   3.330   2.231  13.824  0.1576 -0.0054  0.4032
  895MPD2    H713125   3.257   2.205  13.759 -1.6543  1.9411  1.6740
  896MPD2     C13126   0.489   0.027   1.836 -1.1532  0.0110  0.4951
  896MPD2    C113127   0.534   4.669   1.734  0.5703  0.6680 -0.1357
  896MPD2    C213128   0.466   4.671   1.615 -0.0977  0.2883  0.7595
  896MPD2    C313129   0.355   0.028   1.592  0.2232 -0.2909  0.6904
  896MPD2    C413130   0.306   0.103   1.698 -0.6906  0.5946 -0.5653
  896MPD2    C513131   0.372   0.102   1.814 -0.0555 -0.1411 -0.5158
  896MPD2     H13132   0.499   4.608   1.533  1.1598 -0.0360  1.5169
  896MPD2    H113133   0.219   0.166   1.681 -0.4296  1.3317  0.7984
  896MPD2    H213134   0.547   0.035   1.927 -0.0758 -0.4388 -0.1479
  896MPD2    H313135   0.335   0.168   1.892  1.9410 -0.2008  0.4727
  896MPD2     N13136   0.314   0.028   1.464  0.8912  0.0903  0.0696
  896MPD2    H513137   0.369   4.709   1.391 -1.4808 -2.7362 -0.0701
  896MPD2    N113138   0.648   4.591   1.757 -0.1053  1.4951  0.7263
  896MPD2    H713139   0.688   4.589   1.851  1.2802  0.0812  0.1122
  897MPD2     C13140   2.095   1.218  10.635  0.3743  0.2689 -0.9270
  897MPD2    C113141   2.141   1.339  10.677  0.5593  0.4677 -0.9190
  897MPD2    C213142   2.062   1.415  10.763 -0.7823 -0.2174  0.2416
  897MPD2    C313143   1.928   1.396  10.766  0.1368  0.0148  0.4497
  897MPD2    C413144   1.874   1.285  10.699 -0.0874 -0.1171  0.2876
  897MPD2    C513145   1.958   1.198  10.634  0.0863  1.1437  0.2208
  897MPD2     H13146   2.101   1.511  10.795 -0.5481  0.1791 -1.2169
  897MPD2    H113147   1.768   1.264  10.711 -0.4611  1.9040  0.5633
  897MPD2    H213148   2.149   1.149  10.570 -0.8819 -1.4642 -0.1445
  897MPD2    H313149   1.911   1.109  10.593  1.3015  0.5272  0.1425
  897MPD2     N13150   1.848   1.491  10.830  0.8383 -0.1970  0.8709
  897MPD2    H513151   1.897   1.560  10.885  1.4860 -1.2205  1.5754
  897MPD2    N113152   2.274   1.358  10.655 -0.1145 -0.0837  0.4455
  897MPD2    H713153   2.314   1.293  10.588  0.2500 -0.6562  1.2172
  898MPD2     C13154   0.155   2.133  16.723  0.4236  0.0095  0.0676
  898MPD2    C113155   0.129   2.254  16.781  0.3520  0.7417  0.0199
  898MPD2    C213156   0.053   2.350  16.718 -0.5420  0.3849 -0.2617
  898MPD2    C313157   4.711   2.324  16.598  0.4124  0.0594  0.4336
  898MPD2    C413158   0.016   2.201  16.540  0.6285 -0.3232 -0.0256
  898MPD2    C513159   0.108   2.113  16.598 -0.3587  0.2897 -0.1565
  898MPD2     H13160   0.028   2.443  16.766  2.5282  2.3478 -2.4806
  898MPD2    H113161   4.683   2.170  16.453 -1.4450  2.1784  0.4362
  898MPD2    H213162   0.236   2.074  16.765 -0.1549 -0.3971  0.6187
  898MPD2    H313163   0.131   2.020  16.547  1.2829 -0.1323  1.3504
  898MPD2     N13164   4.635   2.427  16.548 -0.6376 -0.1536  0.1730
  898MPD2    H513165   4.633   2.512  16.604  0.9893 -1.4376  2.1944
  898MPD2    N113166   0.192   2.280  16.901  0.4772 -0.2205  0.0970
  898MPD2    H713167   0.199   2.375  16.937 -1.2774  0.3335 -1.0123
  899MPD2     C13168   0.375   3.082  17.081 -0.0176  0.0428  0.1362
  899MPD2    C113169   0.413   3.166  17.184 -0.6439 -0.1483  0.4741
  899MPD2    C213170   0.367   3.148  17.319 -0.2685  0.9209  0.0427
  899MPD2    C313171   0.278   3.046  17.350  0.3263 -0.7696  1.2242
  899MPD2    C413172   0.251   2.958  17.249  0.2042  0.7059  0.0873
  899MPD2    C513173   0.293   2.978  17.116 -0.1807  0.5377 -0.0761
  899MPD2     H13174   0.401   3.210  17.401 -0.2487  0.3966  0.4354
  899MPD2    H113175   0.195   2.867  17.266 -1.6770  2.1398  1.4064
  899MPD2    H213176   0.421   3.091  16.983 -0.0670  1.1334  0.2176
  899MPD2    H313177   0.265   2.907  17.039 -0.4767 -1.3374  1.7742
  899MPD2     N13178   0.224   3.024  17.478 -0.3517 -0.2523  0.0533
  899MPD2    H513179   0.166   2.941  17.488 -1.1663  0.1943 -1.0910
  899MPD2    N113180   0.513   3.257  17.154 -0.8505 -0.5479 -1.0587
  899MPD2    H713181   0.553   3.248  17.061  0.5945 -0.0050 -0.4849
  900MPD2     C13182   4.545   0.349  12.578  0.3447  0.3370  0.2824
  900MPD2    C113183   4.544   0.250  12.474  0.7711 -0.2237  0.4986
  900MPD2    C213184   4.455   0.259  12.370 -0.4254  0.0904  0.5252
  900MPD2    C313185   4.357   0.354  12.372 -0.6974  0.0454  0.1456
  900MPD2    C413186   4.361   0.454  12.466  0.6645 -0.8878 -0.6769
  900MPD2    C513187   4.460   0.453  12.568  0.0062 -0.4429 -0.0929
  900MPD2     H13188   4.457   0.187  12.289  1.1938 -1.3988  1.9114
  900MPD2    H113189   4.289   0.532  12.485 -1.0134 -2.7243  0.5218
  900MPD2    H213190   4.615   0.353  12.661 -0.1534  2.9332  0.5711
  900MPD2    H313191   4.467   0.529  12.645 -0.2569 -0.9436  0.4261
  900MPD2     N13192   4.255   0.341  12.279 -0.1344 -0.3633 -0.0641
  900MPD2    H513193   4.251   0.254  12.227  0.8998  0.0415 -0.8366
  900MPD2    N113194   4.630   0.136  12.479 -0.3261  0.0223  0.6795
  900MPD2    H713195   4.672   0.103  12.565 -0.3667 -1.9859 -0.0720
  901MPD2     C13196   4.389   3.885  12.483  0.4712  0.2300 -0.4426
  901MPD2    C113197   4.517   3.886  12.441  0.3754 -0.0379  0.4589
  901MPD2    C213198   4.593   4.005  12.435 -0.0349 -0.3407 -0.5002
  901MPD2    C313199   4.546   4.122  12.494  0.1588 -0.2386 -0.0935
  901MPD2    C413200   4.415   4.121  12.532 -0.0188 -0.0559  0.3328
  901MPD2    C513201   4.336   4.009  12.517 -0.1197  0.8719 -0.4459
  901MPD2     H13202   4.688   4.016  12.383 -0.9190 -1.3811 -2.3540
  901MPD2    H113203   4.368   4.215  12.559  0.2829 -0.1310  1.0960
  901MPD2    H213204   4.332   3.794  12.476  1.0326 -0.2175  0.7416
  901MPD2    H313205   4.232   4.009  12.550 -0.4637 -1.3317 -1.5254
  901MPD2     N13206   4.630   4.238  12.486 -0.3711  0.2109  0.2590
  901MPD2    H513207   4.707   4.234  12.420 -0.8815  2.4809 -0.4637
  901MPD2    N113208   4.575   3.760  12.408 -0.0989 -0.0506 -0.5241
  901MPD2    H713209   4.522   3.674  12.404  0.9294 -0.7359  1.0324
  902MPD2     C13210   4.373   2.635  12.782 -0.0579 -0.7615  0.3176
  902MPD2    C113211   4.276   2.697  12.710 -0.1581  0.1508  0.5261
  902MPD2    C213212   4.289   2.702  12.572  0.0193 -0.2929  0.7271
  902MPD2    C313213   4.386   2.624  12.509  0.5267 -0.2465  0.2056
  902MPD2    C413214   4.474   2.552  12.585 -0.6051  0.4904 -0.9348
  902MPD2    C513215   4.468   2.561  12.720  0.5016  0.7131  0.7788
  902MPD2     H13216   4.236   2.780  12.519  1.8512  1.4329  1.4588
  902MPD2    H113217   4.557   2.490  12.553 -0.3131 -0.1965  1.1287
  902MPD2    H213218   4.370   2.626  12.890 -0.7374 -2.9604  0.1308
  902MPD2    H313219   4.541   2.514  12.786  0.4602  1.0635  1.0767
  902MPD2     N13220   4.391   2.599  12.368 -0.2561 -0.3492  0.6570
  902MPD2    H513221   4.450   2.523  12.336 -0.2634 -0.3481  0.6411
  902MPD2    N113222   4.161   2.756  12.776  0.0520  0.0203 -0.2127
  902MPD2    H713223   4.154   2.753  12.878 -1.9057 -2.6877 -0.4399
  903MPD2     C13224   3.993   2.075  11.842 -0.0199  0.0661 -0.0163
  903MPD2    C113225   3.956   2.190  11.890  0.4048  0.1347  0.2484
  903MPD2    C213226   3.829   2.220  11.908 -0.2919  1.0927 -0.6452
  903MPD2    C313227   3.724   2.135  11.879  0.3727  0.7309 -0.1409
  903MPD2    C413228   3.759   2.020  11.804  0.2133 -0.3910  0.2893
  903MPD2    C513229   3.895   1.992  11.791  0.7655  0.5077  0.0082
  903MPD2     H13230   3.808   2.309  11.966  1.2262  0.2041  1.2678
  903MPD2    H113231   3.682   1.953  11.770 -0.0083 -1.0702  2.1422
  903MPD2    H213232   4.095   2.042  11.823 -0.4241 -1.4160  0.3676
  903MPD2    H313233   3.925   1.894  11.755  1.1725  0.3333  0.8352
  903MPD2     N13234   3.590   2.176  11.899  0.0265  0.4565  0.0777
  903MPD2    H513235   3.580   2.269  11.939 -4.0634 -0.7516  1.8372
  903MPD2    N113236   4.066   2.278  11.918 -0.0633  0.5726 -0.4858
  903MPD2    H713237   4.157   2.232  11.919 -0.4464 -0.1633  0.2048
  904MPD2     C13238   3.378   1.612  13.730  0.0566 -0.0748 -0.5046
  904MPD2    C113239   3.376   1.584  13.862  0.4278  0.6529 -0.2074
  904MPD2    C213240   3.496   1.551  13.929  0.4931 -0.8560  0.3169
  904MPD2    C313241   3.617   1.554  13.849 -0.6715  0.2211  0.2373
  904MPD2    C413242   3.613   1.595  13.722  0.3039  0.5275  0.4168
  904MPD2    C513243   3.497   1.617  13.662 -0.0000  0.5774 -0.4400
  904MPD2     H13244   3.493   1.526  14.034 -1.8334  0.0804  0.4827
  904MPD2    H113245   3.708   1.605  13.671  0.8490  0.7464  1.4731
  904MPD2    H213246   3.283   1.636  13.682 -0.9191 -2.7579  0.0558
  904MPD2    H313247   3.508   1.635  13.556  0.7440 -1.2782 -0.6821
  904MPD2     N13248   3.739   1.523  13.914  0.2108 -0.3921 -0.0902
  904MPD2    H513249   3.724   1.487  14.008 -2.3765  0.0827 -0.3168
  904MPD2    N113250   3.243   1.606  13.921  0.1077 -0.1030  0.5110
  904MPD2    H713251   3.160   1.619  13.863  0.2826 -1.5744 -0.0637
  905MPD2     C13252   2.917   1.621  13.502  0.5408  0.1194 -0.1861
  905MPD2    C113253   3.006   1.710  13.559  0.0067  0.6343  0.0715
  905MPD2    C213254   3.120   1.747  13.490  0.5232  0.6599  0.1583
  905MPD2    C313255   3.145   1.695  13.367 -0.3520 -0.1592 -0.3761
  905MPD2    C413256   3.056   1.604  13.308  0.0913  0.0015 -0.1062
  905MPD2    C513257   2.940   1.567  13.375  0.5807 -0.0698 -0.8857
  905MPD2     H13258   3.197   1.808  13.536 -0.4939  0.0146  2.6887
  905MPD2    H113259   3.071   1.579  13.203 -2.0042 -0.9435 -0.1709
  905MPD2    H213260   2.821   1.601  13.549  2.1481 -0.5919  2.7908
  905MPD2    H313261   2.876   1.494  13.327  1.5814 -1.1392 -0.5867
  905MPD2     N13262   3.262   1.724  13.293 -0.1333  1.0055  0.1811
  905MPD2    H513263   3.275   1.665  13.211  0.7817  1.0320  0.3029
  905MPD2    N113264   2.973   1.745  13.692 -0.2880  0.6751 -0.7956
  905MPD2    H713265   2.890   1.701  13.729 -0.7010 -0.2912 -2.8881
  906MPD2     C13266   0.818   1.773  11.370  0.0585  0.1194 -0.1603
  906MPD2    C113267   0.858   1.700  11.257 -0.1775  0.3350 -0.2504
  906MPD2    C213268   0.899   1.574  11.273  0.4872  0.0683  0.0620
  906MPD2    C313269   0.927   1.524  11.399  1.0921 -0.4997 -0.2376
  906MPD2    C413270   0.903   1.602  11.508  0.8652 -0.2327  0.0549
  906MPD2    C513271   0.838   1.718  11.491 -0.2476 -0.1353 -0.4351
  906MPD2     H13272   0.895   1.509  11.187  0.2497  0.0815  0.0653
  906MPD2    H113273   0.909   1.559  11.607  0.5253 -1.6891 -0.5555
  906MPD2    H213274   0.760   1.865  11.371  2.4206  1.5634  2.1050
  906MPD2    H313275   0.788   1.760  11.577  0.2566 -0.3222 -0.0502
  906MPD2     N13276   0.968   1.389  11.422 -0.4002 -0.0603  0.6779
  906MPD2    H513277   0.949   1.357  11.516  1.3430  2.1201  1.7729
  906MPD2    N113278   0.815   1.734  11.122 -0.9258 -0.2288  0.4395
  906MPD2    H713279   0.832   1.668  11.047 -2.9905  0.8423 -0.9811
  907MPD2     C13280   4.643   1.221  15.995  0.1934 -0.6815 -0.0039
  907MPD2    C113281   4.642   1.092  15.946  0.3488 -0.3167 -0.5070
  907MPD2    C213282   0.000   0.995  15.994  0.3646 -0.1265 -0.3387
  907MPD2    C313283   0.084   1.018  16.100 -0.4229  0.0599  0.5091
  907MPD2    C413284   0.086   1.142  16.149 -0.1146 -0.1504  0.0779
  907MPD2    C513285   0.001   1.242  16.100  0.5418  0.4341 -0.4322
  907MPD2     H13286   4.713   0.894  15.955  0.2582 -0.2050 -0.1076
  907MPD2    H113287   0.135   1.169  16.242  1.2957  1.6171 -1.1916
  907MPD2    H213288   4.578   1.300  15.959  0.7044 -1.0183 -1.6563
  907MPD2    H313289   0.007   1.334  16.157  0.3616  0.1191  0.0979
  907MPD2     N13290   0.161   0.909  16.151  0.3097  0.1234  0.9664
  907MPD2    H513291   0.139   0.815  16.120  0.8665  0.3016  0.0419
  907MPD2    N113292   4.550   1.058  15.848  0.3741 -0.5083  0.1844
  907MPD2    H713293   4.556   0.963  15.811 -1.8726 -0.3799 -0.4551
  908MPD2     C13294   2.428   1.191   9.873  0.6437  0.0768 -0.0838
  908MPD2    C113295   2.431   1.113   9.988 -0.0253  0.0461  0.1797
  908MPD2    C213296   2.467   1.179  10.110 -0.1672  0.2849 -0.0147
  908MPD2    C313297   2.493   1.317  10.112  0.0748  0.5750  0.1469
  908MPD2    C413298   2.489   1.383   9.994  0.0596 -0.1126  0.7042
  908MPD2    C513299   2.459   1.317   9.875 -0.1178  0.4585 -0.3097
  908MPD2     H13300   2.473   1.115  10.197  1.4247 -0.4496 -0.6584
  908MPD2    H113301   2.518   1.487   9.987  0.0846 -0.1870 -0.2475
  908MPD2    H213302   2.419   1.148   9.774 -1.9257 -0.9021  0.5788
  908MPD2    H313303   2.489   1.372   9.786 -1.4058  2.5352  0.5310
  908MPD2     N13304   2.514   1.372  10.241 -0.8447  0.0136  0.5479
  908MPD2    H513305   2.519   1.299  10.311  1.4409  0.0091  0.3715
  908MPD2    N113306   2.409   0.971   9.989 -0.2359 -0.4215 -0.7332
  908MPD2    H713307   2.425   0.932  10.082 -0.8217 -1.5696 -1.1272
  909MPD2     C13308   2.541   4.281  12.143  0.5447  0.1108 -0.1420
  909MPD2    C113309   2.478   4.338  12.032 -0.0408  0.3921  0.0656
  909MPD2    C213310   2.359   4.410  12.057 -0.0565  0.0949 -0.8367
  909MPD2    C313311   2.299   4.426  12.184 -0.4271 -0.6277  0.0446
  909MPD2    C413312   2.357   4.359  12.288 -0.2346  0.2653 -0.0239
  909MPD2    C513313   2.475   4.286  12.264  0.6958  0.1428  0.7620
  909MPD2     H13314   2.326   4.461  11.967  0.8011  1.5452 -0.3281
  909MPD2    H113315   2.329   4.365  12.393 -1.9040 -0.5374 -0.4336
  909MPD2    H213316   2.636   4.229  12.137 -0.1761 -1.4301  2.0688
  909MPD2    H313317   2.506   4.231  12.352  1.3508  1.2575  1.2264
  909MPD2     N13318   2.172   4.487  12.180  0.2706  0.0864  0.2248
  909MPD2    H513319   2.159   4.534  12.091  0.0442 -1.4943 -0.5862
  909MPD2    N113320   2.535   4.339  11.899  0.3796 -0.3567  0.4010
  909MPD2    H713321   2.486   4.396  11.831  0.2343  1.1600  1.7617
  910MPD2     C13322   4.172   1.694  15.862  0.0679  0.2536  0.0490
  910MPD2    C113323   4.191   1.568  15.824  0.2724  0.3454  0.1474
  910MPD2    C213324   4.163   1.529  15.694 -0.2310 -0.2443  0.7216
  910MPD2    C313325   4.105   1.620  15.604 -0.2371  1.2042 -0.1775
  910MPD2    C413326   4.090   1.747  15.640  0.4442 -0.3701  0.9045
  910MPD2    C513327   4.116   1.783  15.776  0.1011 -0.0777  0.0745
  910MPD2     H13328   4.188   1.426  15.671 -0.8869  0.0364 -1.2928
  910MPD2    H113329   4.044   1.820  15.575  1.7240 -2.6062 -2.4726
  910MPD2    H213330   4.189   1.729  15.964 -1.1082  0.0571  0.3091
  910MPD2    H313331   4.091   1.883  15.810  1.1931  0.2888 -0.2276
  910MPD2     N13332   4.066   1.586  15.477 -0.8720  1.2187  0.2033
  910MPD2    H513333   4.005   1.650  15.426 -0.1434  1.0866 -0.8299
  910MPD2    N113334   4.249   1.475  15.913  0.2120 -0.1722 -0.3390
  910MPD2    H713335   4.251   1.380  15.877 -1.4855 -0.0192 -0.8301
  911MPD2     C13336   1.601   2.021  16.639  0.8605  0.1442 -0.8816
  911MPD2    C113337   1.686   2.106  16.587 -0.2102  0.7325 -0.5097
  911MPD2    C213338   1.659   2.196  16.491 -0.0712 -0.3969  0.2030
  911MPD2    C313339   1.528   2.210  16.453  0.7682 -0.2430  0.7502
  911MPD2    C413340   1.438   2.114  16.497 -0.5405 -0.3596  0.0473
  911MPD2    C513341   1.472   2.014  16.589 -0.0131  0.7697 -0.4479
  911MPD2     H13342   1.737   2.263  16.458 -0.6493  0.4973  0.6617
  911MPD2    H113343   1.334   2.108  16.468 -0.6209 -0.4974  0.3714
  911MPD2    H213344   1.637   1.951  16.714 -0.1179 -0.7536 -1.2422
  911MPD2    H313345   1.406   1.939  16.631  2.2293  0.3328  2.3322
  911MPD2     N13346   1.472   2.290  16.350  0.5967  0.2600  0.0717
  911MPD2    H513347   1.384   2.261  16.310 -0.3478  4.5300 -0.9291
  911MPD2    N113348   1.815   2.105  16.646 -0.1128  0.3149 -0.0378
  911MPD2    H713349   1.829   2.032  16.716  1.6309 -1.1173 -1.8684
  912MPD2     C13350   1.178   1.948  15.751  0.3458 -0.3808 -0.1291
  912MPD2    C113351   1.226   1.987  15.879 -0.6621 -0.5647  0.0787
  912MPD2    C213352   1.253   1.889  15.977 -0.1955  0.8320  0.5026
  912MPD2    C313353   1.208   1.756  15.960 -0.1566  0.1839  0.2100
  912MPD2    C413354   1.162   1.721  15.835 -0.5648 -0.0401  0.6148
  912MPD2    C513355   1.152   1.812  15.735 -0.0464 -0.0773 -0.2519
  912MPD2     H13356   1.292   1.910  16.076 -0.1839  0.4974  0.5700
  912MPD2    H113357   1.139   1.618  15.811  0.2270 -0.3178  1.0429
  912MPD2    H213358   1.170   2.019  15.669  0.9079  0.1970  0.3192
  912MPD2    H313359   1.113   1.782  15.639 -0.4940  1.4671 -0.5357
  912MPD2     N13360   1.226   1.662  16.070  1.1312  0.6628 -0.0970
  912MPD2    H513361   1.277   1.681  16.156 -0.3751 -0.4068  1.0522
  912MPD2    N113362   1.256   2.121  15.902  0.1578  0.0153 -0.1879
  912MPD2    H713363   1.246   2.175  15.817 -0.8693  0.9253  0.5040
  913MPD2     C13364   2.386   2.565  10.988  0.1119 -0.0352 -0.4005
  913MPD2    C113365   2.378   2.698  10.986  0.1516 -0.0882  0.2336
  913MPD2    C213366   2.366   2.758  10.861  0.0350 -0.5544 -0.8759
  913MPD2    C313367   2.357   2.693  10.737  0.4311  0.5103 -0.8096
  913MPD2    C413368   2.367   2.559  10.749 -0.0415  0.7160 -0.0851
  913MPD2    C513369   2.378   2.500  10.869  0.6797  0.6360  1.0374
  913MPD2     H13370   2.357   2.866  10.861  0.3844 -0.5191 -2.6122
  913MPD2    H113371   2.372   2.497  10.660  1.5034  0.5872  0.0861
  913MPD2    H213372   2.380   2.515  11.084  1.8655  1.9296  0.7138
  913MPD2    H313373   2.375   2.392  10.875 -3.0908  0.6779 -0.5533
  913MPD2     N13374   2.345   2.751  10.610  0.7217 -0.4359 -0.5138
  913MPD2    H513375   2.351   2.692  10.528 -1.0858  0.3123 -1.2034
  913MPD2    N113376   2.381   2.767  11.109  0.1536 -0.5928 -0.5704
  913MPD2    H713377   2.417   2.711  11.186  3.5664  1.9950 -0.2945
  914MPD2     C13378   4.269   3.279  11.772  0.1759 -0.3405  0.7998
  914MPD2    C113379   4.286   3.409  11.793 -0.0023 -0.2327 -0.1995
  914MPD2    C213380   4.380   3.447  11.882 -0.1043  0.2401  0.5317
  914MPD2    C313381   4.454   3.356  11.954 -0.2196 -0.0577  0.0413
  914MPD2    C413382   4.434   3.220  11.933  0.2090  0.0373  0.1713
  914MPD2    C513383   4.340   3.186  11.843 -0.3022 -0.1862 -0.0768
  914MPD2     H13384   4.415   3.550  11.883  0.7577 -0.0425 -0.6939
  914MPD2    H113385   4.495   3.146  11.983 -1.9621  0.6000  3.6956
  914MPD2    H213386   4.207   3.235  11.695  0.7238  0.8939 -0.3550
  914MPD2    H313387   4.318   3.081  11.822 -0.2475  0.0713 -1.4545
  914MPD2     N13388   4.555   3.408  12.034 -0.4076  0.1347  0.1075
  914MPD2    H513389   4.554   3.509  12.047 -0.8676 -0.0307  1.3833
  914MPD2    N113390   4.210   3.496  11.711 -0.2815 -0.8427  0.1123
  914MPD2    H713391   4.143   3.453  11.648  0.3524 -0.6403 -0.7032
  915MPD2     C13392   3.483   3.915  15.728 -0.1631  0.9777 -0.2917
  915MPD2    C113393   3.350   3.936  15.697 -0.3738  0.3947  0.7527
  915MPD2    C213394   3.250   3.948  15.790  0.1122  0.2705  0.2579
  915MPD2    C313395   3.291   3.946  15.924  0.5595  0.6627 -0.0899
  915MPD2    C413396   3.421   3.912  15.960  0.2534 -0.0697 -0.1108
  915MPD2    C513397   3.517   3.904  15.860  0.5506  0.1330  0.2325
  915MPD2     H13398   3.149   3.965  15.756  0.2088 -1.5192 -0.9027
  915MPD2    H113399   3.450   3.899  16.064 -1.0834  1.0164  0.4013
  915MPD2    H213400   3.564   3.916  15.655  1.0486  0.8847  1.0582
  915MPD2    H313401   3.622   3.896  15.886  0.6238 -1.8458 -0.7034
  915MPD2     N13402   3.192   3.968  16.022  0.1168  0.2713 -0.0386
  915MPD2    H513403   3.217   3.988  16.118 -0.2047 -1.1711  0.3479
  915MPD2    N113404   3.331   3.946  15.561 -0.3670 -0.1021  0.0829
  915MPD2    H713405   3.413   3.947  15.502 -0.5613 -0.3487 -0.1917
  916MPD2     C13406   0.560   1.710  15.633  0.0547  0.0497  0.3404
  916MPD2    C113407   0.684   1.654  15.667  0.4979  0.0245  1.2440
  916MPD2    C213408   0.735   1.553  15.586 -0.1302  0.2896 -0.0797
  916MPD2    C313409   0.675   1.514  15.465 -0.2935  0.0861 -0.4172
  916MPD2    C413410   0.553   1.572  15.435 -0.4072 -0.2217 -0.0519
  916MPD2    C513411   0.492   1.665  15.518  0.0315 -0.3981  0.1936
  916MPD2     H13412   0.827   1.503  15.613  0.2475  0.6882 -0.6473
  916MPD2    H113413   0.501   1.535  15.347 -2.4799  3.7622 -0.4504
  916MPD2    H213414   0.517   1.785  15.699 -0.9348  1.1224 -1.5174
  916MPD2    H313415   0.390   1.696  15.497  0.1442 -0.7134 -0.8212
  916MPD2     N13416   0.737   1.417  15.380  0.2210  0.1442 -0.2955
  916MPD2    H513417   0.824   1.381  15.416  1.3378  1.9806 -1.1792
  916MPD2    N113418   0.750   1.691  15.785  1.0413 -0.3987 -0.3912
  916MPD2    H713419   0.708   1.775  15.824  0.9899 -1.3890  1.6335
  917MPD2     C13420   1.176   3.767  10.681 -0.8377 -0.2141 -0.0816
  917MPD2    C113421   1.225   3.853  10.778  0.3487  0.3226 -0.3028
  917MPD2    C213422   1.343   3.932  10.757  0.4730  0.4294 -0.2107
  917MPD2    C313423   1.391   3.947  10.627  0.4024 -0.9762 -0.0059
  917MPD2    C413424   1.327   3.884  10.523 -0.0545  0.4141  0.4155
  917MPD2    C513425   1.232   3.796  10.555 -0.8492 -0.8017  0.5386
  917MPD2     H13426   1.379   3.994  10.838  0.8830  0.5573 -0.4946
  917MPD2    H113427   1.362   3.887  10.421  1.0698  0.9360  0.8170
  917MPD2    H213428   1.094   3.696  10.687 -0.9840 -0.1660 -1.6819
  917MPD2    H313429   1.187   3.741  10.473 -3.0268 -2.7917  3.0601
  917MPD2     N13430   1.491   4.038  10.590 -0.0017  0.4394 -0.7699
  917MPD2    H513431   1.498   4.056  10.490  1.6107 -3.4327 -1.3713
  917MPD2    N113432   1.157   3.851  10.901 -0.3220  0.5308  0.8101
  917MPD2    H713433   1.079   3.785  10.904  0.3921 -0.2480  2.0668
  918MPD2     C13434   1.110   4.458  11.717 -0.1680  0.7915 -0.2744
  918MPD2    C113435   1.213   4.407  11.652 -0.1016  0.7219 -1.1254
  918MPD2    C213436   1.196   4.310  11.551 -0.0812  0.6071  0.3196
  918MPD2    C313437   1.067   4.276  11.520  0.1311  0.3140 -0.7863
  918MPD2    C413438   0.959   4.324  11.595  0.4236  0.2413 -0.3315
  918MPD2    C513439   0.982   4.425  11.684 -0.7072 -0.0984 -0.6134
  918MPD2     H13440   1.279   4.258  11.505 -1.0104 -1.3724  0.8605
  918MPD2    H113441   0.856   4.298  11.574 -0.1923  1.4589  1.2015
  918MPD2    H213442   1.122   4.530  11.797  0.1632 -1.3281  1.5910
  918MPD2    H313443   0.897   4.464  11.738 -0.9990 -0.8209 -0.5467
  918MPD2     N13444   1.056   4.179  11.417 -0.1091 -0.1229  0.3865
  918MPD2    H513445   1.144   4.151  11.376 -1.1186 -4.8380  1.4755
  918MPD2    N113446   1.351   4.420  11.688 -0.1434 -0.2218  0.2253
  918MPD2    H713447   1.420   4.382  11.625  0.8790 -1.1079  1.9017
  919MPD2     C13448   1.727   3.093  11.611 -0.3624 -0.6696  0.1842
  919MPD2    C113449   1.800   2.971  11.623 -0.8256 -0.2213  0.7557
  919MPD2    C213450   1.879   2.935  11.520  0.5545  0.1197 -0.3267
  919MPD2    C313451   1.873   2.998  11.398 -0.0350 -0.3454 -0.0064
  919MPD2    C413452   1.791   3.107  11.379 -0.0380  0.0901 -0.0031
  919MPD2    C513453   1.734   3.163  11.496  0.1877 -0.9895 -0.4798
  919MPD2     H13454   1.964   2.873  11.545 -0.5707 -1.6056 -0.7965
  919MPD2    H113455   1.781   3.157  11.283 -0.9580  1.0482  0.6008
  919MPD2    H213456   1.672   3.137  11.693  0.4200  0.7794 -0.0711
  919MPD2    H313457   1.682   3.258  11.489  1.1279 -0.5002 -0.7599
  919MPD2     N13458   1.949   2.947  11.290 -0.2033  0.4673  0.1104
  919MPD2    H513459   1.937   2.985  11.197  1.4565 -1.2200 -0.7980
  919MPD2    N113460   1.805   2.893  11.741  0.5723  0.2304  0.3221
  919MPD2    H713461   1.872   2.817  11.737  0.3164 -0.1112  2.6874
  920MPD2     C13462   1.880   2.984  10.335  0.5690 -0.3676  0.0856
  920MPD2    C113463   1.856   2.846  10.356 -0.1779  0.2650 -0.2110
  920MPD2    C213464   1.886   2.799  10.481 -0.4410  0.3150 -0.3840
  920MPD2    C313465   1.945   2.875  10.577  1.0459  0.1542 -0.6473
  920MPD2    C413466   1.975   3.007  10.546  0.0593 -0.1102 -0.2382
  920MPD2    C513467   1.945   3.059  10.423 -0.7253 -0.2602  0.3740
  920MPD2     H13468   1.840   2.702  10.499  0.8360 -0.1276  0.4810
  920MPD2    H113469   2.011   3.083  10.615 -0.2708 -2.2307  2.3033
  920MPD2    H213470   1.851   3.034  10.243  0.7101 -1.0961 -0.3536
  920MPD2    H313471   1.977   3.157  10.389  2.6240 -1.1751  0.8889
  920MPD2     N13472   1.968   2.820  10.707  0.3089 -0.1159  0.8461
  920MPD2    H513473   1.950   2.722  10.724 -1.5124  0.0811  0.0260
  920MPD2    N113474   1.781   2.766  10.276  0.5874  0.4110  0.1637
  920MPD2    H713475   1.780   2.668  10.301 -0.5146  0.9544  2.1884
  921MPD2     C13476   2.619   2.682  16.659 -0.2048  0.4194  0.1432
  921MPD2    C113477   2.623   2.551  16.615 -0.1957  0.2694 -0.0158
  921MPD2    C213478   2.524   2.461  16.644 -0.2774  0.4532 -0.2653
  921MPD2    C313479   2.426   2.501  16.736  0.1156  0.4319  0.1238
  921MPD2    C413480   2.426   2.626  16.793 -0.5483 -0.2629  0.1136
  921MPD2    C513481   2.518   2.718  16.746 -0.3135  0.1577 -0.1859
  921MPD2     H13482   2.522   2.368  16.587  1.0429 -0.3300  0.9529
  921MPD2    H113483   2.357   2.660  16.870  0.0146 -0.4391  0.6999
  921MPD2    H213484   2.700   2.752  16.643 -1.2128  1.9503  1.6575
  921MPD2    H313485   2.513   2.814  16.795 -3.3328 -0.6396  1.0754
  921MPD2     N13486   2.314   2.410  16.765 -0.6054 -0.0774 -1.2499
  921MPD2    H513487   2.239   2.454  16.818  0.7708 -0.2503  0.8491
  921MPD2    N113488   2.726   2.506  16.531  0.0383  0.1628  0.2696
  921MPD2    H713489   2.707   2.414  16.493  0.2278  0.1032  0.3190
  922MPD2     C13490   3.971   4.576  17.479  0.9257 -0.9403 -0.1283
  922MPD2    C113491   3.923   4.599  17.350  0.3793 -0.2115 -0.2916
  922MPD2    C213492   3.803   4.538  17.310  0.4190 -0.5132  0.0174
  922MPD2    C313493   3.715   4.495  17.409 -1.1255  0.3192 -1.0075
  922MPD2    C413494   3.757   4.495  17.542  0.2641  0.4804  0.2462
  922MPD2    C513495   3.887   4.529  17.574 -0.2080 -0.7608 -0.1340
  922MPD2     H13496   3.764   4.537  17.210  1.2380  1.9614 -0.3195
  922MPD2    H113497   3.699   4.471  17.631 -0.3097  1.3219  0.1073
  922MPD2    H213498   4.066   4.620  17.504 -1.2734  3.6556  0.1940
  922MPD2    H313499   3.912   4.513  17.678  4.3155  0.9152 -0.9233
  922MPD2     N13500   3.590   4.443  17.373  0.1038  0.3723  0.1475
  922MPD2    H513501   3.575   4.416  17.276 -0.5134  1.6511 -0.1230
  922MPD2    N113502   4.005   4.658  17.252  0.0339 -0.0797  0.3736
  922MPD2    H713503   3.974   4.632  17.159 -0.0318  1.7977 -0.1353
  923MPD2     C13504   0.088   1.379   9.036 -0.2634  0.0964 -0.8451
  923MPD2    C113505   0.062   1.461   9.146  0.0884 -0.8269  0.1849
  923MPD2    C213506   0.178   1.497   9.221  0.1058 -0.3199  0.7919
  923MPD2    C313507   0.307   1.461   9.186 -0.0024  0.6094  0.5613
  923MPD2    C413508   0.322   1.363   9.090 -0.3114 -0.6846 -0.0963
  923MPD2    C513509   0.211   1.327   9.021 -0.0604 -0.1514 -0.3129
  923MPD2     H13510   0.166   1.571   9.299 -1.7991  3.0855 -2.7506
  923MPD2    H113511   0.411   1.302   9.078  0.1058 -0.0742 -0.1385
  923MPD2    H213512   0.003   1.358   8.972  1.0517 -1.2076 -2.1565
  923MPD2    H313513   0.218   1.250   8.946 -1.0975 -2.4968  1.9692
  923MPD2     N13514   0.423   1.501   9.259 -0.2331  0.3195  0.1063
  923MPD2    H513515   0.506   1.445   9.241 -1.0553 -0.3161 -1.7299
  923MPD2    N113516   4.654   1.512   9.153 -0.5819 -0.3770  0.7214
  923MPD2    H713517   4.587   1.471   9.089 -1.3444  1.9203  0.0687
  924MPD2     C13518   0.445   4.664  16.303 -0.1768 -0.1464  0.4341
  924MPD2    C113519   0.347   0.006  16.229  0.4709  0.1315 -0.2466
  924MPD2    C213520   0.355   0.148  16.215  0.0347 -0.1648  0.2239
  924MPD2    C313521   0.460   0.219  16.275 -0.4424 -0.2170  1.1135
  924MPD2    C413522   0.562   0.147  16.338  0.0055 -0.6357  0.6698
  924MPD2    C513523   0.551   0.017  16.363 -0.0850 -0.4835  0.4551
  924MPD2     H13524   0.276   0.192  16.155 -0.1818 -0.0413  0.6003
  924MPD2    H113525   0.641   0.201  16.389  0.1627 -0.3424  0.1236
  924MPD2    H213526   0.440   4.556  16.311 -0.5839 -0.4017 -3.4164
  924MPD2    H313527   0.625   4.692  16.426  1.0229 -0.9315 -1.1834
  924MPD2     N13528   0.473   0.352  16.273 -0.6078 -0.8370 -0.2107
  924MPD2    H513529   0.559   0.398  16.303 -1.2197  0.8989 -1.1034
  924MPD2    N113530   0.247   4.652  16.168  0.4392  0.4823  0.1139
  924MPD2    H713531   0.268   4.552  16.173 -2.8405 -0.1156  1.6775
  925MPD2     C13532   3.555   2.866  14.711  0.0299  0.1227  0.4699
  925MPD2    C113533   3.439   2.808  14.675 -0.3815 -0.8034 -0.4856
  925MPD2    C213534   3.337   2.817  14.765  0.2493  0.0114  0.3275
  925MPD2    C313535   3.347   2.878  14.889  0.5444  0.2928  0.1263
  925MPD2    C413536   3.467   2.938  14.924 -0.2792 -0.1804  0.0562
  925MPD2    C513537   3.570   2.941  14.828 -0.3443 -0.3907  0.9203
  925MPD2     H13538   3.243   2.770  14.740  0.0757  0.8532 -0.6207
  925MPD2    H113539   3.488   2.977  15.023 -1.5845  0.4947  0.0704
  925MPD2    H213540   3.644   2.869  14.650  1.0087 -0.2850  1.8928
  925MPD2    H313541   3.669   2.979  14.848 -0.3958 -0.5635  1.5237
  925MPD2     N13542   3.245   2.867  14.985  0.5158 -0.0237 -0.0883
  925MPD2    H513543   3.169   2.803  14.961  0.3419 -0.9512  2.9260
  925MPD2    N113544   3.403   2.746  14.551 -0.3145 -0.5316 -0.7682
  925MPD2    H713545   3.305   2.736  14.525  0.1830 -3.4658 -1.4984
  926MPD2     C13546   1.657   1.135  13.836 -0.1529  0.5243 -0.4263
  926MPD2    C113547   1.714   1.256  13.801  0.1020  0.5193 -0.1270
  926MPD2    C213548   1.763   1.272  13.669  0.2224  0.3279  0.4967
  926MPD2    C313549   1.766   1.160  13.580  0.4851 -1.2075 -0.3146
  926MPD2    C413550   1.711   1.042  13.623 -0.1072 -0.1839  0.4999
  926MPD2    C513551   1.670   1.027  13.750 -0.1463  0.1106 -0.5064
  926MPD2     H13552   1.808   1.365  13.634  0.4418  0.0406  0.0232
  926MPD2    H113553   1.710   0.954  13.560  2.2026 -0.4110  0.7766
  926MPD2    H213554   1.610   1.128  13.934  0.7497  1.4416  0.0619
  926MPD2    H313555   1.631   0.931  13.783  0.5923 -0.8336 -2.3294
  926MPD2     N13556   1.808   1.161  13.445 -0.5101 -0.0522  0.0090
  926MPD2    H513557   1.766   1.095  13.379 -1.1654  0.4809 -0.1076
  926MPD2    N113558   1.674   1.368  13.865 -0.1517  0.3431 -0.0076
  926MPD2    H713559   1.670   1.449  13.804  0.6481 -0.1875 -0.7742
  927MPD2     C13560   1.920   3.411   0.273 -0.0361 -0.3473 -0.1529
  927MPD2    C113561   1.972   3.354   0.391 -0.2700  0.0258 -0.1180
  927MPD2    C213562   2.114   3.345   0.402  0.3659  0.4431 -0.2839
  927MPD2    C313563   2.194   3.386   0.295  0.3293  0.8496 -0.0439
  927MPD2    C413564   2.139   3.432   0.179  0.0814 -0.2682 -0.0088
  927MPD2    C513565   2.006   3.442   0.166 -0.7325 -0.3170 -0.4644
  927MPD2     H13566   2.160   3.318   0.497  1.3926 -0.3846 -1.0197
  927MPD2    H113567   2.198   3.442   0.089 -0.8356  1.3692 -0.4331
  927MPD2    H213568   1.814   3.432   0.261  0.5748  0.9281 -3.3253
  927MPD2    H313569   1.957   3.467   0.073 -1.2683  0.4127  0.0173
  927MPD2     N13570   2.337   3.377   0.302 -0.5835  0.1355  0.3249
  927MPD2    H513571   2.374   3.326   0.382 -1.2169 -1.3670 -0.3420
  927MPD2    N113572   1.887   3.336   0.500 -0.0858  0.3958 -0.3157
  927MPD2    H713573   1.788   3.353   0.489 -0.3774 -1.0608  0.1025
  928MPD2     C13574   0.414   1.469   0.535  0.0117  0.0566 -1.0253
  928MPD2    C113575   0.424   1.606   0.556 -0.2069 -0.2964  0.6060
  928MPD2    C213576   0.465   1.683   0.455 -1.0263  0.2624  0.3490
  928MPD2    C313577   0.487   1.640   0.333  0.4636  0.0811  0.0877
  928MPD2    C413578   0.478   1.504   0.313  0.4669 -0.5369 -0.0460
  928MPD2    C513579   0.444   1.419   0.411 -0.9867  0.4237  0.0999
  928MPD2     H13580   0.481   1.789   0.473 -1.4052  0.4143 -0.2222
  928MPD2    H113581   0.489   1.466   0.212  0.0593  3.0559 -1.4506
  928MPD2    H213582   0.371   1.406   0.611  0.0409  0.8954 -0.3160
  928MPD2    H313583   0.441   1.314   0.387 -0.9268  0.5364 -0.4226
  928MPD2     N13584   0.527   1.730   0.235 -0.4089 -0.3726  0.0442
  928MPD2    H513585   0.531   1.827   0.266 -1.1188 -0.4355  0.3267
  928MPD2    N113586   0.383   1.646   0.686  0.0205  0.1976  0.2182
  928MPD2    H713587   0.375   1.579   0.763  1.8738  0.6247  0.7715
  929MPD2     C13588   0.371   1.545  10.464  0.0481  0.5856 -0.0617
  929MPD2    C113589   0.319   1.426  10.521 -0.2322  0.0858 -0.7046
  929MPD2    C213590   0.203   1.374  10.465  0.6600  0.0584 -0.7608
  929MPD2    C313591   0.138   1.439  10.357  0.1380 -0.5044  0.3409
  929MPD2    C413592   0.195   1.552  10.301 -0.5778 -0.0539 -0.8642
  929MPD2    C513593   0.308   1.606  10.359 -0.3196 -0.0981 -0.2595
  929MPD2     H13594   0.149   1.291  10.510  1.0450  0.5218  0.5777
  929MPD2    H113595   0.143   1.602  10.220  0.0645  2.2652  0.1632
  929MPD2    H213596   0.448   1.599  10.519 -0.6654  0.1436  1.3945
  929MPD2    H313597   0.352   1.695  10.316  0.4272 -0.4196 -0.1637
  929MPD2     N13598   0.028   1.383  10.290  0.2060  0.3303  0.3600
  929MPD2    H513599   4.718   1.437  10.211  0.4165 -0.4331 -0.2619
  929MPD2    N113600   0.390   1.364  10.622  1.4594  0.0589 -0.7993
  929MPD2    H713601   0.476   1.411  10.648  0.5262  0.7436  1.1245
  930MPD2     C13602   2.436   4.219  14.581  0.0664 -0.5744 -0.3578
  930MPD2    C113603   2.335   4.264  14.498  0.7103  0.1512  0.3258
  930MPD2    C213604   2.217   4.182  14.490  0.2173  0.0347 -0.4811
  930MPD2    C313605   2.229   4.049  14.533 -0.0857 -0.2371  0.1405
  930MPD2    C413606   2.340   4.001  14.594 -0.2650 -0.1332  0.3408
  930MPD2    C513607   2.442   4.091  14.627 -0.3704  0.4020 -0.7793
  930MPD2     H13608   2.126   4.225  14.449 -0.4375 -1.5497 -0.7030
  930MPD2    H113609   2.343   3.896  14.624  1.3671  0.3304  1.8237
  930MPD2    H213610   2.524   4.282  14.581  0.6188 -1.3572  0.1631
  930MPD2    H313611   2.526   4.068  14.691 -2.9469 -0.5933  2.2929
  930MPD2     N13612   2.116   3.964  14.521  0.4240 -0.1290  0.0375
  930MPD2    H513613   2.118   3.873  14.564  2.3083 -0.8015 -1.4889
  930MPD2    N113614   2.351   4.388  14.426 -0.1121  0.0292  0.4083
  930MPD2    H713615   2.441   4.434  14.425  1.0971 -2.3632 -0.7616
  931MPD2     C13616   1.989   2.766   0.959 -0.5440 -0.1684 -0.0655
  931MPD2    C113617   1.881   2.830   1.018  0.2255  0.3418  0.0339
  931MPD2    C213618   1.804   2.760   1.116  0.0103  0.4388  0.5323
  931MPD2    C313619   1.843   2.630   1.146 -0.3802  0.2028 -0.3373
  931MPD2    C413620   1.954   2.570   1.087  0.7084  0.0493 -0.0304
  931MPD2    C513621   2.024   2.640   0.993 -0.2876 -0.0077  0.0717
  931MPD2     H13622   1.709   2.799   1.150 -0.7713 -0.8815 -0.1232
  931MPD2    H113623   1.975   2.467   1.112 -0.6857 -0.3311 -0.4499
  931MPD2    H213624   2.038   2.822   0.879  1.6865 -0.3334  1.1783
  931MPD2    H313625   2.114   2.599   0.949 -0.7055 -0.7180 -0.1221
  931MPD2     N13626   1.770   2.561   1.242  0.6920 -0.0053 -0.5750
  931MPD2    H513627   1.792   2.464   1.263  2.4682  0.8025  1.3615
  931MPD2    N113628   1.846   2.953   0.962 -0.2158 -0.1691 -0.3037
  931MPD2    H713629   1.906   2.984   0.886 -1.2916 -1.1573 -1.5598
  932MPD2     C13630   3.696   2.322  11.477  0.2792 -0.3193 -0.0930
  932MPD2    C113631   3.795   2.359  11.391  0.8204 -0.0181  0.2024
  932MPD2    C213632   3.875   2.263  11.345  0.0401  0.4853 -0.0204
  932MPD2    C313633   3.862   2.134  11.385  0.7994  0.0914  0.0801
  932MPD2    C413634   3.753   2.093  11.466 -0.0159 -0.2853 -0.2573
  932MPD2    C513635   3.674   2.192  11.522  0.2159  0.0012 -0.1700
  932MPD2     H13636   3.950   2.288  11.269  0.3008 -2.5387 -0.7439
  932MPD2    H113637   3.729   1.994  11.501  2.1058 -0.1161  1.5928
  932MPD2    H213638   3.633   2.401  11.516 -1.2550 -0.6156 -1.9321
  932MPD2    H313639   3.587   2.169  11.583  0.6882 -0.2102  0.4188
  932MPD2     N13640   3.942   2.021  11.343  0.0791 -0.5117 -0.4170
  932MPD2    H513641   3.922   1.932  11.386  0.0191 -1.1896 -1.8459
  932MPD2    N113642   3.816   2.490  11.347 -0.0642  0.1235 -0.3696
  932MPD2    H713643   3.890   2.500  11.279  0.9345  0.9436  0.8436
  933MPD2     C13644   4.451   1.964   0.773 -0.2286  0.3080  1.1379
  933MPD2    C113645   4.535   2.041   0.851  0.2527 -0.4447 -0.4129
  933MPD2    C213646   4.507   2.170   0.884 -0.2451 -0.2801 -0.6001
  933MPD2    C313647   4.386   2.220   0.844 -0.1624  0.3087 -0.6595
  933MPD2    C413648   4.303   2.149   0.754  0.1724  0.2113 -0.6338
  933MPD2    C513649   4.335   2.020   0.733  0.1071 -0.0376 -0.2925
  933MPD2     H13650   4.575   2.226   0.947 -0.8105 -0.4266  0.1400
  933MPD2    H113651   4.204   2.184   0.726 -0.2251 -0.3208  0.0984
  933MPD2    H213652   4.485   1.868   0.737 -0.5622  0.8621 -0.6633
  933MPD2    H313653   4.262   1.965   0.675  0.5628 -1.4187  0.4280
  933MPD2     N13654   4.356   2.355   0.881  0.3581 -0.1279  0.6657
  933MPD2    H513655   4.430   2.403   0.931  1.0381 -1.3978  0.8662
  933MPD2    N113656   4.646   1.969   0.894 -0.3241 -0.0954 -0.2743
  933MPD2    H713657   4.663   1.881   0.847 -0.1685  1.5271 -3.3146
  934MPD2     C13658   0.314   3.983   2.023 -0.0984  0.5095 -0.1669
  934MPD2    C113659   0.249   4.071   1.933 -0.6219  0.3527 -0.5820
  934MPD2    C213660   0.214   4.023   1.806  0.0968  0.4904 -0.1930
  934MPD2    C313661   0.270   3.910   1.760 -0.0413  0.1660  0.0170
  934MPD2    C413662   0.339   3.829   1.850  0.6050  0.5033  0.2772
  934MPD2    C513663   0.364   3.864   1.980 -0.1976  0.4248  0.5853
  934MPD2     H13664   0.148   4.088   1.750 -0.7675 -0.6812 -0.5255
  934MPD2    H113665   0.391   3.739   1.818 -2.1828 -0.6088 -1.1933
  934MPD2    H213666   0.341   4.012   2.124 -1.5115 -0.2959  0.4343
  934MPD2    H313667   0.428   3.803   2.043 -1.3374 -1.0422  0.3140
  934MPD2     N13668   0.249   3.860   1.624 -0.0319  0.3599 -0.1916
  934MPD2    H513669   0.298   3.774   1.603 -1.1452 -0.4517  0.5592
  934MPD2    N113670   0.213   4.202   1.963 -0.1496 -0.4669 -0.6589
  934MPD2    H713671   0.150   4.253   1.901 -0.2532 -0.1963 -0.3348
  935MPD2     C13672   0.727   3.320   1.250 -0.3590 -0.7841  0.3257
  935MPD2    C113673   0.718   3.405   1.137  0.2457  0.5015 -0.3240
  935MPD2    C213674   0.630   3.513   1.138  0.1969 -0.5697 -0.5491
  935MPD2    C313675   0.561   3.540   1.253 -0.2150 -0.4783 -0.3565
  935MPD2    C413676   0.571   3.460   1.364  0.5707 -0.3180  0.2994
  935MPD2    C513677   0.655   3.355   1.360  0.5154  0.5738  0.5503
  935MPD2     H13678   0.624   3.575   1.049  0.4721 -0.7317 -0.6822
  935MPD2    H113679   0.508   3.473   1.451  0.8932  1.2020  0.3114
  935MPD2    H213680   0.790   3.232   1.248 -2.0487 -1.9745 -0.0938
  935MPD2    H313681   0.665   3.285   1.442 -0.4837  2.1749  2.0334
  935MPD2     N13682   0.484   3.661   1.272  0.1325 -0.3826 -0.2729
  935MPD2    H513683   0.433   3.677   1.358 -1.3147 -2.2819 -0.7706
  935MPD2    N113684   0.794   3.397   1.013  0.4054  0.1488  0.3073
  935MPD2    H713685   0.762   3.456   0.937 -1.7158 -1.6568 -0.1991
  936MPD2     C13686   3.743   1.584  12.516  0.6956  1.1465 -0.6748
  936MPD2    C113687   3.792   1.461  12.569  0.8386 -0.1586 -0.0942
  936MPD2    C213688   3.912   1.414  12.539 -0.0825 -0.0837 -0.4948
  936MPD2    C313689   3.991   1.474  12.438  0.3722 -0.8925  0.1996
  936MPD2    C413690   3.941   1.591  12.374  0.3336  0.0695 -0.3731
  936MPD2    C513691   3.816   1.632  12.409 -0.4513  0.1866 -0.1044
  936MPD2     H13692   3.944   1.317  12.575 -0.0757 -0.0960 -0.5335
  936MPD2    H113693   3.998   1.649  12.302  1.1080  0.2863  0.4122
  936MPD2    H213694   3.656   1.636  12.555  0.9794  0.6959  0.5558
  936MPD2    H313695   3.769   1.719  12.363 -3.7163 -1.3757  0.2361
  936MPD2     N13696   4.120   1.424  12.409 -0.3996  0.6880  0.3946
  936MPD2    H513697   4.172   1.464  12.332  1.3638 -0.1441  1.1596
  936MPD2    N113698   3.727   1.390  12.668 -0.0570 -0.1918  0.5889
  936MPD2    H713699   3.759   1.296  12.688 -1.4954 -0.5401  1.2284
  937MPD2     C13700   1.934   2.227  11.795  0.0855  1.2303  0.3123
  937MPD2    C113701   1.996   2.347  11.798 -1.2172 -0.4406  0.3716
  937MPD2    C213702   2.124   2.349  11.735 -0.3561  0.3747  0.2065
  937MPD2    C313703   2.177   2.244  11.664 -0.5257 -0.2293 -0.4847
  937MPD2    C413704   2.094   2.136  11.642  0.3724 -0.4702  0.3498
  937MPD2    C513705   1.974   2.129  11.710 -0.1352  0.9121 -0.0345
  937MPD2     H13706   2.181   2.440  11.748 -0.7074  0.7813 -1.1376
  937MPD2    H113707   2.126   2.049  11.586 -0.1309 -0.8864  0.7084
  937MPD2    H213708   1.842   2.212  11.850  0.0906 -0.0130 -0.0132
  937MPD2    H313709   1.911   2.041  11.699  1.6062 -0.3648  0.1116
  937MPD2     N13710   2.303   2.242  11.601  0.0509 -0.1860  0.4248
  937MPD2    H513711   2.328   2.159  11.548 -1.6179  0.2600 -1.0719
  937MPD2    N113712   1.965   2.448  11.884  0.0590 -0.0868  0.1399
  937MPD2    H713713   2.021   2.532  11.876  1.6039 -1.3033 -1.8963
  938MPD2     C13714   0.118   3.474   0.598 -0.4186  0.3921  0.4803
  938MPD2    C113715   4.712   3.500   0.651  0.1530  0.1398 -0.0111
  938MPD2    C213716   4.664   3.407   0.750  0.5564 -0.1169 -0.7741
  938MPD2    C313717   0.022   3.296   0.789  0.5344 -0.4618  0.3853
  938MPD2    C413718   0.151   3.282   0.738 -0.0349  0.0132  0.9675
  938MPD2    C513719   0.193   3.367   0.641 -0.0116  0.7910  0.0644
  938MPD2     H13720   4.572   3.430   0.803  1.1346  0.6919 -0.1326
  938MPD2    H113721   0.217   3.203   0.772  2.0426  1.2593 -0.1938
  938MPD2    H213722   0.158   3.529   0.514 -0.0243 -1.8165 -0.7963
  938MPD2    H313723   0.292   3.360   0.597  0.2406 -0.0630  0.7660
  938MPD2     N13724   4.710   3.198   0.887 -0.8782 -0.0048  1.1102
  938MPD2    H513725   0.050   3.122   0.909  0.8149  1.9592  2.9719
  938MPD2    N113726   4.625   3.603   0.600 -0.2306 -0.5581  0.7730
  938MPD2    H713727   4.538   3.610   0.652 -1.7799  0.3528 -1.9519
  939MPD2     C13728   1.626   4.466   1.224 -0.1176 -0.2093  0.2611
  939MPD2    C113729   1.580   4.580   1.162 -0.4913  0.3181 -0.0372
  939MPD2    C213730   1.627   4.607   1.032  0.2579  0.2379 -0.6294
  939MPD2    C313731   1.729   4.525   0.983 -0.4775  0.2988  0.0729
  939MPD2    C413732   1.787   4.419   1.050  0.5203  0.3787 -0.2668
  939MPD2    C513733   1.724   4.385   1.169  0.6231  0.1585 -0.7548
  939MPD2     H13734   1.594   4.689   0.971 -1.9161 -0.3885 -0.3109
  939MPD2    H113735   1.859   4.351   1.005 -0.3623  0.2201 -1.4538
  939MPD2    H213736   1.590   4.447   1.324 -0.6920 -1.2351 -0.1421
  939MPD2    H313737   1.753   4.297   1.226 -3.3731  0.1489  1.2491
  939MPD2     N13738   1.783   4.564   0.864  0.1419  0.1768  0.1825
  939MPD2    H513739   1.751   4.655   0.833  2.8297  0.4614 -1.7589
  939MPD2    N113740   1.486   4.661   1.226  0.8192  0.5287 -0.0511
  939MPD2    H713741   1.447   4.625   1.312 -0.0992  0.0822 -0.6555
  940MPD2     C13742   4.655   0.878  13.630  0.5257 -0.3768 -0.0708
  940MPD2    C113743   0.068   0.868  13.609  0.7696  0.5700  0.7381
  940MPD2    C213744   0.120   0.904  13.490  0.7179 -0.1771 -0.0564
  940MPD2    C313745   0.044   0.959  13.391 -0.1986 -0.0355 -0.4828
  940MPD2    C413746   4.633   0.976  13.405 -0.1257  0.7708  0.6203
  940MPD2    C513747   4.580   0.924  13.527  0.8163 -0.0858  0.0075
  940MPD2     H13748   0.228   0.911  13.486  0.7807 -0.8371  0.4418
  940MPD2    H113749   4.571   1.020  13.329 -1.1167 -0.7382  0.5574
  940MPD2    H213750   4.609   0.858  13.727  1.1163 -2.4500 -0.2177
  940MPD2    H313751   4.474   0.937  13.545  0.3055 -2.6117 -1.1378
  940MPD2     N13752   0.103   0.998  13.269  0.2070 -0.1512  0.1530
  940MPD2    H513753   0.040   1.055  13.214  0.8473  0.6450  0.2401
  940MPD2    N113754   0.163   0.837  13.710  0.5241  0.0509 -0.7247
  940MPD2    H713755   0.259   0.841  13.678  0.6683 -0.6020 -0.3723
  941MPD2     C13756   4.087   4.578   9.691  0.4225  0.7705 -0.1426
  941MPD2    C113757   4.138   4.647   9.804 -0.2302 -0.1931  0.4128
  941MPD2    C213758   4.082   4.611   9.924  0.0214 -1.1645 -0.0698
  941MPD2    C313759   3.978   4.520   9.934  0.5816 -0.1008  0.2209
  941MPD2    C413760   3.923   4.461   9.821 -0.2613  0.1687 -0.4801
  941MPD2    C513761   3.982   4.480   9.702 -0.0998  0.3999 -0.2106
  941MPD2     H13762   4.129   4.640  10.017  0.3093  1.1492 -0.9422
  941MPD2    H113763   3.855   4.377   9.830  0.0543  0.0137  0.4335
  941MPD2    H213764   4.126   4.593   9.591  1.8610  1.6382  0.5458
  941MPD2    H313765   3.945   4.439   9.608  0.3642  0.5146 -0.4473
  941MPD2     N13766   3.911   4.489  10.060  0.2251 -0.1787  0.2178
  941MPD2    H513767   3.831   4.427  10.048  0.2048  0.4046 -2.7720
  941MPD2    N113768   4.232   0.021   9.800 -0.6967 -0.1558  0.3846
  941MPD2    H713769   4.274   0.054   9.886 -0.6381  0.0081  0.2943
  942MPD2     C13770   2.374   1.659   9.515 -0.1983  0.0413  0.4207
  942MPD2    C113771   2.395   1.525   9.523 -0.2638  0.3118 -0.4276
  942MPD2    C213772   2.517   1.475   9.498 -0.3079 -0.2792  0.0678
  942MPD2    C313773   2.623   1.560   9.472  0.2388  0.3699 -0.4088
  942MPD2    C413774   2.594   1.693   9.462 -0.1558 -0.2045 -0.4998
  942MPD2    C513775   2.472   1.746   9.493 -0.1969 -0.3840  0.0059
  942MPD2     H13776   2.525   1.367   9.490  1.1120 -0.0323 -2.1245
  942MPD2    H113777   2.669   1.768   9.439 -1.3232  1.3142  0.6276
  942MPD2    H213778   2.275   1.701   9.527  0.7748  2.2333  0.7327
  942MPD2    H313779   2.451   1.851   9.472 -3.5700 -1.3442 -1.4479
  942MPD2     N13780   2.754   1.514   9.439  0.7102 -0.1346  0.0122
  942MPD2    H513781   2.816   1.586   9.403  1.6533 -0.5461  0.8035
  942MPD2    N113782   2.287   1.431   9.539  0.5899  0.5281  0.4782
  942MPD2    H713783   2.321   1.335   9.539  2.9531  1.3839 -2.2797
  943MPD2     C13784   2.751   4.291   9.531 -0.3756  0.0387  0.3280
  943MPD2    C113785   2.770   4.211   9.640 -0.8916 -0.0597 -0.0555
  943MPD2    C213786   2.850   4.253   9.744  0.0004 -0.8361 -0.0735
  943MPD2    C313787   2.920   4.369   9.732  0.2045  0.5447 -0.0499
  943MPD2    C413788   2.899   4.443   9.621 -0.4592  0.1877 -0.4034
  943MPD2    C513789   2.815   4.409   9.523  0.5352  0.6983 -0.4830
  943MPD2     H13790   2.859   4.192   9.833  2.1380  1.5812  1.3639
  943MPD2    H113791   2.953   4.535   9.604 -0.0962 -0.1055 -0.8407
  943MPD2    H213792   2.687   4.267   9.446  0.3558 -1.7077  0.2775
  943MPD2    H313793   2.811   4.474   9.437  3.5595  2.0495  0.4056
  943MPD2     N13794   3.019   4.410   9.825 -0.2428 -0.1597  0.2906
  943MPD2    H513795   3.041   4.506   9.804 -0.0834 -0.5930 -1.4855
  943MPD2    N113796   2.702   4.084   9.641 -0.0870 -0.5287 -0.1656
  943MPD2    H713797   2.643   4.067   9.560 -1.2383 -2.4998  1.0986
  944MPD2     C13798   2.336   3.267  10.853  0.3912  0.1793 -0.9684
  944MPD2    C113799   2.403   3.370  10.788  0.0445 -0.1938  0.3140
  944MPD2    C213800   2.363   3.498  10.799 -0.4435  0.4519  0.4829
  944MPD2    C313801   2.259   3.531  10.882 -0.1606  0.1996  0.7025
  944MPD2    C413802   2.199   3.434  10.962 -0.1582  0.6729  0.0206
  944MPD2    C513803   2.235   3.300  10.942 -0.1407  0.0039 -0.5289
  944MPD2     H13804   2.409   3.583  10.750 -0.3362  0.0357 -0.1299
  944MPD2    H113805   2.124   3.450  11.038 -0.0232  1.1404  0.0502
  944MPD2    H213806   2.370   3.165  10.843  2.2080  0.6130  0.6298
  944MPD2    H313807   2.178   3.229  11.000  2.1483  0.2931  2.0778
  944MPD2     N13808   2.218   3.673  10.880 -0.9224 -0.3988 -0.0183
  944MPD2    H513809   2.249   3.730  10.803  0.2689  0.6860  1.2738
  944MPD2    N113810   2.516   3.331  10.707  0.2278  0.1868 -0.4414
  944MPD2    H713811   2.547   3.235  10.716  1.3756  0.6871  0.8395
    1TCq1    O113812   0.418   0.001  14.700 -0.0220  0.0764  0.2173
    1TCq1    C113813   0.514   4.722  14.790  0.0623 -0.0101 -0.2325
    1TCq1    O213814   0.503   4.693  14.907 -0.1329 -0.1018  0.1119
    1TCq1    C213815   0.609   0.096  14.745 -0.1357  0.1493 -0.2116
    1TCq1    C313816   0.625   0.206  14.824  0.3821  0.5387  0.2257
    1TCq1    C413817   0.668   0.317  14.769  0.2477 -0.3437 -0.3697
    1TCq1    C513818   0.712   0.331  14.635  0.6633  0.2419 -0.0663
    1TCq1    C613819   0.703   0.214  14.559  1.2159 -0.1286 -0.3387
    1TCq1    C713820   0.659   0.094  14.612  1.0139 -0.5882 -0.3217
    1TCq1    C813821   0.724   0.219  14.413  0.3055 -0.4119 -0.4235
    1TCq1    O413822   0.685   0.123  14.348  0.0266 -0.0046 -0.4348
    1TCq1    C913823   0.661   0.440  14.845 -0.1055 -0.1887  0.0923
    1TCq1    O513824   0.607   0.419  14.954  0.2659 -1.2515  0.0499
    1TCq1    O613825   0.742   0.532  14.816 -0.2705 -0.5846  0.3631
    1TCq1    H113826   0.448   0.053  14.623  1.5790 -0.5005  0.4675
    1TCq1    H213827   0.596   0.195  14.928 -1.9123  0.9348 -0.3864
    1TCq1    H313828   0.741   0.426  14.590  0.7567  0.6441  0.8320
    1TCq1    H413829   0.641   4.722  14.565 -1.1800 -0.2786 -0.1271
    2MPD2     C13830   0.882   0.445  13.981  0.0167 -0.5817  0.5690
    2MPD2    C113831   0.941   0.517  14.089 -0.5794 -1.0407  0.4365
    2MPD2    C213832   0.912   0.472  14.216 -0.0318  0.4578 -0.3175
    2MPD2    C313833   0.833   0.360  14.241  0.2831  0.0386 -0.4308
    2MPD2    C413834   0.778   0.294  14.131 -0.3924  0.0545  0.2563
    2MPD2    C513835   0.809   0.328  14.001  0.8995  0.3667  0.4940
    2MPD2     H13836   0.947   0.528  14.301  0.0779  1.3270 -0.9331
    2MPD2    H113837   0.712   0.208  14.143 -1.0873  0.5045 -0.3174
    2MPD2    H213838   0.917   0.470  13.881 -0.0333  0.6646  0.8668
    2MPD2    H313839   0.786   0.272  13.911 -0.8662  2.6891 -0.5047
    2MPD2     N13840   0.809   0.326  14.376  0.0128 -0.0950 -0.1772
    2MPD2    H513841   0.852   0.382  14.449  1.7288 -0.5826 -0.8349
    2MPD2    N113842   1.002   0.637  14.055  0.0512  0.2930 -0.5562
    2MPD2    H713843   0.997   0.662  13.957  0.3900  0.0497 -0.6350
    3TMC2    C113844   1.054   0.863  14.078 -0.1868  0.3045 -0.4511
    3TMC2    C213845   1.046   0.949  14.180  0.4757 -0.0066  0.1570
    3TMC2    C313846   0.982   1.070  14.151  0.7321 -0.7846  0.0478
    3TMC2    C413847   1.001   0.885  13.960 -0.4382 -0.9217 -0.2937
    3TMC2    C513848   0.923   0.995  13.939 -0.1774 -0.3579 -0.1367
    3TMC2    C613849   0.911   1.087  14.035 -0.2130  1.0640  0.1564
    3TMC2     C13850   1.049   0.728  14.143  0.1209 -0.3123 -0.0253
    3TMC2     O13851   1.075   0.709  14.262 -0.9400 -0.8283  0.9658
    3TMC2     H13852   1.083   0.928  14.279  0.2895 -4.5241 -0.7647
    3TMC2    H113853   1.013   0.811  13.882  1.9745  0.1832 -0.9956
    3TMC2    H213854   0.844   1.170  14.014 -1.2868  0.5772  1.6861
    3TMC2    C713855   0.831   0.991  13.827  0.0814  0.1548 -0.1040
    3TMC2    C813856   1.015   1.174  14.248 -0.6042  0.1425 -0.1744
    3TMC2    O113857   0.809   0.882  13.773  0.2640  0.0702 -0.3084
    3TMC2    O213858   1.067   1.162  14.357  0.1834 -0.1722 -0.0604
    3TMC2    O513859   0.951   1.288  14.200  1.0675 -0.1243 -0.3547
    3TMC2    H513860   0.923   1.277  14.106 -1.1991  0.2375  0.2689
    4MPD2     C13861   4.458   1.628  13.260  0.1687  0.6847  0.1379
    4MPD2    C113862   4.537   1.639  13.147 -0.1699  0.3869  0.3090
    4MPD2    C213863   4.675   1.653  13.163  0.3191 -0.0090 -0.0952
    4MPD2    C313864   0.016   1.665  13.289 -0.2328  0.1878 -0.1441
    4MPD2    C413865   4.652   1.662  13.400  0.3239  0.0813  0.5295
    4MPD2    C513866   4.517   1.628  13.388 -0.5098 -0.2564  0.1769
    4MPD2     H13867   0.019   1.663  13.079 -2.0515 -0.2699 -2.0620
    4MPD2    H113868   4.694   1.671  13.499 -2.6559  1.6986  1.6484
    4MPD2    H213869   4.351   1.615  13.248  0.3995 -1.5337  0.5600
    4MPD2    H313870   4.455   1.629  13.477 -0.2840  2.9300  0.3168
    4MPD2     N13871   0.151   1.692  13.322  0.3941  0.7474 -0.7955
    4MPD2    H513872   0.172   1.709  13.420 -1.2910 -2.0762  0.0572
    4MPD2    N113873   4.470   1.618  13.025 -0.0486  0.2057  0.1466
    4MPD2    H713874   4.369   1.609  13.021  0.2871 -3.4622 -0.0429
    5TCq2    C113875   0.255   1.712  13.232  0.6003 -0.8226  0.5135
    5TCq2    O213876   0.252   1.749  13.114 -0.1280 -0.1536 -0.0207
    5TCq2    C213877   0.381   1.709  13.302  0.4266 -0.2370  1.0856
    5TCq2    C313878   0.475   1.811  13.276 -0.4958  0.8215  0.0517
    5TCq2    C413879   0.564   1.849  13.377  0.2985  0.0415  0.2457
    5TCq2    C513880   0.580   1.771  13.483 -0.3985 -0.5942  0.3488
    5TCq2    C613881   0.495   1.667  13.501  0.8602 -0.0143  0.2997
    5TCq2    C713882   0.390   1.640  13.418  0.1809  0.4660 -0.9780
    5TCq2    C813883   0.554   1.543  13.565 -0.1590  0.3585  0.2056
    5TCq2    O413884   0.649   1.560  13.644  0.2248 -0.2115 -0.0074
    5TCq2    C913885   0.650   1.962  13.358  0.5141 -0.3869 -0.7101
    5TCq2    O513886   0.645   2.028  13.250  0.1060 -0.4831 -0.2694
    5TCq2    O613887   0.731   1.985  13.453  0.9335 -0.0267 -0.4182
    5TCq2    H213888   0.466   1.881  13.193  2.5394  1.6333  0.4283
    5TCq2    H313889   0.656   1.792  13.558  0.3215  4.1340 -1.7153
    5TCq2    H413890   0.324   1.556  13.438  0.3125  1.3546  3.1327
    6MPD1     C13891   3.931   2.939  13.544  0.3583  0.2027 -0.3142
    6MPD1    C113892   3.872   2.833  13.604  0.1603  0.4446 -0.1744
    6MPD1    C213893   3.899   2.709  13.548 -0.0010 -0.0056 -0.0039
    6MPD1    C313894   3.984   2.698  13.441  0.0560 -0.5292  0.0538
    6MPD1    C413895   4.042   2.806  13.388  1.2252 -0.3873  0.8424
    6MPD1    C513896   4.022   2.929  13.443 -0.3731  0.4725  0.4666
    6MPD1     H13897   3.840   2.625  13.585 -1.9277  1.9223  1.3285
    6MPD1    H113898   4.101   2.790  13.299  1.5299  1.1756  0.7576
    6MPD1    H213899   3.915   3.042  13.573  0.4976 -0.1496  1.0120
    6MPD1    H313900   4.074   3.017  13.406 -0.1728 -0.1657 -0.7730
    6MPD1     N13901   4.001   2.575  13.373 -0.1268  0.1250  0.1801
    6MPD1    H513902   4.061   2.571  13.291  1.3671  1.3645  1.2066
    6MPD1    N113903   3.766   2.847  13.698 -0.3324  0.6966  0.0832
    6MPD1    H613904   3.755   2.775  13.769  3.4453  0.1054  0.0896
    6MPD1    H713905   3.784   2.928  13.757 -0.6687  0.7604  0.0973
    7MPD2     C13906   3.757   1.905  13.028 -0.1198  0.1479  0.0410
    7MPD2    C113907   3.878   1.865  13.073  0.1275 -0.3942 -0.3836
    7MPD2    C213908   3.935   1.752  13.008  0.0969 -0.0075  0.1366
    7MPD2    C313909   3.881   1.705  12.890 -0.2168  0.8755 -0.0232
    7MPD2    C413910   3.777   1.771  12.838 -0.0059  0.0892 -0.4539
    7MPD2    C513911   3.708   1.861  12.910 -0.9108  0.5373 -0.0254
    7MPD2     H13912   4.026   1.703  13.043  1.4487  1.1593 -1.7374
    7MPD2    H113913   3.740   1.745  12.740  2.1858  0.3177 -1.3511
    7MPD2    H213914   3.706   1.984  13.081 -1.6365  1.3076 -3.1244
    7MPD2    H313915   3.617   1.903  12.869 -0.8065 -0.0268 -0.8444
    7MPD2     N13916   3.957   1.625  12.796 -0.8084  0.2599  0.5726
    7MPD2    H513917   3.938   1.644  12.698  0.5501 -1.5864 -0.0464
    7MPD2    N113918   3.943   1.924  13.182 -0.0658 -0.2917 -0.4798
    7MPD2    H713919   4.035   1.885  13.201 -0.6511 -1.7392 -0.6722
    8TMC3    C113920   4.184   1.547  12.753  0.0964 -0.3393  0.4416
    8TMC3    C213921   4.302   1.542  12.831  0.4284  0.2466  0.1699
    8TMC3    C313922   4.410   1.632  12.812 -0.4203 -0.0171  0.1699
    8TMC3    C413923   4.182   1.651  12.666  0.0408  0.0763  0.1787
    8TMC3    C513924   4.281   1.744  12.664  0.0181  0.3482 -0.7720
    8TMC3    C613925   4.403   1.737  12.732 -0.3215 -0.0456  0.2239
    8TMC3     C13926   4.064   1.547  12.838  0.1889  0.0849  0.2180
    8TMC3     O13927   4.092   1.514  12.950  0.3551  0.5623 -0.4365
    8TMC3     H13928   4.308   1.463  12.904 -2.3816  1.2467  1.4725
    8TMC3    H113929   4.104   1.665  12.592 -0.4108 -0.0231  0.6284
    8TMC3    H213930   4.485   1.805  12.717 -1.7341  1.4485 -0.6749
    8TMC3    C713931   4.282   1.793  12.532 -0.3283 -0.2508  0.6729
    8TMC3    C813932   4.522   1.629  12.897  0.6959  0.3457  0.1890
    8TMC3    O113933   4.303   1.706  12.448  0.0349  0.0374 -0.3653
    8TMC3    O213934   4.629   1.643  12.844  0.1676 -0.0983  0.5397
    9TMC3    C113935   4.008   2.342  13.334 -0.1116  0.1198  0.5507
    9TMC3    C213936   4.095   2.358  13.226  0.3189 -0.8309  0.2036
    9TMC3    C313937   4.146   2.248  13.161 -1.0896 -0.4816  0.3950
    9TMC3    C413938   3.965   2.214  13.374 -0.0480  0.1432 -0.2991
    9TMC3    C513939   4.017   2.106  13.306 -0.8472  0.9527  0.8998
    9TMC3    C613940   4.117   2.123  13.212  0.1382  0.0234  0.6373
    9TMC3     C13941   3.954   2.449  13.412 -0.5293  0.1894  0.2639
    9TMC3     O13942   3.909   2.410  13.521  1.2537 -0.3292 -0.2156
    9TMC3     H13943   4.131   2.456  13.196  0.6409 -0.4895  1.6958
    9TMC3    H113944   3.910   2.195  13.466  1.1237 -0.0855  0.3461
    9TMC3    H213945   4.167   2.037  13.169  1.1329  0.7082  0.4542
    9TMC3    C713946   3.903   2.029  13.258 -0.3887  0.0408 -0.3674
    9TMC3    C813947   4.190   2.261  13.026  0.2718  0.4324  0.2327
    9TMC3    O113948   3.800   2.096  13.260 -0.4271 -0.7532 -0.6644
    9TMC3    O213949   4.238   2.374  12.998  0.7866 -0.5374  0.2435
   10MPD2     C13950   4.291   2.167  12.536  0.4031  0.4750  0.3017
   10MPD2    C113951   4.267   2.044  12.601 -0.4958 -0.1947  0.5804
   10MPD2    C213952   4.227   2.043  12.736  0.0543  0.1111  0.2887
   10MPD2    C313953   4.213   2.158  12.804 -0.2291 -0.3962 -0.3520
   10MPD2    C413954   4.226   2.274  12.735  0.9954 -0.4584  0.2574
   10MPD2    C513955   4.264   2.280  12.602 -0.1251  0.5697 -0.4553
   10MPD2     H13956   4.180   1.954  12.777 -0.2564  0.8998  1.6238
   10MPD2    H113957   4.199   2.369  12.782 -0.8964  1.0276 -3.8405
   10MPD2    H213958   4.326   2.182  12.434  2.7382 -1.4488  0.8144
   10MPD2    H313959   4.282   2.379  12.560  0.7823  0.7165  0.2853
   10MPD2     N13960   4.183   2.153  12.940  0.6703  0.2486  0.1705
   10MPD2    H513961   4.165   2.061  12.980 -0.6636  1.4611  2.3328
   10MPD2    N113962   4.286   1.931  12.514  0.5527 -0.2023 -0.0339
   10MPD2    H713963   4.297   1.958  12.417 -0.2327 -1.4501 -0.4655
   11MPD2     C13964   0.657   1.038  13.584  0.6831 -1.1027 -0.6101
   11MPD2    C113965   0.695   1.138  13.672  0.7260 -0.3962 -0.6092
   11MPD2    C213966   0.645   1.268  13.656  0.3480  0.2247  0.0082
   11MPD2    C313967   0.557   1.294  13.547  0.2773  0.1890 -0.0631
   11MPD2    C413968   0.513   1.187  13.468  0.2097 -0.5241 -0.5086
   11MPD2    C513969   0.567   1.062  13.483  0.1500 -0.0921 -0.5626
   11MPD2     H13970   0.673   1.353  13.717  0.6340 -1.1330  1.7442
   11MPD2    H113971   0.444   1.198  13.385  0.5873  1.8205 -0.5168
   11MPD2    H213972   0.700   0.939  13.584  0.1118 -1.3439 -1.1563
   11MPD2    H313973   0.557   0.979  13.414  1.9627 -1.2500  0.5867
   11MPD2     N13974   0.516   1.426  13.511 -0.5593 -0.1958  0.9420
   11MPD2    H513975   0.442   1.436  13.441 -0.3097 -0.8247  0.5915
   11MPD2    N113976   0.786   1.117  13.780  0.5665  0.2987  0.6692
   11MPD2    H713977   0.815   1.197  13.836 -0.9256  2.0803 -1.0761
    1MPD1     C13978   2.785   2.542  16.943 -0.4768  0.7397 -0.1958
    1MPD1    C113979   2.871   2.604  17.035 -0.0879 -0.2957 -0.6759
    1MPD1    C213980   3.007   2.597  17.012  0.0714 -0.7935  0.6395
    1MPD1    C313981   3.053   2.532  16.899  0.1256 -0.2420  0.7224
    1MPD1    C413982   2.967   2.453  16.824 -0.2625 -0.1871  0.2529
    1MPD1    C513983   2.837   2.457  16.848 -0.1457  0.0954 -0.4227
    1MPD1     H13984   3.079   2.646  17.077  0.4172  0.5740 -0.7743
    1MPD1    H113985   2.995   2.386  16.744 -1.7520  1.6973 -1.8244
    1MPD1    H213986   2.678   2.548  16.953 -0.5467  0.4478 -0.7642
    1MPD1    H313987   2.775   2.390  16.789  1.2266 -0.4837 -1.2092
    1MPD1     N13988   3.184   2.529  16.852  0.6011 -0.5357 -0.0893
    1MPD1    H513989   3.193   2.476  16.766 -2.0460  1.2009 -1.4508
    1MPD1    N113990   2.819   2.644  17.153  0.9516 -0.2951  0.5594
    1MPD1    H613991   2.879   2.710  17.203  3.4152 -1.9251 -0.3002
    1MPD1    H713992   2.723   2.679  17.144  1.2308  0.5099  0.6865
    2MPD1     C13993   4.221   2.337  16.995  0.5939  0.2836  0.6701
    2MPD1    C113994   4.194   2.329  16.865  0.0298 -0.2397 -0.0125
    2MPD1    C213995   4.077   2.392  16.820  0.4182 -0.2584  0.1844
    2MPD1    C313996   3.987   2.433  16.910 -0.0628 -0.6181 -0.0746
    2MPD1    C413997   4.009   2.428  17.044  0.4322  0.5075  0.4853
    2MPD1    C513998   4.132   2.384  17.086 -0.8240  0.7509  0.4480
    2MPD1     H13999   4.060   2.402  16.713 -3.1973  0.7286  0.8606
    2MPD1    H114000   3.947   2.474  17.120  1.0547  2.3742 -0.1425
    2MPD1    H214001   4.321   2.315  17.032  1.0117  2.7451  1.0345
    2MPD1    H314002   4.154   2.398  17.191 -1.9660  2.5594  0.4486
    2MPD1     N14003   3.869   2.486  16.852 -0.1755 -0.2953 -0.4798
    2MPD1    H514004   3.851   2.493  16.752 -1.6023 -4.1928 -0.5025
    2MPD1    N114005   4.289   2.296  16.771 -0.2124 -0.4940 -0.1320
    2MPD1    H614006   4.341   2.214  16.800  0.6412  0.2390  0.4094
    2MPD1    H714007   4.249   2.277  16.679 -2.7458  2.2863  0.3795
    3TMC3    C114008   3.644   2.543  16.830  0.2629 -0.1830 -0.8216
    3TMC3    C214009   3.653   2.530  16.692  0.0351  0.0682  0.4011
    3TMC3    C314010   3.532   2.539  16.626 -0.2534  0.7191 -0.9911
    3TMC3    C414011   3.527   2.569  16.895  0.1670 -0.2022  0.1349
    3TMC3    C514012   3.406   2.581  16.823 -0.5833  0.5077  0.4304
    3TMC3    C614013   3.414   2.558  16.689  0.8998 -0.1495 -0.0016
    3TMC3     C14014   3.759   2.524  16.919  0.0666 -0.0859 -0.1000
    3TMC3     O14015   3.733   2.532  17.036  0.2877  0.6869 -0.8549
    3TMC3     H14016   3.749   2.523  16.642  1.0358  0.3405  2.3001
    3TMC3    H114017   3.516   2.571  17.003 -0.3805 -0.8434  0.0926
    3TMC3    H214018   3.319   2.563  16.636 -0.7483 -1.1951  2.8227
    3TMC3    C714019   3.291   2.597  16.904  0.0457 -1.1854 -0.2165
    3TMC3    C814020   3.529   2.559  16.481  0.3437  0.5649 -0.5217
    3TMC3    O114021   3.303   2.665  17.006 -0.3457  0.2176  0.1017
    3TMC3    O214022   3.419   2.553  16.429  0.4839 -0.0228 -0.7847
    4MPD1     C14023   3.684   2.743  16.019  0.2830 -0.4869 -0.4070
    4MPD1    C114024   3.798   2.708  16.094  0.2703 -0.2766  0.3112
    4MPD1    C214025   3.777   2.681  16.227 -0.3640 -0.0886  0.2234
    4MPD1    C314026   3.653   2.649  16.283 -0.2516 -0.5244 -0.1639
    4MPD1    C414027   3.540   2.680  16.208  0.3839  0.4729  0.0368
    4MPD1    C514028   3.560   2.735  16.079 -0.2489  0.1660 -0.7198
    4MPD1     H14029   3.861   2.657  16.291  0.7786 -0.0797 -1.2640
    4MPD1    H114030   3.438   2.671  16.242 -0.9023  1.2287 -3.5535
    4MPD1    H214031   3.692   2.768  15.914 -0.3446  0.9752 -0.0930
    4MPD1    H314032   3.468   2.756  16.026 -0.9676  0.5229  0.6495
    4MPD1     N14033   3.642   2.597  16.415 -0.1943  0.4164 -0.6017
    4MPD1    H514034   3.727   2.587  16.471 -0.8060 -0.3914  0.1944
    4MPD1    N114035   3.925   2.734  16.040 -0.8253 -0.5842 -1.0125
    4MPD1    H614036   4.001   2.688  16.090 -2.4611 -0.4095  1.6270
    4MPD1    H714037   3.938   2.698  15.945  1.3839  2.7173 -1.9718
    1TCq1    O114038   4.244   0.483  10.936 -0.1831  0.5314  0.4765
    1TCq1    C114039   4.310   0.590  10.991  0.4452 -0.4008 -0.3871
    1TCq1    O214040   4.340   0.691  10.936  0.4768 -0.4589 -0.5519
    1TCq1    C214041   4.325   0.572  11.131  0.3096 -0.5627 -0.3959
    1TCq1    C314042   4.248   0.483  11.204 -0.1860  0.3120 -0.0742
    1TCq1    C414043   4.257   0.467  11.333 -0.2542 -0.1004 -0.1074
    1TCq1    C514044   4.358   0.527  11.405 -0.6332  0.5790  1.1376
    1TCq1    C614045   4.423   0.621  11.332 -0.2061 -0.3092 -0.9698
    1TCq1    C714046   4.416   0.646  11.201 -0.5605  0.0346  0.4694
    1TCq1    C814047   4.520   0.704  11.398 -0.6955 -0.7863 -1.1328
    1TCq1    O414048   4.533   0.821  11.363  0.1894  0.0795  0.0822
    1TCq1    C914049   4.182   0.355  11.388 -0.1873 -0.3579  0.1973
    1TCq1    O514050   4.250   0.280  11.465 -0.6702  0.0730 -0.2454
    1TCq1    O614051   4.069   0.330  11.333  0.4356 -0.4067  0.5758
    1TCq1    H114052   4.222   0.420  11.007 -0.8409 -1.1150 -1.1991
    1TCq1    H214053   4.161   0.439  11.156  0.9136  0.6364 -2.3423
    1TCq1    H314054   4.368   0.505  11.511 -0.8972 -2.6014  0.4884
    1TCq1    H414055   4.479   0.722  11.156  1.4254 -1.4123  0.8017
    2MPD1     C14056   0.126   0.781  11.790  0.3117  0.8765 -0.7136
    2MPD1    C114057   0.097   0.645  11.786  0.1671  0.1844  0.0111
    2MPD1    C214058   0.008   0.601  11.689  0.0156 -0.0681  0.4176
    2MPD1    C314059   4.664   0.682  11.602 -0.1582 -0.3922 -0.2365
    2MPD1    C414060   4.694   0.816  11.614 -0.1209 -0.3817  0.8696
    2MPD1    C514061   0.064   0.865  11.708 -0.4054 -0.9929  0.2777
    2MPD1     H14062   0.004   0.493  11.676  1.7561 -0.1246  0.4136
    2MPD1    H114063   4.645   0.892  11.555  0.4145  1.5154  2.8868
    2MPD1    H214064   0.191   0.833  11.859 -0.6040 -0.3023  1.0351
    2MPD1    H314065   0.081   0.973  11.706  1.3932 -1.2437  1.3508
    2MPD1     N14066   4.576   0.629  11.498  1.4714  0.2831 -0.0631
    2MPD1    H514067   4.561   0.528  11.498 -1.3168  0.7114  3.8392
    2MPD1    N114068   0.174   0.549  11.853  0.1402 -0.2154  0.2018
    2MPD1    H614069   0.120   0.465  11.872 -2.7272  1.9145  1.6092
    2MPD1    H714070   0.214   0.585  11.939  0.0598 -1.2192  0.6571
    1TCq1    O114071   1.233   4.458   0.780  0.3292  0.6709  0.0927
    1TCq1    C114072   1.339   4.427   0.856  0.2229 -0.1041 -0.0132
    1TCq1    O214073   1.442   4.375   0.813 -0.4033 -0.2749 -0.2349
    1TCq1    C214074   1.298   4.430   0.995  0.5387 -0.6166  0.0947
    1TCq1    C314075   1.350   4.326   1.066  0.4445  0.9160 -0.4335
    1TCq1    C414076   1.302   4.308   1.192 -0.7568 -0.3864  0.8668
    1TCq1    C514077   1.203   4.389   1.241 -0.3739 -0.1310 -0.5559
    1TCq1    C614078   1.144   4.482   1.165  0.4161  0.3712 -0.2525
    1TCq1    C714079   1.191   4.507   1.039 -0.6635  0.1753  0.0377
    1TCq1    C814080   1.038   4.566   1.228  0.1588  0.4227  0.7070
    1TCq1    O414081   0.947   4.609   1.156 -0.3229 -0.1427 -0.8128
    1TCq1    C914082   1.388   4.243   1.284 -0.1517 -0.3793 -0.0115
    1TCq1    O514083   1.374   4.280   1.404 -0.2393 -0.1832 -0.0728
    1TCq1    O614084   1.460   4.142   1.251  0.0125  0.3174  0.4365
    1TCq1    H114085   1.165   4.511   0.826 -0.7401  2.1914 -3.2358
    1TCq1    H214086   1.442   4.275   1.038  1.1005  0.6968  2.0627
    1TCq1    H314087   1.165   4.365   1.340  1.5187  0.3965  0.2994
    1TCq1    H414088   1.143   4.583   0.978  0.0536  0.2737 -0.4066
    2MPD1     C14089   0.865   0.118   1.623  0.5281  0.1353 -0.7807
    2MPD1    C114090   0.996   0.084   1.653 -0.3940 -0.1848  0.0823
    2MPD1    C214091   1.058   4.718   1.564  0.1542  0.0471 -0.1617
    2MPD1    C314092   1.001   4.696   1.441 -0.4806 -0.0961 -0.1334
    2MPD1    C414093   0.876   0.016   1.408 -0.0407 -0.4918 -0.5600
    2MPD1    C514094   0.808   0.085   1.501 -0.0899  0.2692 -0.3296
    2MPD1     H14095   1.160   4.681   1.575  1.0298  2.1300 -1.0921
    2MPD1    H114096   0.818   4.712   1.320 -3.5739  0.2674  1.5013
    2MPD1    H214097   0.809   0.166   1.703  0.5511 -0.2628 -0.5222
    2MPD1    H314098   0.708   0.119   1.477  0.3537  0.9613 -1.1891
    2MPD1     N14099   1.072   4.602   1.354 -0.5097  0.4341  0.1711
    2MPD1    H514100   1.155   4.555   1.390 -0.3258 -0.4423 -1.3939
    2MPD1    N114101   1.051   0.107   1.779  0.1658  0.3483  0.5380
    2MPD1    H614102   1.152   0.096   1.768  0.1859  0.0899  1.0067
    2MPD1    H714103   1.045   0.201   1.818  1.7876  0.6129  0.1594
    1MPD1     C14104   1.013   1.939  12.263 -0.2265  0.2079 -0.4684
    1MPD1    C114105   1.098   1.943  12.152  0.0692 -0.2905  1.0160
    1MPD1    C214106   1.118   2.063  12.084 -0.2928 -0.4403 -0.0736
    1MPD1    C314107   1.045   2.173  12.124 -0.2456  0.8004  0.0297
    1MPD1    C414108   0.970   2.167  12.237 -0.5655  0.1732  0.6749
    1MPD1    C514109   0.948   2.047  12.295  0.1840  1.2798 -0.1042
    1MPD1     H14110   1.185   2.071  11.999  1.0697  0.1623  1.0528
    1MPD1    H114111   0.897   2.242  12.263  1.6470  1.9186  1.8141
    1MPD1    H214112   0.990   1.846  12.313  0.8346  0.7055  0.9308
    1MPD1    H314113   0.871   2.039  12.370 -0.7516 -1.5694 -1.3794
    1MPD1     N14114   1.070   2.300  12.064  0.3254 -0.2234  0.3740
    1MPD1    H514115   1.161   2.303  12.018 -0.2213 -0.4211 -0.7316
    1MPD1    N114116   1.184   1.836  12.127 -0.1400  0.4893  0.7949
    1MPD1    H614117   1.212   1.821  12.031  0.7789 -1.3209  1.3455
    1MPD1    H714118   1.129   1.757  12.160 -1.2059  0.9335  0.0663
    2MPD1     C14119   0.611   2.456  10.996  0.4419  0.0453 -0.1089
    2MPD1    C114120   0.656   2.343  10.942  0.0913 -0.4097  0.1244
    2MPD1    C214121   0.722   2.345  10.821  0.0780  0.3609  0.5447
    2MPD1    C314122   0.746   2.468  10.750 -0.0228 -0.5092 -0.6904
    2MPD1    C414123   0.719   2.584  10.822 -0.2062  0.2529 -0.2409
    2MPD1    C514124   0.650   2.578  10.942 -0.1819 -0.1131  0.3541
    2MPD1     H14125   0.745   2.250  10.775  1.0931  0.4932  0.7782
    2MPD1    H114126   0.727   2.676  10.764  1.1408  1.2533  1.4897
    2MPD1    H214127   0.554   2.464  11.088 -1.7167  0.5324 -1.4868
    2MPD1    H314128   0.627   2.668  10.999  3.2396  0.1923  1.2539
    2MPD1     N14129   0.819   2.481  10.631  0.2350 -0.3284 -0.2733
    2MPD1    H514130   0.850   2.571  10.596  0.2234 -0.7524 -1.3667
    2MPD1    N114131   0.616   2.225  11.009  0.8437 -0.0111 -0.1339
    2MPD1    H614132   0.575   2.250  11.099  0.0292 -2.6906  0.2339
    2MPD1    H714133   0.694   2.159  11.010 -0.4130 -1.5051 -1.0640
    3MPD1     C14134   1.328   2.104   9.727 -0.4602 -0.3931 -0.2558
    3MPD1    C114135   1.303   2.237   9.714  0.0345 -0.0837 -0.1139
    3MPD1    C214136   1.238   2.300   9.822 -1.2252  0.1284 -0.0432
    3MPD1    C314137   1.184   2.223   9.924 -0.9196 -0.1805  0.6879
    3MPD1    C414138   1.198   2.091   9.914  0.4853 -0.4507 -0.1229
    3MPD1    C514139   1.270   2.034   9.824  0.4469 -0.0489  0.3262
    3MPD1     H14140   1.225   2.407   9.820  1.0423  0.3966  0.0767
    3MPD1    H114141   1.160   2.027   9.993 -0.2210 -1.5015 -1.3285
    3MPD1    H214142   1.396   2.048   9.664  1.2868  0.1504  1.1243
    3MPD1    H314143   1.298   1.930   9.839  1.2759 -0.2200 -2.3663
    3MPD1     N14144   1.131   2.291  10.032  0.0587 -0.2119 -0.4266
    3MPD1    H514145   1.166   2.386  10.042  1.2736 -0.4589 -2.2474
    3MPD1    N114146   1.380   2.311   9.623  0.8639  0.1827 -0.0083
    3MPD1    H614147   1.337   2.399   9.595  0.6865  0.5786  1.4971
    3MPD1    H714148   1.401   2.252   9.543 -0.2050  1.3084 -1.1084
    4MPD2     C14149   0.956   2.799  11.460 -0.4643  0.5119  0.1098
    4MPD2    C114150   1.075   2.793  11.539  0.7351 -0.3388  0.2783
    4MPD2    C214151   1.194   2.806  11.475  0.0047  0.6617  0.4910
    4MPD2    C314152   1.193   2.828  11.337 -0.6289 -0.0037  0.1128
    4MPD2    C414153   1.078   2.834  11.269 -0.3179 -0.8589  0.1387
    4MPD2    C514154   0.956   2.818  11.330 -0.1903  0.1150 -0.1239
    4MPD2     H14155   1.286   2.796  11.530 -0.5689 -3.5043  0.7197
    4MPD2    H114156   1.075   2.856  11.163 -0.5696  1.8546  0.7242
    4MPD2    H214157   0.862   2.784  11.510  0.0167  0.9833  1.1592
    4MPD2    H314158   0.868   2.808  11.267  0.2580 -2.3893 -0.3533
    4MPD2     N14159   1.308   2.839  11.252 -0.0901  0.5203  0.2435
    4MPD2    H514160   1.293   2.860  11.153 -0.1891 -2.0923 -0.2863
    4MPD2    N114161   1.076   2.773  11.674 -0.0916  0.3009 -0.4114
    4MPD2    H714162   1.167   2.768  11.717 -0.2456 -1.5036 -0.2738
    5TMC3    C114163   1.019   2.721  11.887  0.5381 -0.2304 -0.5723
    5TMC3    C214164   0.959   2.606  11.932 -0.4051 -0.4265 -0.4096
    5TMC3    C314165   1.051   2.515  11.983 -0.3726 -0.2065 -0.1532
    5TMC3    C414166   1.150   2.752  11.903 -0.0791  0.1867  0.8214
    5TMC3    C514167   1.235   2.653  11.940  0.5711 -0.2185 -0.0101
    5TMC3    C614168   1.188   2.532  11.985  0.4227  0.0382 -0.2449
    5TMC3     C14169   0.968   2.758  11.760 -0.6897  0.2682  0.0659
    5TMC3     O14170   0.850   2.733  11.734  0.1029  0.7130 -0.2372
    5TMC3     H14171   0.855   2.577  11.920  0.0130 -1.8848 -0.5625
    5TMC3    H114172   1.187   2.852  11.878  1.0129 -0.6013 -0.7545
    5TMC3    H214173   1.258   2.472  12.042 -1.4934 -1.3267  0.6805
    5TMC3    C714174   1.356   2.655  11.866  0.0857 -0.6507  0.0354
    5TMC3    C814175   0.991   2.410  12.062 -0.6153 -0.8966 -0.3382
    5TMC3    O114176   1.373   2.755  11.797 -0.1127  0.2581  0.1257
    5TMC3    O214177   0.891   2.439  12.122 -0.6205 -0.5066  0.2742
    6TMC3    C114178   0.922   2.420  10.427 -0.7995 -0.8399  0.2352
    6TMC3    C214179   0.929   2.331  10.318 -0.7464  0.1127  0.1543
    6TMC3    C314180   1.048   2.324  10.249  0.1643  0.9782  0.0163
    6TMC3    C414181   1.032   2.501  10.452 -0.4233  0.3909 -0.6170
    6TMC3    C514182   1.143   2.499  10.376 -0.0599  0.0383 -0.6473
    6TMC3    C614183   1.148   2.414  10.273 -0.0910 -0.7421 -0.0386
    6TMC3     C14184   0.862   2.369  10.550 -0.0366 -0.0750 -0.3538
    6TMC3     O14185   0.826   2.253  10.554 -0.5734 -0.0972  0.1412
    6TMC3     H14186   0.855   2.252  10.313  1.1262 -1.5565 -0.7374
    6TMC3    H114187   1.033   2.564  10.541 -0.3080 -1.6257  0.8180
    6TMC3    H214188   1.243   2.407  10.220  0.5768 -0.9224  1.1851
    6TMC3    C714189   1.264   2.518  10.448 -0.4507 -0.1226 -0.0242
    6TMC3    C814190   1.058   2.235  10.135  0.1342  0.4769  1.1676
    6TMC3    O114191   1.262   2.622  10.509  0.0106  0.5951 -0.0711
    6TMC3    O214192   1.001   2.125  10.132 -0.2291 -0.3478 -0.1132
    7MPD2     C14193   1.685   2.408  11.558 -0.2173 -0.6392 -0.2853
    7MPD2    C114194   1.638   2.538  11.554  0.8362  0.1824  0.0485
    7MPD2    C214195   1.557   2.589  11.657 -0.6827 -0.6731 -0.7804
    7MPD2    C314196   1.518   2.507  11.754  0.6104  0.4471 -0.2180
    7MPD2    C414197   1.574   2.384  11.765  0.0050  0.5408  0.1443
    7MPD2    C514198   1.651   2.336  11.663  0.4501  0.0152 -0.0130
    7MPD2     H14199   1.512   2.687  11.644  0.9225 -0.1657 -2.4540
    7MPD2    H114200   1.545   2.326  11.852 -1.3263  0.0665 -0.6074
    7MPD2    H214201   1.733   2.357  11.475  2.3491  1.3964 -0.0474
    7MPD2    H314202   1.673   2.230  11.660 -1.3235 -0.3645  0.2453
    7MPD2     N14203   1.423   2.539  11.855  0.4283 -0.6781  0.4010
    7MPD2    H514204   1.386   2.455  11.898 -0.7430 -1.3286 -1.9073
    7MPD2    N114205   1.654   2.608  11.434  0.6162  0.0767  0.7628
    7MPD2    H714206   1.605   2.697  11.430 -1.5522 -1.0995  0.9078
    8TMC3    C114207   1.690   2.649  11.212  0.3656 -0.0139 -0.4754
    8TMC3    C214208   1.633   2.574  11.115 -0.2556 -0.4093 -0.3003
    8TMC3    C314209   1.549   2.654  11.038  0.4888 -0.0435 -0.5290
    8TMC3    C414210   1.647   2.774  11.256  0.2084 -0.4165  0.5101
    8TMC3    C514211   1.532   2.827  11.201  0.0210 -0.2179  0.1033
    8TMC3    C614212   1.495   2.779  11.077  0.1884  0.1234  0.3891
    8TMC3     C14213   1.730   2.569  11.323 -0.6219 -0.1412 -0.8186
    8TMC3     O14214   1.786   2.463  11.294  0.4891  0.0556  0.2204
    8TMC3     H14215   1.651   2.468  11.107  1.0671 -0.1899 -0.2267
    8TMC3    H114216   1.689   2.824  11.342  2.4401 -2.2021  0.4415
    8TMC3    H214217   1.403   2.822  11.039  1.2102 -0.9317 -3.3377
    8TMC3    C714218   1.433   2.849  11.307  0.0522  0.2479 -0.0294
    8TMC3    C814219   1.505   2.602  10.914  0.4599 -0.1034  0.5236
    8TMC3    O114220   1.473   2.847  11.423 -0.4554  0.3184 -0.1653
    8TMC3    O214221   1.399   2.656  10.880 -0.7609 -0.1388  0.4589
    9MPD2     C14222   1.652   2.329  10.715  0.5958 -0.1450 -0.0766
    9MPD2    C114223   1.562   2.434  10.742 -0.3605 -0.4467 -0.7287
    9MPD2    C214224   1.464   2.463  10.655 -0.2688 -0.1518 -0.0004
    9MPD2    C314225   1.429   2.372  10.555  0.0638 -0.0805 -0.6285
    9MPD2    C414226   1.500   2.260  10.542  0.4598  0.5120  0.6071
    9MPD2    C514227   1.617   2.252  10.608 -0.1879  0.3638 -0.0731
    9MPD2     H14228   1.405   2.553  10.671  1.8529  1.2542 -0.1005
    9MPD2    H114229   1.488   2.188  10.462  0.4647  0.8660  0.2881
    9MPD2    H214230   1.737   2.315  10.781 -0.0131  0.3773  0.8098
    9MPD2    H314231   1.669   2.157  10.600 -0.0473  0.4941 -0.6716
    9MPD2     N14232   1.323   2.395  10.467  0.2080 -0.7058 -0.1676
    9MPD2    H514233   1.297   2.312  10.415 -1.8160 -0.7378  0.8992
    9MPD2    N114234   1.587   2.507  10.860 -0.0697 -0.1535  0.3277
    9MPD2    H714235   1.676   2.490  10.905  0.2778 -0.9115 -0.6312
    1MPD1     C14236   1.026   1.481  16.910  0.7447 -0.3514  0.5335
    1MPD1    C114237   1.044   1.344  16.887  0.4567 -0.0791 -0.8483
    1MPD1    C214238   1.020   1.286  16.763 -0.2647  0.1767 -1.1520
    1MPD1    C314239   0.980   1.365  16.656 -0.0831  0.1135 -0.3190
    1MPD1    C414240   0.977   1.508  16.675  0.3424 -0.0056 -0.2727
    1MPD1    C514241   1.001   1.556  16.798 -0.2992 -0.0180 -0.1845
    1MPD1     H14242   1.018   1.178  16.750 -0.5891 -0.3578  3.2451
    1MPD1    H114243   0.954   1.580  16.596  0.7467 -1.7385 -1.9570
    1MPD1    H214244   1.020   1.526  17.009 -2.8554  0.6801 -0.1677
    1MPD1    H314245   0.992   1.664  16.806 -1.0592 -0.0661 -0.3889
    1MPD1     N14246   0.959   1.316  16.522  0.0622  0.0348 -0.2893
    1MPD1    H514247   0.917   1.382  16.458 -1.4752 -0.5830  0.0837
    1MPD1    N114248   1.074   1.260  16.989  0.4024  0.7878 -0.1027
    1MPD1    H614249   1.110   1.174  16.947  1.5281  1.2350 -0.0364
    1MPD1    H714250   1.153   1.305  17.034  1.1117  0.1214 -0.6747
    2MPD1     C14251   1.138   0.471  15.857  0.0775 -0.0705  0.5530
    2MPD1    C114252   1.008   0.518  15.846 -0.1962  0.2038 -0.0996
    2MPD1    C214253   0.978   0.648  15.890  0.4796  0.2980  0.9465
    2MPD1    C314254   1.076   0.715  15.963 -0.1181 -0.2336  0.2062
    2MPD1    C414255   1.207   0.663  15.975  0.0200  0.0825 -0.5083
    2MPD1    C514256   1.236   0.548  15.915 -0.1132 -0.2152 -0.8020
    2MPD1     H14257   0.878   0.688  15.873  0.5789 -0.0874 -0.5509
    2MPD1    H114258   1.278   0.720  16.035 -0.0422  1.5228 -1.8148
    2MPD1    H214259   1.157   0.375  15.812  2.0750 -0.2785  1.8403
    2MPD1    H314260   1.341   0.523  15.912  0.8568  3.9551 -0.7800
    2MPD1     N14261   1.033   0.840  16.008  0.0415  0.1991  0.0228
    2MPD1    H514262   0.944   0.881  15.981 -0.4224  0.4308  1.8656
    2MPD1    N114263   0.908   0.434  15.800 -0.7598 -0.1585 -0.0544
    2MPD1    H614264   0.943   0.363  15.737  1.0514 -1.6870  2.6627
    2MPD1    H714265   0.839   0.495  15.757 -1.3095 -1.6498 -1.2589
    3TCq2    C114266   1.093   0.902  16.112 -0.0591 -0.0126 -1.1027
    3TCq2    O214267   1.171   0.849  16.191 -0.5922 -0.2150 -0.2838
    3TCq2    C214268   1.025   1.015  16.152 -0.0029  0.7326  0.2613
    3TCq2    C314269   0.909   1.055  16.089  0.3441 -0.3725 -0.5521
    3TCq2    C414270   0.839   1.165  16.140  0.2617  0.5622 -0.3492
    3TCq2    C514271   0.884   1.221  16.255  0.6050 -0.5710  0.0628
    3TCq2    C614272   0.996   1.178  16.328 -0.2221 -0.0475  0.2218
    3TCq2    C714273   1.070   1.074  16.267 -0.5778  0.2935  0.3106
    3TCq2    C814274   1.010   1.197  16.474 -0.5962  0.1257  0.6317
    3TCq2    O414275   1.077   1.110  16.533 -0.3524 -0.2356 -0.5700
    3TCq2    C914276   0.714   1.211  16.075  1.1201 -0.1017  0.8150
    3TCq2    O514277   0.665   1.139  15.980 -0.6370  0.3810 -0.0235
    3TCq2    O614278   0.644   1.297  16.130 -0.0392 -0.1508  0.0093
    3TCq2    H214279   0.863   1.020  15.997 -0.6093 -1.0894  0.2042
    3TCq2    H314280   0.831   1.304  16.300 -1.4202 -1.2475 -1.0988
    3TCq2    H414281   1.159   1.045  16.322  0.1936 -0.4501 -1.3677
    1TCq1    O114282   3.657   0.691  12.712  0.3868  0.5358  0.0608
    1TCq1    C114283   3.653   0.740  12.839  0.7522  0.2633 -0.1763
    1TCq1    O214284   3.621   0.852  12.877  0.4614  0.4909 -0.1633
    1TCq1    C214285   3.735   0.650  12.919  0.2571  0.1279  0.0275
    1TCq1    C314286   3.730   0.517  12.896 -0.0178 -0.5898  0.2343
    1TCq1    C414287   3.814   0.432  12.970 -0.7511  1.0541 -0.6247
    1TCq1    C514288   3.910   0.483  13.057 -0.3041  0.6177  0.4556
    1TCq1    C614289   3.916   0.619  13.076  0.1731 -0.7652  0.4912
    1TCq1    C714290   3.828   0.707  13.002  0.3880  0.5894  0.8524
    1TCq1    C814291   3.995   0.676  13.184  0.5607 -0.2955  0.1987
    1TCq1    O414292   3.959   0.778  13.241 -0.0674  0.2955  0.3371
    1TCq1    C914293   3.798   0.291  12.945 -0.5397  0.1051  0.7460
    1TCq1    O514294   3.685   0.249  12.907  0.0589  0.5525  0.0833
    1TCq1    O614295   3.895   0.211  12.985 -0.9102  0.0283  0.4707
    1TCq1    H114296   3.714   0.611  12.706 -1.1277 -0.7507  2.8813
    1TCq1    H214297   3.651   0.467  12.841 -0.9163  1.3090 -0.2267
    1TCq1    H314298   3.962   0.407  13.113 -0.1212  1.5963  1.6032
    1TCq1    H414299   3.825   0.815  13.000 -0.2526  0.5394 -1.1439
    2MPD2     C14300   4.201   0.724  13.407 -0.1084  0.0402 -0.0229
    2MPD2    C114301   4.186   0.612  13.336 -0.2168 -0.4615 -0.2557
    2MPD2    C214302   4.264   0.510  13.372 -0.2306  0.2424 -0.5769
    2MPD2    C314303   4.351   0.514  13.480  0.0250  0.0029  0.3619
    2MPD2    C414304   4.369   0.632  13.552 -0.1929  0.1502  0.0975
    2MPD2    C514305   4.283   0.733  13.519  0.0338  0.3427 -0.7880
    2MPD2     H14306   4.253   0.419  13.314 -1.1469  0.7020 -1.1238
    2MPD2    H114307   4.442   0.647  13.631 -2.0390 -0.3940  1.8892
    2MPD2    H214308   4.148   0.812  13.372  0.6570  0.5540  0.1140
    2MPD2    H314309   4.275   0.829  13.569  1.1489 -0.5830  1.1466
    2MPD2     N14310   4.424   0.397  13.512 -0.4156 -0.3095 -0.1817
    2MPD2    H514311   4.427   0.319  13.447  0.4638  0.8644 -1.5767
    2MPD2    N114312   4.096   0.590  13.231 -0.1876  0.0677  0.0654
    2MPD2    H714313   4.103   0.502  13.181 -0.3288 -0.1591  0.4455
    3TCq1    O114314   4.528   0.002  13.282  0.0114 -0.1392 -0.0740
    3TCq1    C114315   4.615   4.682  13.377  0.1901 -0.0978 -0.4877
    3TCq1    O214316   4.655   4.566  13.380  0.0273  0.0990  0.0224
    3TCq1    C214317   4.622   0.038  13.500 -0.0672 -0.3425  0.1319
    3TCq1    C314318   4.648   4.708  13.619  0.2911 -0.0081  0.1953
    3TCq1    C414319   4.637   0.050  13.735 -0.1405 -0.2358  0.3093
    3TCq1    C514320   4.595   0.182  13.733  0.0497 -0.4599 -0.0757
    3TCq1    C614321   4.563   0.237  13.612 -0.3376  0.2854  0.5099
    3TCq1    C714322   4.578   0.168  13.493  0.3684 -0.1530  0.0680
    3TCq1    C814323   4.491   0.366  13.627 -0.0307 -0.3245  0.5208
    3TCq1    O414324   4.488   0.428  13.731 -0.1864 -0.0566 -0.0366
    3TCq1    C914325   4.688   4.713  13.862  0.0526 -0.0244 -0.9086
    3TCq1    O514326   4.694   0.063  13.968  0.1472  0.3649  0.8241
    3TCq1    O614327   0.022   4.604  13.845 -0.9193  0.6055  0.0062
    3TCq1    H114328   4.475   0.079  13.311 -1.6478 -0.5586 -2.0434
    3TCq1    H214329   4.694   4.610  13.626  2.8550  1.0904 -1.1152
    3TCq1    H314330   4.595   0.235  13.827 -0.8256  0.3813 -0.5579
    3TCq1    H414331   4.563   0.211  13.395  1.0288 -1.2704 -0.5242
    1MPD2     C14332   2.959   1.543  15.316 -0.3538 -0.6873  0.0262
    1MPD2    C114333   2.979   1.432  15.231  0.3035 -0.3059  0.1428
    1MPD2    C214334   3.082   1.345  15.264 -0.0631 -0.6008  0.7488
    1MPD2    C314335   3.156   1.368  15.380  0.1477  0.1062 -0.0760
    1MPD2    C414336   3.134   1.481  15.457  0.0904  0.2444  0.1408
    1MPD2    C514337   3.032   1.569  15.423  0.3342 -0.2847  0.6137
    1MPD2     H14338   3.114   1.264  15.199  0.4997  0.5154 -0.3735
    1MPD2    H114339   3.202   1.511  15.536 -0.1994 -1.6309  1.1143
    1MPD2    H214340   2.875   1.609  15.300  0.1033  0.1925  1.2856
    1MPD2    H314341   3.026   1.666  15.470 -0.2827 -1.6856  3.4765
    1MPD2     N14342   3.243   1.262  15.420  0.5024  0.2563  0.4638
    1MPD2    H514343   3.246   1.177  15.363  0.8659  0.9026 -0.4813
    1MPD2    N114344   2.890   1.406  15.121 -0.2838  0.6419 -0.2398
    1MPD2    H714345   2.827   1.484  15.107 -0.4599  0.3352 -1.1204
    2TMC3    C114346   2.848   1.316  14.909 -0.1732  0.3179 -0.1769
    2TMC3    C214347   2.885   1.199  14.832  0.3234  0.6047 -0.3322
    2TMC3    C314348   2.928   1.219  14.700  0.4853 -0.1353  0.4941
    2TMC3    C414349   2.840   1.432  14.848 -0.6358 -0.3016 -0.7172
    2TMC3    C514350   2.886   1.450  14.723  0.2677 -0.1766  0.4083
    2TMC3    C614351   2.925   1.344  14.642 -0.5365 -0.7228 -0.8144
    2TMC3     C14352   2.906   1.299  15.035  0.0826 -0.2693  0.0315
    2TMC3     O14353   2.951   1.185  15.052 -0.3047  0.1344 -0.0417
    2TMC3     H14354   2.887   1.096  14.867  1.8454  0.7056 -0.1564
    2TMC3    H114355   2.816   1.521  14.906 -1.4662 -0.6151 -0.5771
    2TMC3    H214356   2.958   1.352  14.539  1.2734 -2.8331 -0.4134
    2TMC3    C714357   2.889   1.580  14.666  0.1157  0.3267  0.0736
    2TMC3    C814358   3.055   1.163  14.680  0.5562 -0.2499 -0.1258
    2TMC3    O114359   2.794   1.648  14.691  0.1018  0.2807 -0.5948
    2TMC3    O214360   3.116   1.181  14.575 -0.4679  0.4340  0.0516
    3TCq1    O114361   3.890   2.242  14.838  0.4498 -0.1858  0.4435
    3TCq1    C114362   3.758   2.253  14.801 -0.1151 -0.6834  0.3377
    3TCq1    O214363   3.671   2.314  14.862  0.0018  0.3021  0.1854
    3TCq1    C214364   3.734   2.154  14.703  0.5060 -0.2785 -0.6166
    3TCq1    C314365   3.810   2.040  14.686 -0.1377 -0.5331 -0.5455
    3TCq1    C414366   3.768   1.944  14.600 -0.4963  0.3154 -0.0612
    3TCq1    C514367   3.635   1.943  14.555  0.1140 -0.4062 -0.2519
    3TCq1    C614368   3.556   2.047  14.590 -0.7742 -0.0860 -0.9924
    3TCq1    C714369   3.603   2.154  14.657 -0.1633  0.1120  0.1111
    3TCq1    C814370   3.416   2.050  14.563  0.2834 -0.2021 -0.3772
    3TCq1    O414371   3.354   2.157  14.564 -0.1097  0.0225  0.7172
    3TCq1    C914372   3.850   1.827  14.581  0.4551 -0.1976  0.6741
    3TCq1    O514373   3.797   1.731  14.519 -0.3126 -0.1024  0.4839
    3TCq1    O614374   3.954   1.809  14.651 -0.4005  1.0286 -0.1857
    3TCq1    H114375   3.940   2.223  14.756  2.8974  0.8422  1.7077
    3TCq1    H214376   3.908   2.035  14.731 -0.6277 -0.4497  0.5371
    3TCq1    H314377   3.602   1.862  14.492  1.5784 -0.5694 -0.8165
    3TCq1    H414378   3.538   2.237  14.683 -2.5204 -1.4590 -0.7930
    4MPD2     C14379   3.129   1.989  14.494 -0.1443 -0.0907  0.2648
    4MPD2    C114380   3.224   1.895  14.549  0.8327  0.2894  0.5060
    4MPD2    C214381   3.187   1.771  14.599  0.3523  0.6549  0.4499
    4MPD2    C314382   3.052   1.738  14.580  0.6893  0.7178  0.0507
    4MPD2    C414383   2.960   1.824  14.525 -0.0509 -0.5286  0.4036
    4MPD2    C514384   3.001   1.951  14.480 -0.9918  0.8266  0.4646
    4MPD2     H14385   3.256   1.699  14.641 -0.5456 -0.0009  0.8251
    4MPD2    H114386   2.855   1.805  14.503 -0.2771  0.2380  0.8286
    4MPD2    H214387   3.151   2.086  14.450  0.7766 -0.7500 -0.7128
    4MPD2    H314388   2.935   2.016  14.424 -0.7554  0.2736 -0.4555
    4MPD2     N14389   3.008   1.610  14.616  0.6154 -0.2995 -0.2394
    4MPD2    H514390   3.072   1.532  14.606 -0.3305 -1.2155  0.9080
    4MPD2    N114391   3.360   1.924  14.556  0.2458  0.2703  0.1245
    4MPD2    H714392   3.422   1.846  14.575 -1.5185 -0.7576  1.6420
    5TMC2    C114393   3.447   0.996  15.351  0.8741  0.6426  0.0783
    5TMC2    C214394   3.587   1.020  15.354 -0.1883 -0.4345  0.3246
    5TMC2    C314395   3.636   1.102  15.450  0.0473  0.5283  0.1458
    5TMC2    C414396   3.365   1.055  15.445 -0.8411  0.2531 -0.6434
    5TMC2    C514397   3.424   1.152  15.521  0.0434 -0.2447 -0.3883
    5TMC2    C614398   3.563   1.178  15.537  1.0063 -0.7096 -0.1759
    5TMC2     C14399   3.381   1.017  15.226 -0.0182  0.1495 -0.0048
    5TMC2     O14400   3.262   1.037  15.245 -0.4050 -0.5221 -0.2210
    5TMC2     H14401   3.652   0.966  15.286 -1.7770  0.4566 -1.8881
    5TMC2    H114402   3.261   1.027  15.454 -0.6760 -0.1502 -0.0046
    5TMC2    H214403   3.607   1.249  15.607 -0.4100  0.5418 -0.5503
    5TMC2    C714404   3.331   1.264  15.526 -0.1735 -0.1302 -0.4587
    5TMC2    C814405   3.779   1.148  15.434 -0.1304  0.4724 -0.0658
    5TMC2    O114406   3.355   1.358  15.602  0.1170 -0.3554 -0.1808
    5TMC2    O214407   3.851   1.128  15.338 -0.0383 -0.0839  0.2878
    5TMC2    O514408   3.821   1.196  15.550 -0.0996  0.5189  0.3776
    5TMC2    H514409   3.755   1.164  15.615  2.3621  1.0875  3.1778
    6MPD2     C14410   3.353   1.117  14.724 -0.1255  0.1957 -0.0451
    6MPD2    C114411   3.259   1.125  14.822  0.5240 -0.2292 -0.7894
    6MPD2    C214412   3.294   1.111  14.958 -0.0535 -1.1359 -0.0110
    6MPD2    C314413   3.425   1.065  14.992  0.2330 -0.1144 -0.1774
    6MPD2    C414414   3.518   1.049  14.888 -0.4650 -0.1951  0.6387
    6MPD2    C514415   3.478   1.078  14.763  0.0032 -0.2737 -0.0335
    6MPD2     H14416   3.217   1.133  15.031  0.1829  1.3224 -0.5144
    6MPD2    H114417   3.623   1.028  14.902 -0.0039  1.8943  0.3423
    6MPD2    H214418   3.324   1.128  14.620  0.0813 -1.7453 -0.3051
    6MPD2    H314419   3.552   1.086  14.684  0.8105  0.0008  0.7571
    6MPD2     N14420   3.466   1.026  15.119  0.5685 -0.3467  0.3772
    6MPD2    H514421   3.554   0.976  15.122 -0.2970 -1.9425 -1.5656
    6MPD2    N114422   3.122   1.159  14.802 -0.0560 -0.5365 -0.9326
    6MPD2    H714423   3.054   1.154  14.877  0.2225  0.8751 -0.5848
  945NH3     N114424   1.844   0.730  10.345  0.6196  0.6541 -0.6071
  945NH3     H214425   1.931   0.705  10.299 -0.6611 -0.6318 -2.3097
  945NH3     H314426   1.813   0.641  10.382  0.8504  1.2465  1.0154
  945NH3     H414427   1.870   0.777  10.431  3.0548  0.5537 -1.2887
  946SOD     NA14428   3.436   1.485  15.030 -0.1026  0.1876 -0.4504
  947SOD     NA14429   0.833   1.774  14.273 -0.1725 -0.2681  0.0878
  948SOD     NA14430   4.589   1.607  15.500 -0.4616 -0.0819 -0.3911
  949SOD     NA14431   4.485   4.217   2.393  0.0897  0.3012 -0.1185
  950SOD     NA14432   0.149   3.348  16.360 -0.1847 -0.0018 -0.1375
  951SOD     NA14433   0.103   1.596  12.757  0.4557  0.3596  0.3301
  952SOD     NA14434   4.335   0.032  11.925 -0.9760 -0.4457 -0.1846
  953SOD     NA14435   4.492   2.215   9.410 -0.2267  0.1450  0.4193
  954SOD     NA14436   3.944   3.795  10.938  0.1187 -0.7214  0.0823
  955SOD     NA14437   1.156   0.710  14.741 -0.0287 -0.4317  0.5395
  956SOD     NA14438   1.194   0.662   9.557 -0.3493  0.6232 -0.0866
  957SOD     NA14439   2.453   3.368  11.721  0.1062  0.2649 -0.0776
  958SOD     NA14440   3.722   0.611  11.315 -0.2531 -0.0952  0.1959
  959SOD     NA14441   0.228   0.332  14.154 -0.1877 -0.2694 -0.0596
  960SOD     NA14442   3.423   0.661   8.770  0.5544  0.1860 -0.6274
  961SOD     NA14443   4.172   1.302   0.635  0.2938 -0.2527  0.0177
  962SOD     NA14444   4.666   0.038  12.042 -0.4456 -0.2295  0.2361
  963SOD     NA14445   0.691   0.946  17.077  0.1440  0.1546  0.6021
  964SOD     NA14446   3.498   4.341  10.590  0.2404  0.3256  0.1383
  965SOD     NA14447   4.603   2.954   1.628 -0.3299 -0.6702 -0.3746
  966SOD     NA14448   3.642   1.613  14.433 -0.0691 -0.2021  0.4100
  967SOD     NA14449   0.939   0.564  14.931 -0.3745 -0.2088  0.0370
  968SOD     NA14450   2.863   0.300  15.588 -0.5312 -0.0032  0.2660
  969SOD     NA14451   2.871   1.435  10.954  0.0358  0.6550  0.0649
  970SOD     NA14452   2.369   4.473  10.391 -0.1288 -0.1315 -0.3389
  971SOD     NA14453   0.134   3.326  16.796 -0.3823  0.1202  0.4903
  972SOD     NA14454   3.608   4.718  11.685 -0.2307 -0.0516 -0.2032
  973SOD     NA14455   4.257   0.231  11.687  0.4962  0.1473  0.0901
  974SOD     NA14456   1.013   1.348  15.826 -0.6844 -0.0390  0.3139
  975SOD     NA14457   0.707   4.362   0.524  0.0213 -0.2827 -0.1034
  976SOD     NA14458   4.685   2.402   8.626 -0.0313  0.1804  0.2306
  977SOD     NA14459   1.673   4.407  13.161 -0.5661  0.3714 -0.3750
  978SOD     NA14460   4.463   4.590   1.676 -0.2983 -0.0272 -0.3576
  979SOD     NA14461   0.070   0.032  14.160  0.0434 -0.1794  0.0310
  980SOD     NA14462   1.403   2.996  11.837 -0.3635 -0.2161 -0.1591
  981SOD     NA14463   2.982   0.229  10.254  0.1018 -0.0754 -0.2699
  982SOD     NA14464   3.151   3.732  10.407 -0.1298  0.8101  0.0072
  983SOD     NA14465   0.929   0.591   7.247 -0.2707 -0.0571 -0.2793
  984SOD     NA14466   4.426   0.158  11.411 -0.4742  0.8215 -0.6124
  985SOD     NA14467   1.290   2.931   0.975  0.5043  0.2145  0.4010
  986SOD     NA14468   2.508   0.515  15.414 -0.5186  0.2329 -0.3617
  987SOD     NA14469   2.115   3.226  14.988 -0.4239 -0.1382 -0.1614
  988SOD     NA14470   0.140   2.380  12.113 -0.1693  0.1354 -0.2309
  989SOD     NA14471   2.979   2.103   3.584  0.1476  0.7440  0.2000
  990SOD     NA14472   2.291   0.484   4.200  0.0769 -0.0992 -0.0225
  991SOD     NA14473   0.857   0.621  14.652  0.0535 -0.4129 -0.2955
  992SOD     NA14474   0.170   1.364  12.552  0.4339  0.4522  0.2260
  993SOD     NA14475   4.342   0.870  10.776  0.0111 -0.3720 -0.4005
  994SOD     NA14476   3.654   3.006  12.439 -0.2422 -0.3052 -0.1856
  995SOD     NA14477   1.899   4.140   0.774 -1.0920 -0.0562  0.4451
  996SOD     NA14478   3.396   1.349   0.328  0.2718  0.0217  0.2377
  997SOD     NA14479   0.262   0.354   2.716  0.1358 -0.4940  0.0835
  998SOD     NA14480   4.626   1.784   5.267 -0.2564 -0.3304  0.4929
  999SOD     NA14481   0.601   3.936  13.162  0.3950 -0.3863  0.1180
 1000SOD     NA14482   0.406   4.720   8.980 -0.3362  0.3292 -0.0272
 1001SOD     NA14483   1.634   1.727   2.739 -0.4127  0.0788 -0.4392
 1002SOD     NA14484   3.551   1.918   2.024 -0.0843 -0.3656 -0.0924
 1003SOD     NA14485   3.382   4.063  10.350 -0.3321  0.0504 -0.3605
 1004SOD     NA14486   1.419   3.781  13.562  0.4687 -0.3034  0.0520
 1005SOD     NA14487   4.507   4.490  12.832 -0.0254  0.1638  0.1567
 1006SOD     NA14488   2.819   0.465  10.127  0.0706  0.5475 -0.3797
 1007SOD     NA14489   3.290   0.195  10.360 -0.3951 -0.3804 -0.1562
 1008SOD     NA14490   3.885   1.599  14.705  0.2726 -0.5656  0.0541
 1009SOD     NA14491   2.987   2.511   2.263 -0.0870  0.4718 -0.0649
 1010SOD     NA14492   2.874   3.827  10.290 -0.0629  0.0420  0.1292
 1011SOD     NA14493   3.145   2.081  10.232  0.1613 -0.1300  0.4032
 1012SOL     OW14494   1.910   2.272   8.287 -0.0678 -0.2343  0.1656
 1012SOL    HW114495   1.999   2.308   8.287 -1.1461  2.4836 -2.4395
 1012SOL    HW214496   1.870   2.315   8.362  0.4304  0.0587  0.2596
 1013SOL     OW14497   0.016   1.174   4.558  0.0275 -0.2356  0.6362
 1013SOL    HW114498   4.715   1.150   4.468  0.0389 -2.7014  1.2744
 1013SOL    HW214499   0.107   1.145   4.560  0.4264  0.7590 -2.1472
 1014SOL     OW14500   4.350   1.182   5.422  0.3855 -0.3091  0.5326
 1014SOL    HW114501   4.424   1.169   5.482  0.4831  1.2401  0.7382
 1014SOL    HW214502   4.290   1.132   5.477  0.1373  0.0132  0.5466
 1015SOL     OW14503   1.329   0.295   8.096  0.0031  0.0041 -0.2479
 1015SOL    HW114504   1.264   0.271   8.162 -1.3157  1.2164 -1.1094
 1015SOL    HW214505   1.394   0.332   8.156  0.1706 -2.0351  0.8266
 1016SOL     OW14506   1.347   0.623  13.688  0.3528  0.1636 -0.4621
 1016SOL    HW114507   1.379   0.686  13.623 -0.7789  1.9144  0.6570
 1016SOL    HW214508   1.430   0.592  13.725 -0.8174 -1.5498  0.7069
 1017SOL     OW14509   1.098   1.149  15.857 -0.4448  0.3620 -0.3243
 1017SOL    HW114510   1.056   1.076  15.812 -1.9247  1.2197 -0.3553
 1017SOL    HW214511   1.180   1.107  15.880 -1.2249 -0.8613  0.2085
 1018SOL     OW14512   0.701   1.628   8.398 -0.1393 -0.2657 -0.2873
 1018SOL    HW114513   0.627   1.671   8.356 -0.1368  0.7258  0.7291
 1018SOL    HW214514   0.690   1.539   8.363  0.2913 -0.3355 -0.2503
 1019SOL     OW14515   3.301   2.719   5.746  0.1764  0.7144 -0.1126
 1019SOL    HW114516   3.216   2.751   5.777 -0.8140 -1.8479 -0.1602
 1019SOL    HW214517   3.278   2.629   5.767 -0.5585  0.7827 -0.6164
 1020SOL     OW14518   0.590   2.217   8.637 -0.0966  0.3627  0.0600
 1020SOL    HW114519   0.558   2.148   8.578  0.2085  1.2955 -1.1991
 1020SOL    HW214520   0.682   2.191   8.647 -0.4139 -0.8347 -0.0622
 1021SOL     OW14521   2.175   2.367  12.671  0.0269 -0.2384  0.1049
 1021SOL    HW114522   2.087   2.347  12.640 -0.0390  0.7297 -0.3264
 1021SOL    HW214523   2.207   2.387  12.583  0.3404  0.7267  0.4407
 1022SOL     OW14524   4.227   2.612   4.171  0.0874 -0.2425  0.5784
 1022SOL    HW114525   4.233   2.707   4.174  0.5065 -0.2564  0.1195
 1022SOL    HW214526   4.152   2.597   4.113  1.5135 -1.9593 -0.8471
 1023SOL     OW14527   1.469   4.571   4.569 -0.3092 -0.0640  0.1007
 1023SOL    HW114528   1.413   4.494   4.584 -1.0219  0.4375  0.0127
 1023SOL    HW214529   1.429   4.630   4.633  1.0253 -0.1055  0.9604
 1024SOL     OW14530   1.859   0.865   3.174  0.1233  0.3254  0.2939
 1024SOL    HW114531   1.939   0.917   3.188  0.4413  0.6206 -2.5139
 1024SOL    HW214532   1.808   0.911   3.107 -1.0596  0.4816  1.3092
 1025SOL     OW14533   2.353   0.997   8.068  0.1982 -0.1892 -0.0825
 1025SOL    HW114534   2.442   1.033   8.073  0.0077  0.4012 -0.9058
 1025SOL    HW214535   2.351   0.978   7.974 -0.5351  2.7626 -0.6727
 1026SOL     OW14536   3.747   0.017   3.647 -0.1297 -0.6680 -0.2305
 1026SOL    HW114537   3.706   0.095   3.609 -0.7674 -0.6843  0.4229
 1026SOL    HW214538   3.827   0.009   3.595 -1.0215 -0.7438 -1.6049
 1027SOL     OW14539   2.549   0.521   7.913  0.7141  0.2058 -0.3806
 1027SOL    HW114540   2.612   0.483   7.974 -0.2583 -0.6555  0.0822
 1027SOL    HW214541   2.466   0.485   7.943  1.3925  0.0400  1.3019
 1028SOL     OW14542   2.651   4.155   1.995 -0.2927 -0.0522  0.4865
 1028SOL    HW114543   2.637   4.216   1.922 -0.2285 -0.2740  0.2864
 1028SOL    HW214544   2.587   4.089   1.969  0.2982 -0.6342  0.5162
 1029SOL     OW14545   0.474   1.837   4.580 -0.1161 -0.0102  0.1616
 1029SOL    HW114546   0.414   1.763   4.583  0.2566 -0.3635 -1.0686
 1029SOL    HW214547   0.544   1.794   4.629 -1.1632 -0.8673  0.8831
 1030SOL     OW14548   1.663   0.300   0.794  0.2645 -0.1087  0.4226
 1030SOL    HW114549   1.733   0.285   0.729 -0.6410  0.1545 -0.6154
 1030SOL    HW214550   1.689   0.247   0.869 -1.3946  1.9388  2.4320
 1031SOL     OW14551   2.613   2.412  12.946  0.4412  0.3569 -0.3082
 1031SOL    HW114552   2.653   2.352  12.883  0.6710 -0.0421  0.2173
 1031SOL    HW214553   2.533   2.439  12.902 -1.1580 -1.6325  1.3397
 1032SOL     OW14554   4.261   0.006   1.276  0.4785  0.2918 -0.0426
 1032SOL    HW114555   4.218   0.076   1.325  1.3693 -1.1231  2.7502
 1032SOL    HW214556   4.314   0.065   1.221  1.6399  1.0174  1.8502
 1033SOL     OW14557   4.269   2.353  13.532 -0.4864  0.1146  0.5769
 1033SOL    HW114558   4.260   2.264  13.567 -2.3715  1.4818  3.5387
 1033SOL    HW214559   4.200   2.401  13.579  0.7644 -0.7585  3.2754
 1034SOL     OW14560   4.254   2.129  13.659 -0.1128  0.0414 -0.3792
 1034SOL    HW114561   4.284   2.102  13.746 -2.1368  1.5551  0.8023
 1034SOL    HW214562   4.187   2.063  13.638  0.8059 -0.5474 -1.4532
 1035SOL     OW14563   4.392   0.217   4.672  0.3869 -0.1454  0.7300
 1035SOL    HW114564   4.457   0.240   4.605  0.5179 -0.3061  0.8041
 1035SOL    HW214565   4.447   0.234   4.748 -0.8258  0.5583  1.4613
 1036SOL     OW14566   0.065   1.656   8.404  0.1376  0.0304  0.1454
 1036SOL    HW114567   0.079   1.695   8.491 -3.9184  1.6336  0.0340
 1036SOL    HW214568   0.108   1.574   8.430  0.0898  0.8677  2.9287
 1037SOL     OW14569   3.402   1.641   6.889  0.0345 -0.4081  1.0584
 1037SOL    HW114570   3.385   1.707   6.956 -3.2622 -1.8658  1.6454
 1037SOL    HW214571   3.393   1.558   6.936  0.6444 -1.0185  0.0866
 1038SOL     OW14572   1.889   0.919   9.384 -0.4927 -1.0023 -0.3508
 1038SOL    HW114573   1.950   0.919   9.458  0.6141 -0.9912 -1.2530
 1038SOL    HW214574   1.952   0.939   9.314  2.8090  1.2459  3.2992
 1039SOL     OW14575   2.572   0.144   3.457 -0.4294  0.1912  0.0152
 1039SOL    HW114576   2.483   0.148   3.422 -0.7336 -0.0743  0.7519
 1039SOL    HW214577   2.577   0.215   3.521 -0.5385 -0.4975  0.7896
 1040SOL     OW14578   0.980   3.952  16.910 -0.0448  0.1342  0.0600
 1040SOL    HW114579   1.048   3.901  16.865  2.4143  2.2243  1.4035
 1040SOL    HW214580   0.968   4.025  16.849  0.9707 -0.0113 -0.3190
 1041SOL     OW14581   4.242   3.138  17.580 -0.1309  0.4178 -0.5544
 1041SOL    HW114582   4.186   3.098  17.513 -0.2007  0.1224 -0.3199
 1041SOL    HW214583   4.298   3.194  17.526  1.0454 -0.3183 -0.0928
 1042SOL     OW14584   1.446   3.614   8.716 -0.1320  0.5338 -0.0450
 1042SOL    HW114585   1.365   3.632   8.668 -1.3818 -3.4792  0.4910
 1042SOL    HW214586   1.413   3.600   8.805  0.5831 -0.2003  0.1069
 1043SOL     OW14587   2.488   0.528  14.197  0.0538 -0.0109  0.2050
 1043SOL    HW114588   2.486   0.575  14.114 -1.4830  0.6928  0.6434
 1043SOL    HW214589   2.534   0.448  14.170  1.1918  0.7938 -0.2557
 1044SOL     OW14590   3.823   0.418  14.852  0.2308 -0.0006  0.2093
 1044SOL    HW114591   3.916   0.397  14.838  0.0004  0.3399 -1.8111
 1044SOL    HW214592   3.777   0.337  14.872 -0.1630 -0.6178 -3.1952
 1045SOL     OW14593   1.089   0.342  13.433 -0.0718 -0.4065 -0.0762
 1045SOL    HW114594   1.086   0.299  13.348 -3.8518  1.4948 -0.9203
 1045SOL    HW214595   1.162   0.402  13.416  1.3529 -1.9383  0.6780
 1046SOL     OW14596   2.966   2.086   0.252 -0.2100  0.0866  0.0232
 1046SOL    HW114597   2.937   2.147   0.321 -0.4415 -1.6441  1.4407
 1046SOL    HW214598   3.060   2.100   0.255 -0.2025 -0.4371  2.1716
 1047SOL     OW14599   2.379   0.500  11.929  0.0581 -0.4426  0.2452
 1047SOL    HW114600   2.327   0.482  12.006  1.7887 -3.1645  0.7825
 1047SOL    HW214601   2.460   0.530  11.971 -1.0100 -0.8209  2.5446
 1048SOL     OW14602   2.783   1.679   2.423  0.5669  0.0934  0.1765
 1048SOL    HW114603   2.730   1.759   2.425  0.3285 -0.0630  0.1077
 1048SOL    HW214604   2.824   1.692   2.337 -1.1175 -0.9569 -0.7690
 1049SOL     OW14605   2.866   2.633   8.196 -0.6432 -0.7297 -0.7690
 1049SOL    HW114606   2.855   2.589   8.280 -0.5206  1.9276  0.6446
 1049SOL    HW214607   2.818   2.712   8.222  1.7667  0.6381 -0.5070
 1050SOL     OW14608   0.236   3.187   3.884  0.1967  0.2268 -0.1951
 1050SOL    HW114609   0.263   3.278   3.872  0.4089  0.4924  2.3002
 1050SOL    HW214610   0.142   3.190   3.898  0.1285 -1.8508 -0.3241
 1051SOL     OW14611   1.674   2.347  17.625 -0.1397  0.5131 -0.2371
 1051SOL    HW114612   1.604   2.288  17.597 -1.3567  1.6342  0.4586
 1051SOL    HW214613   1.672   2.415  17.558 -1.1635 -0.7039 -1.4376
 1052SOL     OW14614   1.829   1.228   8.378 -0.3628  0.2185 -0.4405
 1052SOL    HW114615   1.889   1.220   8.303  2.0366 -0.6087  1.5578
 1052SOL    HW214616   1.782   1.305   8.348 -0.3949 -0.0724 -1.1572
 1053SOL     OW14617   0.496   1.047   5.588  0.2135  0.3673 -0.4800
 1053SOL    HW114618   0.444   0.966   5.589  0.2904  0.3198  0.0354
 1053SOL    HW214619   0.423   1.109   5.594 -0.4923 -0.6426  1.5200
 1054SOL     OW14620   3.556   4.209   2.297 -0.3458  0.4071  0.3602
 1054SOL    HW114621   3.526   4.119   2.283 -0.6812  0.8584 -1.8191
 1054SOL    HW214622   3.495   4.237   2.365 -0.7019 -2.2886  1.1578
 1055SOL     OW14623   0.534   0.762   5.127  0.0778  0.1575 -0.6428
 1055SOL    HW114624   0.538   0.759   5.031 -1.0557 -2.0013 -0.6182
 1055SOL    HW214625   0.511   0.854   5.134  0.2168  0.1403  0.0306
 1056SOL     OW14626   3.996   2.195   8.835 -0.0344  0.5050 -0.2423
 1056SOL    HW114627   3.953   2.126   8.784 -2.6924  2.2798 -0.4309
 1056SOL    HW214628   3.928   2.212   8.901  0.8788 -0.7106  1.0018
 1057SOL     OW14629   1.247   3.375   8.184  0.2417  0.0367  0.3127
 1057SOL    HW114630   1.304   3.431   8.132  0.5992 -0.9849 -0.4094
 1057SOL    HW214631   1.201   3.427   8.249  3.1055  0.6875  1.8108
 1058SOL     OW14632   0.486   1.478  16.021 -0.2088 -0.3566 -0.6112
 1058SOL    HW114633   0.556   1.434  16.070  0.0951 -1.3357 -1.9207
 1058SOL    HW214634   0.506   1.449  15.932  0.9767 -1.4510  0.0045
 1059SOL     OW14635   3.036   0.318   2.138  0.1415 -0.6474 -0.4199
 1059SOL    HW114636   2.995   0.284   2.058  0.5370  2.1419 -1.7888
 1059SOL    HW214637   3.049   0.241   2.193 -0.2256 -0.7935 -0.5360
 1060SOL     OW14638   2.599   2.995   2.619 -0.1563 -0.2333  0.1003
 1060SOL    HW114639   2.616   3.003   2.713  0.2797  1.1097 -0.0953
 1060SOL    HW214640   2.507   2.971   2.626 -0.8645  2.3472 -0.1179
 1061SOL     OW14641   1.579   2.649   5.077  0.4877 -0.4257  0.0109
 1061SOL    HW114642   1.600   2.556   5.064  0.8646 -0.7765  3.1267
 1061SOL    HW214643   1.638   2.690   5.013 -0.5074 -0.2900 -0.8289
 1062SOL     OW14644   1.174   3.603  16.171 -0.0666  0.0254 -0.0404
 1062SOL    HW114645   1.141   3.673  16.229  0.0092  1.1111 -1.3130
 1062SOL    HW214646   1.268   3.620  16.173 -0.3337  1.5685 -0.8792
 1063SOL     OW14647   0.419   4.266   5.667  0.2732 -0.2540 -0.7124
 1063SOL    HW114648   0.470   4.319   5.729 -0.7153 -0.4079  0.2394
 1063SOL    HW214649   0.369   4.204   5.721 -0.9427 -0.9879 -2.6929
 1064SOL     OW14650   4.591   2.048   4.839  0.0665  0.0237  0.1698
 1064SOL    HW114651   4.640   2.081   4.764  2.0564  1.4543  2.0839
 1064SOL    HW214652   4.501   2.077   4.825  0.8622  2.2454 -0.4869
 1065SOL     OW14653   3.321   4.001   9.128 -0.1547 -0.1100 -0.3512
 1065SOL    HW114654   3.290   3.936   9.192  1.6576 -0.8768 -0.2527
 1065SOL    HW214655   3.263   3.977   9.056 -0.1286 -0.9549 -0.0932
 1066SOL     OW14656   3.840   0.713  17.368  0.4570 -0.3770 -0.4249
 1066SOL    HW114657   3.826   0.681  17.457 -0.7577 -1.3610 -0.9642
 1066SOL    HW214658   3.928   0.747  17.381  0.3894 -1.0135  1.6006
 1067SOL     OW14659   0.332   3.505   6.796 -0.3554  0.2136 -0.0100
 1067SOL    HW114660   0.378   3.527   6.877  0.4054  0.8670 -0.6262
 1067SOL    HW214661   0.388   3.553   6.735  0.1532 -1.4885 -0.8815
 1068SOL     OW14662   2.579   0.728   4.210  0.4725  0.0286  0.7052
 1068SOL    HW114663   2.526   0.687   4.142  2.6112 -1.1881 -0.2329
 1068SOL    HW214664   2.661   0.679   4.203  0.5240  0.0706  1.0300
 1069SOL     OW14665   0.724   0.645   4.402  0.0806 -0.2956  0.1848
 1069SOL    HW114666   0.731   0.712   4.334 -0.8421 -2.0402 -1.6190
 1069SOL    HW214667   0.801   0.670   4.452 -0.3019  1.2085  0.0120
 1070SOL     OW14668   1.350   4.125   1.614 -0.6084 -0.2296 -0.1809
 1070SOL    HW114669   1.343   4.195   1.550  0.8426 -1.3993 -1.6190
 1070SOL    HW214670   1.276   4.069   1.591 -0.5041 -1.2132  1.8126
 1071SOL     OW14671   4.564   4.425   5.718  0.7127  0.2353  0.1047
 1071SOL    HW114672   4.587   4.412   5.625 -1.0067 -0.5166 -0.2157
 1071SOL    HW214673   4.504   4.499   5.715  0.6981  0.1773 -1.0993
 1072SOL     OW14674   3.723   3.201  12.348 -0.1184 -0.4558 -0.1721
 1072SOL    HW114675   3.811   3.195  12.309  0.5363 -0.2029  1.2800
 1072SOL    HW214676   3.698   3.289  12.322 -2.2234 -0.3624  2.2140
 1073SOL     OW14677   1.495   1.258   6.215 -0.3495  0.1174  0.0905
 1073SOL    HW114678   1.454   1.189   6.267 -0.3721  1.6839  2.1277
 1073SOL    HW214679   1.476   1.335   6.267  1.7191  1.8474 -1.7194
 1074SOL     OW14680   2.029   1.520   1.863  0.7362 -0.0156  0.6992
 1074SOL    HW114681   2.106   1.464   1.852  0.8455  0.4646 -0.8854
 1074SOL    HW214682   1.969   1.502   1.791  0.3807 -0.6144  1.1410
 1075SOL     OW14683   0.675   3.140   3.855 -0.7646  0.4750 -0.0707
 1075SOL    HW114684   0.719   3.075   3.799 -0.8454  1.7189 -1.5823
 1075SOL    HW214685   0.631   3.196   3.791  1.1331  1.7538 -0.2509
 1076SOL     OW14686   1.372   2.971  16.622 -0.5083  0.1433 -0.1093
 1076SOL    HW114687   1.284   2.935  16.614  0.6039 -2.1730 -1.9322
 1076SOL    HW214688   1.364   3.067  16.615 -0.9293  0.3235  2.5772
 1077SOL     OW14689   0.980   3.465   5.523  0.7070 -0.2042  0.1880
 1077SOL    HW114690   1.006   3.400   5.458  1.4228 -1.1767  1.4441
 1077SOL    HW214691   0.953   3.528   5.457  0.3875 -2.1000 -1.4788
 1078SOL     OW14692   4.226   3.709   1.867  0.4195  0.4281 -0.2675
 1078SOL    HW114693   4.222   3.804   1.861  0.1942  0.3633 -1.0619
 1078SOL    HW214694   4.162   3.679   1.804  1.3920  0.2157 -1.1589
 1079SOL     OW14695   0.135   4.134   5.225  0.9532 -0.0927  0.1863
 1079SOL    HW114696   0.151   4.125   5.319  0.5721  0.4641  0.3090
 1079SOL    HW214697   0.170   4.054   5.187 -2.1373 -1.8789  1.1418
 1080SOL     OW14698   0.335   4.440   7.198  0.4229  0.5340 -0.4590
 1080SOL    HW114699   0.384   4.442   7.280  0.3235 -1.6503 -0.3668
 1080SOL    HW214700   0.335   4.528   7.159  2.4221  0.5395 -0.4528
 1081SOL     OW14701   2.946   4.430  14.344 -0.2032 -0.4969 -0.2484
 1081SOL    HW114702   2.874   4.447  14.406  0.0109  2.2363 -0.7325
 1081SOL    HW214703   2.893   4.398  14.272 -0.4206 -0.9986  0.1376
 1082SOL     OW14704   3.990   1.700   1.997 -1.2993 -0.5441  0.6556
 1082SOL    HW114705   3.938   1.630   2.036 -1.3013 -0.6177  0.5212
 1082SOL    HW214706   4.063   1.649   1.962 -1.1438 -2.2640  3.5188
 1083SOL     OW14707   3.803   4.058   3.621 -0.3688  0.1527 -0.0460
 1083SOL    HW114708   3.787   4.145   3.658 -1.6799 -0.0575 -0.1093
 1083SOL    HW214709   3.797   4.087   3.531 -0.5145 -0.6532 -0.3005
 1084SOL     OW14710   1.739   1.724  11.885 -0.0968  0.1497  0.2115
 1084SOL    HW114711   1.787   1.645  11.861 -0.0411  0.4397 -0.6668
 1084SOL    HW214712   1.769   1.749  11.972 -1.0719  1.2193  0.2461
 1085SOL     OW14713   2.568   2.451   5.735 -0.4437  0.1363  0.1323
 1085SOL    HW114714   2.624   2.375   5.752 -0.4518  0.1266  0.1158
 1085SOL    HW214715   2.507   2.420   5.668  0.0521 -0.5107 -0.0195
 1086SOL     OW14716   2.447   2.347   8.730  0.1917 -0.5490 -0.4971
 1086SOL    HW114717   2.450   2.251   8.731 -1.0491 -0.5533  1.0984
 1086SOL    HW214718   2.368   2.362   8.782  1.0687 -0.7399  0.8877
 1087SOL     OW14719   4.105   3.547   6.182  0.4015  0.3307 -0.0945
 1087SOL    HW114720   4.112   3.511   6.093  1.5166  0.8586 -0.2207
 1087SOL    HW214721   4.073   3.480   6.242  2.9994  0.4738  1.4423
 1088SOL     OW14722   0.902   0.068   7.114 -0.1883  0.0398 -0.5817
 1088SOL    HW114723   0.938   4.706   7.135 -1.9049 -1.3447 -3.2636
 1088SOL    HW214724   0.973   0.122   7.150  0.6174 -1.4030 -0.0141
 1089SOL     OW14725   1.371   3.870   5.985 -0.2805  0.0446 -0.1123
 1089SOL    HW114726   1.444   3.812   6.006  0.0087  0.8229  1.0204
 1089SOL    HW214727   1.406   3.953   6.016 -0.4118 -0.4530  1.4147
 1090SOL     OW14728   1.319   2.603   1.213 -0.0190 -0.2042 -0.2763
 1090SOL    HW114729   1.379   2.672   1.186  0.3922  0.2384  1.7309
 1090SOL    HW214730   1.321   2.547   1.135  0.3851  0.9731 -1.1029
 1091SOL     OW14731   2.497   1.422  17.388  0.1591  0.4258 -0.1545
 1091SOL    HW114732   2.583   1.436  17.349  0.8489 -0.3497  1.0994
 1091SOL    HW214733   2.480   1.514  17.405  0.4039  0.2110  1.2377
 1092SOL     OW14734   3.042   1.991  10.450  0.1599 -0.0579  0.2861
 1092SOL    HW114735   2.970   1.975  10.390  1.3254  2.3564 -1.7604
 1092SOL    HW214736   2.998   2.047  10.514  1.4480 -0.5236  1.6080
 1093SOL     OW14737   3.327   3.230   9.667 -0.4615 -0.2484 -0.0612
 1093SOL    HW114738   3.287   3.210   9.583 -0.3812 -2.4479  0.4339
 1093SOL    HW214739   3.370   3.146   9.684 -0.3297 -0.0896  0.3963
 1094SOL     OW14740   3.513   0.220   5.884 -0.1801 -0.0186  0.2453
 1094SOL    HW114741   3.577   0.252   5.948  1.1109  1.2345 -1.6678
 1094SOL    HW214742   3.430   0.226   5.932 -0.3837  0.0766 -0.1239
 1095SOL     OW14743   3.474   2.361   1.814  0.5327 -0.0782  0.1518
 1095SOL    HW114744   3.566   2.377   1.795  0.6433  0.2703  1.0165
 1095SOL    HW214745   3.475   2.271   1.846  0.3059 -0.8039 -1.8313
 1096SOL     OW14746   2.282   2.817  15.538  0.2502 -0.1652 -0.4140
 1096SOL    HW114747   2.295   2.760  15.613 -0.2739 -2.4154 -2.0166
 1096SOL    HW214748   2.237   2.889  15.581  0.8336 -0.9068  1.4158
 1097SOL     OW14749   3.631   2.739   5.263  0.1674 -0.5778  0.0191
 1097SOL    HW114750   3.642   2.798   5.189  1.8757 -1.2080 -0.2346
 1097SOL    HW214751   3.564   2.782   5.317 -1.4292 -2.1259 -0.7470
 1098SOL     OW14752   0.273   2.598   1.776  0.2612  0.0839 -0.6815
 1098SOL    HW114753   0.341   2.578   1.841  1.1900 -2.2074 -2.3665
 1098SOL    HW214754   0.241   2.509   1.758 -0.5020  0.4169 -0.9602
 1099SOL     OW14755   4.316   3.778  13.955  0.6638 -0.1954 -0.0918
 1099SOL    HW114756   4.311   3.707  14.019  1.3524 -0.0636  0.0976
 1099SOL    HW214757   4.372   3.840  14.001 -0.6827  1.2161 -0.3588
 1100SOL     OW14758   1.832   3.228   8.033 -0.1751  0.4065 -0.2762
 1100SOL    HW114759   1.775   3.279   8.091  1.2680 -0.5185  1.9986
 1100SOL    HW214760   1.918   3.229   8.074 -0.0309 -1.5905 -0.5470
 1101SOL     OW14761   3.847   0.059   0.466 -0.0904 -0.3688 -0.0921
 1101SOL    HW114762   3.917   0.121   0.447  1.1550 -1.4496  1.0062
 1101SOL    HW214763   3.798   0.121   0.520  1.2811  0.9940 -0.4183
 1102SOL     OW14764   1.111   3.675   9.987  0.5204  0.3001  0.3641
 1102SOL    HW114765   1.086   3.748   9.931 -2.7647 -2.6784 -2.0641
 1102SOL    HW214766   1.205   3.667   9.972  0.6089  0.9133  0.6014
 1103SOL     OW14767   0.111   1.883   5.302  0.3125  0.1581 -1.0576
 1103SOL    HW114768   0.203   1.857   5.299 -0.0323 -1.3029  1.6136
 1103SOL    HW214769   0.098   1.911   5.392  2.9073 -1.8847 -0.0619
 1104SOL     OW14770   1.591   1.864   4.334 -0.1451  0.3890 -0.1216
 1104SOL    HW114771   1.646   1.942   4.326 -0.0267  0.5872  2.5692
 1104SOL    HW214772   1.543   1.852   4.252 -0.0229  0.8384 -0.2613
 1105SOL     OW14773   1.536   4.358  12.617 -0.0425 -0.4276 -0.1528
 1105SOL    HW114774   1.596   4.432  12.625  1.2394 -1.4506 -0.1188
 1105SOL    HW214775   1.545   4.338  12.524  0.4066 -1.4121  0.0957
 1106SOL     OW14776   4.085   0.678   3.671 -0.7427 -0.6620  0.1474
 1106SOL    HW114777   4.055   0.605   3.724 -1.5775 -0.0864  0.4765
 1106SOL    HW214778   4.163   0.645   3.626 -0.3905  0.2457  0.0747
 1107SOL     OW14779   2.183   2.651   7.526 -0.8767 -0.0303  0.5599
 1107SOL    HW114780   2.248   2.645   7.596  0.1745  1.4799 -0.2966
 1107SOL    HW214781   2.103   2.611   7.560 -0.8595 -0.6955 -0.1636
 1108SOL     OW14782   4.491   3.539   8.885 -0.3252  0.6152 -0.3990
 1108SOL    HW114783   4.488   3.578   8.972  0.0392  0.0867 -0.1554
 1108SOL    HW214784   4.532   3.604   8.826  2.2899 -0.6751 -0.0064
 1109SOL     OW14785   4.588   2.994   8.920  0.2784 -0.3335  0.1858
 1109SOL    HW114786   4.645   3.014   8.995 -0.0809  0.3217  0.2921
 1109SOL    HW214787   4.541   3.076   8.902 -0.1109 -0.5045  0.4177
 1110SOL     OW14788   4.119   3.465   0.971 -0.9090  0.5008 -0.0435
 1110SOL    HW114789   4.209   3.484   0.944 -0.5740 -0.7951  0.1554
 1110SOL    HW214790   4.072   3.535   0.925  0.3176  2.2266  1.3080
 1111SOL     OW14791   1.177   3.881   4.034 -0.4791 -0.4051 -0.4447
 1111SOL    HW114792   1.090   3.857   4.066  0.4634 -0.9126  1.7194
 1111SOL    HW214793   1.156   3.924   3.951 -1.8314  0.9046  0.5916
 1112SOL     OW14794   1.058   4.406   9.337 -0.4554  0.2492  0.2610
 1112SOL    HW114795   1.002   4.377   9.266 -1.6913  1.0797  0.9001
 1112SOL    HW214796   1.074   4.319   9.373  0.2990  0.9692  1.6844
 1113SOL     OW14797   2.727   2.203   8.232  0.5523 -0.1725  0.0676
 1113SOL    HW114798   2.774   2.243   8.304  0.9368 -2.2702  0.9808
 1113SOL    HW214799   2.637   2.205   8.265  0.6829 -0.3336  0.4239
 1114SOL     OW14800   2.897   1.323   4.597  0.3087 -0.5032 -0.4523
 1114SOL    HW114801   2.806   1.353   4.591  0.7903  1.1319  0.4463
 1114SOL    HW214802   2.884   1.236   4.560 -0.8042 -0.3551 -0.3894
 1115SOL     OW14803   0.158   1.129   0.038 -0.2942  0.0578 -0.0516
 1115SOL    HW114804   0.153   1.092  17.646  0.9929  1.7810 -0.8598
 1115SOL    HW214805   0.128   1.216   0.011  0.4960  0.7492  1.2997
 1116SOL     OW14806   1.320   1.912  10.511  0.0815 -0.1613 -0.0838
 1116SOL    HW114807   1.225   1.909  10.499  0.2129 -0.4807 -1.0576
 1116SOL    HW214808   1.328   1.892  10.604  3.9689 -1.7908 -0.7930
 1117SOL     OW14809   4.639   1.558  10.049 -0.1890 -0.4289 -0.2688
 1117SOL    HW114810   4.653   1.641  10.095  1.1278  0.0128 -1.5006
 1117SOL    HW214811   0.004   1.560  10.014 -0.0698  0.1867  0.0693
 1118SOL     OW14812   4.531   2.945   6.164 -0.5393  0.0219 -0.5684
 1118SOL    HW114813   4.540   2.968   6.256 -0.0739  1.4886 -0.9775
 1118SOL    HW214814   4.536   2.850   6.163 -2.3812 -0.0934  0.4061
 1119SOL     OW14815   4.159   0.649   7.000  0.4555 -0.1446  0.0669
 1119SOL    HW114816   4.173   0.556   6.985 -1.5260 -0.5286  0.6496
 1119SOL    HW214817   4.063   0.651   6.999  0.4879  2.7581  1.6654
 1120SOL     OW14818   3.908   3.037   6.965  0.4469 -0.0786 -0.3096
 1120SOL    HW114819   3.943   2.960   7.010 -0.8549 -0.0630  0.7262
 1120SOL    HW214820   3.914   3.010   6.873  0.9283  0.9517 -0.5804
 1121SOL     OW14821   0.894   0.995   8.439  0.1450  0.2485 -0.2600
 1121SOL    HW114822   0.904   0.903   8.467  1.9153 -0.2151 -2.4556
 1121SOL    HW214823   0.916   0.978   8.348  0.7919 -1.2505  0.1665
 1122SOL     OW14824   0.453   4.000   5.266  0.4306  0.6994  0.5254
 1122SOL    HW114825   0.470   4.076   5.209  0.7163  1.2379  1.3389
 1122SOL    HW214826   0.510   4.018   5.340  2.5398 -0.5019 -0.7959
 1123SOL     OW14827   2.290   1.996   1.074  0.0412  0.2642 -0.0527
 1123SOL    HW114828   2.383   1.984   1.059  0.4964  4.0289 -0.2757
 1123SOL    HW214829   2.266   1.903   1.064 -1.0624  0.2947  2.2867
 1124SOL     OW14830   3.854   4.197   4.459  0.1163  0.5221  0.4188
 1124SOL    HW114831   3.928   4.148   4.422 -0.2991  1.0959 -1.1576
 1124SOL    HW214832   3.855   4.160   4.547  0.6645 -1.8025 -0.5614
 1125SOL     OW14833   3.254   0.325   3.560  0.3207  0.2769  0.1391
 1125SOL    HW114834   3.217   0.370   3.483  0.7834  2.0429  0.9583
 1125SOL    HW214835   3.319   0.266   3.521 -1.6721 -0.2318 -2.4541
 1126SOL     OW14836   0.757   0.888  17.563  0.5870 -0.1552 -0.5877
 1126SOL    HW114837   0.760   0.794  17.543 -1.8786 -0.5757  1.0778
 1126SOL    HW214838   0.665   0.905  17.581  1.0592  2.3652 -0.6369
 1127SOL     OW14839   0.245   4.394   6.855  0.0428 -0.0065 -0.3329
 1127SOL    HW114840   0.190   4.327   6.815  0.5786 -0.2654 -0.6362
 1127SOL    HW214841   0.314   4.336   6.887  0.0277  0.5824  0.7718
 1128SOL     OW14842   4.484   3.858   1.296  0.0701 -0.1051 -0.4092
 1128SOL    HW114843   4.477   3.838   1.389  3.1475 -1.9967 -0.5763
 1128SOL    HW214844   4.398   3.898   1.283 -0.1985 -0.1179  1.3830
 1129SOL     OW14845   3.490   2.040   7.039  0.8546  0.2398 -0.1930
 1129SOL    HW114846   3.427   1.971   7.060 -0.1139  1.9365  2.3959
 1129SOL    HW214847   3.424   2.097   7.000 -0.5297  0.1570  2.0347
 1130SOL     OW14848   2.668   3.713   2.408 -0.0965 -0.1761  0.0953
 1130SOL    HW114849   2.721   3.765   2.469 -1.6131  0.1214  1.1619
 1130SOL    HW214850   2.640   3.784   2.351 -0.1881  0.6826  1.1927
 1131SOL     OW14851   2.364   1.118  10.490 -0.7273 -1.2085 -0.4778
 1131SOL    HW114852   2.323   1.073  10.416 -1.9739 -1.1899  0.2074
 1131SOL    HW214853   2.448   1.074  10.500  0.0107  0.4067  0.4876
 1132SOL     OW14854   4.093   2.210   8.176 -0.2291 -0.2206 -0.0008
 1132SOL    HW114855   4.098   2.117   8.199 -1.2502 -0.1834  0.3548
 1132SOL    HW214856   3.999   2.226   8.179 -0.7871 -3.7158  1.1426
 1133SOL     OW14857   4.582   2.039  10.765 -0.1706 -0.4787  0.5367
 1133SOL    HW114858   4.556   1.959  10.811  0.1888 -0.7005  0.3442
 1133SOL    HW214859   4.601   2.005  10.678  2.2451  2.0489  0.0686
 1134SOL     OW14860   1.892   1.043   2.143 -0.3271  0.1339 -0.0905
 1134SOL    HW114861   1.873   1.121   2.090 -1.2939 -0.3064 -0.4023
 1134SOL    HW214862   1.807   0.999   2.131 -1.0887  1.4000  0.6775
 1135SOL     OW14863   0.651   2.778   4.439 -0.4414 -0.1944 -0.2601
 1135SOL    HW114864   0.602   2.802   4.361  0.2613 -1.6547 -1.1482
 1135SOL    HW214865   0.595   2.799   4.514 -1.9797 -2.9775 -0.6377
 1136SOL     OW14866   3.185   0.479  11.237  0.3386  0.5583 -0.2493
 1136SOL    HW114867   3.113   0.421  11.264  1.6356  0.1992  2.4073
 1136SOL    HW214868   3.134   0.560  11.233  0.3390  0.6362  1.5222
 1137SOL     OW14869   2.394   3.837   8.167  0.2206 -0.0846 -0.2424
 1137SOL    HW114870   2.381   3.882   8.250 -2.5334 -0.5242 -0.4448
 1137SOL    HW214871   2.302   3.818   8.151  0.5471 -2.3906  0.5950
 1138SOL     OW14872   0.983   1.452   9.204 -0.2236 -0.6629  0.0111
 1138SOL    HW114873   0.945   1.399   9.274 -2.9366  0.0272 -0.9263
 1138SOL    HW214874   0.910   1.515   9.204  0.4305  0.0921 -1.1021
 1139SOL     OW14875   1.081   4.424   4.190  0.2118  0.0271  1.1163
 1139SOL    HW114876   1.018   4.460   4.127 -0.4923 -2.9742  0.1261
 1139SOL    HW214877   1.125   4.354   4.142 -1.1102  1.4957 -2.2611
 1140SOL     OW14878   1.799   2.273   7.381 -0.2403 -0.2496 -0.4353
 1140SOL    HW114879   1.753   2.351   7.351  1.7462  1.1596  0.1426
 1140SOL    HW214880   1.768   2.259   7.470  0.7531  0.5776  0.0360
 1141SOL     OW14881   0.862   2.951   5.160  0.5075  0.4120 -1.3902
 1141SOL    HW114882   0.899   2.948   5.248 -3.2606  1.4147  0.2226
 1141SOL    HW214883   0.901   2.873   5.121  0.1511 -0.8603  0.8074
 1142SOL     OW14884   3.641   2.903   6.553  0.0987 -0.1620 -0.4233
 1142SOL    HW114885   3.579   2.840   6.590 -0.8080  0.2705 -1.2187
 1142SOL    HW214886   3.726   2.865   6.575 -0.2452 -0.9864 -0.5204
 1143SOL     OW14887   1.979   3.678   2.192 -0.3231 -0.0949  0.3797
 1143SOL    HW114888   2.031   3.605   2.159  0.9470  0.1944  1.7620
 1143SOL    HW214889   1.981   3.740   2.119 -0.1252 -0.0135  0.4554
 1144SOL     OW14890   0.488   4.539   9.121  0.6092  0.0580  0.0434
 1144SOL    HW114891   0.489   4.460   9.069  0.7659 -0.3966  0.7319
 1144SOL    HW214892   0.579   4.529   9.149  0.5197 -1.9799 -0.4330
 1145SOL     OW14893   1.808   3.561   8.469  0.2949 -0.5098 -0.1334
 1145SOL    HW114894   1.790   3.653   8.484 -1.2704 -0.6805 -0.9456
 1145SOL    HW214895   1.892   3.548   8.513 -1.5008 -0.5964  3.2169
 1146SOL     OW14896   4.651   0.872   7.829 -0.0429 -1.0072  0.5227
 1146SOL    HW114897   4.671   0.942   7.767 -0.3397 -2.9610 -1.7734
 1146SOL    HW214898   4.686   0.798   7.779  2.4956  0.8850 -0.4879
 1147SOL     OW14899   0.547   1.081   3.478  0.1789 -0.2066  0.1961
 1147SOL    HW114900   0.465   1.081   3.428  0.6275 -1.1357 -0.5259
 1147SOL    HW214901   0.574   1.168   3.508  3.7814 -1.4044  0.4588
 1148SOL     OW14902   3.129   3.524  11.593 -0.0157 -0.0364  0.2460
 1148SOL    HW114903   3.095   3.598  11.543  2.4289  0.9675  0.0583
 1148SOL    HW214904   3.221   3.539  11.575  0.1405 -0.8480  0.3525
 1149SOL     OW14905   3.933   2.212   5.698 -0.5528 -0.0584 -0.5822
 1149SOL    HW114906   3.901   2.223   5.608 -0.9155  1.9477 -0.2236
 1149SOL    HW214907   3.963   2.303   5.702 -1.1370  0.0479  1.4430
 1150SOL     OW14908   4.196   2.442   0.165  0.0643  0.3021  0.2356
 1150SOL    HW114909   4.182   2.517   0.222 -0.0876  0.3460  0.1380
 1150SOL    HW214910   4.279   2.468   0.125 -0.2595 -0.2807 -0.8275
 1151SOL     OW14911   2.604   3.158  12.830  0.0259 -0.1182  0.0748
 1151SOL    HW114912   2.631   3.167  12.921  0.2400  2.0958 -0.2088
 1151SOL    HW214913   2.687   3.142  12.786  1.4505  0.9626  2.3842
 1152SOL     OW14914   2.756   4.397  17.398 -0.2387  0.0527  0.3348
 1152SOL    HW114915   2.737   4.421  17.489 -0.7095 -2.2729  0.8542
 1152SOL    HW214916   2.669   4.397  17.358  0.4559  0.8718 -1.1868
 1153SOL     OW14917   3.638   3.111  16.951  0.7039  0.0770  0.6813
 1153SOL    HW114918   3.723   3.115  16.995  0.3092 -1.1471  1.5759
 1153SOL    HW214919   3.601   3.029  16.984  0.8712 -0.5271 -0.6328
 1154SOL     OW14920   2.955   2.990   5.559 -0.2243  0.1153 -0.4766
 1154SOL    HW114921   2.882   3.015   5.503 -1.9888 -0.9614  1.3396
 1154SOL    HW214922   3.013   3.065   5.552  1.3136 -0.9690  0.5927
 1155SOL     OW14923   3.579   0.061   9.994  0.3116  0.4105 -0.2030
 1155SOL    HW114924   3.662   0.036   9.954  1.1324 -1.6265  2.8434
 1155SOL    HW214925   3.568   0.153   9.968  1.2651  0.2498 -1.1438
 1156SOL     OW14926   0.501   3.710   9.594 -0.5928 -0.1053 -0.4344
 1156SOL    HW114927   0.463   3.758   9.667  1.0208 -0.2638  0.5121
 1156SOL    HW214928   0.428   3.712   9.532 -0.1798  1.9200 -0.8855
 1157SOL     OW14929   0.646   3.238   2.142 -0.0054  0.0022  0.4862
 1157SOL    HW114930   0.712   3.171   2.126 -0.9695 -1.1768  1.4852
 1157SOL    HW214931   0.573   3.196   2.187  0.4005 -1.4772 -0.2347
 1158SOL     OW14932   2.097   4.586  15.293 -0.0142 -0.6147 -0.0974
 1158SOL    HW114933   2.134   4.668  15.259  0.0441 -0.3177  0.6788
 1158SOL    HW214934   2.174   4.530  15.280 -0.6790 -1.9239  1.5921
 1159SOL     OW14935   0.278   3.828   3.842  0.0289 -0.3045  0.1439
 1159SOL    HW114936   0.330   3.768   3.789  0.4026 -0.3915  0.6116
 1159SOL    HW214937   0.345   3.894   3.859  0.2415 -0.3304 -0.5939
 1160SOL     OW14938   3.487   1.495   0.815  0.1439 -0.1225 -0.8749
 1160SOL    HW114939   3.457   1.405   0.807 -0.2651 -0.0584 -0.0469
 1160SOL    HW214940   3.439   1.544   0.748  1.1737 -1.9767 -2.9839
 1161SOL     OW14941   4.224   3.804   4.967  0.0042  0.1352  0.2013
 1161SOL    HW114942   4.258   3.874   4.911 -1.6561 -0.5251 -1.6322
 1161SOL    HW214943   4.136   3.835   4.988  0.2613 -0.3188  1.8931
 1162SOL     OW14944   3.538   1.885   7.726 -0.6232 -0.1202 -0.2677
 1162SOL    HW114945   3.548   1.921   7.638  0.5626 -1.2006 -0.5728
 1162SOL    HW214946   3.544   1.790   7.721 -0.5370  0.0289 -2.9574
 1163SOL     OW14947   2.485   0.597   7.644 -0.0183  0.4076 -0.3177
 1163SOL    HW114948   2.523   0.579   7.730  1.3148  0.4869 -0.8908
 1163SOL    HW214949   2.407   0.542   7.641  0.4509 -0.2906  0.5995
 1164SOL     OW14950   4.661   4.328   6.227 -0.3834  0.1793 -0.2326
 1164SOL    HW114951   4.600   4.380   6.174 -0.1698  2.9376  2.2512
 1164SOL    HW214952   4.608   4.268   6.279 -2.7290  0.6512 -2.1049
 1165SOL     OW14953   3.849   2.875   9.036  0.0436 -0.0677 -0.3288
 1165SOL    HW114954   3.813   2.930   9.105 -1.1323  2.0346 -2.6428
 1165SOL    HW214955   3.929   2.846   9.080  1.9182  3.6441 -1.3313
 1166SOL     OW14956   0.726   1.940   2.533  0.3359 -0.6989 -0.0027
 1166SOL    HW114957   0.739   2.010   2.469  0.7928 -1.3482 -0.6186
 1166SOL    HW214958   0.815   1.909   2.552  0.5928  0.2481  0.3548
 1167SOL     OW14959   0.993   1.739   6.996 -0.1097  0.4760 -0.2615
 1167SOL    HW114960   1.052   1.664   6.999 -2.5138 -1.3383  1.1587
 1167SOL    HW214961   1.049   1.809   7.031  1.1364 -0.4645 -0.3616
 1168SOL     OW14962   1.479   0.114   7.696  0.1126 -0.0899  0.0553
 1168SOL    HW114963   1.465   0.031   7.650 -0.3131 -0.2965  0.5577
 1168SOL    HW214964   1.566   0.107   7.735 -0.7917 -0.3889  2.0431
 1169SOL     OW14965   2.891   0.244   8.845  0.2643 -0.0111  0.5830
 1169SOL    HW114966   2.808   0.201   8.824 -0.5981  0.8261  2.2477
 1169SOL    HW214967   2.919   0.185   8.916 -0.9852  1.5743  2.4056
 1170SOL     OW14968   4.146   2.993   1.568  0.1870  0.0339 -0.0336
 1170SOL    HW114969   4.133   3.006   1.474  0.6943  0.9872  0.0328
 1170SOL    HW214970   4.083   3.053   1.608  0.9905 -0.1179  1.4729
 1171SOL     OW14971   2.533   2.765   6.407 -0.2775 -0.1549  0.3282
 1171SOL    HW114972   2.466   2.802   6.465 -1.7070 -1.0884 -0.7256
 1171SOL    HW214973   2.590   2.717   6.467 -1.8917  0.8448  2.6553
 1172SOL     OW14974   1.683   0.454   2.292 -0.1027  0.1412  0.3242
 1172SOL    HW114975   1.653   0.365   2.277  1.4167 -0.7745  2.6540
 1172SOL    HW214976   1.777   0.444   2.276 -0.3191 -0.6185 -0.4519
 1173SOL     OW14977   0.549   2.199   2.411  0.3596 -0.5112  0.5447
 1173SOL    HW114978   0.587   2.272   2.460 -2.0573  1.5138 -0.5878
 1173SOL    HW214979   0.573   2.218   2.320  1.6263 -0.9307  0.7968
 1174SOL     OW14980   1.669   3.628   0.021  0.1197 -0.1812 -0.3613
 1174SOL    HW114981   1.645   3.553   0.074 -1.0869 -0.8463 -1.8430
 1174SOL    HW214982   1.683   3.700   0.083  1.8233 -0.3965 -0.5080
 1175SOL     OW14983   3.308   4.319   2.951 -0.4126  0.2137  0.2653
 1175SOL    HW114984   3.344   4.392   2.901  0.5642 -0.6730 -0.2960
 1175SOL    HW214985   3.394   4.289   2.981 -0.6108  0.2333  0.8638
 1176SOL     OW14986   2.037   3.126   6.638 -0.5257  0.1200  0.5238
 1176SOL    HW114987   1.971   3.188   6.670 -0.7441  0.6131 -0.8952
 1176SOL    HW214988   2.090   3.115   6.717  0.4645  0.0571 -0.1527
 1177SOL     OW14989   3.977   0.545   8.437 -0.7800  0.2471  0.3456
 1177SOL    HW114990   4.040   0.551   8.509  1.0804 -0.3455 -1.2524
 1177SOL    HW214991   3.943   0.635   8.438  1.8168  1.2434 -0.2191
 1178SOL     OW14992   2.062   2.809   4.541  0.3066  0.1461  0.4245
 1178SOL    HW114993   2.145   2.858   4.544  0.8355 -0.5415 -3.0141
 1178SOL    HW214994   1.996   2.875   4.519 -0.2855 -1.0937 -1.4816
 1179SOL     OW14995   2.359   0.764   8.257 -0.7327  0.1952  0.4607
 1179SOL    HW114996   2.279   0.721   8.228 -0.3174 -0.3904  0.1977
 1179SOL    HW214997   2.361   0.837   8.195 -1.6404 -0.8909 -0.8379
 1180SOL     OW14998   0.223   1.072   3.636  0.0212 -0.2084 -0.0204
 1180SOL    HW114999   0.159   1.018   3.590 -1.1368 -1.5734  3.2412
 1180SOL    HW215000   0.197   1.157   3.599  1.5826  0.3422  0.1314
 1181SOL     OW15001   4.688   1.991   0.231  0.3041  0.1840 -0.3491
 1181SOL    HW115002   0.000   1.915   0.186  2.9769 -0.1671  2.3225
 1181SOL    HW215003   4.624   1.952   0.291 -0.0711  0.1506 -0.7758
 1182SOL     OW15004   1.956   1.729   2.435 -0.0630 -0.0383  1.2084
 1182SOL    HW115005   1.967   1.672   2.359 -1.9746  0.6198  0.4420
 1182SOL    HW215006   2.048   1.755   2.442 -0.5042  1.5905  0.9606
 1183SOL     OW15007   4.704   2.027   9.534  0.1224 -0.4711  0.5099
 1183SOL    HW115008   4.714   1.978   9.452  0.1906 -0.0420  0.2625
 1183SOL    HW215009   4.669   1.956   9.588 -1.0235  0.4236  0.9458
 1184SOL     OW15010   2.752   4.133   3.993  0.2009 -0.0042 -0.3599
 1184SOL    HW115011   2.760   4.116   4.087 -1.5295 -1.4547 -0.4609
 1184SOL    HW215012   2.662   4.165   3.994  0.1320 -0.2007 -0.2079
 1185SOL     OW15013   2.423   4.599  13.658 -0.1903  0.1519 -0.2424
 1185SOL    HW115014   2.386   4.671  13.607  0.3654  0.8386  0.3041
 1185SOL    HW215015   2.494   4.646  13.703  0.7615 -1.1780 -0.3557
 1186SOL     OW15016   3.634   4.062  17.088  0.5041 -0.4742  0.4673
 1186SOL    HW115017   3.554   4.110  17.068  1.1282 -0.1281 -1.1713
 1186SOL    HW215018   3.615   4.046  17.181 -0.7064 -1.6274  0.0097
 1187SOL     OW15019   0.021   0.281   5.845 -0.4303  0.2603 -0.0802
 1187SOL    HW115020   0.010   0.367   5.804 -0.9313 -0.5240 -1.5611
 1187SOL    HW215021   0.009   0.226   5.768  0.6233  0.0212 -0.0763
 1188SOL     OW15022   3.142   2.546  16.143  0.4556 -0.2833  0.0822
 1188SOL    HW115023   3.069   2.488  16.122  0.2602 -0.6107  1.7037
 1188SOL    HW215024   3.141   2.607  16.069 -0.3631  1.8447  1.8519
 1189SOL     OW15025   4.706   2.264   0.282  0.2138 -0.5810  0.2800
 1189SOL    HW115026   4.696   2.262   0.377  1.1925  1.7717  0.4169
 1189SOL    HW215027   4.723   2.172   0.262 -1.3326 -1.0646  1.1075
 1190SOL     OW15028   1.922   1.941   6.577 -0.9249 -0.0320  0.2123
 1190SOL    HW115029   1.969   1.859   6.591 -3.2667 -1.4378 -0.2538
 1190SOL    HW215030   1.978   1.998   6.631  0.1672  0.0399 -1.0114
 1191SOL     OW15031   4.089   3.093  16.277  0.1220 -0.4992 -0.7718
 1191SOL    HW115032   4.046   3.052  16.201  1.8038 -1.0470 -1.4310
 1191SOL    HW215033   4.039   3.172  16.297  1.4953 -0.2678  1.6586
 1192SOL     OW15034   0.620   4.658   5.491 -0.5144 -0.2976 -0.2899
 1192SOL    HW115035   0.583   4.601   5.559 -2.6491  0.3922 -0.8779
 1192SOL    HW215036   0.622   4.607   5.410  0.9327  0.0061 -0.4529
 1193SOL     OW15037   2.098   3.472  15.349  0.1545 -0.2102 -0.2052
 1193SOL    HW115038   2.154   3.396  15.366  0.7065  0.0063 -1.0851
 1193SOL    HW215039   2.029   3.431  15.296  0.0372 -0.5709  0.2228
 1194SOL     OW15040   1.592   2.389   3.638 -0.5789  0.3077  0.6064
 1194SOL    HW115041   1.557   2.325   3.575  0.9773 -1.4591  1.5294
 1194SOL    HW215042   1.648   2.328   3.687  0.4461 -0.0960 -1.0801
 1195SOL     OW15043   3.417   0.220   3.921 -0.1954 -0.1082 -0.8899
 1195SOL    HW115044   3.421   0.136   3.876  1.9226 -1.6487  2.2006
 1195SOL    HW215045   3.439   0.196   4.011 -0.3688 -1.0927 -1.1081
 1196SOL     OW15046   0.386   4.285  10.068 -0.1616 -0.3520 -0.1452
 1196SOL    HW115047   0.393   4.309   9.975 -2.1257  0.4688 -0.0867
 1196SOL    HW215048   0.314   4.223  10.067 -1.7208  1.4521 -0.5426
 1197SOL     OW15049   0.686   0.866   1.783 -0.0565 -0.0846  0.4298
 1197SOL    HW115050   0.596   0.866   1.752  0.3791 -0.8542 -0.8179
 1197SOL    HW215051   0.710   0.957   1.803  0.8186 -0.3509  0.5818
 1198SOL     OW15052   2.329   0.529  11.634 -0.2103  0.7441 -0.0055
 1198SOL    HW115053   2.342   0.484  11.717 -0.4847 -0.6010 -0.6872
 1198SOL    HW215054   2.372   0.469  11.573 -1.3138  0.4516 -0.4867
 1199SOL     OW15055   1.531   1.662   3.268  0.2545 -0.4558  0.3155
 1199SOL    HW115056   1.511   1.719   3.194  2.8420  1.5785  1.2250
 1199SOL    HW215057   1.555   1.583   3.220 -1.2920 -1.7984  1.7193
 1200SOL     OW15058   1.776   4.243  12.700  0.5666 -0.3266  0.1353
 1200SOL    HW115059   1.849   4.243  12.638  0.5369 -0.6766  0.1005
 1200SOL    HW215060   1.721   4.314  12.666  2.3725  0.9643 -0.1002
 1201SOL     OW15061   0.100   0.703   7.654 -0.4996  0.2822  0.1368
 1201SOL    HW115062   0.064   0.675   7.570  0.8281 -1.0344  0.0152
 1201SOL    HW215063   0.131   0.616   7.679 -0.6916 -0.3230 -1.6854
 1202SOL     OW15064   4.450   1.680   6.525  0.3770  0.3754  0.1181
 1202SOL    HW115065   4.477   1.606   6.579  1.9241 -0.9697 -2.5303
 1202SOL    HW215066   4.394   1.640   6.459  1.4561 -0.8034 -0.0916
 1203SOL     OW15067   1.787   4.512   3.758 -0.1966 -0.1082  0.3109
 1203SOL    HW115068   1.817   4.428   3.723  3.3528  2.2843 -2.3642
 1203SOL    HW215069   1.774   4.498   3.852 -0.0893 -0.5134  0.2634
 1204SOL     OW15070   3.753   3.982   1.380  0.1746 -0.0154  0.1124
 1204SOL    HW115071   3.658   3.976   1.381  0.1105  1.6250  2.4934
 1204SOL    HW215072   3.774   4.021   1.295  0.1066 -0.3878 -0.0738
 1205SOL     OW15073   3.495   3.932   2.325 -0.1878  0.3063  0.7097
 1205SOL    HW115074   3.517   3.903   2.237 -0.4009 -0.5393  0.9403
 1205SOL    HW215075   3.559   3.909   2.393  1.4263 -0.5460 -1.1098
 1206SOL     OW15076   0.162   0.165   6.061  0.0991  0.3792  0.6132
 1206SOL    HW115077   0.247   0.204   6.037  0.1816 -0.6508 -0.7880
 1206SOL    HW215078   0.107   0.206   5.994  1.8689 -1.1507 -1.7649
 1207SOL     OW15079   3.421   2.545   0.998 -0.5340  0.2725 -0.3997
 1207SOL    HW115080   3.390   2.473   0.944 -1.3334  0.9038 -0.7727
 1207SOL    HW215081   3.421   2.504   1.085 -0.4535  1.8688  0.3503
 1208SOL     OW15082   0.352   1.707   3.088  0.1541  0.3246 -0.3521
 1208SOL    HW115083   0.379   1.659   3.010 -0.5001  1.8046 -1.4735
 1208SOL    HW215084   0.297   1.767   3.038 -0.4494  0.4097  0.4098
 1209SOL     OW15085   1.135   1.256   4.908  0.1603 -0.0534  0.1406
 1209SOL    HW115086   1.215   1.259   4.960  0.0082  0.5116  0.3427
 1209SOL    HW215087   1.139   1.337   4.857 -1.8564  1.2120  1.9779
 1210SOL     OW15088   3.411   4.081   7.196 -0.3233 -0.0301  0.1099
 1210SOL    HW115089   3.436   4.165   7.234 -2.6419  0.9301 -0.4785
 1210SOL    HW215090   3.350   4.055   7.265 -0.9800 -2.2037 -1.2735
 1211SOL     OW15091   1.699   3.447   8.708 -0.2001  0.2000  0.0676
 1211SOL    HW115092   1.751   3.477   8.633 -1.1726  1.1374 -0.2279
 1211SOL    HW215093   1.611   3.462   8.675 -0.0725  1.5097  0.3349
 1212SOL     OW15094   1.492   4.018   6.602 -0.4526 -0.2300  0.0958
 1212SOL    HW115095   1.479   4.067   6.683 -1.3325 -0.3711  0.0390
 1212SOL    HW215096   1.419   3.956   6.609 -1.0590  0.4880  0.0869
 1213SOL     OW15097   0.701   1.250   4.077 -0.3496 -0.2290 -0.3773
 1213SOL    HW115098   0.638   1.317   4.051  0.0848  0.7092  1.0181
 1213SOL    HW215099   0.643   1.173   4.077  1.3203 -1.4762 -1.2431
 1214SOL     OW15100   1.159   3.814   5.675  0.0915  0.1972 -0.3175
 1214SOL    HW115101   1.253   3.826   5.691  0.0264 -0.8278  0.7475
 1214SOL    HW215102   1.147   3.728   5.636 -2.0057  1.2310 -1.9468
 1215SOL     OW15103   2.145   1.350   6.105 -1.0836  0.3162 -0.1528
 1215SOL    HW115104   2.050   1.340   6.100 -0.9096 -1.7808  0.9863
 1215SOL    HW215105   2.164   1.307   6.188  2.9973  1.8921 -0.2505
 1216SOL     OW15106   3.272   1.516   6.647  0.7624  0.1622  0.1946
 1216SOL    HW115107   3.294   1.579   6.715  0.7944  0.5379 -0.1676
 1216SOL    HW215108   3.339   1.525   6.579  2.2692 -1.2230  1.4820
 1217SOL     OW15109   1.702   2.314   3.282 -0.4334 -0.3408 -0.3301
 1217SOL    HW115110   1.717   2.234   3.231  0.4458 -0.6598  0.4253
 1217SOL    HW215111   1.643   2.279   3.350  0.9025 -1.3009  0.3348
 1218SOL     OW15112   1.249   2.933  17.161  0.2988  0.3525 -0.4576
 1218SOL    HW115113   1.330   2.903  17.203  0.1099  0.8175  0.2323
 1218SOL    HW215114   1.274   2.959  17.072  1.4896  1.4859  0.1921
 1219SOL     OW15115   1.215   2.728   8.361  0.0886  0.2976  0.7208
 1219SOL    HW115116   1.292   2.781   8.341 -2.9898  3.3377 -3.0815
 1219SOL    HW215117   1.151   2.788   8.322 -0.5134 -1.3812 -0.8858
 1220SOL     OW15118   0.191   3.263  12.981  0.4903  0.0158 -0.0726
 1220SOL    HW115119   0.147   3.252  13.066  1.4024 -3.1562 -0.0040
 1220SOL    HW215120   0.286   3.255  12.992  1.0581  0.6862 -4.5300
 1221SOL     OW15121   4.426   1.887   2.476 -0.1918  0.2794  0.1671
 1221SOL    HW115122   4.510   1.867   2.437  0.0397  1.8896 -0.1402
 1221SOL    HW215123   4.376   1.924   2.403 -1.9953 -1.5485  0.4684
 1222SOL     OW15124   4.425   3.534  12.451 -0.3252  0.0555 -0.2494
 1222SOL    HW115125   4.400   3.464  12.391 -0.5131  0.8652 -1.0970
 1222SOL    HW215126   4.385   3.516  12.536 -0.5598  1.8425  0.0192
 1223SOL     OW15127   0.697   1.904   9.331  0.0995 -0.5215  0.1105
 1223SOL    HW115128   0.688   1.951   9.248  0.6269  0.9037  0.8572
 1223SOL    HW215129   0.789   1.917   9.352  0.9728 -1.1624 -3.3806
 1224SOL     OW15130   3.707   3.442   6.807  0.2476  0.0545  0.2354
 1224SOL    HW115131   3.698   3.347   6.803  1.0289 -0.0196  0.2274
 1224SOL    HW215132   3.621   3.474   6.833 -1.4189 -0.8279 -4.3985
 1225SOL     OW15133   4.093   2.032   6.713 -0.2193  0.3143  0.4368
 1225SOL    HW115134   4.166   2.035   6.651  0.6733  0.2553  1.4867
 1225SOL    HW215135   4.085   2.127   6.722  0.3682  0.4998 -1.0072
 1226SOL     OW15136   2.440   0.237   3.226 -0.2643 -0.5590 -0.4493
 1226SOL    HW115137   2.429   0.174   3.155 -0.3935  1.3564 -2.1214
 1226SOL    HW215138   2.372   0.299   3.200 -0.6160 -0.9181 -0.3806
 1227SOL     OW15139   0.268   0.410   3.525  0.0313 -0.3720  0.1867
 1227SOL    HW115140   0.341   0.369   3.571 -0.8583 -1.7907  0.3195
 1227SOL    HW215141   0.200   0.406   3.593  1.0313  0.5563  1.2557
 1228SOL     OW15142   3.504   1.260  17.559  0.2772 -0.1611  0.3711
 1228SOL    HW115143   3.482   1.276  17.651  0.7578  0.4340  0.3857
 1228SOL    HW215144   3.575   1.322  17.542 -0.6027  0.7806  0.1548
 1229SOL     OW15145   0.885   3.246  14.974  0.2386 -0.1728 -0.4892
 1229SOL    HW115146   0.869   3.237  15.067 -0.6364  0.9282 -0.5370
 1229SOL    HW215147   0.917   3.158  14.952  0.1869 -0.0825 -0.9250
 1230SOL     OW15148   1.024   0.402   1.894 -0.7432 -0.4304 -0.0198
 1230SOL    HW115149   1.027   0.488   1.937  2.2879 -0.1205 -0.8506
 1230SOL    HW215150   1.097   0.351   1.927 -0.8175 -1.0337 -0.7785
 1231SOL     OW15151   2.860   4.498   6.593  0.3405 -0.6356 -0.2029
 1231SOL    HW115152   2.933   4.561   6.600  0.3941 -0.4693 -2.4314
 1231SOL    HW215153   2.907   4.415   6.583 -1.1587 -1.8854  3.2524
 1232SOL     OW15154   2.818   1.576   8.524 -0.2541  0.3426 -0.1344
 1232SOL    HW115155   2.796   1.587   8.617 -1.8489  0.2394 -0.4896
 1232SOL    HW215156   2.841   1.483   8.518  0.8137  0.5669  0.4449
 1233SOL     OW15157   2.052   1.668  12.212  0.2408  0.1958 -0.6096
 1233SOL    HW115158   1.992   1.733  12.175  0.1295 -0.5444 -1.7431
 1233SOL    HW215159   2.002   1.587  12.210  0.8540 -0.2190  1.3430
 1234SOL     OW15160   2.121   3.873   5.588 -0.0316  0.4378  0.6993
 1234SOL    HW115161   2.132   3.870   5.493 -1.2638 -1.1178  0.6199
 1234SOL    HW215162   2.198   3.927   5.608  2.1269 -3.5677  3.0473
 1235SOL     OW15163   2.714   3.706   7.450 -0.0001  0.1920 -0.1187
 1235SOL    HW115164   2.627   3.706   7.490  0.6180 -2.0198  1.2449
 1235SOL    HW215165   2.748   3.626   7.491 -1.7821 -0.8443 -0.6526
 1236SOL     OW15166   2.293   3.061   2.982  0.6495  0.2693 -0.3169
 1236SOL    HW115167   2.266   3.105   2.901  0.0237  0.9718  0.2690
 1236SOL    HW215168   2.303   3.139   3.038 -2.8766 -0.9590  2.0215
 1237SOL     OW15169   1.377   0.107   9.173  0.2372  0.1559  0.4825
 1237SOL    HW115170   1.419   0.146   9.249 -2.6243  1.8412  1.1792
 1237SOL    HW215171   1.305   0.062   9.218  0.3482 -0.8840 -0.3603
 1238SOL     OW15172   2.006   4.177   7.025  0.2167  0.0810 -0.2998
 1238SOL    HW115173   1.981   4.175   7.117  2.1626  0.6689  0.2296
 1238SOL    HW215174   2.023   4.269   7.004 -0.1064  0.8413  2.8456
 1239SOL     OW15175   2.060   2.196   2.511  0.2859  0.4191  0.1368
 1239SOL    HW115176   2.138   2.157   2.473 -0.2774 -0.3399 -0.2314
 1239SOL    HW215177   1.991   2.137   2.482 -0.4482  1.0883  0.5262
 1240SOL     OW15178   1.209   1.749   3.888 -0.0843 -0.3769 -0.0082
 1240SOL    HW115179   1.137   1.692   3.861 -0.6233  0.9920 -1.4411
 1240SOL    HW215180   1.162   1.830   3.909  1.1475  0.8266 -1.9137
 1241SOL     OW15181   4.297   3.103   6.068 -0.3505  0.4264 -0.2587
 1241SOL    HW115182   4.382   3.061   6.077 -0.6385  0.4533  2.5147
 1241SOL    HW215183   4.321   3.196   6.061 -0.6506  0.2754 -3.2445
 1242SOL     OW15184   3.427   3.251   3.907  0.3591  0.1324  0.2078
 1242SOL    HW115185   3.427   3.261   4.002  3.0707 -1.8173  0.4328
 1242SOL    HW215186   3.494   3.183   3.893 -0.5193 -0.4804 -0.9991
 1243SOL     OW15187   4.130   4.124   4.650 -0.0240 -0.1552 -0.4688
 1243SOL    HW115188   4.059   4.064   4.674 -0.0946 -0.8714 -2.4786
 1243SOL    HW215189   4.145   4.099   4.559 -4.0315  1.2413 -1.5058
 1244SOL     OW15190   4.443   1.268  13.324  0.3363 -0.0967 -0.6468
 1244SOL    HW115191   4.376   1.200  13.331 -0.7407  0.9524 -0.9168
 1244SOL    HW215192   4.394   1.327  13.268 -1.1217 -1.3679 -0.7161
 1245SOL     OW15193   0.925   4.029   9.189  0.2912 -0.0147 -0.0398
 1245SOL    HW115194   0.860   4.086   9.229 -0.3926 -3.1798  3.3706
 1245SOL    HW215195   0.870   3.951   9.174  2.4862 -1.2520 -1.6398
 1246SOL     OW15196   4.648   3.874  11.541  0.8242 -0.6699  0.3723
 1246SOL    HW115197   4.555   3.866  11.561  0.7800  1.3999  1.0099
 1246SOL    HW215198   4.683   3.900  11.626  1.5119  0.6237 -0.2998
 1247SOL     OW15199   3.785   0.925   5.138 -0.2812  0.1353  0.5691
 1247SOL    HW115200   3.855   0.860   5.146  0.6570  0.7765 -2.6096
 1247SOL    HW215201   3.706   0.871   5.130 -0.4743  0.6978 -1.2595
 1248SOL     OW15202   4.678   3.597   7.387  0.1505 -0.3413  0.1604
 1248SOL    HW115203   0.018   3.531   7.415  0.7310 -0.1319 -0.6459
 1248SOL    HW215204   4.630   3.611   7.468 -1.1876  1.4707 -0.9343
 1249SOL     OW15205   1.335   0.190   5.093 -0.1778  0.2454  0.1815
 1249SOL    HW115206   1.266   0.123   5.098  2.3495 -2.3999 -0.4257
 1249SOL    HW215207   1.395   0.161   5.162  1.1533  0.7335 -0.7806
 1250SOL     OW15208   2.346   2.535   7.249 -0.2227  0.5354 -0.2002
 1250SOL    HW115209   2.371   2.522   7.341 -0.6907  0.3802 -0.0973
 1250SOL    HW215210   2.270   2.480   7.231 -0.3300  1.1262 -1.5215
 1251SOL     OW15211   3.773   1.538   1.513  0.2304 -0.2724 -0.1984
 1251SOL    HW115212   3.744   1.629   1.527 -2.5834 -0.8673 -2.0480
 1251SOL    HW215213   3.837   1.536   1.584  1.2555 -2.7278 -1.1859
 1252SOL     OW15214   1.518   2.862  14.655  0.3445 -0.2623 -0.7192
 1252SOL    HW115215   1.506   2.943  14.704  0.6956 -1.2048  0.9153
 1252SOL    HW215216   1.431   2.825  14.670  0.4214 -0.6547 -1.2336
 1253SOL     OW15217   1.979   0.842   0.160 -0.1088 -0.1584  0.1009
 1253SOL    HW115218   1.890   0.809   0.147 -1.0509  1.4976  2.4672
 1253SOL    HW215219   2.006   0.791   0.237  4.6252  0.0843 -1.4235
 1254SOL     OW15220   4.122   1.714   6.690  0.1551 -0.3213 -0.5427
 1254SOL    HW115221   4.131   1.627   6.651 -3.2330 -1.9871  2.3209
 1254SOL    HW215222   4.035   1.742   6.660  0.5003  0.1613 -1.0883
 1255SOL     OW15223   1.316   2.041  11.803  0.0486 -0.0373  0.1908
 1255SOL    HW115224   1.399   2.004  11.774  0.2265 -0.8154  1.6807
 1255SOL    HW215225   1.256   2.011  11.734  1.9895 -0.8931 -1.1269
 1256SOL     OW15226   4.636   1.072  12.296 -0.1389  0.7379  0.0434
 1256SOL    HW115227   4.650   1.050  12.204 -0.4755 -0.1993  0.2126
 1256SOL    HW215228   4.655   1.166  12.292 -0.5309  0.8312  0.3895
 1257SOL     OW15229   2.273   1.160  14.441  0.1085 -0.0634  0.2420
 1257SOL    HW115230   2.303   1.165  14.532 -1.3369  1.1589  0.6409
 1257SOL    HW215231   2.304   1.070  14.427  3.6477  1.2860 -0.5901
 1258SOL     OW15232   1.263   1.858   8.890  0.0158 -0.6458  0.0241
 1258SOL    HW115233   1.282   1.881   8.981 -1.1512  0.1777  0.0628
 1258SOL    HW215234   1.349   1.846   8.849  0.8320  1.5831  1.0997
 1259SOL     OW15235   2.998   0.068   9.465 -0.4177  0.5983  0.5372
 1259SOL    HW115236   2.998   0.163   9.466 -0.1139  0.6021 -0.0970
 1259SOL    HW215237   3.017   0.035   9.553 -0.3908  1.7346  0.9610
 1260SOL     OW15238   0.264   1.840  17.140  0.0497 -0.1113 -0.5111
 1260SOL    HW115239   0.243   1.916  17.085  1.7691  0.2524 -0.6740
 1260SOL    HW215240   0.199   1.856  17.208  1.1701  1.1450  0.2529
 1261SOL     OW15241   1.150   3.901   1.508 -0.1977 -0.2505 -0.4053
 1261SOL    HW115242   1.204   3.904   1.430 -0.0792  2.2356 -0.2218
 1261SOL    HW215243   1.103   3.982   1.490  1.5680  0.2962 -2.5213
 1262SOL     OW15244   1.475   0.327   0.328 -0.3085 -0.5962 -0.3439
 1262SOL    HW115245   1.512   0.273   0.398 -0.6940 -0.6270 -0.1616
 1262SOL    HW215246   1.394   0.355   0.371  0.5557  1.8438 -0.3325
 1263SOL     OW15247   2.204   1.998   3.167 -0.2135  0.2554 -0.5486
 1263SOL    HW115248   2.295   1.975   3.152 -0.5784 -2.0385  0.7156
 1263SOL    HW215249   2.205   2.093   3.158 -1.6686  0.3149 -0.1475
 1264SOL     OW15250   0.625   4.298   2.455 -0.5080 -1.0058 -0.0509
 1264SOL    HW115251   0.656   4.263   2.539  4.5697  1.1252 -1.0646
 1264SOL    HW215252   0.703   4.345   2.426 -1.2706  1.6213  2.1329
 1265SOL     OW15253   1.271   2.117  10.327 -0.2420 -0.2223  0.2206
 1265SOL    HW115254   1.292   2.046  10.267  0.1277 -1.8487  2.2891
 1265SOL    HW215255   1.285   2.065  10.406 -2.3108 -1.0153  0.0432
 1266SOL     OW15256   1.821   1.430  16.827 -0.6517  0.0507 -0.3496
 1266SOL    HW115257   1.881   1.359  16.851  0.0952  1.5448  2.2657
 1266SOL    HW215258   1.878   1.468  16.760  2.3398 -1.5676  1.2638
 1267SOL     OW15259   2.803   2.076   7.487  0.3140  0.1338 -0.0212
 1267SOL    HW115260   2.884   2.118   7.460  1.5765 -2.5875 -0.4389
 1267SOL    HW215261   2.801   2.012   7.416 -0.3138 -0.7229  0.7670
 1268SOL     OW15262   1.178   2.409   5.136 -0.3128  0.7518  0.6573
 1268SOL    HW115263   1.098   2.423   5.186 -1.1718  1.2501 -0.8603
 1268SOL    HW215264   1.240   2.469   5.175  1.6471 -0.3202 -0.7930
 1269SOL     OW15265   2.167   2.845   8.329 -0.0943  0.6423 -0.1733
 1269SOL    HW115266   2.236   2.779   8.316  0.3280  0.8905  0.7570
 1269SOL    HW215267   2.182   2.855   8.423  1.0212 -0.4220 -0.2376
 1270SOL     OW15268   2.141   1.045   7.091  0.0866  0.3718 -0.1983
 1270SOL    HW115269   2.178   0.965   7.127  1.7364  0.8495 -0.7982
 1270SOL    HW215270   2.223   1.089   7.067 -0.6759  1.9155  0.0543
 1271SOL     OW15271   1.178   0.430   5.103 -0.0680  0.0453 -1.0234
 1271SOL    HW115272   1.202   0.481   5.180 -1.5055 -1.6278  0.5472
 1271SOL    HW215273   1.225   0.347   5.112  1.2115  0.9517  0.5608
 1272SOL     OW15274   2.849   1.367   6.528 -0.3148 -0.1838  0.3025
 1272SOL    HW115275   2.920   1.342   6.588 -0.2896  0.2292  0.4457
 1272SOL    HW215276   2.861   1.319   6.447 -3.0223  1.5380 -1.1311
 1273SOL     OW15277   0.283   2.102   7.438 -0.0016  0.0488 -0.2685
 1273SOL    HW115278   0.223   2.175   7.454  0.5554  0.2765  0.8541
 1273SOL    HW215279   0.364   2.146   7.410  1.9241 -1.7701  2.3810
 1274SOL     OW15280   4.250   2.842   9.782 -0.1415  0.2292 -0.3364
 1274SOL    HW115281   4.214   2.830   9.870  1.6339 -0.6586  0.2656
 1274SOL    HW215282   4.316   2.774   9.782 -0.6152 -0.2571  4.1893
 1275SOL     OW15283   1.283   4.314  10.870 -0.2067  0.4128 -0.3536
 1275SOL    HW115284   1.322   4.382  10.926  0.9245  0.3084 -1.0200
 1275SOL    HW215285   1.287   4.236  10.925 -2.1432  1.6153  1.5079
 1276SOL     OW15286   2.430   1.302   5.359  0.3649 -0.1886  0.3442
 1276SOL    HW115287   2.412   1.382   5.408 -1.1223 -0.1739 -0.2279
 1276SOL    HW215288   2.485   1.337   5.289  1.7975  1.5436  2.3471
 1277SOL     OW15289   3.234   2.240  15.083  0.1407  0.1882  0.2298
 1277SOL    HW115290   3.260   2.243  14.991  1.5186  1.1406  0.6385
 1277SOL    HW215291   3.212   2.333  15.097 -0.8568 -0.1310  0.7523
 1278SOL     OW15292   4.624   4.205   5.099 -0.4265 -0.5179  0.1783
 1278SOL    HW115293   4.606   4.120   5.057 -0.8963  0.4460 -1.5749
 1278SOL    HW215294   4.702   4.186   5.152  0.3113 -0.0977 -0.7586
 1279SOL     OW15295   4.350   4.280   3.530  0.2087  0.1196 -0.1818
 1279SOL    HW115296   4.316   4.198   3.566 -1.4379  1.0818  0.5152
 1279SOL    HW215297   4.420   4.250   3.473 -0.4951 -0.5935 -0.6801
 1280SOL     OW15298   2.059   3.922  13.084  0.4117  0.0882 -0.7720
 1280SOL    HW115299   1.970   3.947  13.109  1.0593 -0.5722  2.1920
 1280SOL    HW215300   2.091   3.991  13.027  0.1215 -1.1773 -2.4561
 1281SOL     OW15301   3.405   3.458   8.370  0.3138 -0.5666  0.0428
 1281SOL    HW115302   3.416   3.524   8.439  0.6855 -0.6198  0.0353
 1281SOL    HW215303   3.456   3.495   8.298 -0.1807  1.6154  0.7957
 1282SOL     OW15304   2.827   3.354  12.098  0.0160  0.0972 -0.1969
 1282SOL    HW115305   2.844   3.448  12.107 -1.3052  0.0317  3.1868
 1282SOL    HW215306   2.914   3.317  12.111  0.4933  0.7463 -1.5439
 1283SOL     OW15307   0.011   3.573   2.554 -0.1208 -0.9114  0.3225
 1283SOL    HW115308   4.644   3.561   2.525 -0.2828  1.1009 -0.0653
 1283SOL    HW215309   0.030   3.491   2.598 -2.0495 -1.0622  0.8772
 1284SOL     OW15310   4.074   1.659   7.758  0.1692 -1.0664  0.3502
 1284SOL    HW115311   4.081   1.624   7.670 -2.0667 -2.0290  0.5704
 1284SOL    HW215312   4.042   1.748   7.744 -2.3570 -2.3518 -1.9003
 1285SOL     OW15313   4.295   2.938   3.299 -0.3321 -0.6251 -0.0380
 1285SOL    HW115314   4.251   2.904   3.221 -1.0615 -2.3232  1.1200
 1285SOL    HW215315   4.247   2.897   3.371  1.2368 -0.4798  1.0996
 1286SOL     OW15316   3.745   2.183   2.216  0.5241 -0.5199  0.2859
 1286SOL    HW115317   3.693   2.256   2.248  1.9452  0.3183  0.7085
 1286SOL    HW215318   3.762   2.215   2.127 -0.3390  0.0693  0.3363
 1287SOL     OW15319   2.410   3.282   3.853  0.4865 -0.2736  0.6255
 1287SOL    HW115320   2.389   3.189   3.842 -0.5317 -0.1076  1.0973
 1287SOL    HW215321   2.358   3.310   3.778  1.1053 -3.0079 -0.8241
 1288SOL     OW15322   0.715   3.058   1.587  0.6624  0.3645  0.4255
 1288SOL    HW115323   0.682   3.013   1.509  0.0955  1.3771  0.0767
 1288SOL    HW215324   0.781   3.115   1.548  1.1353  0.5185  1.4463
 1289SOL     OW15325   3.653   4.441   5.793 -0.6199  0.3357  0.2849
 1289SOL    HW115326   3.685   4.452   5.883 -0.4546 -1.6422  0.4738
 1289SOL    HW215327   3.578   4.500   5.798 -0.9186 -0.1190  1.3068
 1290SOL     OW15328   1.310   3.819   4.621 -0.2030  0.4287  0.4008
 1290SOL    HW115329   1.300   3.865   4.537  2.2109 -0.1776 -0.2225
 1290SOL    HW215330   1.406   3.816   4.622 -0.2474 -1.7393 -1.1460
 1291SOL     OW15331   1.955   2.414   4.426 -0.3656  0.0671  0.0293
 1291SOL    HW115332   1.870   2.456   4.442  0.1381  2.1194 -2.6333
 1291SOL    HW215333   1.939   2.354   4.354  2.0871 -0.4977 -0.0361
 1292SOL     OW15334   3.975   0.175   7.833  0.3958 -0.2849 -0.1603
 1292SOL    HW115335   4.053   0.164   7.778  0.3481 -0.2383 -0.2375
 1292SOL    HW215336   3.990   0.269   7.835 -1.9759  0.1627 -2.6578
 1293SOL     OW15337   3.675   0.290  16.833  0.0609 -0.0910  0.3420
 1293SOL    HW115338   3.717   0.211  16.867 -0.4532 -0.1274  0.9084
 1293SOL    HW215339   3.616   0.247  16.771  0.1492  0.1032  0.1253
 1294SOL     OW15340   4.128   1.342   2.563 -0.5584 -0.3120 -0.5704
 1294SOL    HW115341   4.123   1.262   2.511  0.9927 -1.1317  0.5392
 1294SOL    HW215342   4.127   1.407   2.493  1.2927  2.5281  1.9955
 1295SOL     OW15343   4.072   2.623  11.649 -0.2976  0.6514 -0.1184
 1295SOL    HW115344   4.085   2.534  11.616  0.2880  0.4279  0.7280
 1295SOL    HW215345   3.978   2.622  11.667  0.1076  0.6117  2.0794
 1296SOL     OW15346   0.911   3.214   1.544 -0.1276 -0.0361  0.1312
 1296SOL    HW115347   0.987   3.193   1.490 -1.2018 -0.7349 -1.1102
 1296SOL    HW215348   0.910   3.310   1.548  1.6576  0.0540 -1.7768
 1297SOL     OW15349   3.002   2.505   4.322 -0.2309 -0.5666  0.3380
 1297SOL    HW115350   2.930   2.449   4.293 -0.6747  0.0463  0.2584
 1297SOL    HW215351   3.021   2.549   4.240 -2.2597  0.3559  0.3791
 1298SOL     OW15352   0.021   1.412   2.333 -0.1259 -0.1966 -0.6143
 1298SOL    HW115353   0.048   1.338   2.387 -2.1809 -0.4510  0.0916
 1298SOL    HW215354   0.002   1.351   2.262 -0.7977 -2.7344  1.7384
 1299SOL     OW15355   1.659   4.216   6.456  0.1914 -0.2645 -0.2299
 1299SOL    HW115356   1.620   4.246   6.373 -0.2294  1.2802  0.5236
 1299SOL    HW215357   1.598   4.153   6.495  1.6489 -2.8160 -2.0312
 1300SOL     OW15358   0.646   1.367  14.835 -0.1521  0.1635 -0.6452
 1300SOL    HW115359   0.616   1.302  14.899  1.9649 -1.7027 -1.5200
 1300SOL    HW215360   0.734   1.336  14.817  0.2839  0.5821  0.7829
 1301SOL     OW15361   1.882   4.202   8.347  0.6285  0.2238  0.0218
 1301SOL    HW115362   1.916   4.114   8.333  0.5013  0.4411 -1.6939
 1301SOL    HW215363   1.910   4.230   8.435  0.5712 -0.2611  0.1930
 1302SOL     OW15364   1.452   4.117   7.772  0.0269 -0.4458 -0.2174
 1302SOL    HW115365   1.395   4.147   7.702  2.3605  0.9348 -1.5202
 1302SOL    HW215366   1.408   4.172   7.837 -1.8760 -0.8712 -1.1403
 1303SOL     OW15367   1.336   1.171   8.506  0.2666  0.8252 -0.3479
 1303SOL    HW115368   1.340   1.089   8.555  0.0307  1.6102  0.9906
 1303SOL    HW215369   1.402   1.224   8.550 -0.5484  0.7588  0.9432
 1304SOL     OW15370   0.754   0.369   2.292 -0.3980 -0.0861  0.1302
 1304SOL    HW115371   0.754   0.317   2.212 -1.9554  1.7026 -1.0322
 1304SOL    HW215372   0.808   0.318   2.352  1.4367  0.1846 -1.3152
 1305SOL     OW15373   4.601   3.674   4.967  0.4236  0.2053 -0.3216
 1305SOL    HW115374   4.673   3.668   4.903  0.2099 -2.4860 -0.2908
 1305SOL    HW215375   4.640   3.641   5.047  2.0369  0.7842 -0.8605
 1306SOL     OW15376   1.764   0.152   1.593  0.2793 -0.4207  0.1630
 1306SOL    HW115377   1.676   0.117   1.602 -0.3499  0.5043 -2.3973
 1306SOL    HW215378   1.819   0.083   1.557  1.1397  0.6538 -0.5607
 1307SOL     OW15379   4.286   0.499   2.874  0.5063 -0.0077 -0.7624
 1307SOL    HW115380   4.246   0.464   2.794 -0.0740  0.6151 -0.7490
 1307SOL    HW215381   4.258   0.428   2.932  0.3626  0.1171 -0.6781
 1308SOL     OW15382   0.120   1.089   6.318 -0.1907 -0.1433 -0.2477
 1308SOL    HW115383   0.045   1.134   6.279  1.0736  1.2336 -1.0848
 1308SOL    HW215384   0.159   1.175   6.333  1.3604 -0.5505 -1.9653
 1309SOL     OW15385   2.397   2.865  13.752  0.3895  0.5150  0.0105
 1309SOL    HW115386   2.376   2.800  13.819  2.3845  1.3963  1.4616
 1309SOL    HW215387   2.396   2.810  13.674 -2.9135  1.0112 -0.3154
 1310SOL     OW15388   4.017   0.614   2.566  0.0785  0.4413  0.5268
 1310SOL    HW115389   4.089   0.675   2.583  1.2662 -0.6323 -0.6045
 1310SOL    HW215390   3.953   0.640   2.632 -0.6178 -0.9543  0.4154
 1311SOL     OW15391   2.906   1.766  10.078 -0.5133 -0.4023 -0.0208
 1311SOL    HW115392   2.865   1.832  10.134 -0.7051 -1.2156  0.8061
 1311SOL    HW215393   2.885   1.818  10.001 -1.2894  0.7005  0.9317
 1312SOL     OW15394   2.898   4.115  14.177 -0.3284  0.1264  1.0772
 1312SOL    HW115395   2.936   4.050  14.236  1.1630 -0.1478 -0.1581
 1312SOL    HW215396   2.858   4.058  14.110  0.7094  1.9618 -1.1068
 1313SOL     OW15397   0.913   1.650  14.066 -0.3711 -0.8907 -0.4750
 1313SOL    HW115398   0.928   1.697  13.984 -1.0639  0.1997  0.0181
 1313SOL    HW215399   0.987   1.590  14.069 -1.2404 -1.8302  1.9101
 1314SOL     OW15400   1.599   4.097  11.285 -0.7356 -0.4656 -0.0952
 1314SOL    HW115401   1.694   4.098  11.295 -0.6684 -1.9473 -0.5930
 1314SOL    HW215402   1.586   4.045  11.205 -1.5840  1.7539 -1.3985
 1315SOL     OW15403   3.130   0.704  14.412 -0.6013 -0.0113  0.3417
 1315SOL    HW115404   3.147   0.610  14.410 -0.5835 -0.0166  0.7322
 1315SOL    HW215405   3.164   0.739  14.330  0.8407 -0.2008  0.8523
 1316SOL     OW15406   4.325   2.062   3.358 -0.0742  0.0496  0.0881
 1316SOL    HW115407   4.402   2.059   3.300 -1.1415  2.0793 -1.4033
 1316SOL    HW215408   4.339   1.988   3.418  2.2050  0.8488  0.5457
 1317SOL     OW15409   0.554   0.434  13.798  1.3228  0.0589 -0.0726
 1317SOL    HW115410   0.581   0.522  13.772 -2.2222 -0.1129 -4.3551
 1317SOL    HW215411   0.504   0.406  13.721  0.9622  2.8323 -0.8478
 1318SOL     OW15412   2.554   0.690   6.152 -0.1874  0.6093  0.1954
 1318SOL    HW115413   2.482   0.646   6.108  1.2137 -1.2304 -0.2879
 1318SOL    HW215414   2.529   0.781   6.140 -1.7238  0.4899  2.4453
 1319SOL     OW15415   0.913   1.275   6.701  0.0279  0.5331  0.0891
 1319SOL    HW115416   0.865   1.197   6.674  0.5403  0.2101  0.1161
 1319SOL    HW215417   0.853   1.349   6.690 -0.3311  0.6103  2.5927
 1320SOL     OW15418   0.356   0.706   7.758 -0.5176 -0.5158 -0.0727
 1320SOL    HW115419   0.386   0.794   7.733 -0.5570 -0.0233  1.6021
 1320SOL    HW215420   0.262   0.725   7.760  0.1616  3.0893 -1.1046
 1321SOL     OW15421   4.531   2.414   5.357  0.3585 -0.4846  0.3674
 1321SOL    HW115422   4.440   2.406   5.327  0.6224 -1.4812 -0.1680
 1321SOL    HW215423   4.542   2.335   5.411 -2.2515 -1.0413  0.1115
 1322SOL     OW15424   4.342   1.045   7.027 -0.2106  0.1347 -0.1321
 1322SOL    HW115425   4.401   0.988   7.076 -0.6373  1.7822  2.3207
 1322SOL    HW215426   4.321   0.989   6.952 -0.3267 -0.3451  0.2600
 1323SOL     OW15427   1.199   1.016  16.930 -0.0986 -0.0003  0.9126
 1323SOL    HW115428   1.288   0.986  16.912  0.7281  3.4051 -0.7935
 1323SOL    HW215429   1.176   0.945  16.990 -0.1411  0.1848  1.1175
 1324SOL     OW15430   1.101   0.271   7.519  0.0531 -0.5956 -0.1985
 1324SOL    HW115431   1.045   0.227   7.583  0.4963  2.3698  2.2103
 1324SOL    HW215432   1.186   0.238   7.548  1.4776  2.9973 -0.2733
 1325SOL     OW15433   2.183   3.252   5.203 -0.9327  0.2898 -0.0410
 1325SOL    HW115434   2.182   3.347   5.190 -1.3149  0.1941 -0.7140
 1325SOL    HW215435   2.275   3.228   5.197 -0.7822  1.0792 -0.8962
 1326SOL     OW15436   1.592   0.240   7.146 -0.0416  0.5376  0.0881
 1326SOL    HW115437   1.522   0.306   7.150 -2.4477 -1.9097 -0.8955
 1326SOL    HW215438   1.653   0.278   7.208  1.6640 -0.9422 -0.6883
 1327SOL     OW15439   2.302   1.256   8.787  0.0619 -0.1673  0.5041
 1327SOL    HW115440   2.209   1.234   8.785 -0.3168  1.3728  1.4407
 1327SOL    HW215441   2.325   1.231   8.876 -0.7660 -1.3701  0.3801
 1328SOL     OW15442   3.837   1.536  15.721 -0.3946 -0.1571 -0.6522
 1328SOL    HW115443   3.907   1.517  15.658  1.1260  2.8835  0.1616
 1328SOL    HW215444   3.848   1.628  15.746 -1.0590  0.4578 -2.6003
 1329SOL     OW15445   2.460   3.502   4.704  0.6713 -0.2584 -0.2959
 1329SOL    HW115446   2.490   3.412   4.699  1.3866 -0.0964  1.1826
 1329SOL    HW215447   2.367   3.480   4.704  0.0512  2.2588 -0.2806
 1330SOL     OW15448   1.699   1.000  11.349 -0.1508 -0.1303 -0.2529
 1330SOL    HW115449   1.741   0.977  11.432 -1.6423 -0.6258  0.3653
 1330SOL    HW215450   1.751   1.077  11.327 -0.4298  0.6461  1.7904
 1331SOL     OW15451   2.046   0.956   7.362 -0.0221  0.8245 -0.5704
 1331SOL    HW115452   2.091   0.889   7.311  0.7491  0.7432  0.2081
 1331SOL    HW215453   2.008   1.013   7.295 -0.8058  0.0378 -0.7979
 1332SOL     OW15454   3.780   1.398   1.800  0.4271  0.4367  0.0176
 1332SOL    HW115455   3.732   1.435   1.726 -0.8704 -0.0000  0.6413
 1332SOL    HW215456   3.719   1.420   1.871  0.0036 -0.1653 -0.1667
 1333SOL     OW15457   0.751   3.434   2.323 -0.1387  0.3621  0.2347
 1333SOL    HW115458   0.721   3.359   2.271  2.4956 -1.0642  0.7799
 1333SOL    HW215459   0.703   3.510   2.292  0.1868  0.2722 -0.4875
 1334SOL     OW15460   0.206   3.994   0.369 -0.3764  0.2580 -0.1187
 1334SOL    HW115461   0.209   4.039   0.285 -1.5661 -0.4524 -0.5355
 1334SOL    HW215462   0.228   3.905   0.340 -0.7088  0.8058 -2.0585
 1335SOL     OW15463   1.335   4.385   9.062 -0.2004  0.5531 -0.2085
 1335SOL    HW115464   1.329   4.474   9.098 -1.7673 -0.0511  1.0339
 1335SOL    HW215465   1.256   4.342   9.095 -0.9581  2.8354  0.9741
 1336SOL     OW15466   3.507   0.864   4.417  0.1134  0.2113 -0.0067
 1336SOL    HW115467   3.466   0.779   4.434  1.0129 -0.3406 -0.6336
 1336SOL    HW215468   3.437   0.924   4.445 -0.0945  0.2952 -0.7076
 1337SOL     OW15469   4.011   1.116  10.728 -1.0698 -0.5435 -0.9870
 1337SOL    HW115470   3.918   1.114  10.705 -1.0132  0.9930 -1.3609
 1337SOL    HW215471   3.994   1.087  10.818 -2.9276 -0.3779 -1.2805
 1338SOL     OW15472   2.912   3.258   6.473  0.4280  0.4029  0.2315
 1338SOL    HW115473   2.840   3.203   6.443  1.1460 -1.0356  1.1722
 1338SOL    HW215474   2.978   3.200   6.436  0.0110  0.1543 -0.1158
 1339SOL     OW15475   0.254   3.189   1.579 -0.1879 -0.8638 -0.4265
 1339SOL    HW115476   0.216   3.225   1.499  1.4338 -2.1041 -1.7478
 1339SOL    HW215477   0.336   3.161   1.539 -0.7828 -0.1434 -2.1192
 1340SOL     OW15478   4.600   2.723   6.495  0.0285 -0.2197  0.3416
 1340SOL    HW115479   4.582   2.696   6.585  0.2684  1.6042  0.9365
 1340SOL    HW215480   4.573   2.815   6.492  1.1700  0.1716  2.0916
 1341SOL     OW15481   1.665   2.141   9.034 -0.5993  0.0706 -0.6530
 1341SOL    HW115482   1.570   2.128   9.044 -0.7021  0.4437 -1.1433
 1341SOL    HW215483   1.674   2.207   8.965  0.1714  0.0305 -0.5891
 1342SOL     OW15484   1.919   3.703  13.472 -0.0777  0.0280 -0.1143
 1342SOL    HW115485   2.004   3.673  13.503 -0.1323 -0.2215 -0.1989
 1342SOL    HW215486   1.911   3.792  13.505  3.7721  0.4683 -0.3693
 1343SOL     OW15487   0.362   1.941   9.243  1.0839  0.3012 -0.3192
 1343SOL    HW115488   0.324   1.853   9.251  1.2232  0.2559 -0.1553
 1343SOL    HW215489   0.298   2.000   9.282  2.3209  2.3636 -1.4330
 1344SOL     OW15490   0.496   0.744  17.322 -0.4575 -0.1717 -0.6157
 1344SOL    HW115491   0.504   0.718  17.414  0.9803  1.0497 -0.4078
 1344SOL    HW215492   0.566   0.809  17.313 -1.0130  0.1964 -2.2744
 1345SOL     OW15493   1.320   3.449   6.714 -0.0738  0.1405 -0.3701
 1345SOL    HW115494   1.316   3.376   6.776  1.4862 -1.9276 -2.7347
 1345SOL    HW215495   1.279   3.403   6.640 -1.1579 -0.2617  0.4742
 1346SOL     OW15496   0.242   4.314   9.006 -0.1034  0.2810  0.2532
 1346SOL    HW115497   0.335   4.294   8.998  0.3205  2.2960  0.0701
 1346SOL    HW215498   0.225   4.256   9.080  1.3514 -0.2695  0.1495
 1347SOL     OW15499   2.322   0.912   9.368 -0.0671 -0.0866 -0.3876
 1347SOL    HW115500   2.258   0.931   9.299 -2.3724  1.7294  2.2543
 1347SOL    HW215501   2.367   0.836   9.331 -1.3788 -1.5665  1.0440
 1348SOL     OW15502   0.878   1.201   4.951 -0.2711  0.2357  0.0368
 1348SOL    HW115503   0.845   1.271   4.895 -0.0816  0.8503  0.7081
 1348SOL    HW215504   0.972   1.202   4.932 -0.0907 -0.2285  0.8910
 1349SOL     OW15505   4.320   1.827   5.961 -0.4833  0.3933  0.1554
 1349SOL    HW115506   4.391   1.767   5.986  0.2399  1.6417  1.0696
 1349SOL    HW215507   4.348   1.869   5.879 -1.8832 -0.6095 -0.8424
 1350SOL     OW15508   2.117   1.812   0.045  0.1962 -0.6535 -0.0937
 1350SOL    HW115509   2.058   1.755  17.691 -0.8689  0.8069 -0.5044
 1350SOL    HW215510   2.116   1.764   0.128 -3.6460 -2.2947 -1.0786
 1351SOL     OW15511   3.997   0.919  11.829  0.3175 -0.1108  0.1508
 1351SOL    HW115512   3.927   0.860  11.800 -0.2707 -0.3350  2.0021
 1351SOL    HW215513   3.990   0.912  11.925  2.2444  0.4359  0.3276
 1352SOL     OW15514   1.840   3.035   2.009  0.1372 -0.0225  0.0224
 1352SOL    HW115515   1.762   3.023   1.955  0.7735 -1.3828 -0.5973
 1352SOL    HW215516   1.848   3.128   1.991 -1.4862 -0.1005 -1.0630
 1353SOL     OW15517   3.447   4.696   2.630  0.0342 -0.1512  0.0677
 1353SOL    HW115518   3.485   0.060   2.628 -2.4603  0.9497  0.2483
 1353SOL    HW215519   3.467   4.655   2.546  0.6174 -0.7192  0.4812
 1354SOL     OW15520   0.764   3.481  14.911 -0.2697 -0.2347  0.5377
 1354SOL    HW115521   0.755   3.525  14.996 -0.7818 -0.2938  0.5139
 1354SOL    HW215522   0.806   3.398  14.931  1.2383  0.5299  0.5060
 1355SOL     OW15523   1.395   4.713   4.850 -0.3600 -0.2532  0.1432
 1355SOL    HW115524   1.304   4.692   4.832 -0.0636 -1.1044 -0.3981
 1355SOL    HW215525   1.392   0.026   4.938  0.7226  0.0398  0.0674
 1356SOL     OW15526   1.529   3.207   4.560 -0.5409 -0.2032 -0.2942
 1356SOL    HW115527   1.565   3.206   4.471  3.4678 -2.0656  1.3496
 1356SOL    HW215528   1.438   3.232   4.542 -0.4356  1.0982  0.9354
 1357SOL     OW15529   3.859   0.223  17.183 -0.2335  0.0970  0.1624
 1357SOL    HW115530   3.855   0.217  17.278 -0.6038 -1.5713  0.0444
 1357SOL    HW215531   3.903   0.308  17.172  1.1836 -0.8952 -2.0295
 1358SOL     OW15532   1.092   3.297   5.254 -0.3032  0.0903 -0.3850
 1358SOL    HW115533   1.162   3.233   5.243 -0.9625 -0.8071  0.6209
 1358SOL    HW215534   1.144   3.368   5.217 -1.2740  0.6422 -0.7077
 1359SOL     OW15535   1.386   1.433  12.261 -0.3319  0.0141  0.5888
 1359SOL    HW115536   1.428   1.515  12.235  1.0379 -0.3024  1.8234
 1359SOL    HW215537   1.349   1.448  12.348  0.2345 -0.6379  0.9372
 1360SOL     OW15538   4.119   2.264  10.743 -0.0400 -0.6683  0.3094
 1360SOL    HW115539   4.191   2.328  10.738 -0.6409  0.0052  0.2576
 1360SOL    HW215540   4.100   2.257  10.836 -0.5113 -2.6665  0.0436
 1361SOL     OW15541   2.997   4.251   5.901  0.0841  0.1571 -0.1131
 1361SOL    HW115542   2.942   4.173   5.894  0.1208 -0.0135  1.5151
 1361SOL    HW215543   2.974   4.297   5.820 -0.0580  0.3965  0.0651
 1362SOL     OW15544   4.264   1.698   3.337 -0.6068  0.1318  0.3304
 1362SOL    HW115545   4.265   1.753   3.258  2.9512 -0.7152 -0.2235
 1362SOL    HW215546   4.192   1.732   3.389 -0.8884 -0.1368  0.1170
 1363SOL     OW15547   0.964   4.542   8.161  0.0574 -0.2551 -1.0116
 1363SOL    HW115548   0.955   4.582   8.248 -1.8888 -3.1115  0.0924
 1363SOL    HW215549   0.878   4.560   8.124  0.1931  1.5548 -0.4684
 1364SOL     OW15550   1.366   4.673   8.330 -0.3587  0.3573 -0.0988
 1364SOL    HW115551   1.376   4.616   8.406 -0.2200 -0.0506 -0.4250
 1364SOL    HW215552   1.452   4.715   8.330  0.5678 -1.5216 -0.2593
 1365SOL     OW15553   4.198   1.531  12.157  0.0333 -0.0028 -0.3087
 1365SOL    HW115554   4.167   1.494  12.075 -0.0148 -0.4868 -0.0727
 1365SOL    HW215555   4.159   1.618  12.151  2.9174  1.3645  0.5622
 1366SOL     OW15556   1.614   1.870   7.596 -0.3974  0.1464  0.6112
 1366SOL    HW115557   1.532   1.919   7.599 -0.9536 -0.7000 -0.7060
 1366SOL    HW215558   1.590   1.795   7.651 -0.4595  0.1121  0.5375
 1367SOL     OW15559   0.630   3.797   3.581  0.6212  0.0472 -0.2176
 1367SOL    HW115560   0.566   3.778   3.512 -0.3225  3.4040 -0.2681
 1367SOL    HW215561   0.683   3.863   3.536 -1.6101  1.3261 -0.9937
 1368SOL     OW15562   0.688   1.735   0.897  0.6282  0.1773 -0.2635
 1368SOL    HW115563   0.752   1.803   0.918  0.0762  0.4154  0.6647
 1368SOL    HW215564   0.641   1.730   0.981 -2.4823  0.8079 -1.9634
 1369SOL     OW15565   2.779   4.066  10.102  1.0142  1.0408  0.3656
 1369SOL    HW115566   2.815   4.058  10.013 -0.1138  2.4864 -0.2118
 1369SOL    HW215567   2.805   4.149  10.143 -0.6146  2.4746 -1.5300
 1370SOL     OW15568   2.121   3.471   2.108 -0.4569 -0.2151 -0.6069
 1370SOL    HW115569   2.199   3.437   2.065 -0.6290 -1.8800  0.4080
 1370SOL    HW215570   2.130   3.421   2.189 -1.4141 -0.8916 -0.9276
 1371SOL     OW15571   2.884   0.083   4.298  0.1917 -0.4639  0.4249
 1371SOL    HW115572   2.804   0.061   4.250 -0.2938  1.1907  0.4965
 1371SOL    HW215573   2.933   4.724   4.295 -3.7046 -2.7658  1.1821
 1372SOL     OW15574   4.581   0.942   0.501 -0.1275  0.0928  0.0998
 1372SOL    HW115575   4.526   0.886   0.555 -0.9294 -0.7352 -1.5940
 1372SOL    HW215576   4.522   0.959   0.428 -1.3135  1.1868  1.3230
 1373SOL     OW15577   2.133   1.232   1.456  0.4224 -0.4775 -0.5635
 1373SOL    HW115578   2.191   1.286   1.510  1.4644 -0.6979 -1.4501
 1373SOL    HW215579   2.197   1.174   1.413  3.0712  0.9819  1.4094
 1374SOL     OW15580   2.368   4.321  13.774 -0.0933  0.0163  0.0259
 1374SOL    HW115581   2.340   4.275  13.694  0.0097 -1.8395  1.0448
 1374SOL    HW215582   2.447   4.367  13.748 -0.6436  0.4056 -0.9460
 1375SOL     OW15583   3.545   0.731   7.693  0.5453 -0.6563  0.1440
 1375SOL    HW115584   3.547   0.649   7.643  2.7813  0.7291 -2.0703
 1375SOL    HW215585   3.634   0.766   7.683  0.1641 -0.1773 -1.6854
 1376SOL     OW15586   4.665   0.080   2.245 -0.0902 -0.5866 -0.1452
 1376SOL    HW115587   4.658   0.006   2.185  0.1162 -1.7063  1.2007
 1376SOL    HW215588   4.579   0.116   2.223  0.3987 -0.0009 -1.0880
 1377SOL     OW15589   0.401   3.854   6.941 -0.6748  0.5063  0.2118
 1377SOL    HW115590   0.420   3.809   7.023  1.7168 -0.2244 -0.7456
 1377SOL    HW215591   0.468   3.813   6.886 -1.8386 -0.7801 -0.2624
 1378SOL     OW15592   2.068   1.621  13.919  0.4287 -0.2696 -0.1107
 1378SOL    HW115593   2.083   1.527  13.920  1.2471 -0.1426 -1.1948
 1378SOL    HW215594   2.143   1.647  13.866  0.9114  0.0002  0.7037
 1379SOL     OW15595   3.497   3.490   5.822 -0.1426 -0.1856 -0.0708
 1379SOL    HW115596   3.454   3.576   5.822  0.6916  0.2253  0.6947
 1379SOL    HW215597   3.583   3.521   5.794  0.0198 -1.3523 -0.8671
 1380SOL     OW15598   0.429   3.332   5.106  0.7956 -0.1067  0.1002
 1380SOL    HW115599   0.426   3.295   5.194  0.5701 -2.8535 -1.0402
 1380SOL    HW215600   0.356   3.393   5.116  1.5437  1.3230 -2.9367
 1381SOL     OW15601   0.113   0.259   7.045 -0.0660  0.0697  0.5122
 1381SOL    HW115602   0.107   0.354   7.041 -1.6900 -0.0964 -0.9102
 1381SOL    HW215603   0.070   0.247   6.961 -1.6681 -0.8159  1.4636
 1382SOL     OW15604   2.553   2.355   4.740  0.1006  0.4129  0.5788
 1382SOL    HW115605   2.625   2.394   4.788 -0.5955  1.9525  0.3775
 1382SOL    HW215606   2.477   2.390   4.786 -0.1962  1.1650 -0.4851
 1383SOL     OW15607   2.746   3.514  14.717 -0.1280 -0.4097 -0.5202
 1383SOL    HW115608   2.714   3.467  14.641  0.7710 -0.4457 -0.8709
 1383SOL    HW215609   2.682   3.578  14.748  0.6983 -0.3098  0.9704
 1384SOL     OW15610   4.581   0.945  13.915  0.4223 -0.0744 -0.0953
 1384SOL    HW115611   4.631   0.863  13.920  0.2511 -0.0834  1.4686
 1384SOL    HW215612   4.519   0.913  13.981 -1.1507  0.7847 -1.1808
 1385SOL     OW15613   1.253   2.187   3.555 -0.0280 -0.8477 -0.0356
 1385SOL    HW115614   1.233   2.169   3.647  1.1201  1.9198  0.7757
 1385SOL    HW215615   1.175   2.225   3.514  0.0711 -0.0815  0.4830
 1386SOL     OW15616   2.261   1.616   9.837 -0.2785  0.3042 -0.1332
 1386SOL    HW115617   2.343   1.593   9.793 -0.7349 -0.3196 -0.6616
 1386SOL    HW215618   2.265   1.711   9.834 -0.9379  0.3476  0.4737
 1387SOL     OW15619   2.984   3.865   3.267  0.9514 -0.3812  0.8179
 1387SOL    HW115620   2.985   3.776   3.300 -0.6937 -0.3422  0.9556
 1387SOL    HW215621   2.961   3.918   3.343  0.0160  1.0443 -0.4635
 1388SOL     OW15622   2.281   4.224   9.275  0.4781 -0.2838 -0.3510
 1388SOL    HW115623   2.360   4.196   9.322  1.6525  1.6074 -1.2139
 1388SOL    HW215624   2.244   4.139   9.252 -1.1203  0.1384  0.6939
 1389SOL     OW15625   1.676   1.231   6.011  0.1560  0.0190  0.4286
 1389SOL    HW115626   1.612   1.272   6.070 -0.0633 -1.0273  0.9321
 1389SOL    HW215627   1.638   1.259   5.927 -1.2511  0.9025  1.3499
 1390SOL     OW15628   2.909   4.028   6.539 -1.5978  0.6248 -0.1081
 1390SOL    HW115629   2.992   3.998   6.502 -1.0455 -0.4353  1.9786
 1390SOL    HW215630   2.877   3.943   6.569 -0.4579 -0.4212 -1.8551
 1391SOL     OW15631   4.570   0.961   3.037 -0.3331 -0.3278 -0.2867
 1391SOL    HW115632   4.663   0.958   3.015  0.1234  1.7059  1.2546
 1391SOL    HW215633   4.559   1.045   3.082 -2.8994 -0.3015 -0.9557
 1392SOL     OW15634   4.464   0.567  10.396 -0.1813  0.3273 -0.1474
 1392SOL    HW115635   4.394   0.512  10.360  1.6005 -0.3913 -2.5316
 1392SOL    HW215636   4.430   0.584  10.484 -1.8452 -1.0445 -0.5125
 1393SOL     OW15637   3.982   0.309   3.606  0.1313 -0.3454  0.7313
 1393SOL    HW115638   4.055   0.362   3.639 -1.2232  2.1045 -0.2019
 1393SOL    HW215639   3.921   0.338   3.674  1.2762 -0.7504  1.9296
 1394SOL     OW15640   3.462   1.654   5.642 -0.6162 -0.4252 -0.2560
 1394SOL    HW115641   3.545   1.680   5.680  1.3525 -3.7895 -2.2631
 1394SOL    HW215642   3.479   1.668   5.549 -2.3637 -1.0381 -0.6798
 1395SOL     OW15643   3.287   1.610  17.587 -0.0029 -0.5875 -0.2625
 1395SOL    HW115644   3.281   1.595  17.493  1.1437 -0.6800 -0.3228
 1395SOL    HW215645   3.374   1.648  17.594  0.4644 -1.2067 -2.5232
 1396SOL     OW15646   4.207   1.149   9.030  0.5276 -0.4258  0.3294
 1396SOL    HW115647   4.191   1.232   9.074  0.9006 -0.0008 -0.3278
 1396SOL    HW215648   4.302   1.147   9.044  0.5746  0.1596  0.1091
 1397SOL     OW15649   2.331   4.402  16.579  0.2101  0.6682 -0.0901
 1397SOL    HW115650   2.341   4.493  16.607  0.1513  0.6599 -0.0396
 1397SOL    HW215651   2.249   4.379  16.624 -0.5344 -0.7331 -2.1674
 1398SOL     OW15652   0.336   1.979  15.866  0.1188 -0.8666  0.4932
 1398SOL    HW115653   0.304   1.896  15.829 -0.2703  0.0954 -1.3447
 1398SOL    HW215654   0.367   2.023  15.787 -0.6239 -0.6260  0.3373
 1399SOL     OW15655   4.334   0.818   6.148  0.1548  0.4202  0.2990
 1399SOL    HW115656   4.397   0.775   6.091 -0.3127 -0.4028  0.4056
 1399SOL    HW215657   4.395   0.878   6.192 -0.5656  1.6469 -0.3694
 1400SOL     OW15658   0.214   1.152  16.570  0.0723 -0.3179  0.4205
 1400SOL    HW115659   0.198   1.067  16.612 -2.9213 -0.4738 -1.0603
 1400SOL    HW215660   0.227   1.115  16.483 -0.4615  0.1288  0.1582
 1401SOL     OW15661   2.790   3.073   4.359  0.1040 -0.3967  0.1088
 1401SOL    HW115662   2.790   3.058   4.454  0.7613  2.7175  0.6195
 1401SOL    HW215663   2.817   3.165   4.359  0.0301 -0.3836 -0.9344
 1402SOL     OW15664   0.733   0.014   2.887 -0.1979 -0.0136  0.2067
 1402SOL    HW115665   0.773   0.093   2.850  1.0642 -0.8927 -0.3273
 1402SOL    HW215666   0.709   0.028   2.978 -0.0902 -2.9386  0.7084
 1403SOL     OW15667   3.955   0.744  12.108  0.1642 -0.1988 -0.2448
 1403SOL    HW115668   3.881   0.805  12.111 -1.7271 -2.4356 -0.6074
 1403SOL    HW215669   3.972   0.725  12.200  1.5222  0.1390 -0.4358
 1404SOL     OW15670   1.443   0.977  14.486  0.6452 -0.2152 -0.1133
 1404SOL    HW115671   1.509   0.915  14.456  0.7877 -0.5040  0.8170
 1404SOL    HW215672   1.441   1.048  14.421 -0.7470 -1.1362 -1.0743
 1405SOL     OW15673   4.535   3.824  15.301  0.2154 -0.1842 -0.0477
 1405SOL    HW115674   4.521   3.755  15.366 -0.5900 -0.8388 -0.9304
 1405SOL    HW215675   4.629   3.807  15.292  0.2936 -0.3215  0.9416
 1406SOL     OW15676   1.136   1.291   5.251 -0.1314  0.3266  0.6699
 1406SOL    HW115677   1.082   1.247   5.185 -1.2057 -2.7415  3.6092
 1406SOL    HW215678   1.215   1.321   5.205 -1.1140  1.9003  0.0475
 1407SOL     OW15679   4.036   4.420   8.694 -0.3716  0.6625 -0.0476
 1407SOL    HW115680   3.991   4.363   8.631 -1.1708  0.9696  0.2431
 1407SOL    HW215681   4.036   4.351   8.760 -0.1446  1.4550  0.7621
 1408SOL     OW15682   4.296   0.344   7.662  0.0706 -0.2636  0.7069
 1408SOL    HW115683   4.219   0.383   7.702 -0.1383 -0.6417  0.6840
 1408SOL    HW215684   4.263   0.336   7.572  0.0658 -0.7985  0.7533
 1409SOL     OW15685   1.692   0.947  10.284  0.1512  0.3928 -0.0251
 1409SOL    HW115686   1.606   0.914  10.313  0.2803 -0.1922 -0.3090
 1409SOL    HW215687   1.740   0.867  10.304  0.5326  0.0412 -2.4329
 1410SOL     OW15688   1.681   2.755   2.201  0.0203 -0.6423  0.6535
 1410SOL    HW115689   1.740   2.773   2.129 -0.9228 -0.0608  0.0361
 1410SOL    HW215690   1.606   2.812   2.188  0.6532 -0.0477 -0.3526
 1411SOL     OW15691   3.692   3.346   4.329 -0.0089 -0.1675 -0.3500
 1411SOL    HW115692   3.683   3.441   4.326  1.3881 -0.0137  0.0561
 1411SOL    HW215693   3.777   3.333   4.287 -1.1156 -0.6240 -2.4272
 1412SOL     OW15694   3.551   3.998   3.092 -0.5444  0.4513 -0.3568
 1412SOL    HW115695   3.517   4.030   3.175 -0.6942  0.6200 -0.4827
 1412SOL    HW215696   3.571   4.083   3.052  0.1463  0.2762 -0.3903
 1413SOL     OW15697   3.307   1.876  10.469 -0.1903 -0.3460  0.0154
 1413SOL    HW115698   3.283   1.865  10.377  0.1097 -0.0552 -0.0983
 1413SOL    HW215699   3.236   1.923  10.511 -0.1870  0.3451 -0.7393
 1414SOL     OW15700   3.129   3.778   1.101  0.2736  0.1415  0.0630
 1414SOL    HW115701   3.142   3.702   1.157  0.1650  0.2635  0.2511
 1414SOL    HW215702   3.034   3.772   1.100  0.4172 -1.8425 -2.7023
 1415SOL     OW15703   1.731   2.184   8.123 -0.6521 -0.0441 -0.2078
 1415SOL    HW115704   1.793   2.238   8.173  0.1020 -1.3744  0.3068
 1415SOL    HW215705   1.772   2.163   8.039  2.5564  4.4616  0.1962
 1416SOL     OW15706   0.847   3.566   3.893 -0.1171  0.2892 -0.8062
 1416SOL    HW115707   0.874   3.563   3.801 -2.4224  2.8878 -1.5524
 1416SOL    HW215708   0.754   3.588   3.884 -0.3729 -0.7826 -0.8585
 1417SOL     OW15709   1.371   0.781   7.424  0.2726 -0.6470 -0.3730
 1417SOL    HW115710   1.436   0.851   7.428  1.0100 -1.3265 -0.5728
 1417SOL    HW215711   1.420   0.707   7.458 -0.2674  0.4397  2.7584
 1418SOL     OW15712   3.748   0.223   6.033 -0.8079 -0.1971  0.3246
 1418SOL    HW115713   3.839   0.243   6.012 -1.1324  1.1812  0.1960
 1418SOL    HW215714   3.758   0.171   6.113  1.2496 -1.3037 -0.6678
 1419SOL     OW15715   3.061   1.770   0.572 -0.2602  0.0745 -0.1385
 1419SOL    HW115716   3.058   1.777   0.477 -1.6951 -0.7163 -0.1491
 1419SOL    HW215717   3.088   1.679   0.584  0.1654  0.1206 -0.7325
 1420SOL     OW15718   1.463   3.816   3.328  0.4595 -0.0462 -0.3612
 1420SOL    HW115719   1.521   3.747   3.360 -1.2109 -1.3228 -0.1009
 1420SOL    HW215720   1.461   3.874   3.404  0.1799  0.5146 -0.7896
 1421SOL     OW15721   0.768   3.990   6.743  0.4399 -0.2152  0.0893
 1421SOL    HW115722   0.825   4.053   6.698  2.2238 -0.9529  1.2905
 1421SOL    HW215723   0.820   3.910   6.729 -1.2994 -1.4166  0.4963
 1422SOL     OW15724   1.457   1.605   8.899  0.7109 -0.1087  0.0862
 1422SOL    HW115725   1.427   1.565   8.980 -1.1519 -0.0773 -0.5808
 1422SOL    HW215726   1.478   1.690   8.937  0.4592 -0.2673  0.5738
 1423SOL     OW15727   1.492   4.568   5.524 -0.2222 -0.0539  0.3933
 1423SOL    HW115728   1.456   4.505   5.462 -1.5891 -0.8720  2.0142
 1423SOL    HW215729   1.580   4.584   5.489  0.1028 -1.8071  0.4333
 1424SOL     OW15730   3.730   0.343  15.809 -0.3495 -0.0913 -0.3186
 1424SOL    HW115731   3.812   0.384  15.837  1.7664 -3.4059 -1.7318
 1424SOL    HW215732   3.679   0.421  15.785 -1.7860 -1.5330 -1.9309
 1425SOL     OW15733   1.899   3.499  16.629  0.0042  0.0710 -0.5051
 1425SOL    HW115734   1.982   3.477  16.671 -0.7208 -2.2068 -0.2359
 1425SOL    HW215735   1.871   3.580  16.672 -0.0546 -0.1436 -0.1364
 1426SOL     OW15736   2.356   3.032  16.887  0.2335 -0.2418 -0.4917
 1426SOL    HW115737   2.359   3.025  16.792 -0.9503 -0.5813 -0.5006
 1426SOL    HW215738   2.289   2.964  16.893 -0.2112  0.1439 -1.1137
 1427SOL     OW15739   1.677   1.469   7.292 -0.5237  0.1395 -0.5400
 1427SOL    HW115740   1.626   1.442   7.216 -0.5550 -2.1618  0.2948
 1427SOL    HW215741   1.761   1.488   7.250 -0.6882 -1.0532 -1.4254
 1428SOL     OW15742   4.018   1.359   2.805  0.1037 -0.1589  0.2057
 1428SOL    HW115743   4.029   1.343   2.712 -1.0617  1.1842 -0.1477
 1428SOL    HW215744   4.067   1.281   2.833 -1.7806 -1.5678 -0.3930
 1429SOL     OW15745   1.220   2.800   6.029 -0.3430  0.0606 -0.2148
 1429SOL    HW115746   1.193   2.891   6.021  0.8675  0.3618 -0.8886
 1429SOL    HW215747   1.241   2.791   6.122  1.8509  0.7031 -0.6487
 1430SOL     OW15748   1.503   1.451  15.960  0.0881 -0.3871  0.5270
 1430SOL    HW115749   1.554   1.372  15.976  1.7128  0.1721 -1.8220
 1430SOL    HW215750   1.502   1.487  16.048  0.9232  0.6251  0.1193
 1431SOL     OW15751   1.289   2.720   7.226  0.2965  0.1745 -0.2309
 1431SOL    HW115752   1.346   2.658   7.182 -0.5688 -0.6891 -0.1312
 1431SOL    HW215753   1.353   2.749   7.291  0.3557  0.0164 -0.2174
 1432SOL     OW15754   4.174   2.154   4.204 -0.5636 -0.2616 -0.2969
 1432SOL    HW115755   4.248   2.214   4.200 -1.3386  0.6635 -0.8023
 1432SOL    HW215756   4.111   2.224   4.187  0.3618  1.3789  3.1781
 1433SOL     OW15757   1.136   1.937   7.136  0.7121  0.0123 -0.2197
 1433SOL    HW115758   1.205   1.976   7.082  1.0761 -1.9554 -1.1677
 1433SOL    HW215759   1.181   1.917   7.218 -1.9935  1.3961  1.5880
 1434SOL     OW15760   2.418   1.564   5.235 -0.3992 -0.0244 -0.0571
 1434SOL    HW115761   2.427   1.585   5.328  0.4267 -0.3928 -0.0489
 1434SOL    HW215762   2.504   1.588   5.199 -0.7936 -0.3241 -1.1961
 1435SOL     OW15763   3.995   1.890   7.634  0.4999  0.4614 -0.5945
 1435SOL    HW115764   4.037   1.976   7.637  0.5580  0.3290  2.1262
 1435SOL    HW215765   3.958   1.880   7.546  0.5700  0.0660 -0.5797
 1436SOL     OW15766   3.739   4.646  11.863 -0.2456  0.0467 -0.1738
 1436SOL    HW115767   3.822   4.693  11.865  1.0418 -2.2296  0.0507
 1436SOL    HW215768   3.751   4.592  11.941 -1.1375 -0.3673 -0.3139
 1437SOL     OW15769   4.376   3.480  10.498  0.5413  0.2206 -0.0804
 1437SOL    HW115770   4.392   3.527  10.580  3.4836 -1.0648  0.0965
 1437SOL    HW215771   4.461   3.490  10.455  1.1607 -2.4320  0.5347
 1438SOL     OW15772   3.413   2.346   5.297  0.0747 -0.0743 -0.3161
 1438SOL    HW115773   3.343   2.344   5.232  0.1646  1.9394 -0.4609
 1438SOL    HW215774   3.367   2.376   5.376  0.0123 -1.4305  0.1613
 1439SOL     OW15775   1.438   4.396   6.003  0.3089 -0.1553 -0.3931
 1439SOL    HW115776   1.346   4.385   5.980  0.7220 -0.8240 -1.7129
 1439SOL    HW215777   1.463   4.384   5.912  1.2690  0.1277 -0.1673
 1440SOL     OW15778   2.205   3.448   4.389  0.8872 -0.1601 -0.1246
 1440SOL    HW115779   2.274   3.390   4.358 -0.0212 -1.6394  0.5935
 1440SOL    HW215780   2.134   3.384   4.386 -1.6999  2.8339 -1.9177
 1441SOL     OW15781   3.406   3.190   5.015 -0.1075  0.9658  0.4009
 1441SOL    HW115782   3.391   3.244   5.093  2.7660 -0.0036  1.6562
 1441SOL    HW215783   3.460   3.125   5.060 -2.5636 -0.9833  0.4804
 1442SOL     OW15784   0.454   3.414   5.681 -0.5782  0.6057 -0.2852
 1442SOL    HW115785   0.549   3.423   5.673 -0.8838  3.3851 -0.6283
 1442SOL    HW215786   0.438   3.334   5.631 -2.0327 -0.8718  2.5413
 1443SOL     OW15787   0.831   3.128   8.710  0.0856 -0.5178 -0.1522
 1443SOL    HW115788   0.914   3.137   8.664 -0.6211 -2.2248 -1.7207
 1443SOL    HW215789   0.847   3.202   8.769 -0.5210 -0.5039 -0.0026
 1444SOL     OW15790   1.638   2.006  11.761  0.1550 -0.6318 -0.0123
 1444SOL    HW115791   1.682   1.927  11.791  2.3582  1.4270  2.2710
 1444SOL    HW215792   1.624   2.056  11.842  0.2152  0.2326 -0.5341
 1445SOL     OW15793   0.100   4.198   6.692  0.4041  0.5128  0.4954
 1445SOL    HW115794   0.076   4.241   6.610  0.5792  0.2560  0.3132
 1445SOL    HW215795   0.167   4.135   6.668 -0.0725  0.7302 -1.4323
 1446SOL     OW15796   0.358   3.468   2.903  0.2780 -0.1952  0.3013
 1446SOL    HW115797   0.410   3.525   2.846  0.3797 -0.4615  0.1231
 1446SOL    HW215798   0.308   3.525   2.961  1.0062  0.2136  0.5293
 1447SOL     OW15799   2.363   1.656  11.757 -0.0602 -0.2798  0.3760
 1447SOL    HW115800   2.362   1.737  11.808  0.6445 -0.0790  0.0762
 1447SOL    HW215801   2.453   1.625  11.758  0.6583  1.6051 -4.5790
 1448SOL     OW15802   2.426   4.529   9.452 -0.2558 -0.1627  0.1375
 1448SOL    HW115803   2.392   4.617   9.437  1.8323  0.3553 -1.6188
 1448SOL    HW215804   2.472   4.494   9.375  2.7904 -2.8005  3.1367
 1449SOL     OW15805   0.003   2.393  10.120  0.5273 -0.2167  0.0483
 1449SOL    HW115806   4.713   2.485  10.142  0.5218  0.5154 -2.9825
 1449SOL    HW215807   4.682   2.345  10.189  0.6269 -0.0020  0.2609
 1450SOL     OW15808   1.989   2.034   7.371  0.3929 -0.0314 -0.3000
 1450SOL    HW115809   2.013   2.018   7.462 -0.9039 -0.9312 -0.1029
 1450SOL    HW215810   1.902   2.073   7.378 -0.3058 -1.3624 -1.3398
 1451SOL     OW15811   3.304   0.723   0.275  0.3348 -0.5866  0.5469
 1451SOL    HW115812   3.240   0.652   0.280 -0.6338  0.3488  1.4441
 1451SOL    HW215813   3.363   0.693   0.207  1.9057  0.5536  1.4038
 1452SOL     OW15814   1.535   1.228   3.312  0.7035 -0.5003  0.3146
 1452SOL    HW115815   1.542   1.136   3.288 -2.3558 -0.1209 -2.0355
 1452SOL    HW215816   1.488   1.219   3.395 -0.2769  0.4342 -0.1414
 1453SOL     OW15817   4.154   2.965  12.333  0.1665 -0.5202 -0.1261
 1453SOL    HW115818   4.230   2.992  12.385  0.9722 -2.5407 -0.2894
 1453SOL    HW215819   4.173   2.873  12.315  0.0692 -0.7224  0.7709
 1454SOL     OW15820   3.396   1.742  12.443 -0.0277  0.3793  0.3747
 1454SOL    HW115821   3.354   1.663  12.409 -2.9753  1.1829  2.1775
 1454SOL    HW215822   3.372   1.801  12.371  1.1467 -0.6893 -0.8926
 1455SOL     OW15823   0.604   3.936  12.750 -0.4845 -0.2303 -0.7010
 1455SOL    HW115824   0.556   3.859  12.718 -1.4207 -0.0622  0.2966
 1455SOL    HW215825   0.661   3.943  12.674  0.4618 -0.2824  0.0048
 1456SOL     OW15826   3.335   3.828   4.084 -0.2140  0.3924 -0.1448
 1456SOL    HW115827   3.337   3.883   4.007  1.1239  0.1991 -0.2365
 1456SOL    HW215828   3.345   3.892   4.154 -2.9700 -0.8033  1.3811
 1457SOL     OW15829   0.964   1.838  16.537  0.0439  0.1304 -0.0429
 1457SOL    HW115830   1.000   1.912  16.487  0.6319  0.6898  1.2058
 1457SOL    HW215831   1.039   1.779  16.532  0.9723  1.3900 -1.0020
 1458SOL     OW15832   2.516   2.445  12.079 -0.5498  0.2273 -0.5927
 1458SOL    HW115833   2.524   2.536  12.051 -0.0750  0.2208 -0.4830
 1458SOL    HW215834   2.423   2.430  12.094 -0.4997 -0.3057 -0.8303
 1459SOL     OW15835   1.458   1.037   5.533 -0.4822 -1.0342 -0.4285
 1459SOL    HW115836   1.406   1.003   5.606 -0.4333 -0.7326 -0.2500
 1459SOL    HW215837   1.430   1.122   5.499 -0.4909  0.1939  2.5867
 1460SOL     OW15838   0.583   2.146   7.941 -0.1321 -0.0060 -0.2448
 1460SOL    HW115839   0.623   2.063   7.914  1.0380  1.4381 -2.9517
 1460SOL    HW215840   0.566   2.185   7.856 -0.4922 -0.4754 -0.3899
 1461SOL     OW15841   1.683   3.205   7.781 -0.5988  0.0187  0.3692
 1461SOL    HW115842   1.670   3.112   7.762  2.8720 -0.1584 -1.0963
 1461SOL    HW215843   1.738   3.210   7.860  1.6219  4.0115 -1.4013
 1462SOL     OW15844   0.742   0.994   8.764  0.9547 -0.3281 -0.4190
 1462SOL    HW115845   0.806   1.063   8.779 -0.6900  0.6314  2.2965
 1462SOL    HW215846   0.795   0.928   8.719 -0.3695 -1.1867 -0.7384
 1463SOL     OW15847   3.413   0.528  17.134 -0.2578 -0.3200  0.2259
 1463SOL    HW115848   3.349   0.588  17.095 -1.5333 -2.8130 -1.4648
 1463SOL    HW215849   3.445   0.591  17.199  1.4432 -1.5041  0.5292
 1464SOL     OW15850   0.247   3.766   0.692  0.2509  0.0744  0.0787
 1464SOL    HW115851   0.203   3.720   0.620  0.9456 -0.5026  0.0183
 1464SOL    HW215852   0.173   3.775   0.751 -0.4423 -0.3881 -0.7113
 1465SOL     OW15853   1.973   1.635   2.968 -0.0504  0.0009  0.8197
 1465SOL    HW115854   2.046   1.697   2.973  0.0890 -0.0770 -0.3543
 1465SOL    HW215855   1.907   1.674   2.911 -0.0720  0.0333  0.8668
 1466SOL     OW15856   3.582   2.228  15.985  0.5341 -0.0475  0.4114
 1466SOL    HW115857   3.532   2.262  16.058  1.9546  1.1435  0.8351
 1466SOL    HW215858   3.549   2.139  15.999  1.2943 -0.6866 -1.8257
 1467SOL     OW15859   0.172   0.027   3.248  0.3211 -0.3069 -1.2997
 1467SOL    HW115860   0.117   0.099   3.280  0.6503 -0.4395 -0.4133
 1467SOL    HW215861   0.130   0.008   3.164 -0.6496 -1.2198 -0.6097
 1468SOL     OW15862   4.512   3.436   3.312  0.1111  0.6131 -0.2666
 1468SOL    HW115863   4.555   3.465   3.231  1.6593 -2.1615 -0.4420
 1468SOL    HW215864   4.420   3.441   3.286  0.6822  0.9737 -2.2346
 1469SOL     OW15865   0.058   4.438  13.209  0.2557  0.2321  0.5027
 1469SOL    HW115866   4.719   4.368  13.191 -0.6725  1.0597  0.5074
 1469SOL    HW215867   0.018   4.484  13.283 -1.0557 -0.1077  0.0066
 1470SOL     OW15868   0.065   0.368  11.386 -0.2784  0.4796  0.7066
 1470SOL    HW115869   0.086   0.278  11.412  2.3278  0.4675 -1.4717
 1470SOL    HW215870   0.122   0.422  11.440 -1.1446  0.0839  2.0099
 1471SOL     OW15871   2.394   4.210  17.077  0.2536 -0.4797 -0.0831
 1471SOL    HW115872   2.377   4.223  16.984  0.1381 -0.4843 -0.0617
 1471SOL    HW215873   2.307   4.195  17.114 -0.2121  2.6196  0.0686
 1472SOL     OW15874   1.001   2.035   0.837  0.4901  0.2566 -0.2474
 1472SOL    HW115875   0.946   2.103   0.799 -0.5005 -0.3591  0.0776
 1472SOL    HW215876   0.966   1.949   0.811 -2.1767  0.5936  2.2389
 1473SOL     OW15877   3.022   1.472   7.813 -0.1839  0.0369 -0.3085
 1473SOL    HW115878   3.096   1.439   7.762  0.5830  1.9308 -0.4565
 1473SOL    HW215879   2.966   1.504   7.743 -1.2332  2.2715  1.5440
 1474SOL     OW15880   1.402   4.480   3.445  0.6670 -0.2734 -0.4423
 1474SOL    HW115881   1.415   4.449   3.355 -2.3994 -2.7721 -0.0175
 1474SOL    HW215882   1.468   4.428   3.491  1.0375 -1.0391 -1.8192
 1475SOL     OW15883   4.274   0.770  14.388  0.4503  0.1805 -0.1340
 1475SOL    HW115884   4.282   0.813  14.302 -1.0972  2.2136  0.7572
 1475SOL    HW215885   4.193   0.727  14.363  1.4970 -0.9232 -1.6529
 1476SOL     OW15886   1.119   2.892   7.389 -0.0754  0.1511 -0.2051
 1476SOL    HW115887   1.207   2.856   7.400  0.6074  2.2148  1.0941
 1476SOL    HW215888   1.089   2.887   7.479  0.1932  1.3798 -0.0428
 1477SOL     OW15889   1.583   2.828  15.601  0.5299  0.0299 -0.3649
 1477SOL    HW115890   1.555   2.919  15.590 -0.2667 -0.1015  0.6145
 1477SOL    HW215891   1.652   2.822  15.535  0.9772  1.6435 -0.0456
 1478SOL     OW15892   3.370   1.249   2.154  0.3947  0.8771 -0.1102
 1478SOL    HW115893   3.311   1.292   2.092 -0.5130 -0.0476  0.1188
 1478SOL    HW215894   3.404   1.177   2.101 -1.9812 -0.0423 -0.3717
 1479SOL     OW15895   4.704   3.602   4.097  0.4381 -0.1186  0.5060
 1479SOL    HW115896   0.044   3.666   4.128  0.6646  0.7683 -1.8250
 1479SOL    HW215897   4.690   3.653   4.018  2.3526  1.9031  1.4831
 1480SOL     OW15898   0.438   4.537   2.742  0.2720  0.5053  0.0271
 1480SOL    HW115899   0.381   4.592   2.687  0.1382  1.1426  0.8084
 1480SOL    HW215900   0.525   4.531   2.702  0.7488  0.7204  1.0410
 1481SOL     OW15901   1.554   1.839   8.990  0.5330  0.4600 -0.5574
 1481SOL    HW115902   1.642   1.878   8.983  0.0806  1.6892  0.5521
 1481SOL    HW215903   1.504   1.904   9.040 -1.1510 -2.4945  1.5363
 1482SOL     OW15904   2.393   2.439  16.289  0.1392  0.1864 -0.1568
 1482SOL    HW115905   2.353   2.352  16.298 -1.2847  0.8546 -0.0580
 1482SOL    HW215906   2.404   2.439  16.194  1.4803 -0.0110 -0.0024
 1483SOL     OW15907   2.162   1.959   4.785 -0.1231  0.1869  0.3021
 1483SOL    HW115908   2.129   1.898   4.851  1.3141  0.3619  1.1909
 1483SOL    HW215909   2.177   1.891   4.718 -0.1512 -0.7058  1.2051
 1484SOL     OW15910   1.981   0.911   8.241 -0.4463  0.3814 -0.0130
 1484SOL    HW115911   1.890   0.894   8.265  0.6473 -1.0051  3.1927
 1484SOL    HW215912   1.972   0.992   8.190 -2.1468 -0.9243 -1.7712
 1485SOL     OW15913   4.247   1.593   8.868  0.2021 -0.0663 -0.3930
 1485SOL    HW115914   4.179   1.608   8.803  0.3416 -1.1406 -0.7928
 1485SOL    HW215915   4.289   1.677   8.886  3.0908 -1.5717 -0.0167
 1486SOL     OW15916   2.837   4.170   0.431  0.5326  0.1361  0.3431
 1486SOL    HW115917   2.897   4.124   0.372 -0.5431  0.8435 -1.3061
 1486SOL    HW215918   2.896   4.219   0.488 -0.1508 -1.5728  2.5234
 1487SOL     OW15919   3.414   1.743   2.912 -0.4428  0.0503  0.4712
 1487SOL    HW115920   3.423   1.835   2.886 -2.0668  0.4135  1.2254
 1487SOL    HW215921   3.486   1.729   2.974  0.8163 -0.9654 -1.2213
 1488SOL     OW15922   0.970   1.882  17.584 -0.0618  0.2749  0.1666
 1488SOL    HW115923   1.049   1.855  17.632 -1.4025 -2.2080  0.9577
 1488SOL    HW215924   1.018   1.893  17.502  2.0157 -0.1157  1.3186
 1489SOL     OW15925   1.651   0.533   0.352 -0.5167  0.1325 -0.0668
 1489SOL    HW115926   1.734   0.484   0.353  0.0884  1.1683  0.1195
 1489SOL    HW215927   1.586   0.464   0.334 -0.0198  0.4435 -3.1819
 1490SOL     OW15928   2.353   2.463   9.462 -0.3244  0.1151  0.2692
 1490SOL    HW115929   2.337   2.391   9.523  1.6607 -0.2601  0.3678
 1490SOL    HW215930   2.273   2.515   9.469  0.2414  1.3592 -2.4558
 1491SOL     OW15931   0.268   3.838   7.224  0.3326 -0.4227 -0.2227
 1491SOL    HW115932   0.274   3.918   7.172  1.7145 -0.7846 -0.6177
 1491SOL    HW215933   0.356   3.807   7.204  1.1240  1.7335 -0.0952
 1492SOL     OW15934   4.139   2.295   6.873 -0.0499  0.5173 -0.2533
 1492SOL    HW115935   4.218   2.250   6.842 -0.2474  0.5200 -0.7462
 1492SOL    HW215936   4.147   2.377   6.825 -1.6785  0.2792 -0.9224
 1493SOL     OW15937   0.082   3.113  12.319 -0.5097 -0.2314 -0.5084
 1493SOL    HW115938   0.027   3.143  12.392  0.4952 -2.5147  1.1900
 1493SOL    HW215939   0.040   3.148  12.241 -1.0448  3.2740  1.3498
 1494SOL     OW15940   3.922   4.282  16.823  0.2090 -0.2765  0.1392
 1494SOL    HW115941   3.831   4.304  16.801  0.3944  3.2209  2.9214
 1494SOL    HW215942   3.907   4.231  16.902 -0.2882  1.4637  1.1697
 1495SOL     OW15943   0.676   3.470   9.674 -0.2822 -0.4595 -0.4624
 1495SOL    HW115944   0.641   3.537   9.614  0.7805 -1.8481 -2.6226
 1495SOL    HW215945   0.686   3.522   9.754  0.3597  0.8933 -1.4147
 1496SOL     OW15946   3.987   2.116  12.278  0.7030  0.2116  0.0214
 1496SOL    HW115947   3.896   2.110  12.249  0.5441 -0.0319  0.5621
 1496SOL    HW215948   3.974   2.136  12.371  1.1929  0.2154  0.0882
 1497SOL     OW15949   3.689   3.125   3.941 -0.6158  0.1742 -0.4883
 1497SOL    HW115950   3.727   3.129   3.854  2.8295 -0.3872  0.9679
 1497SOL    HW215951   3.735   3.202   3.975 -0.2312  0.0603 -0.7496
 1498SOL     OW15952   1.545   2.835   9.729 -0.3934 -0.1105 -0.7836
 1498SOL    HW115953   1.585   2.770   9.671 -0.1326  0.6676 -1.4702
 1498SOL    HW215954   1.579   2.912   9.685 -0.5268 -0.0487 -0.7777
 1499SOL     OW15955   2.942   2.159  15.118  0.7724  0.0067 -0.2449
 1499SOL    HW115956   3.028   2.201  15.123  0.3820  0.9283 -1.2171
 1499SOL    HW215957   2.909   2.165  15.207 -0.2569  0.3462 -0.6479
 1500SOL     OW15958   2.479   4.008  12.015 -0.0399  0.0434 -0.0678
 1500SOL    HW115959   2.535   4.084  11.999  0.8475 -0.8109 -0.9962
 1500SOL    HW215960   2.520   3.942  11.959 -1.3570 -1.8912  1.2297
 1501SOL     OW15961   1.318   0.011   8.629 -0.3484  0.2994 -0.3764
 1501SOL    HW115962   1.344   0.022   8.720  0.0594  0.2294 -0.4889
 1501SOL    HW215963   1.401   0.024   8.584 -0.7496 -1.0020 -1.5045
 1502SOL     OW15964   3.675   1.020   1.613 -0.2434 -0.4181 -0.1471
 1502SOL    HW115965   3.751   1.057   1.658 -0.6986  0.7894 -0.3678
 1502SOL    HW215966   3.707   0.931   1.602 -0.0019 -0.2757 -0.5886
 1503SOL     OW15967   2.660   2.667  10.180  0.1516  0.4116  0.6525
 1503SOL    HW115968   2.679   2.576  10.157  0.7392  0.9643 -1.0742
 1503SOL    HW215969   2.744   2.709  10.161  0.8592 -0.9721  0.7435
 1504SOL     OW15970   1.211   2.407   7.770 -0.1796 -0.0271 -0.1094
 1504SOL    HW115971   1.219   2.358   7.689 -2.1776  0.4375 -0.6047
 1504SOL    HW215972   1.243   2.493   7.741 -0.2708 -0.0641 -0.3192
 1505SOL     OW15973   4.193   0.559   8.617 -0.2518  0.2962 -0.2243
 1505SOL    HW115974   4.232   0.627   8.673 -2.5856  0.2845  1.3989
 1505SOL    HW215975   4.278   0.515   8.607 -0.8130 -0.9349  0.3746
 1506SOL     OW15976   1.417   1.581   4.673 -0.4422  0.0581  0.7688
 1506SOL    HW115977   1.496   1.593   4.621  0.3713  0.5726  2.1331
 1506SOL    HW215978   1.366   1.653   4.636 -0.5023  0.1068  0.9459
 1507SOL     OW15979   3.770   1.754   4.400 -0.0233  0.2768  0.3486
 1507SOL    HW115980   3.864   1.753   4.414  0.2835 -2.1808 -1.8119
 1507SOL    HW215981   3.761   1.664   4.369  1.0974 -0.3277  1.8105
 1508SOL     OW15982   2.209   3.309   3.391  0.3631 -0.4716  0.0468
 1508SOL    HW115983   2.123   3.279   3.418  0.4772  0.4051  1.3669
 1508SOL    HW215984   2.196   3.361   3.311  0.2571  1.0822  1.0798
 1509SOL     OW15985   2.695   4.566   0.286  0.2621  0.6718 -0.1004
 1509SOL    HW115986   2.602   4.571   0.308  0.6480  0.1732  1.6247
 1509SOL    HW215987   2.721   4.493   0.342  3.2558  2.1448  0.4269
 1510SOL     OW15988   2.427   3.884   2.629 -0.3469 -0.0413 -0.0264
 1510SOL    HW115989   2.509   3.929   2.606 -0.3414 -0.3984 -0.7219
 1510SOL    HW215990   2.430   3.800   2.583  0.2860  0.2279 -0.4922
 1511SOL     OW15991   3.618   0.486  13.302  0.2023  0.2365 -0.2009
 1511SOL    HW115992   3.623   0.555  13.368 -1.2197  2.0833 -2.0394
 1511SOL    HW215993   3.685   0.422  13.327 -1.2105 -1.0389  0.3133
 1512SOL     OW15994   2.790   2.010   5.253  0.2694  0.4329 -0.2629
 1512SOL    HW115995   2.859   1.949   5.278 -0.8972 -0.8540 -0.1978
 1512SOL    HW215996   2.719   1.976   5.306  0.2024 -1.8166 -1.7961
 1513SOL     OW15997   1.098   2.160   5.272 -0.1246 -0.7067 -0.0356
 1513SOL    HW115998   1.142   2.149   5.188  1.0403  0.6451  0.4056
 1513SOL    HW215999   1.041   2.237   5.262  0.6030  0.2369  3.0455
 1514SOL     OW16000   2.965   0.258   3.673 -0.2424 -0.2591 -0.2745
 1514SOL    HW116001   2.961   0.352   3.689  2.7938 -0.1812  0.0459
 1514SOL    HW216002   3.055   0.251   3.640 -0.0472  0.5523  0.0831
 1515SOL     OW16003   4.476   1.342   2.848 -0.1426  0.3243 -1.1633
 1515SOL    HW116004   4.446   1.297   2.770  0.9579  0.3538 -1.5959
 1515SOL    HW216005   4.419   1.418   2.833  1.7624  1.7051 -1.4472
 1516SOL     OW16006   0.020   3.790   8.064  0.2293  0.4108  0.6093
 1516SOL    HW116007   4.706   3.804   8.152  0.9436  0.2073  0.9437
 1516SOL    HW216008   0.016   3.883   8.041 -1.0197  0.1280 -0.3024
 1517SOL     OW16009   3.791   0.023  12.790  0.0582  0.4236  0.1369
 1517SOL    HW116010   3.729   0.072  12.844  0.5878  0.5330  0.6432
 1517SOL    HW216011   3.865   0.080  12.812 -0.1752 -0.0595  2.1161
 1518SOL     OW16012   2.570   2.442   4.434  0.2233 -0.4445  0.2403
 1518SOL    HW116013   2.647   2.415   4.383 -0.3794 -1.4025 -0.1438
 1518SOL    HW216014   2.561   2.372   4.499 -0.6678 -1.2838 -0.8067
 1519SOL     OW16015   2.044   3.332   8.153 -0.2608 -0.1785  0.4129
 1519SOL    HW116016   2.022   3.407   8.209 -1.1499 -1.2080  1.4256
 1519SOL    HW216017   2.130   3.300   8.181  0.7547  0.1715 -2.3367
 1520SOL     OW16018   1.298   4.714  10.830  0.4027  0.0492  0.2240
 1520SOL    HW116019   1.315   4.649  10.763 -1.0487  0.7322 -0.7969
 1520SOL    HW216020   1.247   4.665  10.895  0.8371  0.3714  0.8108
 1521SOL     OW16021   3.113   4.275   6.369 -0.1927 -0.3791  0.8460
 1521SOL    HW116022   3.107   4.187   6.405  0.0737 -0.4117  0.8089
 1521SOL    HW216023   3.097   4.310   6.457  1.6484 -0.8980  1.3869
 1522SOL     OW16024   0.563   4.163   6.753  0.2589  0.4490  0.2501
 1522SOL    HW116025   0.618   4.086   6.742 -1.5775 -0.8978  0.6228
 1522SOL    HW216026   0.477   4.138   6.785 -0.1612  1.9380  0.2972
 1523SOL     OW16027   4.367   3.916  14.379  0.3276 -0.2740 -0.0785
 1523SOL    HW116028   4.455   3.888  14.355  1.4207  1.6991  1.6657
 1523SOL    HW216029   4.371   3.903  14.474 -1.9951 -1.2413 -0.1157
 1524SOL     OW16030   1.404   0.023   4.305  0.1122 -0.0374 -0.2983
 1524SOL    HW116031   1.416   0.084   4.378  0.4693 -0.5275  0.0515
 1524SOL    HW216032   1.368   4.665   4.340  1.5861 -0.6760 -0.2926
 1525SOL     OW16033   2.554   0.701  14.455  0.2670 -0.1433 -0.1669
 1525SOL    HW116034   2.532   0.668  14.368  0.2119  0.7795 -0.5004
 1525SOL    HW216035   2.649   0.697  14.464  0.2958 -0.6175 -0.6675
 1526SOL     OW16036   4.247   3.513   2.174  0.1544 -0.4550 -0.0461
 1526SOL    HW116037   4.270   3.525   2.266 -1.7470  0.7395  0.2728
 1526SOL    HW216038   4.332   3.495   2.134 -0.8034  1.6106 -3.0109
 1527SOL     OW16039   1.795   4.465   6.641  0.0326  0.2734  0.2747
 1527SOL    HW116040   1.759   4.408   6.710 -0.5223  0.9673  0.5598
 1527SOL    HW216041   1.771   4.549   6.680 -0.0391  0.7780 -0.8861
 1528SOL     OW16042   3.555   1.315   7.665  0.5809 -0.6278 -0.2549
 1528SOL    HW116043   3.513   1.229   7.657  0.7664 -0.9948  2.7691
 1528SOL    HW216044   3.623   1.306   7.598  0.0955  0.8145 -0.9433
 1529SOL     OW16045   3.340   2.301  17.544  0.4124 -0.5454  0.1052
 1529SOL    HW116046   3.404   2.358  17.503  1.9830 -1.1916  1.6434
 1529SOL    HW216047   3.273   2.362  17.575  0.9830  1.6454 -3.0399
 1530SOL     OW16048   3.426   4.668   7.461 -0.2360  0.6231 -0.4077
 1530SOL    HW116049   3.378   4.667   7.544  0.6297  2.3717  0.1229
 1530SOL    HW216050   3.447   0.038   7.464  0.7203  0.3961 -0.2004
 1531SOL     OW16051   1.551   3.061  13.158 -0.7720 -0.3419  0.6478
 1531SOL    HW116052   1.559   2.966  13.143 -2.4211  0.2011 -3.7526
 1531SOL    HW216053   1.624   3.103  13.112 -1.1646  0.9817  1.2311
 1532SOL     OW16054   2.756   0.013   2.897  0.1510 -0.0329  0.3008
 1532SOL    HW116055   2.814   0.039   2.826  0.4301 -0.9671  0.1856
 1532SOL    HW216056   2.676   0.032   2.848  0.7180  1.2789 -0.1187
 1533SOL     OW16057   3.241   0.375  16.742  0.0540 -0.1795 -0.4065
 1533SOL    HW116058   3.326   0.400  16.778 -0.3277 -1.1062  1.1419
 1533SOL    HW216059   3.245   0.426  16.661  1.2381  0.5398  0.0873
 1534SOL     OW16060   3.548   4.275   1.460 -0.3917 -0.7320 -0.1496
 1534SOL    HW116061   3.463   4.317   1.475 -0.2883 -0.8432  0.7315
 1534SOL    HW216062   3.560   4.268   1.365 -0.3842 -0.5861 -0.1598
 1535SOL     OW16063   2.920   0.673   4.819 -0.5951 -0.0800 -0.0841
 1535SOL    HW116064   2.887   0.617   4.748 -0.4880 -0.0104 -0.1873
 1535SOL    HW216065   2.834   0.711   4.838 -0.5134  0.6340 -1.1206
 1536SOL     OW16066   0.634   1.758   4.802 -0.2890  0.3634  0.0264
 1536SOL    HW116067   0.707   1.796   4.851 -0.9060 -0.1171  1.3046
 1536SOL    HW216068   0.610   1.684   4.858 -1.4928 -0.3435 -1.4141
 1537SOL     OW16069   0.627   2.622   5.746 -0.7273 -0.4004 -0.3313
 1537SOL    HW116070   0.708   2.651   5.789 -1.1613 -1.3703  1.1389
 1537SOL    HW216071   0.653   2.611   5.654 -0.8826  0.6515 -0.4938
 1538SOL     OW16072   3.441   2.989   6.040  0.4147 -0.3332  0.5584
 1538SOL    HW116073   3.499   3.063   6.053  0.7308 -0.8354  1.9937
 1538SOL    HW216074   3.472   2.953   6.123  1.8274 -1.1630 -0.3285
 1539SOL     OW16075   3.586   2.498   3.948  0.5784  0.1974 -0.2347
 1539SOL    HW116076   3.565   2.510   3.856  1.3048  0.2866 -0.3884
 1539SOL    HW216077   3.665   2.446   3.933  0.1875 -0.3599 -0.3425
 1540SOL     OW16078   3.422   2.194   8.866  0.3519 -0.4226  0.2514
 1540SOL    HW116079   3.362   2.239   8.808 -0.6457 -1.0428  0.7998
 1540SOL    HW216080   3.396   2.103   8.854  2.6121 -0.8732 -1.3146
 1541SOL     OW16081   0.235   4.060   8.515  0.1234  0.6754 -0.3099
 1541SOL    HW116082   0.248   3.979   8.564  0.9926 -0.2240 -2.0603
 1541SOL    HW216083   0.142   4.074   8.536 -0.6187 -1.3258 -2.2970
 1542SOL     OW16084   0.423   3.585   7.398 -0.2624  0.6927  0.0611
 1542SOL    HW116085   0.403   3.492   7.398 -1.9899  1.0738  0.2720
 1542SOL    HW216086   0.335   3.623   7.403 -0.8015 -0.3863 -1.4503
 1543SOL     OW16087   4.041   3.134   3.766 -0.1463  0.6851 -0.0099
 1543SOL    HW116088   3.954   3.134   3.725  0.0836 -0.5379 -0.5032
 1543SOL    HW216089   4.087   3.204   3.720 -1.2297  0.1073 -1.9962
 1544SOL     OW16090   4.613   4.456   4.308 -0.3580 -0.5758 -0.1463
 1544SOL    HW116091   4.605   4.469   4.403  1.4560  0.1464 -0.1037
 1544SOL    HW216092   4.518   4.451   4.295 -0.1712 -0.1571 -1.6599
 1545SOL     OW16093   2.390   4.624  16.941  0.3204 -0.1580  0.0974
 1545SOL    HW116094   2.386   4.529  16.928 -0.7440  0.0537 -1.1369
 1545SOL    HW216095   2.396   4.648  16.849  1.5904 -0.7155  0.0394
 1546SOL     OW16096   1.277   1.638   2.437 -0.0951 -0.0869 -0.1381
 1546SOL    HW116097   1.235   1.596   2.512 -1.8103 -2.0223 -2.1733
 1546SOL    HW216098   1.267   1.572   2.368  0.7389 -0.0790 -0.2671
 1547SOL     OW16099   2.363   3.816   0.624 -0.1866 -0.4234 -0.1615
 1547SOL    HW116100   2.365   3.854   0.536 -0.6014  0.6237  0.2857
 1547SOL    HW216101   2.388   3.725   0.605  3.0963  0.2199  1.1346
 1548SOL     OW16102   1.101   0.691   7.672  0.0256 -0.4812  0.0737
 1548SOL    HW116103   1.070   0.626   7.608 -1.1841 -0.9184  1.0984
 1548SOL    HW216104   1.023   0.743   7.688 -0.2787 -1.2531  1.1187
 1549SOL     OW16105   2.336   1.077   6.706  0.2710  0.4533  0.3022
 1549SOL    HW116106   2.384   1.034   6.776 -0.7738  1.0989  1.4067
 1549SOL    HW216107   2.389   1.052   6.630 -0.6300 -1.3467  0.2612
 1550SOL     OW16108   3.802   2.642   7.810  0.6053 -0.1324  0.0409
 1550SOL    HW116109   3.784   2.548   7.813  0.5938 -0.1643 -1.4295
 1550SOL    HW216110   3.725   2.690   7.782  0.0473 -0.8270  0.3749
 1551SOL     OW16111   2.227   2.998  15.723  0.3979 -0.0146  0.3110
 1551SOL    HW116112   2.157   3.057  15.751 -0.6763 -0.7606 -0.8096
 1551SOL    HW216113   2.299   3.060  15.722  1.5608 -1.3396  1.1946
 1552SOL     OW16114   4.544   2.155   9.922  0.0219 -0.4905 -0.6759
 1552SOL    HW116115   4.504   2.132  10.006  0.2576 -0.8882 -0.6760
 1552SOL    HW216116   4.589   2.071   9.912 -0.9227 -1.1910  0.9054
 1553SOL     OW16117   0.937   1.375   2.762 -0.9379 -0.1272 -0.2746
 1553SOL    HW116118   0.973   1.313   2.825 -0.4698 -0.8128 -1.2197
 1553SOL    HW216119   0.906   1.319   2.691  1.3548  0.6771 -1.9032
 1554SOL     OW16120   0.500   1.918  16.279  0.0450  0.3375 -0.2092
 1554SOL    HW116121   0.419   1.953  16.241  0.4995  1.4987 -0.1097
 1554SOL    HW216122   0.545   2.001  16.263  1.6810 -0.4021  0.5983
 1555SOL     OW16123   3.600   2.096   2.503 -0.3437 -0.4071  0.6293
 1555SOL    HW116124   3.640   2.036   2.566 -0.8846 -0.9942  0.4065
 1555SOL    HW216125   3.509   2.107   2.533 -0.1904 -1.7157  1.5570
 1556SOL     OW16126   3.392   3.827   7.015 -0.6324 -0.3568 -0.2639
 1556SOL    HW116127   3.409   3.858   6.926 -0.0409  1.1797  0.3947
 1556SOL    HW216128   3.334   3.897   7.045  1.5310  0.9752  0.7511
 1557SOL     OW16129   3.253   1.698   3.593  0.8780  0.2041 -0.4852
 1557SOL    HW116130   3.255   1.713   3.688  2.2563 -2.8609 -0.0053
 1557SOL    HW216131   3.158   1.707   3.586  0.8310 -0.2724 -0.4491
 1558SOL     OW16132   4.133   4.331   5.250 -0.6115 -0.3914  0.0190
 1558SOL    HW116133   4.186   4.385   5.309  0.4102 -0.7440 -0.5690
 1558SOL    HW216134   4.126   4.394   5.179 -0.2533 -1.6147 -1.1055
 1559SOL     OW16135   0.261   3.541  17.590 -0.1156  0.1891  0.4599
 1559SOL    HW116136   0.246   3.621  17.641  2.4732 -1.2688  3.5468
 1559SOL    HW216137   0.343   3.501  17.622 -0.1746  2.0549  2.9428
 1560SOL     OW16138   3.664   4.522   2.903  0.2578  0.1560  0.4423
 1560SOL    HW116139   3.722   4.571   2.845  1.2541 -2.9287 -1.1890
 1560SOL    HW216140   3.706   4.531   2.988 -1.1179 -0.8349  1.2334
 1561SOL     OW16141   0.829   4.713   8.761 -0.1766 -0.7293  0.3547
 1561SOL    HW116142   0.855   0.072   8.802  0.3569 -1.7087  1.9741
 1561SOL    HW216143   0.916   4.673   8.761  0.7205  1.2457  1.2317
 1562SOL     OW16144   2.379   0.346   8.019  0.0869  0.0844 -0.3593
 1562SOL    HW116145   2.326   0.267   8.022  0.7628 -0.2677  1.5592
 1562SOL    HW216146   2.454   0.322   7.965  0.1819  0.2213 -0.2864
 1563SOL     OW16147   2.012   0.420  16.355 -0.0840 -0.1410  0.1261
 1563SOL    HW116148   2.096   0.400  16.396  0.9329  0.6939 -1.5578
 1563SOL    HW216149   2.010   0.342  16.300 -0.3335 -0.1981  0.2160
 1564SOL     OW16150   0.201   0.373   4.769 -1.3014  0.0890 -0.4502
 1564SOL    HW116151   0.280   0.366   4.823 -1.1332  1.1061 -0.5763
 1564SOL    HW216152   0.140   0.408   4.834 -0.2962  0.3801  0.3436
 1565SOL     OW16153   4.468   0.295   9.181  0.1169  0.0832  0.0751
 1565SOL    HW116154   4.493   0.206   9.154 -1.8295 -1.2270  2.6086
 1565SOL    HW216155   4.395   0.273   9.239 -0.2437  1.2737  0.0574
 1566SOL     OW16156   1.544   0.061  10.914  0.3937 -0.2056 -0.0794
 1566SOL    HW116157   1.559   4.714  10.976  0.0889  0.0931  0.3359
 1566SOL    HW216158   1.455   0.049  10.882 -0.0023  1.2772  0.4608
 1567SOL     OW16159   3.489   2.936   8.921  0.3861 -0.1271  0.2562
 1567SOL    HW116160   3.524   2.963   8.836  0.9212 -2.9832 -0.4213
 1567SOL    HW216161   3.458   2.849   8.899  1.9201 -0.5237 -0.3122
 1568SOL     OW16162   4.700   1.593   5.143  0.3368  0.6575 -0.0891
 1568SOL    HW116163   0.058   1.610   5.095  0.5501  1.1905  0.4713
 1568SOL    HW216164   4.658   1.562   5.062 -1.6767  0.6715  0.9579
 1569SOL     OW16165   0.360   0.824   5.557  0.7632 -0.2102 -0.1482
 1569SOL    HW116166   0.356   0.809   5.462  0.0903  1.0466 -0.3157
 1569SOL    HW216167   0.317   0.743   5.585  1.1854  0.0019  1.0846
 1570SOL     OW16168   1.793   2.055   5.494 -0.2855  0.1908 -0.3191
 1570SOL    HW116169   1.803   2.063   5.399 -2.4143  1.3817 -0.4450
 1570SOL    HW216170   1.734   1.979   5.491 -1.3231  0.9641  0.1468
 1571SOL     OW16171   1.180   0.986  12.093 -0.3078 -0.2500 -0.1890
 1571SOL    HW116172   1.096   1.016  12.128 -1.5667 -1.5997 -2.0513
 1571SOL    HW216173   1.215   1.074  12.078 -3.0889  1.3055  2.4334
 1572SOL     OW16174   1.868   0.890   6.987 -0.3788  0.0306 -0.3644
 1572SOL    HW116175   1.826   0.965   7.028  1.2801 -0.1733  1.7100
 1572SOL    HW216176   1.961   0.909   6.977  0.2755 -2.9281 -0.0937
 1573SOL     OW16177   0.616   1.486   7.024  0.0278  0.5526  0.0588
 1573SOL    HW116178   0.653   1.536   6.951 -1.0593 -0.7574 -1.3843
 1573SOL    HW216179   0.547   1.550   7.044 -2.0698 -1.9955  0.8762
 1574SOL     OW16180   1.862   2.096   1.025 -0.0290  0.1368 -0.2142
 1574SOL    HW116181   1.940   2.127   0.980 -0.8533 -0.8974 -2.3922
 1574SOL    HW216182   1.872   2.002   1.009  1.4041  0.2924 -0.1967
 1575SOL     OW16183   3.675   0.661   4.391  0.0744  0.3487  0.4546
 1575SOL    HW116184   3.647   0.752   4.396 -1.0541  0.0215  0.0783
 1575SOL    HW216185   3.742   0.676   4.458 -0.9304  1.6066  1.1852
 1576SOL     OW16186   2.229   0.140   7.003 -0.2596 -0.3081 -0.2480
 1576SOL    HW116187   2.279   0.219   6.984  1.4017 -1.5161 -0.8926
 1576SOL    HW216188   2.266   0.077   6.941 -0.0490 -0.3234 -0.1066
 1577SOL     OW16189   0.869   3.949  12.168 -0.0134 -0.4361 -1.0561
 1577SOL    HW116190   0.957   3.940  12.131  1.0432  0.1773  1.2657
 1577SOL    HW216191   0.884   4.008  12.242 -2.9048  0.5409 -1.2398
 1578SOL     OW16192   4.116   3.294   7.466 -0.2799  0.5381  0.6718
 1578SOL    HW116193   4.207   3.294   7.438 -0.3050 -0.0572  0.5909
 1578SOL    HW216194   4.115   3.313   7.560  0.8124  0.5429  0.6830
 1579SOL     OW16195   2.885   0.624  10.431 -1.1624  0.6849 -0.2339
 1579SOL    HW116196   2.965   0.578  10.455 -1.3241 -1.0805 -3.0532
 1579SOL    HW216197   2.820   0.555  10.436  0.9750 -1.5433 -2.9740
 1580SOL     OW16198   0.116   0.882   7.242 -0.1636  0.5071 -0.5198
 1580SOL    HW116199   0.148   0.801   7.281  3.2938  1.7607 -0.7669
 1580SOL    HW216200   0.137   0.859   7.151 -0.4107 -1.4131 -0.1072
 1581SOL     OW16201   2.536   3.575  11.688  1.1969  0.1516 -0.1895
 1581SOL    HW116202   2.600   3.645  11.700  1.6123 -0.6834  2.3109
 1581SOL    HW216203   2.510   3.607  11.601 -2.0502 -0.8610  0.3927
 1582SOL     OW16204   0.615   4.257   4.747  0.5652 -0.1742  0.0601
 1582SOL    HW116205   0.615   4.182   4.688 -1.4598  0.3765 -0.6462
 1582SOL    HW216206   0.524   4.258   4.774  0.7331  1.4236  0.5391
 1583SOL     OW16207   2.314   2.698   6.850  0.0312  0.6632  0.1929
 1583SOL    HW116208   2.346   2.754   6.780 -2.0875  0.2664 -1.0719
 1583SOL    HW216209   2.249   2.647   6.802  0.7224 -1.7111  1.7341
 1584SOL     OW16210   1.170   0.894   6.719  0.2507 -0.0772  0.7002
 1584SOL    HW116211   1.150   0.828   6.652  0.3845 -1.1846  1.7629
 1584SOL    HW216212   1.250   0.868   6.764 -0.3453 -3.5134 -0.2264
 1585SOL     OW16213   0.123   2.819   4.717 -0.6453 -0.4577 -0.1116
 1585SOL    HW116214   0.087   2.856   4.798  0.6381  0.2521  0.1392
 1585SOL    HW216215   0.190   2.886   4.705 -1.3075 -0.2684 -2.7789
 1586SOL     OW16216   2.079   2.448   3.549  0.1157 -0.1848 -0.0289
 1586SOL    HW116217   1.996   2.493   3.532  1.3648  1.1918 -2.5209
 1586SOL    HW216218   2.135   2.507   3.499  0.6547 -0.7512 -0.1021
 1587SOL     OW16219   4.199   1.002   1.727  0.3405 -0.1084  0.0176
 1587SOL    HW116220   4.266   0.984   1.794 -0.4691 -2.8963  0.1059
 1587SOL    HW216221   4.229   1.074   1.673  0.1104 -1.7859 -2.3281
 1588SOL     OW16222   1.270   0.691   6.483  0.1063  0.0244 -0.2936
 1588SOL    HW116223   1.211   0.643   6.541 -0.1912  0.8238  0.0471
 1588SOL    HW216224   1.257   0.652   6.396 -1.1172 -2.4028  0.9824
 1589SOL     OW16225   4.519   4.579  13.033  0.0970 -0.5297 -0.0772
 1589SOL    HW116226   4.461   4.609  13.103 -0.7168  0.2974 -1.1035
 1589SOL    HW216227   4.605   4.596  13.072 -0.2144 -0.0163  0.3879
 1590SOL     OW16228   0.050   0.192   3.969  1.1273 -1.1646 -0.2928
 1590SOL    HW116229   4.712   0.181   4.042  0.1308 -0.5894 -1.0463
 1590SOL    HW216230   0.020   0.123   3.910 -0.5415  1.8795 -3.0250
 1591SOL     OW16231   4.269   2.735   1.818  0.0481 -0.0465  0.5699
 1591SOL    HW116232   4.361   2.757   1.836 -0.1141  0.9038  0.2352
 1591SOL    HW216233   4.240   2.783   1.896  0.9076 -0.4313  1.1240
 1592SOL     OW16234   0.060   1.886   8.076 -0.5973 -0.0526  0.1620
 1592SOL    HW116235   4.715   1.820   8.086 -0.5232  0.3242  3.1791
 1592SOL    HW216236   0.035   1.939   8.152  2.4868 -0.6168  1.5698
 1593SOL     OW16237   0.668   2.894   3.634 -0.6083  0.1073  0.1126
 1593SOL    HW116238   0.688   2.974   3.586 -1.8685  1.9955  2.7461
 1593SOL    HW216239   0.661   2.828   3.565  3.3239 -0.5049  0.2691
 1594SOL     OW16240   2.460   3.854   4.113 -0.0200 -0.5273 -0.1579
 1594SOL    HW116241   2.546   3.812   4.109 -0.2728 -1.1501  0.9973
 1594SOL    HW216242   2.407   3.777   4.093  0.4665 -1.1334  0.8821
 1595SOL     OW16243   1.587   3.163   3.971  0.1702  0.5973 -0.5750
 1595SOL    HW116244   1.545   3.248   3.964 -0.7837  0.2619  0.9153
 1595SOL    HW216245   1.667   3.168   3.919  0.4820 -0.0021 -0.1551
 1596SOL     OW16246   2.219   1.510   5.879 -0.5631 -0.1332  0.0664
 1596SOL    HW116247   2.208   1.497   5.973  0.9181  0.8139  0.3760
 1596SOL    HW216248   2.218   1.417   5.858 -1.0726  0.0462 -0.7148
 1597SOL     OW16249   4.531   1.508  12.108 -0.9535  0.6218  0.3519
 1597SOL    HW116250   4.586   1.580  12.077  1.4239 -0.5125  1.9773
 1597SOL    HW216251   4.446   1.543  12.080 -1.1113  0.6337  0.8446
 1598SOL     OW16252   1.888   3.931  13.617 -0.2304 -0.6507 -0.5829
 1598SOL    HW116253   1.848   3.982  13.687  0.5868 -0.4430 -0.2700
 1598SOL    HW216254   1.914   3.999  13.556 -1.2166  0.4779  0.2609
 1599SOL     OW16255   3.737   4.123   2.606 -0.0332 -0.6516 -0.2894
 1599SOL    HW116256   3.648   4.149   2.631 -0.0731 -0.6213 -0.4655
 1599SOL    HW216257   3.783   4.198   2.643  0.3226 -0.7600 -0.5134
 1600SOL     OW16258   3.572   4.669   0.630  0.3915  0.4991  0.4872
 1600SOL    HW116259   3.622   4.590   0.613 -3.7231 -2.5039  2.4578
 1600SOL    HW216260   3.588   4.716   0.548  0.8720 -0.4330  0.0449
 1601SOL     OW16261   1.255   0.570   5.323 -0.0813 -0.2205  0.1787
 1601SOL    HW116262   1.281   0.659   5.300  1.3524 -0.3325  1.3195
 1601SOL    HW216263   1.334   0.552   5.374 -1.2080 -1.2993  1.5343
 1602SOL     OW16264   3.363   2.319   9.387  0.1263 -0.5357 -0.4155
 1602SOL    HW116265   3.404   2.374   9.454 -0.5682  0.7533 -1.0380
 1602SOL    HW216266   3.440   2.306   9.332 -1.1811 -1.8112 -1.9848
 1603SOL     OW16267   3.156   1.725   6.212  0.3997  0.1882 -0.0032
 1603SOL    HW116268   3.101   1.797   6.180 -1.1404 -1.4656 -1.1066
 1603SOL    HW216269   3.241   1.767   6.200  0.6206  0.2296  1.6828
 1604SOL     OW16270   0.192   3.066   8.201 -0.2014 -0.0817  0.0810
 1604SOL    HW116271   0.140   3.096   8.276 -2.7062  0.7825 -2.0078
 1604SOL    HW216272   0.282   3.092   8.224 -1.5608  3.4088  1.4401
 1605SOL     OW16273   4.545   0.657   2.601 -0.1080  0.1934 -0.4252
 1605SOL    HW116274   4.552   0.607   2.682 -2.1961  0.0863 -0.3040
 1605SOL    HW216275   4.574   0.605   2.526  0.4890  0.2870 -0.2536
 1606SOL     OW16276   0.400   0.120  14.467 -0.5504  0.0598  0.2057
 1606SOL    HW116277   0.422   0.062  14.394 -0.8787  1.4412 -0.9938
 1606SOL    HW216278   0.331   0.177  14.432  0.0408  0.2731 -0.6021
 1607SOL     OW16279   4.307   2.820  15.510 -0.2636  0.3032 -0.5054
 1607SOL    HW116280   4.267   2.888  15.564  0.1428  1.7451 -2.0230
 1607SOL    HW216281   4.242   2.797  15.444  1.4963  1.8041 -2.7488
 1608SOL     OW16282   0.487   3.409  17.641 -0.2277  0.5865 -0.1805
 1608SOL    HW116283   0.503   3.420  17.548 -0.0594 -0.2799 -0.2551
 1608SOL    HW216284   0.432   3.331  17.652  0.7081  0.1350  1.2646
 1609SOL     OW16285   0.115   1.499   3.773 -0.1738 -0.2653  0.1481
 1609SOL    HW116286   0.080   1.493   3.684  1.0379 -3.1272 -0.1031
 1609SOL    HW216287   0.064   1.573   3.807  0.5894  0.1873  0.3120
 1610SOL     OW16288   1.157   1.709   9.384  0.0685 -0.2431 -0.1014
 1610SOL    HW116289   1.236   1.718   9.436  0.3858 -1.9652 -0.3196
 1610SOL    HW216290   1.168   1.624   9.343  0.1528 -0.6228  0.7104
 1611SOL     OW16291   1.136   3.536   6.451 -0.2995 -0.5204  0.3777
 1611SOL    HW116292   1.192   3.460   6.472 -0.2718 -0.2159  1.3973
 1611SOL    HW216293   1.053   3.490   6.446 -0.7610  0.2313  1.1052
 1612SOL     OW16294   2.281   1.331  12.070 -0.2734 -0.3411  0.5815
 1612SOL    HW116295   2.360   1.319  12.017 -0.4078  1.3411  0.0009
 1612SOL    HW216296   2.254   1.423  12.072  0.3162 -0.1715  0.8051
 1613SOL     OW16297   2.464   2.814  16.110 -0.2510  0.0200  0.0512
 1613SOL    HW116298   2.447   2.817  16.204  0.3035  1.2635  0.1203
 1613SOL    HW216299   2.383   2.773  16.079 -0.1569  0.2966 -0.5700
 1614SOL     OW16300   3.084   3.374   7.817  0.1535  0.0398  0.0157
 1614SOL    HW116301   3.015   3.332   7.869 -0.0372 -1.9595 -1.8398
 1614SOL    HW216302   3.065   3.332   7.733  0.6987  2.3859 -1.2695
 1615SOL     OW16303   4.210   0.605   6.403  0.7630 -0.5448  0.3212
 1615SOL    HW116304   4.264   0.652   6.466  2.7054  0.4534 -2.1397
 1615SOL    HW216305   4.167   0.556   6.474 -1.3082  0.3588 -0.2878
 1616SOL     OW16306   3.157   2.744  16.322 -0.3318 -0.2409 -0.1135
 1616SOL    HW116307   3.138   2.692  16.243 -1.0945 -1.0808  0.6162
 1616SOL    HW216308   3.214   2.684  16.370  0.3715 -0.6437 -1.4579
 1617SOL     OW16309   4.718   0.184   4.303 -0.0121 -0.1869  0.3277
 1617SOL    HW116310   0.042   0.164   4.384  1.3755  0.5659 -0.3154
 1617SOL    HW216311   0.044   0.262   4.282  0.8766 -1.0181 -0.6397
 1618SOL     OW16312   3.422   4.187   9.953 -0.6585 -0.4899 -0.0281
 1618SOL    HW116313   3.345   4.155  10.001  0.6692 -2.1386  0.9882
 1618SOL    HW216314   3.487   4.199  10.021  1.2704 -1.7553 -1.6514
 1619SOL     OW16315   2.260   4.644   6.264  0.6050 -0.1283 -0.0883
 1619SOL    HW116316   2.340   4.663   6.216  1.3663  0.9127  1.6112
 1619SOL    HW216317   2.283   4.633   6.356  1.6298  0.3167 -0.2954
 1620SOL     OW16318   4.610   0.907  16.354  0.1249 -0.5781  0.9358
 1620SOL    HW116319   4.591   0.895  16.447 -0.0875 -1.4137  0.7897
 1620SOL    HW216320   4.703   0.927  16.356  0.0568 -0.3189  1.4165
 1621SOL     OW16321   0.620   1.894   6.117  0.0167  0.2007  1.3001
 1621SOL    HW116322   0.714   1.898   6.098 -0.1543 -1.9636  0.0508
 1621SOL    HW216323   0.609   1.799   6.123 -1.1177  0.3355  1.3051
 1622SOL     OW16324   1.914   3.424   3.377 -0.0871 -0.1851 -0.2534
 1622SOL    HW116325   1.986   3.483   3.357  0.3261 -0.9602 -1.0527
 1622SOL    HW216326   1.902   3.398   3.285  0.9355 -1.0317 -0.1374
 1623SOL     OW16327   2.292   2.737   0.184  0.6017  0.6518  0.2192
 1623SOL    HW116328   2.223   2.677   0.214  1.4897 -0.1079  0.7436
 1623SOL    HW216329   2.334   2.742   0.270  2.0465  1.1315 -0.5304
 1624SOL     OW16330   3.130   3.366   2.066  0.1946  0.0818 -0.0372
 1624SOL    HW116331   3.173   3.286   2.033 -0.7632 -1.3383  2.1524
 1624SOL    HW216332   3.043   3.357   2.029  0.2748  1.3932 -0.5272
 1625SOL     OW16333   3.950   3.765   6.274 -0.0600 -0.1355  0.4150
 1625SOL    HW116334   3.943   3.808   6.188  0.1374  1.1805  1.0512
 1625SOL    HW216335   4.000   3.689   6.246  1.1441  1.7807 -2.7142
 1626SOL     OW16336   0.654   1.323  12.482 -0.0283  0.1990  0.3797
 1626SOL    HW116337   0.688   1.302  12.569 -1.9903  0.6014  1.2259
 1626SOL    HW216338   0.698   1.405  12.461 -0.5797  0.4186  0.0964
 1627SOL     OW16339   2.688   2.784   8.329 -0.0753 -0.5028  0.3011
 1627SOL    HW116340   2.641   2.784   8.245 -0.7278  0.6900  0.6739
 1627SOL    HW216341   2.671   2.700   8.372  0.6057 -1.4498 -1.2345
 1628SOL     OW16342   0.234   1.704   8.186  0.0535 -0.3016  0.0181
 1628SOL    HW116343   0.163   1.685   8.248  2.9381  0.8945  3.6526
 1628SOL    HW216344   0.201   1.781   8.139 -0.0625  0.6204  1.6299
 1629SOL     OW16345   0.540   4.146   6.245  0.2629 -0.9822 -0.1424
 1629SOL    HW116346   0.448   4.163   6.222  0.2301  2.5184  2.4897
 1629SOL    HW216347   0.555   4.211   6.314 -1.1848 -2.8298  1.9072
 1630SOL     OW16348   4.428   3.427   1.143  0.3151  0.2395 -0.1332
 1630SOL    HW116349   4.473   3.406   1.061 -0.1152  0.2021 -0.3607
 1630SOL    HW216350   4.489   3.496   1.169 -0.8484  1.7729 -1.4867
 1631SOL     OW16351   3.247   3.050   2.797 -0.1622 -0.1215 -0.0850
 1631SOL    HW116352   3.324   2.993   2.798  0.3086  0.5056  0.9536
 1631SOL    HW216353   3.196   3.022   2.722 -0.4363 -0.4570  0.2306
 1632SOL     OW16354   2.380   3.767   4.839  0.1544 -0.2217  0.0299
 1632SOL    HW116355   2.329   3.777   4.759 -1.4857 -0.0231  1.1130
 1632SOL    HW216356   2.426   3.687   4.811  1.4014  0.4237  0.2259
 1633SOL     OW16357   2.362   2.975  16.564  0.0062  0.6895  0.1213
 1633SOL    HW116358   2.293   2.939  16.509  2.0113 -1.9974 -0.6362
 1633SOL    HW216359   2.434   2.919  16.533 -1.1420 -1.1157  0.7681
 1634SOL     OW16360   3.133   2.201   7.806  0.1777 -0.1117 -0.3742
 1634SOL    HW116361   3.072   2.137   7.845 -0.0190 -0.3663 -1.0909
 1634SOL    HW216362   3.220   2.179   7.837  0.0114 -0.1318  0.0856
 1635SOL     OW16363   1.483   0.735   5.056 -0.3581  0.2467  0.1363
 1635SOL    HW116364   1.540   0.666   5.090 -0.2766  0.1645 -0.1623
 1635SOL    HW216365   1.462   0.788   5.133  0.3819  1.9520 -0.8377
 1636SOL     OW16366   2.248   1.693  10.185 -0.2194  0.1850 -0.2113
 1636SOL    HW116367   2.282   1.615  10.229 -3.2236 -0.7717  0.4814
 1636SOL    HW216368   2.290   1.684  10.099 -1.7036  1.6118 -1.0957
 1637SOL     OW16369   4.137   1.807   3.529  0.0972  0.2241 -0.2589
 1637SOL    HW116370   4.155   1.762   3.612 -1.1592 -0.4085 -0.3223
 1637SOL    HW216371   4.042   1.815   3.539  0.1164  0.4815 -0.2872
 1638SOL     OW16372   0.607   3.725   5.391  0.1488  0.6051 -0.1501
 1638SOL    HW116373   0.691   3.695   5.425 -0.7219  0.4285  1.8311
 1638SOL    HW216374   0.601   3.662   5.319  0.6374 -0.7802  1.0201
 1639SOL     OW16375   1.017   1.500   4.256  0.1662  0.1039  0.0257
 1639SOL    HW116376   0.931   1.539   4.239  0.5538  1.3932  1.0313
 1639SOL    HW216377   1.028   1.497   4.351 -0.8535  2.7254  0.2243
 1640SOL     OW16378   3.909   3.915   7.409 -0.0976  0.1933 -0.5045
 1640SOL    HW116379   3.904   3.851   7.480  0.2614  0.5355 -0.1740
 1640SOL    HW216380   3.906   3.852   7.336  0.5965 -2.2337  1.5503
 1641SOL     OW16381   4.397   3.450  13.794 -0.0257 -0.2098  0.0920
 1641SOL    HW116382   4.358   3.498  13.867  0.2162 -1.7613  1.2336
 1641SOL    HW216383   4.345   3.475  13.717  1.3324 -1.3911 -1.2043
 1642SOL     OW16384   2.453   1.048   5.450 -0.0436  0.3470  0.1148
 1642SOL    HW116385   2.441   1.141   5.428 -0.7105  0.2132 -0.0927
 1642SOL    HW216386   2.536   1.035   5.495  0.0545  0.4323 -0.0427
 1643SOL     OW16387   2.639   2.281   5.429 -0.5692 -0.4686  0.1494
 1643SOL    HW116388   2.605   2.205   5.476 -1.4797  0.2991  0.7334
 1643SOL    HW216389   2.565   2.342   5.433  1.6210  2.0364  2.4407
 1644SOL     OW16390   1.034   1.900   1.852  0.2477 -0.4962  0.2624
 1644SOL    HW116391   0.965   1.959   1.820  0.2804 -0.8041 -0.3702
 1644SOL    HW216392   0.991   1.875   1.934 -1.4375 -0.8178 -0.7247
 1645SOL     OW16393   1.653   2.504   8.214  0.2901 -0.4303  0.7914
 1645SOL    HW116394   1.677   2.426   8.264 -0.7844  0.3985  2.6148
 1645SOL    HW216395   1.578   2.474   8.163  1.4396 -2.5893  0.3550
 1646SOL     OW16396   3.566   2.641  12.726  0.5751 -0.1259 -0.8367
 1646SOL    HW116397   3.652   2.632  12.767  1.1864  0.7971 -1.9199
 1646SOL    HW216398   3.512   2.577  12.773  0.8651  0.1397 -0.1380
 1647SOL     OW16399   3.198   4.503   2.650  0.5637 -0.6008 -0.0335
 1647SOL    HW116400   3.122   4.554   2.622  0.3384 -1.3235 -0.7392
 1647SOL    HW216401   3.212   4.541   2.736  0.0379 -4.2574  1.6781
 1648SOL     OW16402   0.902   2.162  13.348 -0.2644 -0.3246  0.6276
 1648SOL    HW116403   0.843   2.091  13.376  0.7754 -1.5285 -0.2492
 1648SOL    HW216404   0.882   2.221  13.420 -0.8054  0.2390  0.0130
 1649SOL     OW16405   1.711   3.908   8.074 -0.2054 -0.0368 -0.0823
 1649SOL    HW116406   1.806   3.915   8.064 -0.3349  1.5086 -0.1232
 1649SOL    HW216407   1.684   3.900   7.983  0.4268  2.7483 -0.4989
 1650SOL     OW16408   2.787   4.336  10.147  0.0903 -0.0960  0.4556
 1650SOL    HW116409   2.749   4.357  10.061 -0.0871  0.9989  0.7969
 1650SOL    HW216410   2.740   4.404  10.195 -0.7108 -0.4497  0.1698
 1651SOL     OW16411   0.570   2.987   5.154  0.2647 -0.3629 -0.2440
 1651SOL    HW116412   0.548   2.936   5.232 -1.4673  1.9362  0.7473
 1651SOL    HW216413   0.659   2.953   5.146 -0.6766 -2.8403 -0.3827
 1652SOL     OW16414   1.447   1.801   9.387 -0.0362 -0.0614 -0.7617
 1652SOL    HW116415   1.469   1.730   9.447  0.5771  0.9757  0.2372
 1652SOL    HW216416   1.480   1.882   9.426  0.2599 -0.5281 -0.0480
 1653SOL     OW16417   0.344   4.537   3.874 -0.7535 -0.3069 -0.1895
 1653SOL    HW116418   0.254   4.523   3.905 -0.5079  1.2588  1.2465
 1653SOL    HW216419   0.335   4.600   3.803  0.4091  1.2389  1.0333
 1654SOL     OW16420   2.766   0.788   5.380 -0.2176  0.3658  0.0571
 1654SOL    HW116421   2.721   0.712   5.418  2.3926 -0.1012  2.2782
 1654SOL    HW216422   2.858   0.774   5.401 -0.8670 -1.8488  1.4673
 1655SOL     OW16423   2.308   2.431   4.879 -0.3078  0.1331 -0.3210
 1655SOL    HW116424   2.269   2.494   4.817 -1.9290  0.0657  0.6109
 1655SOL    HW216425   2.246   2.436   4.952 -2.1815  0.6367 -1.9470
 1656SOL     OW16426   1.678   1.939   6.472 -0.0818  0.0961 -0.0426
 1656SOL    HW116427   1.764   1.950   6.514 -0.4533 -0.7020  0.9130
 1656SOL    HW216428   1.700   1.942   6.379  1.3609  2.0319  0.3532
 1657SOL     OW16429   2.935   2.925  10.077  0.7746 -0.1665 -0.1904
 1657SOL    HW116430   2.888   2.994  10.031  1.3503 -1.4424 -2.6658
 1657SOL    HW216431   2.954   2.969  10.160 -0.8991 -1.8968  1.1116
 1658SOL     OW16432   3.569   2.327  12.424  0.3219 -0.0522 -0.0931
 1658SOL    HW116433   3.535   2.238  12.435  3.0828 -0.7757  2.5530
 1658SOL    HW216434   3.652   2.324  12.472 -0.6837  2.2170  1.8365
 1659SOL     OW16435   1.231   3.395   7.679 -0.0366  0.1241 -0.2269
 1659SOL    HW116436   1.175   3.394   7.601 -0.8037 -0.7678  0.3176
 1659SOL    HW216437   1.288   3.466   7.652  0.7974 -0.3536  0.2533
 1660SOL     OW16438   4.700   1.050   4.298 -0.2200 -0.2476  0.7945
 1660SOL    HW116439   0.048   1.052   4.234 -0.1320  0.4693  0.9078
 1660SOL    HW216440   4.639   1.117   4.267 -0.7696 -1.1011  0.0417
 1661SOL     OW16441   1.245   1.420   7.697 -0.1066 -0.6564  0.2311
 1661SOL    HW116442   1.273   1.341   7.743  1.2715  0.2155  0.8853
 1661SOL    HW216443   1.150   1.418   7.707  0.0630  1.5890  2.4649
 1662SOL     OW16444   2.353   4.416   7.063 -0.4556  0.3669 -0.0784
 1662SOL    HW116445   2.391   4.355   7.000  0.0081  0.4364  0.1288
 1662SOL    HW216446   2.375   4.363   7.140  0.5923  1.1990  0.2036
 1663SOL     OW16447   0.454   1.117   6.887  0.2074 -0.1901  0.3542
 1663SOL    HW116448   0.445   1.198   6.937 -1.0439  0.3571 -0.7693
 1663SOL    HW216449   0.542   1.084   6.906  0.3230 -0.0543  0.0599
 1664SOL     OW16450   1.917   3.791   4.563  0.1070  0.0827 -0.5559
 1664SOL    HW116451   1.914   3.873   4.514 -1.6562  1.3273  1.6123
 1664SOL    HW216452   1.872   3.732   4.502 -0.2749  1.0304 -1.1827
 1665SOL     OW16453   0.920   3.231   3.238 -0.0269  0.6251 -0.3170
 1665SOL    HW116454   0.947   3.166   3.173 -0.9026  0.3552 -0.4097
 1665SOL    HW216455   0.871   3.176   3.299  2.3246 -1.9858 -0.7623
 1666SOL     OW16456   3.929   0.487   8.171 -0.1203  0.2363  0.7767
 1666SOL    HW116457   3.961   0.541   8.099 -0.3203 -2.4807 -1.3541
 1666SOL    HW216458   3.960   0.525   8.253  0.2461  1.1585  0.2116
 1667SOL     OW16459   2.210   1.493   8.303 -0.8021  0.2180  0.1396
 1667SOL    HW116460   2.177   1.444   8.379  1.6423 -0.5092  0.7527
 1667SOL    HW216461   2.126   1.524   8.269 -0.7410 -0.6410 -0.8108
 1668SOL     OW16462   2.855   1.359   6.034  0.1532  0.0264 -0.4394
 1668SOL    HW116463   2.878   1.341   5.943 -0.9003 -2.0637 -0.2984
 1668SOL    HW216464   2.808   1.278   6.055 -0.6290  0.6878  0.3604
 1669SOL     OW16465   1.183   3.316   9.691  0.0159  0.1062 -0.6720
 1669SOL    HW116466   1.250   3.345   9.753 -3.1783  1.4267  2.1674
 1669SOL    HW216467   1.106   3.317   9.748  0.1172  1.5673 -0.5816
 1670SOL     OW16468   1.173   3.432   4.190  0.9313  0.5542  0.1590
 1670SOL    HW116469   1.148   3.430   4.098 -3.0395  0.0394  1.2416
 1670SOL    HW216470   1.115   3.498   4.230  0.8218 -0.7646  2.2011
 1671SOL     OW16471   0.867   1.973  10.361  0.8669  0.3339  0.5118
 1671SOL    HW116472   0.876   2.057  10.406  1.2852  0.8280 -0.4885
 1671SOL    HW216473   0.919   1.990  10.282  1.5484 -0.6301  0.7612
 1672SOL     OW16474   4.126   1.642   8.423  0.6900  0.6096  0.2129
 1672SOL    HW116475   4.200   1.600   8.381 -1.0943  0.2094 -2.5534
 1672SOL    HW216476   4.068   1.637   8.346 -1.8822 -0.8725  2.2415
 1673SOL     OW16477   0.709   4.109   5.004 -0.0770  0.2419 -0.2390
 1673SOL    HW116478   0.643   4.041   5.009 -1.0360  1.1659 -0.4015
 1673SOL    HW216479   0.689   4.151   4.921 -0.0199  1.6000  0.4237
 1674SOL     OW16480   1.591   3.698   2.053 -0.3891  0.1800  0.0376
 1674SOL    HW116481   1.587   3.714   2.148  0.4895 -0.4832  0.1856
 1674SOL    HW216482   1.662   3.760   2.034  0.2250 -0.4812  0.1656
 1675SOL     OW16483   0.958   4.710   8.398  0.0410  0.0857  0.5853
 1675SOL    HW116484   0.993   4.650   8.464 -0.5023 -0.4867  0.3483
 1675SOL    HW216485   1.035   0.044   8.390 -1.7627  2.5095  0.7157
 1676SOL     OW16486   3.497   1.113   5.085  0.4098 -0.2337 -0.0555
 1676SOL    HW116487   3.468   1.050   5.019 -1.0609 -0.8132  1.1560
 1676SOL    HW216488   3.439   1.187   5.066 -1.9570 -2.4910 -1.6059
 1677SOL     OW16489   1.381   1.402   7.449 -0.7583 -0.4559  0.2615
 1677SOL    HW116490   1.468   1.419   7.485 -0.1983 -0.9038 -0.9034
 1677SOL    HW216491   1.325   1.422   7.524  0.5082 -3.2893  1.9555
 1678SOL     OW16492   3.738   1.529   8.043 -0.5844 -0.6007 -0.2414
 1678SOL    HW116493   3.726   1.444   8.086 -0.7951 -0.9282 -0.9595
 1678SOL    HW216494   3.829   1.525   8.013  0.0437 -1.0282  1.7213
 1679SOL     OW16495   3.134   3.958   6.940  0.0289  0.3197 -0.2359
 1679SOL    HW116496   3.094   4.016   7.004 -1.1470  2.9341 -3.3690
 1679SOL    HW216497   3.164   4.025   6.878 -0.3478 -0.0892 -0.8683
 1680SOL     OW16498   3.601   1.971   5.606 -0.4137 -0.2985  0.2760
 1680SOL    HW116499   3.623   2.055   5.647  0.0408 -0.6078  0.6757
 1680SOL    HW216500   3.550   1.996   5.529 -0.8266  0.8658  0.9202
 1681SOL     OW16501   0.160   2.414   6.092 -0.2011 -0.1939 -0.4439
 1681SOL    HW116502   0.223   2.469   6.138  2.0238 -1.4414 -1.9944
 1681SOL    HW216503   0.120   2.361   6.161  0.4354  0.1305  0.1744
 1682SOL     OW16504   3.961   2.306  15.098 -0.2986 -0.1866  0.4955
 1682SOL    HW116505   3.933   2.278  15.011  2.0936 -0.4472 -0.1804
 1682SOL    HW216506   3.886   2.279  15.151 -1.4056  1.6287 -0.1697
 1683SOL     OW16507   3.834   3.494   9.202  0.0561 -0.2173  0.0611
 1683SOL    HW116508   3.801   3.414   9.161 -0.4678 -0.1578  0.3646
 1683SOL    HW216509   3.767   3.562   9.194  1.1748  0.8003 -0.6037
 1684SOL     OW16510   0.443   1.474   8.836  0.0232 -0.4296 -0.8285
 1684SOL    HW116511   0.530   1.462   8.797  1.6249  1.8034  2.0418
 1684SOL    HW216512   0.391   1.406   8.794  2.7329 -2.1519 -1.4329
 1685SOL     OW16513   1.477   3.923   2.579  0.0094  0.7138 -0.2325
 1685SOL    HW116514   1.475   3.912   2.674 -0.5421 -1.9471 -0.5735
 1685SOL    HW216515   1.442   3.837   2.555  0.2936  0.2510  1.0445
 1686SOL     OW16516   0.060   3.089  14.402  0.4772  0.4710 -0.6120
 1686SOL    HW116517   0.138   3.129  14.438  0.7687 -1.9143  1.4243
 1686SOL    HW216518   0.091   3.025  14.337 -1.4121 -0.3761 -0.6992
 1687SOL     OW16519   1.145   3.734  14.239  0.0778 -1.0077 -0.2243
 1687SOL    HW116520   1.158   3.795  14.312 -0.8994 -0.0410 -0.8578
 1687SOL    HW216521   1.066   3.779  14.207  0.7338 -0.1440 -0.6473
 1688SOL     OW16522   3.039   2.640   3.684 -0.1172  0.6702 -0.1723
 1688SOL    HW116523   3.103   2.710   3.666  2.2298 -1.7011 -1.0093
 1688SOL    HW216524   2.969   2.650   3.620  0.4196 -2.3190 -1.2094
 1689SOL     OW16525   1.669   4.131   2.049  0.4252  0.9233 -0.7837
 1689SOL    HW116526   1.691   4.211   2.097 -2.6075  0.0332  2.1020
 1689SOL    HW216527   1.599   4.094   2.102  0.7126  0.6985 -0.5613
 1690SOL     OW16528   4.163   4.701   8.155  0.0026 -0.1738  0.0959
 1690SOL    HW116529   4.144   4.613   8.189  2.7694 -0.5241  0.7581
 1690SOL    HW216530   4.085   0.025   8.184 -0.5829 -2.8303  2.9841
 1691SOL     OW16531   4.580   3.119  17.318  0.3856 -0.0441  0.0094
 1691SOL    HW116532   4.522   3.191  17.292  1.0035  1.0775  1.7379
 1691SOL    HW216533   4.614   3.152  17.401 -0.5330  0.1920  0.2905
 1692SOL     OW16534   4.020   2.859  13.875 -0.1304 -0.1424  0.3837
 1692SOL    HW116535   4.053   2.948  13.889 -4.1724  1.4076  0.0710
 1692SOL    HW216536   3.959   2.846  13.948 -2.7503 -1.0130 -1.9523
 1693SOL     OW16537   0.834   1.904   3.099  0.0584 -0.1639  0.0581
 1693SOL    HW116538   0.804   1.829   3.149  1.1433  0.4018  1.5513
 1693SOL    HW216539   0.821   1.881   3.007 -1.0381  3.3654 -0.6756
 1694SOL     OW16540   3.831   2.315   3.910  0.2857 -0.0876  0.7748
 1694SOL    HW116541   3.890   2.317   3.835 -0.1446 -1.8209  0.3788
 1694SOL    HW216542   3.859   2.234   3.953  2.0329 -0.1354 -0.4454
 1695SOL     OW16543   1.667   2.525  17.445 -0.3171 -0.5726  0.3302
 1695SOL    HW116544   1.596   2.542  17.384 -0.6500 -1.8436  0.3717
 1695SOL    HW216545   1.743   2.544  17.390  0.3425 -0.5708  1.2268
 1696SOL     OW16546   1.051   2.032   3.324  0.7065  0.0591 -0.1680
 1696SOL    HW116547   0.986   1.969   3.294  0.5776 -0.4541  1.1550
 1696SOL    HW216548   1.019   2.054   3.412  0.9160  0.2302 -0.1315
 1697SOL     OW16549   0.278   2.317   4.456 -0.3788  0.3992 -0.3837
 1697SOL    HW116550   0.280   2.309   4.360 -2.6887 -1.5158 -0.2773
 1697SOL    HW216551   0.370   2.336   4.475 -0.1946  1.1603 -2.0270
 1698SOL     OW16552   0.267   1.916  13.991 -0.8292 -0.3314 -0.3752
 1698SOL    HW116553   0.291   1.889  13.902 -0.3157 -2.4919  0.4219
 1698SOL    HW216554   0.288   1.831  14.030  1.5184  0.7280  0.6981
 1699SOL     OW16555   3.507   1.841   3.787 -0.0660 -0.1768  0.3977
 1699SOL    HW116556   3.501   1.926   3.831 -0.4113  0.2800 -0.5157
 1699SOL    HW216557   3.522   1.864   3.695  0.7967 -0.9168  0.3575
 1700SOL     OW16558   1.652   0.884   9.533  0.3879 -0.1219  0.1202
 1700SOL    HW116559   1.731   0.900   9.481  0.2178  1.9580  0.4862
 1700SOL    HW216560   1.632   0.977   9.548  2.3010  0.3633 -0.3908
 1701SOL     OW16561   0.982   1.529  11.919  0.0339  0.2531 -0.0915
 1701SOL    HW116562   0.986   1.494  12.008  1.4678 -0.3618 -0.3926
 1701SOL    HW216563   0.918   1.475  11.872 -0.1199  0.0505  0.3428
 1702SOL     OW16564   0.656   2.576  11.650 -0.1700  0.6831  0.6406
 1702SOL    HW116565   0.639   2.638  11.579 -3.8757 -1.6925 -0.5510
 1702SOL    HW216566   0.705   2.630  11.712 -1.5667  1.2798  1.2362
 1703SOL     OW16567   3.109   0.102   8.353  0.4522  0.0869  0.6162
 1703SOL    HW116568   3.201   0.123   8.338  0.5484 -0.6906  0.0840
 1703SOL    HW216569   3.112   0.076   8.445  0.6834  2.0869  1.1652
 1704SOL     OW16570   3.152   3.931   7.402 -0.0582 -0.3459 -0.5988
 1704SOL    HW116571   3.103   3.952   7.323 -0.7035 -0.9209 -0.3441
 1704SOL    HW216572   3.166   3.837   7.395 -1.2127 -0.4545 -1.3359
 1705SOL     OW16573   1.966   4.526   7.610 -0.3555 -0.0273 -0.1473
 1705SOL    HW116574   1.924   4.544   7.525  0.5570  1.3083 -0.3254
 1705SOL    HW216575   2.054   4.517   7.573  0.4136  1.3037  1.3623
 1706SOL     OW16576   3.586   0.777  16.945 -0.0048 -0.2367  0.2094
 1706SOL    HW116577   3.644   0.756  17.019 -0.0022 -3.4506 -0.6920
 1706SOL    HW216578   3.509   0.722  16.959  0.1025 -0.2710  0.6635
 1707SOL     OW16579   4.611   2.372   7.303  0.5354  0.1900 -0.3962
 1707SOL    HW116580   4.577   2.282   7.302  2.7129 -0.6361 -1.1829
 1707SOL    HW216581   4.534   2.409   7.344  0.7178  0.8983 -0.6988
 1708SOL     OW16582   0.245   4.154  12.593  0.0272 -0.3196  0.1198
 1708SOL    HW116583   0.260   4.094  12.520  0.1189 -1.3820  1.0022
 1708SOL    HW216584   0.336   4.179  12.609 -0.4732  2.7251 -1.9582
 1709SOL     OW16585   2.799   3.652  11.806 -0.3780 -0.1789  1.0074
 1709SOL    HW116586   2.886   3.662  11.844 -0.8294  3.2581  1.1110
 1709SOL    HW216587   2.802   3.564  11.768  0.9989 -0.5235  1.9260
 1710SOL     OW16588   0.938   1.959  13.619  0.3751 -0.5473 -0.3738
 1710SOL    HW116589   0.920   2.035  13.673 -0.1472  0.8897 -2.5707
 1710SOL    HW216590   0.865   1.968  13.557 -0.2942  1.2730  0.6892
 1711SOL     OW16591   0.053   0.663  16.053 -0.5210 -0.5622  0.2452
 1711SOL    HW116592   0.063   0.627  16.141  2.5141  2.1753  1.0013
 1711SOL    HW216593   4.715   0.606  16.007 -1.6173  0.9855 -0.1990
 1712SOL     OW16594   1.520   1.319   5.795  0.2837  0.0753  0.2279
 1712SOL    HW116595   1.507   1.414   5.791  0.7723  0.0569 -2.0056
 1712SOL    HW216596   1.429   1.289   5.794  0.1139  0.5878  0.1922
 1713SOL     OW16597   2.337   1.802  15.902  0.5842 -0.1922 -0.7365
 1713SOL    HW116598   2.255   1.760  15.929  0.6252  1.6298  2.2761
 1713SOL    HW216599   2.316   1.894  15.887  1.0378 -0.0784 -0.6732
 1714SOL     OW16600   2.364   2.387   5.537 -0.0024 -0.0713 -0.0107
 1714SOL    HW116601   2.348   2.333   5.460  2.2804 -0.0163 -0.5218
 1714SOL    HW216602   2.277   2.413   5.568 -0.5455  1.0122 -2.4949
 1715SOL     OW16603   3.028   4.270   6.657  0.1009  0.0508 -0.0519
 1715SOL    HW116604   2.973   4.192   6.647 -1.2429  0.9921 -0.0610
 1715SOL    HW216605   3.080   4.243   6.733  1.0277  1.6659 -0.1289
 1716SOL     OW16606   1.363   0.844   5.301  0.2403  0.0438  0.0803
 1716SOL    HW116607   1.410   0.904   5.360 -0.7319  0.8203  0.0618
 1716SOL    HW216608   1.277   0.886   5.292  0.3408 -0.2870 -2.2846
 1717SOL     OW16609   3.169   4.484   1.723  0.0028  0.4359  0.1821
 1717SOL    HW116610   3.082   4.518   1.744 -1.6868 -3.1774 -1.0763
 1717SOL    HW216611   3.164   4.415   1.788  1.7863 -0.7776 -0.9759
 1718SOL     OW16612   4.619   1.049  16.630 -0.2586 -0.7324 -0.3056
 1718SOL    HW116613   4.572   1.121  16.588 -1.2668 -2.6572 -2.5396
 1718SOL    HW216614   4.658   1.088  16.708 -0.9221 -1.3595  0.3398
 1719SOL     OW16615   2.675   1.151   6.058  0.2916 -0.2254 -0.5685
 1719SOL    HW116616   2.632   1.085   6.003  0.3254 -1.5647  1.0217
 1719SOL    HW216617   2.595   1.199   6.080  0.3307 -0.0677 -0.7626
 1720SOL     OW16618   4.304   0.727   5.318  0.3974  0.0911 -0.2816
 1720SOL    HW116619   4.314   0.639   5.354  2.5459  0.4792  0.0889
 1720SOL    HW216620   4.375   0.769   5.366  0.5637  0.7268 -1.0840
 1721SOL     OW16621   1.790   1.428   0.315  0.3843  0.8741 -0.0789
 1721SOL    HW116622   1.803   1.509   0.266 -0.7276  0.1177 -1.6329
 1721SOL    HW216623   1.732   1.366   0.270  0.3509 -0.7156  2.1164
 1722SOL     OW16624   3.903   2.593   7.212 -0.0147 -0.1185 -0.1271
 1722SOL    HW116625   3.814   2.578   7.180  0.0229 -0.5011 -0.0532
 1722SOL    HW216626   3.883   2.580   7.305  1.4687 -2.1905 -0.0758
 1723SOL     OW16627   4.016   1.258   9.763  0.3202 -0.3757  0.0393
 1723SOL    HW116628   3.925   1.243   9.737 -0.8285  1.5075  2.9819
 1723SOL    HW216629   4.025   1.353   9.755 -1.9211 -0.5183 -4.6341
 1724SOL     OW16630   0.175   0.723   8.455  1.0485  0.0353  0.8172
 1724SOL    HW116631   0.154   0.630   8.462 -1.7735  0.5540 -0.4856
 1724SOL    HW216632   0.170   0.741   8.549 -0.4407  0.2762  0.7013
 1725SOL     OW16633   1.285   1.423   3.563 -0.2658  0.2843  0.0341
 1725SOL    HW116634   1.322   1.509   3.583 -0.5998  0.0273  1.7735
 1725SOL    HW216635   1.354   1.362   3.589 -1.2190 -0.4023  0.9475
 1726SOL     OW16636   1.034   0.619   4.457 -0.0192  0.4195  0.1007
 1726SOL    HW116637   1.121   0.653   4.477  0.8832 -2.0441  0.3854
 1726SOL    HW216638   1.056   0.569   4.378 -0.2836  0.3001  0.0982
 1727SOL     OW16639   0.331   2.148   8.740 -0.0456  0.0874  0.0993
 1727SOL    HW116640   0.419   2.169   8.707 -0.2585 -1.3056 -1.3400
 1727SOL    HW216641   0.359   2.103   8.820  0.0134  0.8814  0.5292
 1728SOL     OW16642   2.576   3.387   9.533  0.4368  0.4426 -0.0073
 1728SOL    HW116643   2.538   3.474   9.521  1.5787  0.5953 -2.5128
 1728SOL    HW216644   2.495   3.336   9.537  0.2429  0.7588  0.1639
 1729SOL     OW16645   4.450   1.441  14.282 -0.3325  0.1066  0.1962
 1729SOL    HW116646   4.540   1.424  14.310 -0.2015 -2.9799 -2.1361
 1729SOL    HW216647   4.460   1.460  14.189 -3.8940 -2.8472 -0.7502
 1730SOL     OW16648   1.887   3.725  10.041 -0.4074 -0.1146 -0.3572
 1730SOL    HW116649   1.981   3.741  10.050 -0.5627 -0.0334  1.1345
 1730SOL    HW216650   1.882   3.709   9.947  0.4305  1.5567 -0.6698
 1731SOL     OW16651   3.139   1.390   5.189 -0.3199  0.7089 -0.1599
 1731SOL    HW116652   3.089   1.309   5.207  1.7448 -0.3959  0.5811
 1731SOL    HW216653   3.068   1.450   5.212  1.0480  1.4279  2.1860
 1732SOL     OW16654   1.289   3.759   6.392  0.4524 -0.1652  0.1174
 1732SOL    HW116655   1.359   3.720   6.339 -0.0248  0.5494 -1.0196
 1732SOL    HW216656   1.241   3.683   6.427 -2.9129  2.8719  2.0535
 1733SOL     OW16657   3.523   2.821   7.840 -0.8888  0.0120  0.8276
 1733SOL    HW116658   3.464   2.762   7.792 -0.0316  0.8775 -1.2791
 1733SOL    HW216659   3.472   2.825   7.922 -0.8369 -0.8356  0.9038
 1734SOL     OW16660   0.255   3.516   2.119 -0.0182  0.0300 -0.1332
 1734SOL    HW116661   0.304   3.542   2.197  0.7763  1.4639 -1.1015
 1734SOL    HW216662   0.328   3.497   2.060  0.0794  0.0336 -0.0140
 1735SOL     OW16663   2.741   1.033   0.753  0.3560 -0.2557 -0.2706
 1735SOL    HW116664   2.724   1.031   0.659  0.2831 -2.1064 -0.2351
 1735SOL    HW216665   2.770   0.943   0.771 -0.3633 -0.3779  0.2783
 1736SOL     OW16666   1.282   3.242   4.841 -0.0917  0.4049  0.6483
 1736SOL    HW116667   1.207   3.205   4.888 -0.4995 -0.2600 -0.5317
 1736SOL    HW216668   1.237   3.280   4.766 -1.5567 -0.4138  1.1183
 1737SOL     OW16669   3.538   4.610   2.377 -0.1276  0.0858 -0.4484
 1737SOL    HW116670   3.611   4.672   2.383 -0.8003  1.0559 -2.1888
 1737SOL    HW216671   3.506   4.606   2.286  0.1023  0.1946 -0.5341
 1738SOL     OW16672   3.362   0.027   9.167  0.0160 -0.0358  0.0594
 1738SOL    HW116673   3.394   0.051   9.253 -0.3197 -1.2276  0.5147
 1738SOL    HW216674   3.307   4.677   9.194 -2.8582  1.3405 -1.8843
 1739SOL     OW16675   1.017   4.134   4.852  0.3733  1.0556 -0.4600
 1739SOL    HW116676   0.984   4.091   4.774 -0.0368  2.0054 -0.8067
 1739SOL    HW216677   0.954   4.205   4.860 -0.6379 -0.0307  1.3561
 1740SOL     OW16678   1.067   1.834   8.175  0.5173 -1.1219  0.1413
 1740SOL    HW116679   1.082   1.877   8.090 -2.3518 -1.1301 -0.3722
 1740SOL    HW216680   1.001   1.768   8.156 -1.6537  0.8263  0.8391
 1741SOL     OW16681   1.254   4.678   5.562  0.2286 -0.2332 -1.1012
 1741SOL    HW116682   1.253   4.709   5.652  3.8152 -4.7669  0.5098
 1741SOL    HW216683   1.338   4.633   5.554  0.9367  1.0506 -0.7597
 1742SOL     OW16684   2.206   3.931  11.317  0.2935  0.7015  0.3800
 1742SOL    HW116685   2.285   3.915  11.367 -0.4806 -0.7373  1.1408
 1742SOL    HW216686   2.244   3.999  11.262  1.9813  0.3622  1.1500
 1743SOL     OW16687   1.604   1.056  17.024  0.0697 -0.1256  0.1365
 1743SOL    HW116688   1.697   1.036  17.010  0.0927  1.2321 -1.5889
 1743SOL    HW216689   1.560   0.993  16.967  0.0620 -0.2072  0.2323
 1744SOL     OW16690   1.250   2.418   6.781 -0.1617 -0.2025  0.3174
 1744SOL    HW116691   1.242   2.393   6.689  0.7761  0.9398 -0.0868
 1744SOL    HW216692   1.165   2.458   6.799  0.5249  1.0807  0.7569
 1745SOL     OW16693   1.018   2.566   2.200  0.4124  0.1221 -0.0933
 1745SOL    HW116694   0.997   2.472   2.194 -1.3229  0.4498  0.6372
 1745SOL    HW216695   1.041   2.578   2.108 -0.4705  1.1690 -0.1792
 1746SOL     OW16696   3.309   1.175  12.126  0.5123 -0.7628 -0.2036
 1746SOL    HW116697   3.296   1.228  12.204  0.7948  0.7508 -1.1798
 1746SOL    HW216698   3.343   1.243  12.067  3.1538 -0.8067  1.2793
 1747SOL     OW16699   4.144   1.968  14.569  0.0544 -0.1033  0.2880
 1747SOL    HW116700   4.083   1.897  14.588  2.0510 -1.7386  0.6562
 1747SOL    HW216701   4.226   1.918  14.579  0.5623  1.1680  2.5352
 1748SOL     OW16702   1.236   1.693   5.331 -0.3901 -0.3269  0.4741
 1748SOL    HW116703   1.253   1.776   5.285 -0.9148 -0.2167  0.4773
 1748SOL    HW216704   1.141   1.688   5.334 -0.5241  1.1450 -1.0932
 1749SOL     OW16705   3.959   0.567  11.324 -0.0846  0.1428  0.0919
 1749SOL    HW116706   4.017   0.594  11.395  0.6055  2.9909 -1.5584
 1749SOL    HW216707   3.991   0.477  11.315 -0.2669 -0.1875  2.8565
 1750SOL     OW16708   0.782   3.250   6.703  0.0841  0.4305 -0.0904
 1750SOL    HW116709   0.764   3.308   6.777  2.6595  0.2608  0.6749
 1750SOL    HW216710   0.833   3.176   6.735  0.6109  1.0120  0.4114
 1751SOL     OW16711   2.756   0.494   6.013  0.3614  0.2270  0.0907
 1751SOL    HW116712   2.669   0.522   6.041  0.3751 -2.3673  2.7492
 1751SOL    HW216713   2.747   0.399   6.021 -2.0241  0.4718  0.4217
 1752SOL     OW16714   3.865   4.078   1.153  0.2917 -0.0597 -0.0914
 1752SOL    HW116715   3.837   4.115   1.068 -0.8254 -0.2642  0.1840
 1752SOL    HW216716   3.942   4.028   1.127  0.2435  0.0049 -0.3614
 1753SOL     OW16717   3.740   0.639  11.090 -0.0152  0.0237  0.5395
 1753SOL    HW116718   3.659   0.621  11.042  0.0228  2.4227 -0.4100
 1753SOL    HW216719   3.756   0.714  11.032 -0.7559  0.7197  1.2349
 1754SOL     OW16720   3.379   3.940  13.714  0.2904  0.1613  0.1814
 1754SOL    HW116721   3.293   3.898  13.706 -0.1976  1.2380 -0.1964
 1754SOL    HW216722   3.438   3.865  13.714 -0.8189 -0.6996  2.4137
 1755SOL     OW16723   2.145   2.141  16.413 -0.5233  0.2940  0.4884
 1755SOL    HW116724   2.233   2.157  16.378  0.0417 -0.5855  1.4782
 1755SOL    HW216725   2.099   2.205  16.360 -1.7648  0.0632  1.2943
 1756SOL     OW16726   0.273   2.963  11.064  0.7461  0.0849 -0.2735
 1756SOL    HW116727   0.194   3.016  11.054  0.0691 -0.5150  1.8571
 1756SOL    HW216728   0.307   3.011  11.140  0.8902 -0.7768  0.2023
 1757SOL     OW16729   1.330   4.294   7.933 -0.3799 -0.4270  0.2640
 1757SOL    HW116730   1.339   4.357   8.004  1.1010  1.1011 -1.2604
 1757SOL    HW216731   1.236   4.281   7.933 -0.0512 -2.7548  4.1967
 1758SOL     OW16732   0.480   0.228   6.419  0.0209 -0.2084  0.4084
 1758SOL    HW116733   0.426   0.307   6.413 -1.6998 -1.3813  0.2842
 1758SOL    HW216734   0.410   0.163   6.427  0.1400 -0.2898  0.7859
 1759SOL     OW16735   1.505   2.189   3.932  0.1483  0.0586  0.1676
 1759SOL    HW116736   1.529   2.114   3.878 -0.7131 -0.2783  0.2526
 1759SOL    HW216737   1.421   2.168   3.974 -0.7747  0.1824 -1.6455
 1760SOL     OW16738   4.104   0.833  16.880  0.3972  0.1858  0.3562
 1760SOL    HW116739   4.085   0.814  16.788 -1.7762 -0.0640  0.8551
 1760SOL    HW216740   4.025   0.885  16.889  2.4613  2.8111  3.0473
 1761SOL     OW16741   3.016   3.680   7.350  0.0867 -0.2819 -0.1881
 1761SOL    HW116742   3.060   3.691   7.266 -0.9083 -0.1852 -0.7031
 1761SOL    HW216743   2.926   3.701   7.324  0.1098 -0.8319 -0.7098
 1762SOL     OW16744   0.275   2.720   7.045 -0.0337  0.2786 -0.1893
 1762SOL    HW116745   0.300   2.627   7.043  0.9925  0.5345  1.4007
 1762SOL    HW216746   0.362   2.754   7.061 -0.7929  2.3128 -0.3745
 1763SOL     OW16747   3.761   1.347   6.059  0.0119 -0.2117 -1.1141
 1763SOL    HW116748   3.770   1.435   6.023 -0.4803 -0.1122 -1.0013
 1763SOL    HW216749   3.745   1.292   5.983 -2.4345 -2.8251  1.2526
 1764SOL     OW16750   3.972   3.999  10.089  0.2426  0.5356  0.0747
 1764SOL    HW116751   3.930   3.921  10.055 -1.5378  0.1654  3.1403
 1764SOL    HW216752   3.902   4.063  10.077  1.4755  1.9715  0.3899
 1765SOL     OW16753   0.755   0.862  14.240 -0.3075  0.8119 -0.5037
 1765SOL    HW116754   0.698   0.926  14.199 -0.8321  1.4202  1.1926
 1765SOL    HW216755   0.759   0.894  14.330  0.2674 -0.7386  0.0288
 1766SOL     OW16756   0.443   1.005   7.183 -0.1614  0.1813  0.2544
 1766SOL    HW116757   0.461   1.096   7.159 -2.0069  0.2628 -0.8013
 1766SOL    HW216758   0.526   0.988   7.227  0.3030 -1.8051 -1.4090
 1767SOL     OW16759   3.509   0.243   0.812  0.1666  0.5698 -0.3567
 1767SOL    HW116760   3.481   0.288   0.892 -1.2036 -1.4339  0.3075
 1767SOL    HW216761   3.443   0.173   0.811 -0.1151  0.8720 -3.2151
 1768SOL     OW16762   3.753   3.001  17.242  0.1609 -0.0736 -0.3432
 1768SOL    HW116763   3.668   2.999  17.284  0.7966 -0.7482  0.8950
 1768SOL    HW216764   3.784   2.911  17.256  0.1774  0.1018  0.6983
 1769SOL     OW16765   2.066   4.173   7.496 -0.1816  1.1617 -0.0863
 1769SOL    HW116766   1.971   4.172   7.502 -0.3381 -0.9610 -2.9258
 1769SOL    HW216767   2.074   4.247   7.435  0.1290  1.1251 -0.0890
 1770SOL     OW16768   1.181   0.274   3.864 -0.6413  0.0881  1.0745
 1770SOL    HW116769   1.239   0.253   3.938 -0.1231 -0.9753  0.3632
 1770SOL    HW216770   1.101   0.236   3.900 -2.0223 -0.8764 -3.0055
 1771SOL     OW16771   3.242   0.146   3.197 -0.1148 -0.0259  0.3168
 1771SOL    HW116772   3.222   0.237   3.223  2.0493  0.3838  0.5447
 1771SOL    HW216773   3.164   0.114   3.152 -0.3567  0.5694  0.3068
 1772SOL     OW16774   3.378   4.508   8.882 -0.1158 -0.3724  0.6921
 1772SOL    HW116775   3.368   4.451   8.805 -0.9753 -1.6577  1.7538
 1772SOL    HW216776   3.456   4.473   8.924 -0.1869  1.6712  2.4931
 1773SOL     OW16777   3.349   2.844   1.841  0.2233 -0.3517  0.5456
 1773SOL    HW116778   3.328   2.889   1.759 -1.4206  0.0418  1.1855
 1773SOL    HW216779   3.297   2.893   1.905 -0.5257  0.1681 -0.4516
 1774SOL     OW16780   1.452   0.702   8.687  0.4280 -0.2533  0.7440
 1774SOL    HW116781   1.408   0.666   8.764 -0.1848  0.1452  0.5793
 1774SOL    HW216782   1.546   0.693   8.707  0.8449 -1.0494 -1.5742
 1775SOL     OW16783   3.642   1.391   2.677  0.3332  0.0617 -0.3490
 1775SOL    HW116784   3.574   1.459   2.676 -0.0330 -0.2861  1.0271
 1775SOL    HW216785   3.679   1.404   2.765  0.3265 -1.9686 -0.0597
 1776SOL     OW16786   1.448   1.394   0.861  0.6037  0.4796 -0.2702
 1776SOL    HW116787   1.359   1.419   0.836  0.4111 -0.3534 -0.4019
 1776SOL    HW216788   1.458   1.465   0.925 -1.6519 -0.9069  1.6313
 1777SOL     OW16789   2.823   3.084  12.686 -0.1366  0.5467 -0.4188
 1777SOL    HW116790   2.758   3.044  12.628 -1.0336  1.9562 -0.4007
 1777SOL    HW216791   2.894   3.022  12.672  1.1249  1.4360  2.1063
 1778SOL     OW16792   3.420   4.124   1.914 -0.4676  0.1361  0.3694
 1778SOL    HW116793   3.403   4.032   1.938 -1.5730  0.0970 -0.5692
 1778SOL    HW216794   3.475   4.106   1.838  0.9948 -1.9498  1.9090
 1779SOL     OW16795   1.255   3.982   5.296  0.2510 -0.0097  0.4726
 1779SOL    HW116796   1.347   3.954   5.294  0.0334 -0.6580 -0.6133
 1779SOL    HW216797   1.215   3.898   5.272  1.3122  0.3915 -2.6597
 1780SOL     OW16798   4.409   1.720   5.266  0.1041  0.8362 -0.4563
 1780SOL    HW116799   4.369   1.716   5.179 -1.1649  1.7809  0.0811
 1780SOL    HW216800   4.336   1.686   5.319  1.1206  0.9459  1.0123
 1781SOL     OW16801   3.239   1.194   0.390  0.2569 -0.1149  0.3582
 1781SOL    HW116802   3.178   1.197   0.464  0.6308  2.8795  0.5470
 1781SOL    HW216803   3.256   1.100   0.401  0.1019 -0.3959 -1.7924
 1782SOL     OW16804   3.458   4.275   3.561  0.2379 -0.1560  0.1907
 1782SOL    HW116805   3.436   4.366   3.540  1.4695  0.0815 -0.0303
 1782SOL    HW216806   3.536   4.288   3.615 -1.5919  0.2694  2.7471
 1783SOL     OW16807   3.908   3.935   6.823 -0.5179 -0.3404  0.4791
 1783SOL    HW116808   3.836   3.965   6.767 -0.9759 -1.0673  0.6824
 1783SOL    HW216809   3.883   3.843   6.830  0.0509 -0.5565 -0.3506
 1784SOL     OW16810   2.861   2.337   4.603 -0.4934  0.7667  0.0566
 1784SOL    HW116811   2.956   2.326   4.597 -0.3179  0.8732  2.5004
 1784SOL    HW216812   2.852   2.417   4.655 -0.2473  0.1990  0.9858
 1785SOL     OW16813   2.444   2.065  15.368  0.3335  0.4204 -0.0625
 1785SOL    HW116814   2.401   1.995  15.319  2.2109  0.0709 -1.1820
 1785SOL    HW216815   2.402   2.070  15.455  0.8675  0.6364  0.1834
 1786SOL     OW16816   3.609   1.920  12.542  0.1487  0.0970 -0.0790
 1786SOL    HW116817   3.697   1.892  12.519  0.0088 -0.4426  0.0501
 1786SOL    HW216818   3.564   1.860  12.483  0.2647  0.5899 -0.6672
 1787SOL     OW16819   0.405   1.569  10.861  0.0810 -0.2447  0.0065
 1787SOL    HW116820   0.497   1.547  10.845  0.6767  0.4958  2.4928
 1787SOL    HW216821   0.393   1.644  10.802 -1.0121 -0.3250  0.1265
 1788SOL     OW16822   3.639   0.129   4.712 -0.0545 -0.2009 -0.2474
 1788SOL    HW116823   3.599   0.045   4.736  0.7762 -0.9876 -1.6214
 1788SOL    HW216824   3.728   0.114   4.746 -0.4014 -0.7317  0.4141
 1789SOL     OW16825   2.252   3.940   9.294 -0.8538 -0.3289  0.0923
 1789SOL    HW116826   2.174   3.908   9.340 -0.3577 -0.2952  0.9645
 1789SOL    HW216827   2.321   3.883   9.327 -0.0709 -0.5475 -1.9736
 1790SOL     OW16828   0.608   1.127   9.253  0.0877  0.0986 -0.3142
 1790SOL    HW116829   0.557   1.116   9.173 -2.4712 -1.0118  1.4438
 1790SOL    HW216830   0.655   1.202   9.217  0.4648 -0.0762 -0.1797
 1791SOL     OW16831   4.687   2.384   8.160  0.0956 -0.4610 -0.4933
 1791SOL    HW116832   0.031   2.415   8.221 -0.4133  1.4530 -0.8975
 1791SOL    HW216833   4.613   2.443   8.174 -2.0435 -3.5779  1.3691
 1792SOL     OW16834   1.734   0.746   1.455 -0.1898 -0.1997 -0.0853
 1792SOL    HW116835   1.708   0.729   1.365 -1.1349 -2.0700  0.5437
 1792SOL    HW216836   1.723   0.657   1.489  0.6001 -0.0816  0.4738
 1793SOL     OW16837   3.909   3.662   2.817 -0.4719  0.0864  0.3571
 1793SOL    HW116838   3.897   3.757   2.827  3.0125  0.6643 -1.0814
 1793SOL    HW216839   3.816   3.638   2.808 -0.0666 -0.8761 -1.2484
 1794SOL     OW16840   0.353   3.039   9.959  0.1589 -0.0931 -0.1501
 1794SOL    HW116841   0.295   2.969   9.927  0.7155 -1.3666  1.7011
 1794SOL    HW216842   0.367   3.021  10.052  0.2417 -2.1021 -0.5491
 1795SOL     OW16843   1.139   4.316  12.347  0.1283  0.2062  0.1998
 1795SOL    HW116844   1.047   4.331  12.323 -0.3853  0.0602  2.0619
 1795SOL    HW216845   1.186   4.368  12.282 -0.2798  0.0651 -0.2121
 1796SOL     OW16846   0.689   0.350  12.187  0.4026 -0.1867  0.2911
 1796SOL    HW116847   0.692   0.445  12.199 -1.8985 -0.0818  0.0932
 1796SOL    HW216848   0.607   0.345  12.136  1.0490 -1.4200 -0.6251
 1797SOL     OW16849   0.714   2.495  12.993  0.4568  0.2946 -0.2722
 1797SOL    HW116850   0.626   2.505  12.958 -0.0072  0.4011  0.9235
 1797SOL    HW216851   0.709   2.425  13.058 -0.9488  3.4741  3.0242
 1798SOL     OW16852   2.347   4.508   5.543 -0.4586  0.2451 -0.1904
 1798SOL    HW116853   2.436   4.492   5.575 -2.0681 -1.8823  3.2284
 1798SOL    HW216854   2.363   4.597   5.511  1.8118  0.2648  0.9571
 1799SOL     OW16855   2.388   1.726   7.510  0.0347  0.5358 -0.1201
 1799SOL    HW116856   2.341   1.753   7.590  0.1602 -0.2894  0.2262
 1799SOL    HW216857   2.406   1.635   7.532 -0.5572  0.4266 -0.0646
 1800SOL     OW16858   0.871   4.445   4.405 -0.1570 -0.5482  0.3460
 1800SOL    HW116859   0.792   4.422   4.356 -0.2683 -0.2371  0.3786
 1800SOL    HW216860   0.929   4.421   4.333 -0.2548 -0.5886  0.2809
 1801SOL     OW16861   2.935   3.218   7.977 -0.2528  0.2749  0.1435
 1801SOL    HW116862   2.855   3.167   7.990  1.4777 -2.1453  1.3143
 1801SOL    HW216863   2.994   3.171   8.035 -0.1959  0.0931 -0.0596
 1802SOL     OW16864   3.388   2.859  13.396 -0.5565 -0.8280 -0.1237
 1802SOL    HW116865   3.417   2.899  13.478 -3.0466  0.6798  0.0058
 1802SOL    HW216866   3.306   2.837  13.440  0.3708 -0.6078  1.7011
 1803SOL     OW16867   2.626   4.408   8.822  0.1901 -0.3843 -0.1734
 1803SOL    HW116868   2.672   4.467   8.882 -2.2031  0.9492  0.3830
 1803SOL    HW216869   2.554   4.376   8.877  1.9785 -1.8521  1.3009
 1804SOL     OW16870   4.214   2.945   8.356 -0.2638 -0.6874  0.0218
 1804SOL    HW116871   4.236   2.897   8.437 -1.2914  1.3406  1.5050
 1804SOL    HW216872   4.216   3.035   8.388 -3.2738  0.1430 -2.1745
 1805SOL     OW16873   0.517   2.353  11.634  0.5928 -0.1994 -0.0279
 1805SOL    HW116874   0.503   2.367  11.541 -0.3726 -1.5994 -0.1078
 1805SOL    HW216875   0.547   2.440  11.660  0.7858  0.1078 -1.2924
 1806SOL     OW16876   3.100   1.386   9.040  0.5070  0.4717 -0.8983
 1806SOL    HW116877   3.038   1.353   8.975 -0.0219  0.1176 -0.2145
 1806SOL    HW216878   3.178   1.336   9.018  0.4350 -0.1259  0.1616
 1807SOL     OW16879   1.717   3.924   3.899 -0.5140  0.6031  0.0758
 1807SOL    HW116880   1.728   4.017   3.879 -0.5912  0.5251 -0.3244
 1807SOL    HW216881   1.626   3.904   3.877  0.4267 -1.5942 -1.8594
 1808SOL     OW16882   2.378   3.679   3.118 -0.1468 -0.0517 -0.0380
 1808SOL    HW116883   2.466   3.661   3.086  0.1841  0.2804  0.6863
 1808SOL    HW216884   2.338   3.702   3.034 -0.1885 -2.2131 -0.6251
 1809SOL     OW16885   1.582   1.983   4.874 -0.1433 -0.1036  0.1097
 1809SOL    HW116886   1.616   1.988   4.785  0.6554  1.4423  0.5039
 1809SOL    HW216887   1.646   1.930   4.922 -0.1090 -1.0324 -0.9614
 1810SOL     OW16888   4.652   0.199   8.358 -0.1539  0.1261  0.0135
 1810SOL    HW116889   4.660   0.280   8.307 -0.0962  1.1172  1.6126
 1810SOL    HW216890   4.563   0.196   8.393 -0.9479  1.5102 -1.8708
 1811SOL     OW16891   3.763   2.315   3.574 -0.0735 -0.7554  0.2990
 1811SOL    HW116892   3.729   2.234   3.538 -1.6327  0.5977 -1.2715
 1811SOL    HW216893   3.846   2.285   3.610 -0.0984 -1.4476 -0.2260
 1812SOL     OW16894   2.090   2.929   2.655 -0.2311 -0.3083 -0.0964
 1812SOL    HW116895   2.044   2.857   2.700  1.7569 -1.5143 -0.0054
 1812SOL    HW216896   2.056   3.001   2.709  2.1642  1.2471 -0.7143
 1813SOL     OW16897   0.358   4.224   4.818 -0.1076 -0.0182 -0.4304
 1813SOL    HW116898   0.389   4.246   4.906  0.1622 -0.1332 -0.4946
 1813SOL    HW216899   0.264   4.223   4.834 -0.1495  1.2752 -0.5950
 1814SOL     OW16900   0.180   3.834   6.645 -0.4398 -0.1113  0.2493
 1814SOL    HW116901   0.271   3.826   6.674  0.3919  2.0790 -1.7931
 1814SOL    HW216902   0.132   3.806   6.723 -1.5720 -0.5767 -0.6013
 1815SOL     OW16903   4.551   2.884   2.329 -0.6616 -0.6621  0.9204
 1815SOL    HW116904   4.471   2.832   2.316 -1.1260  0.1845  0.3869
 1815SOL    HW216905   4.562   2.922   2.242  1.8720  0.4641  1.7468
 1816SOL     OW16906   2.965   2.190   3.788  0.9021  0.1354  0.1773
 1816SOL    HW116907   2.891   2.150   3.835  0.3204  1.0476  0.0320
 1816SOL    HW216908   3.002   2.243   3.858  1.0675 -0.7985  0.7991
 1817SOL     OW16909   2.398   3.299   3.113 -0.3903  0.0870  0.4355
 1817SOL    HW116910   2.377   3.323   3.203  0.4527 -0.1901  0.7145
 1817SOL    HW216911   2.474   3.349   3.083  2.2548 -1.8249  3.8266
 1818SOL     OW16912   0.963   3.947   3.304 -0.1882 -0.2284  0.4323
 1818SOL    HW116913   0.976   3.880   3.371 -1.0895  0.3774  1.2213
 1818SOL    HW216914   0.935   4.016   3.365  2.6181 -0.6001  2.1418
 1819SOL     OW16915   1.225   4.287  13.274  0.1769  0.4989 -0.2206
 1819SOL    HW116916   1.202   4.360  13.330 -1.9978 -2.1732  2.3516
 1819SOL    HW216917   1.261   4.230  13.342 -0.5429  1.1659  0.7125
 1820SOL     OW16918   0.934   3.073  11.721  0.4398  0.5122  0.0358
 1820SOL    HW116919   0.839   3.084  11.727  0.5095 -0.2163  2.3007
 1820SOL    HW216920   0.933   3.069  11.625 -1.1933  0.0848  0.0820
 1821SOL     OW16921   0.506   1.046   8.978  0.4934 -0.4254  0.0597
 1821SOL    HW116922   0.436   0.982   8.962 -1.4576  1.2645  1.9196
 1821SOL    HW216923   0.571   1.034   8.909  0.1141  0.6984 -0.4890
 1822SOL     OW16924   3.910   1.609   0.841 -0.0983 -0.2147 -0.1211
 1822SOL    HW116925   3.917   1.615   0.936  3.3975 -0.8457 -0.3435
 1822SOL    HW216926   3.954   1.692   0.820 -0.6114  0.2195  0.5181
 1823SOL     OW16927   4.005   0.347   4.445 -0.4783  0.1785 -0.0429
 1823SOL    HW116928   4.016   0.309   4.532 -0.4222  1.4107  0.4873
 1823SOL    HW216929   4.040   0.276   4.391  0.7881  0.9189 -0.2070
 1824SOL     OW16930   1.219   0.550   2.784  0.1527  0.0490 -0.2782
 1824SOL    HW116931   1.180   0.585   2.864 -1.4897  0.2950 -1.1798
 1824SOL    HW216932   1.277   0.620   2.753  0.1342  0.5889  0.8938
 1825SOL     OW16933   4.243   2.477   4.766  0.2044 -0.1051 -0.6827
 1825SOL    HW116934   4.320   2.534   4.764 -0.6644  1.0528 -1.0636
 1825SOL    HW216935   4.227   2.460   4.673  1.5151 -0.4980 -0.8358
 1826SOL     OW16936   2.513   0.689   1.070  0.0384  0.3737  0.3436
 1826SOL    HW116937   2.436   0.705   1.124 -0.2597  2.0459 -0.5861
 1826SOL    HW216938   2.520   0.594   1.077  0.1732  0.4280  0.9560
 1827SOL     OW16939   3.279   1.673   9.942 -0.1855  0.6274 -0.4959
 1827SOL    HW116940   3.292   1.762   9.976  0.4392  0.2427  0.2916
 1827SOL    HW216941   3.268   1.695   9.850  1.0461  0.8540 -0.5971
 1828SOL     OW16942   0.653   2.631  16.594  0.1609 -0.3387 -0.6053
 1828SOL    HW116943   0.614   2.713  16.624 -1.6318 -1.2375 -0.5083
 1828SOL    HW216944   0.606   2.559  16.637  2.2899 -0.7818  0.9717
 1829SOL     OW16945   3.048   0.320  10.871 -0.2177 -0.6164 -0.4130
 1829SOL    HW116946   3.034   0.326  10.777 -3.0762  1.2535  0.1571
 1829SOL    HW216947   3.045   0.224  10.880  1.0137 -0.6826 -0.7482
 1830SOL     OW16948   4.612   3.650   1.194 -0.0246 -0.0555  0.3375
 1830SOL    HW116949   4.604   3.683   1.105 -0.6643 -0.0359  0.4080
 1830SOL    HW216950   4.568   3.716   1.246 -0.4786 -1.2025  1.4140
 1831SOL     OW16951   2.524   2.374   3.027 -0.5957 -0.5558  0.1253
 1831SOL    HW116952   2.496   2.404   2.940  2.3416 -0.1684 -0.6905
 1831SOL    HW216953   2.520   2.446   3.089 -0.1445 -1.0292  0.6957
 1832SOL     OW16954   2.400   4.265  10.480 -0.3908  0.8588  0.1268
 1832SOL    HW116955   2.490   4.238  10.499 -0.1495  0.7560 -1.1267
 1832SOL    HW216956   2.357   4.260  10.565 -1.1333 -0.3300 -0.3133
 1833SOL     OW16957   2.186   3.525   9.472  0.1063 -0.0378  0.3343
 1833SOL    HW116958   2.274   3.559   9.455  0.4773 -0.4054  1.4891
 1833SOL    HW216959   2.211   3.434   9.487 -0.3420 -0.0110  1.2615
 1834SOL     OW16960   4.484   1.095   4.724 -0.7618 -0.1819 -0.1530
 1834SOL    HW116961   4.569   1.123   4.691 -1.8262  1.3175 -1.6134
 1834SOL    HW216962   4.505   1.116   4.815  0.4837  1.4931 -0.8309
 1835SOL     OW16963   4.344   3.158  13.875 -0.2833  0.1183 -0.0393
 1835SOL    HW116964   4.344   3.239  13.824 -0.2601 -0.5979 -1.1744
 1835SOL    HW216965   4.261   3.116  13.851 -0.4700  0.4234  0.0852
 1836SOL     OW16966   3.916   0.099   0.058  0.2563 -0.0487 -0.1056
 1836SOL    HW116967   4.011   0.110   0.059  0.2767 -0.0489 -1.2730
 1836SOL    HW216968   3.892   0.180   0.104  0.1838 -0.0939 -0.0640
 1837SOL     OW16969   4.389   3.914  11.612  0.4979  0.0369  0.2839
 1837SOL    HW116970   4.364   3.853  11.682  1.3490 -1.2777 -0.5412
 1837SOL    HW216971   4.461   3.949  11.665  0.2842  2.2824 -0.9521
 1838SOL     OW16972   3.913   1.729   1.095 -0.0178  0.3076 -0.2792
 1838SOL    HW116973   3.936   1.815   1.060 -0.0407  0.4889  0.1499
 1838SOL    HW216974   3.952   1.729   1.182 -1.8181 -2.1646  0.4993
 1839SOL     OW16975   1.419   1.806  12.926  0.6428 -0.3823 -0.5616
 1839SOL    HW116976   1.350   1.770  12.981  0.2771  0.2443 -0.6157
 1839SOL    HW216977   1.500   1.769  12.963  0.2501 -0.6046  0.0786
 1840SOL     OW16978   4.041   1.744   4.496  0.6738 -0.4722  0.0978
 1840SOL    HW116979   4.007   1.729   4.585 -0.3834 -0.8585 -0.3643
 1840SOL    HW216980   4.103   1.671   4.499 -1.6823 -2.4551  1.0394
 1841SOL     OW16981   2.659   0.623   4.705 -0.3612 -0.6070 -0.0281
 1841SOL    HW116982   2.622   0.549   4.658 -1.4765 -0.9501  1.3846
 1841SOL    HW216983   2.594   0.645   4.771  0.5202  0.1387  0.6034
 1842SOL     OW16984   3.892   1.230   6.873 -0.0099  0.8242  0.4566
 1842SOL    HW116985   3.822   1.295   6.872 -1.5693 -0.8843 -1.5172
 1842SOL    HW216986   3.965   1.291   6.890  0.7058 -0.0661  0.5649
 1843SOL     OW16987   1.280   2.266   2.435  0.3585  0.3855 -0.0473
 1843SOL    HW116988   1.212   2.229   2.379  1.3800  0.2926 -1.2381
 1843SOL    HW216989   1.229   2.316   2.498  1.6267  1.3871  0.1916
 1844SOL     OW16990   1.431   0.261  13.278  0.2529 -0.1306  0.3283
 1844SOL    HW116991   1.428   0.302  13.191 -4.5843 -1.4336 -0.1052
 1844SOL    HW216992   1.413   0.331  13.340 -0.7992  0.0580 -0.1907
 1845SOL     OW16993   2.478   3.144   6.109  0.5427 -0.3317  0.7402
 1845SOL    HW116994   2.511   3.232   6.131  2.0848 -0.4024 -1.2992
 1845SOL    HW216995   2.404   3.168   6.053 -0.1444 -1.0931  1.3421
 1846SOL     OW16996   1.317   2.605   0.703 -0.3249  0.1492 -0.6085
 1846SOL    HW116997   1.386   2.544   0.679 -0.9615 -0.2821 -1.3544
 1846SOL    HW216998   1.240   2.552   0.682 -1.1031 -0.6684  4.4032
 1847SOL     OW16999   4.454   2.605   8.178  0.0670  0.0200  0.0134
 1847SOL    HW117000   4.360   2.608   8.192 -0.1814  0.0726 -1.6516
 1847SOL    HW217001   4.456   2.610   8.083  0.2740 -3.6606 -0.1868
 1848SOL     OW17002   2.199   3.003  17.606 -0.0135  0.2058  0.2390
 1848SOL    HW117003   2.244   3.040  17.682  1.1589 -1.1049  0.1857
 1848SOL    HW217004   2.259   2.996  17.532  1.0541  1.3410  1.0055
 1849SOL     OW17005   4.338   2.568  15.658 -0.0358 -0.4413 -0.4395
 1849SOL    HW117006   4.259   2.590  15.707  0.5902 -0.1641  0.4331
 1849SOL    HW217007   4.336   2.649  15.607 -0.0804  0.1850  0.5566
 1850SOL     OW17008   4.674   2.142   9.285 -0.1387 -0.7551  0.2500
 1850SOL    HW117009   0.005   2.211   9.249  1.2179 -0.5226  2.8024
 1850SOL    HW217010   4.686   2.084   9.209  1.4176  0.8506 -0.7392
 1851SOL     OW17011   0.559   3.632  10.736 -0.1162  0.3201  0.0231
 1851SOL    HW117012   0.553   3.646  10.831  1.8585 -0.8177  0.3056
 1851SOL    HW217013   0.628   3.694  10.713 -1.4760  1.7620 -0.1777
 1852SOL     OW17014   1.369   3.129   1.089 -0.2605  0.3469 -0.1591
 1852SOL    HW117015   1.311   3.205   1.085 -0.4931  0.1308 -0.8511
 1852SOL    HW217016   1.428   3.141   1.164 -0.2326 -1.3539  0.0881
 1853SOL     OW17017   2.057   4.433   1.484  0.2790 -0.3016 -0.9085
 1853SOL    HW117018   1.970   4.429   1.523  0.6262  3.1906  0.1830
 1853SOL    HW217019   2.077   4.345   1.453 -0.7432 -1.4819  1.7960
 1854SOL     OW17020   2.317   2.905   5.225  0.2145  0.5774  0.4719
 1854SOL    HW117021   2.372   2.827   5.220 -0.5606  0.1410 -1.1708
 1854SOL    HW217022   2.281   2.902   5.137  0.0046 -0.2012  0.5902
 1855SOL     OW17023   3.368   1.458   3.310  0.0505  0.7147 -0.1286
 1855SOL    HW117024   3.296   1.507   3.270  1.0847  2.6096  0.3632
 1855SOL    HW217025   3.447   1.509   3.295 -0.1078  0.2661 -2.4483
 1856SOL     OW17026   2.445   0.047   5.222 -0.4708  0.7835 -0.2733
 1856SOL    HW117027   2.368   4.719   5.198 -0.2254  1.4873 -2.5986
 1856SOL    HW217028   2.462   0.100   5.144 -0.4402  1.2824  0.0757
 1857SOL     OW17029   4.393   0.428   8.265 -0.1978 -0.0824  0.1548
 1857SOL    HW117030   4.355   0.348   8.227  0.0519 -0.9085  1.6245
 1857SOL    HW217031   4.487   0.415   8.250 -0.0184  0.4327  0.8729
 1858SOL     OW17032   3.850   2.205   2.467 -0.3455  0.1049 -0.4373
 1858SOL    HW117033   3.848   2.206   2.372 -1.1884 -0.2317 -0.4204
 1858SOL    HW217034   3.767   2.165   2.491 -0.0915 -0.3058 -0.2473
 1859SOL     OW17035   2.982   2.148   3.128  0.0345  0.1865  0.5131
 1859SOL    HW117036   2.954   2.229   3.171 -0.4570  1.6596 -2.6168
 1859SOL    HW217037   2.900   2.126   3.084  1.8621 -1.5697 -1.9776
 1860SOL     OW17038   3.704   1.263   3.109 -0.2101  0.2623 -0.1484
 1860SOL    HW117039   3.610   1.255   3.093 -0.3416 -0.3251  0.9546
 1860SOL    HW217040   3.724   1.169   3.114 -0.8059  0.1201 -0.3969
 1861SOL     OW17041   3.799   1.619  16.856  0.2337 -0.1653  0.1284
 1861SOL    HW117042   3.747   1.672  16.796 -0.0779  0.9901  1.4266
 1861SOL    HW217043   3.752   1.536  16.848  1.2383 -0.5999 -1.4341
 1862SOL     OW17044   4.496   0.293   5.559 -0.2458 -0.1121 -0.8762
 1862SOL    HW117045   4.427   0.296   5.625  0.5647 -0.2382 -0.0211
 1862SOL    HW217046   4.573   0.250   5.597 -0.5693 -1.4906 -1.7697
 1863SOL     OW17047   3.891   2.112   1.021 -0.2502  0.2377  0.4885
 1863SOL    HW117048   3.870   2.072   0.936 -2.4339  2.2643  0.0657
 1863SOL    HW217049   3.868   2.203   0.999 -0.7006  0.2531  1.0362
 1864SOL     OW17050   3.500   4.696   5.504  0.1670 -0.6256  0.4416
 1864SOL    HW117051   3.506   0.065   5.529  0.8928 -0.9815  1.5295
 1864SOL    HW217052   3.456   4.654   5.577 -2.1138 -0.9887 -1.1296
 1865SOL     OW17053   4.127   3.870   6.646  0.0383 -0.2968 -0.4295
 1865SOL    HW117054   4.184   3.947   6.650 -1.8030  1.0950 -1.5369
 1865SOL    HW217055   4.054   3.897   6.702  0.6911 -2.8376  1.6806
 1866SOL     OW17056   3.154   1.841  15.744 -0.3552  0.7691 -0.1531
 1866SOL    HW117057   3.186   1.846  15.654 -1.8203 -0.4222 -0.7438
 1866SOL    HW217058   3.072   1.889  15.731 -1.3521 -1.2823 -1.5097
 1867SOL     OW17059   0.582   1.473   0.887 -0.1395 -0.3923  0.2999
 1867SOL    HW117060   0.619   1.561   0.887  1.6117 -1.1235  2.9238
 1867SOL    HW217061   0.659   1.424   0.857  1.1885  1.1201  1.2592
 1868SOL     OW17062   1.152   2.161   2.909 -0.4429  0.2789  0.1798
 1868SOL    HW117063   1.219   2.220   2.874  0.8913 -1.6665 -0.5236
 1868SOL    HW217064   1.135   2.116   2.827  3.7974 -0.0349 -0.5198
 1869SOL     OW17065   3.766   3.448   1.603  0.2541 -0.1084 -0.7056
 1869SOL    HW117066   3.831   3.479   1.667 -0.3025 -0.6553  0.1241
 1869SOL    HW217067   3.758   3.521   1.542 -0.6643 -0.1049 -0.5738
 1870SOL     OW17068   2.401   2.796   9.056  0.0793 -0.3959 -0.0215
 1870SOL    HW117069   2.307   2.781   9.056 -0.1138  0.7256  1.1648
 1870SOL    HW217070   2.394   2.881   9.012 -0.5431 -0.1747  0.5130
 1871SOL     OW17071   2.767   4.041  13.138  0.3182 -0.8390  0.0042
 1871SOL    HW117072   2.752   3.992  13.219  0.3713 -0.7612  0.0626
 1871SOL    HW217073   2.681   4.079  13.118  1.6181  2.3488  0.3552
 1872SOL     OW17074   1.022   1.623   6.549  0.1415  0.3006 -0.4622
 1872SOL    HW117075   1.099   1.576   6.517 -0.5198 -0.9949 -0.1386
 1872SOL    HW217076   1.057   1.705   6.584  1.2390 -0.9745  1.4330
 1873SOL     OW17077   2.308   2.176   4.388 -0.0233  0.7123  0.0547
 1873SOL    HW117078   2.353   2.131   4.459  0.4451 -3.4170 -2.9096
 1873SOL    HW217079   2.217   2.159   4.413 -0.1869  0.1658 -0.9091
 1874SOL     OW17080   2.133   3.517  16.777 -0.5675  0.8702 -0.9795
 1874SOL    HW117081   2.180   3.435  16.769 -1.5740  0.3484 -1.5172
 1874SOL    HW217082   2.082   3.503  16.857 -1.7226  2.4180 -1.4473
 1875SOL     OW17083   1.004   2.494   2.814  0.0658 -0.2573 -0.0472
 1875SOL    HW117084   0.988   2.588   2.821 -0.9177 -0.3271 -1.4606
 1875SOL    HW217085   1.039   2.483   2.903 -0.5907  0.6307  0.3270
 1876SOL     OW17086   1.942   0.046   9.698  0.0503 -0.4350  0.4409
 1876SOL    HW117087   2.008   0.077   9.759 -1.0942  1.7479  0.5572
 1876SOL    HW217088   1.886   4.718   9.757  1.6489  0.4609  2.7427
 1877SOL     OW17089   1.790   0.339   5.707 -0.0109  0.0754 -0.1486
 1877SOL    HW117090   1.801   0.333   5.802  0.5500 -1.2196 -0.3004
 1877SOL    HW217091   1.727   0.411   5.695 -0.4242 -0.2528  0.0683
 1878SOL     OW17092   0.716   2.831   6.380  0.8142  0.1592  0.5261
 1878SOL    HW117093   0.645   2.894   6.362  0.9270  0.7265  2.0796
 1878SOL    HW217094   0.658   2.757   6.398  1.8979 -0.8755 -0.2277
 1879SOL     OW17095   2.989   3.784   1.570  1.2635  0.3982 -0.0396
 1879SOL    HW117096   2.994   3.871   1.608 -1.8075  0.7416 -0.4765
 1879SOL    HW217097   2.934   3.807   1.496  1.5156 -0.0850 -0.3837
 1880SOL     OW17098   2.489   2.983   0.276  0.1539  0.4492 -0.3593
 1880SOL    HW117099   2.566   3.010   0.327  1.0166 -0.1692 -1.3270
 1880SOL    HW217100   2.472   2.897   0.314  0.2983  0.8817  0.6860
 1881SOL     OW17101   1.621   1.042   7.043 -0.1363 -0.2257  0.1924
 1881SOL    HW117102   1.631   1.137   7.055 -0.0520  0.1228 -2.5025
 1881SOL    HW217103   1.589   1.041   6.953 -3.1784  1.9291  1.2572
 1882SOL     OW17104   4.665   2.411   0.758 -0.3472  0.5840  0.2963
 1882SOL    HW117105   4.639   2.452   0.840 -1.5188 -1.7944  1.1014
 1882SOL    HW217106   0.026   2.450   0.737  0.0786 -0.7255 -0.4554
 1883SOL     OW17107   1.851   0.999   7.762  0.5565  0.7134  0.3742
 1883SOL    HW117108   1.882   0.921   7.809 -0.0494  0.9305  1.1238
 1883SOL    HW217109   1.799   0.945   7.702 -0.8412  2.1778  0.2696
 1884SOL     OW17110   4.422   2.651   9.349  0.3903 -0.1780 -0.3269
 1884SOL    HW117111   4.429   2.725   9.409  2.9680 -0.5441 -0.2000
 1884SOL    HW217112   4.403   2.691   9.264  1.6439  0.3848 -0.3401
 1885SOL     OW17113   1.208   3.191  14.624  0.2694 -0.1391 -0.1866
 1885SOL    HW117114   1.256   3.199  14.542 -0.0350  0.4065 -0.3034
 1885SOL    HW217115   1.276   3.152  14.680  0.6004  0.9830  0.1840
 1886SOL     OW17116   0.274   4.326  15.661 -0.1098 -0.3588  0.0280
 1886SOL    HW117117   0.201   4.360  15.713  0.1767  0.6560 -0.2268
 1886SOL    HW217118   0.251   4.362  15.576 -0.3719 -0.8554 -0.1137
 1887SOL     OW17119   3.250   2.908   1.426 -0.0542 -0.4073  1.0376
 1887SOL    HW117120   3.255   2.917   1.331 -1.0837  1.4384  1.1700
 1887SOL    HW217121   3.170   2.948   1.459  0.2467  0.3916  0.7917
 1888SOL     OW17122   3.711   4.375   5.286  0.1734 -0.4744  0.5699
 1888SOL    HW117123   3.637   4.423   5.247  0.6148 -0.5561 -0.3794
 1888SOL    HW217124   3.680   4.285   5.276 -1.4665 -0.0104  1.4452
 1889SOL     OW17125   3.231   1.897   9.257 -0.5707  0.3947 -0.3763
 1889SOL    HW117126   3.199   1.823   9.308 -0.3451 -0.9128 -2.1383
 1889SOL    HW217127   3.307   1.852   9.218 -0.5784 -1.4236  1.6999
 1890SOL     OW17128   1.111   4.012   3.798  0.2052  0.0586 -0.6273
 1890SOL    HW117129   1.049   4.081   3.778 -0.7032 -0.6682 -0.3320
 1890SOL    HW217130   1.184   4.044   3.744  0.1393  1.5596  0.1943
 1891SOL     OW17131   2.861   1.207   0.903  0.5721  0.8869  0.2375
 1891SOL    HW117132   2.882   1.139   0.966  2.5469  2.2860  1.0670
 1891SOL    HW217133   2.818   1.159   0.831  1.0361 -0.8342  1.1008
 1892SOL     OW17134   2.288   0.377   0.927  0.3949 -0.5232  0.2665
 1892SOL    HW117135   2.310   0.434   0.854 -1.4408  1.6613  1.4303
 1892SOL    HW217136   2.371   0.378   0.974  1.0600 -0.4882 -0.8983
 1893SOL     OW17137   1.097   4.451   5.205  0.7356  0.1816  0.2976
 1893SOL    HW117138   1.002   4.443   5.206  0.7681 -0.1906  0.9406
 1893SOL    HW217139   1.109   4.383   5.272 -1.0151  0.2530  0.6850
 1894SOL     OW17140   3.648   2.603  14.887  0.0192  0.3166  0.1291
 1894SOL    HW117141   3.656   2.507  14.880 -3.2433  0.0175  0.8603
 1894SOL    HW217142   3.725   2.640  14.843 -0.4119  1.0516  0.0147
 1895SOL     OW17143   2.207   2.635   8.021 -0.1507  0.8447  0.2372
 1895SOL    HW117144   2.268   2.696   7.978 -2.2153  1.2993 -2.0471
 1895SOL    HW217145   2.270   2.576   8.063  0.8769  0.9274 -1.1777
 1896SOL     OW17146   2.117   2.580  16.880 -0.5677  0.8990 -0.2483
 1896SOL    HW117147   2.023   2.565  16.886 -0.1533 -1.5568  0.3185
 1896SOL    HW217148   2.140   2.550  16.968 -2.6930  0.3825  0.1430
 1897SOL     OW17149   3.955   2.851   5.936  0.4546 -0.2156  0.0465
 1897SOL    HW117150   3.899   2.854   6.013 -0.4785 -2.1414 -0.5686
 1897SOL    HW217151   3.976   2.761   5.957 -0.0512  0.3138  2.9072
 1898SOL     OW17152   4.001   3.672   0.827 -0.4294 -0.2741  0.2777
 1898SOL    HW117153   4.073   3.722   0.788 -0.1671 -0.0615  1.0221
 1898SOL    HW217154   3.943   3.736   0.868  0.1599  0.4639 -0.0341
 1899SOL     OW17155   0.651   3.491  13.129 -0.0050 -1.0389  0.7488
 1899SOL    HW117156   0.734   3.451  13.154 -0.1893 -2.3090 -0.6781
 1899SOL    HW217157   0.643   3.546  13.207 -0.8021 -1.9181  1.2977
 1900SOL     OW17158   0.376   1.938   3.474  0.1322 -0.3310 -0.1910
 1900SOL    HW117159   0.388   1.935   3.379  0.0449  3.1512 -0.3060
 1900SOL    HW217160   0.346   2.028   3.484  1.9123  0.2054  0.3800
 1901SOL     OW17161   1.009   3.576  10.392 -0.0763  0.1737  0.1432
 1901SOL    HW117162   1.072   3.631  10.346 -0.1554 -0.3728 -0.6259
 1901SOL    HW217163   1.053   3.494  10.368  0.1609 -0.4773  2.8221
 1902SOL     OW17164   0.849   3.207   5.339  0.2084  0.2607  0.0971
 1902SOL    HW117165   0.842   3.124   5.291  0.4271 -1.0150  2.2727
 1902SOL    HW217166   0.929   3.242   5.300  1.3190 -0.9420  1.2583
 1903SOL     OW17167   2.296   1.240  10.981 -0.1916 -0.1066  0.0977
 1903SOL    HW117168   2.235   1.166  10.986  1.4001 -1.4133  0.0768
 1903SOL    HW217169   2.300   1.256  10.887  1.2327 -1.5655 -0.0820
 1904SOL     OW17170   2.471   4.125  12.865  0.1133 -0.0102  0.4647
 1904SOL    HW117171   2.397   4.167  12.821  1.1498  0.2183 -1.0532
 1904SOL    HW217172   2.533   4.141  12.794  3.0915 -3.9239  2.1971
 1905SOL     OW17173   1.659   0.562   6.705  0.2679 -0.0004 -0.0298
 1905SOL    HW117174   1.671   0.541   6.613  0.1459  0.0650 -0.0606
 1905SOL    HW217175   1.732   0.621   6.725  1.3226 -0.6313 -1.9791
 1906SOL     OW17176   4.056   1.960   1.492 -0.0587 -0.6060 -0.5288
 1906SOL    HW117177   4.121   2.014   1.447 -0.5186  0.3248 -0.0829
 1906SOL    HW217178   3.978   1.995   1.451  2.0306  1.6024 -2.6496
 1907SOL     OW17179   1.040   1.886   7.623 -0.0242 -0.7746 -0.2793
 1907SOL    HW117180   1.118   1.857   7.575  0.3223 -2.4676  1.2825
 1907SOL    HW217181   1.009   1.802   7.658 -0.4426  0.9202  3.3695
 1908SOL     OW17182   1.106   3.902  12.429 -0.5707 -0.0811  0.0292
 1908SOL    HW117183   1.189   3.940  12.401  0.2580 -2.1426 -0.2316
 1908SOL    HW217184   1.042   3.949  12.375 -2.1249 -1.3512  0.7720
 1909SOL     OW17185   1.151   3.943   9.504  0.2542 -0.1906  0.4488
 1909SOL    HW117186   1.058   3.936   9.527  0.5058 -1.6695  1.0613
 1909SOL    HW217187   1.185   3.854   9.518 -0.1818 -0.3521  0.4943
 1910SOL     OW17188   4.068   2.256   2.600 -0.7446  0.2535 -0.3438
 1910SOL    HW117189   3.985   2.233   2.558 -2.5188  0.8406  2.8789
 1910SOL    HW217190   4.112   2.172   2.583  0.6885  0.7581  0.8933
 1911SOL     OW17191   1.880   0.337   8.565 -0.4088 -0.1738  0.2114
 1911SOL    HW117192   1.939   0.312   8.636  1.3718 -2.2960 -1.9953
 1911SOL    HW217193   1.890   0.430   8.545  1.0670 -0.6589 -1.3227
 1912SOL     OW17194   0.150   0.145   5.444  0.2783  0.5475  0.1749
 1912SOL    HW117195   0.074   0.202   5.435 -0.4812 -0.6175 -0.9561
 1912SOL    HW217196   0.151   0.084   5.370  0.7056  0.4463  0.2630
 1913SOL     OW17197   3.727   0.808   0.278  0.0845  0.1450 -0.9118
 1913SOL    HW117198   3.659   0.830   0.214 -0.9012 -0.8438 -0.2059
 1913SOL    HW217199   3.810   0.826   0.235  1.2739 -1.0838  0.8430
 1914SOL     OW17200   0.764   0.947  17.295  0.1283 -0.3051  0.3246
 1914SOL    HW117201   0.852   0.980  17.309  1.1426 -2.8203 -0.0816
 1914SOL    HW217202   0.723   0.978  17.376  0.5771  0.0678  0.4015
 1915SOL     OW17203   2.646   1.971   3.363  0.0082 -0.1881 -0.7502
 1915SOL    HW117204   2.589   1.972   3.286 -2.3604  0.4944  0.9964
 1915SOL    HW217205   2.629   1.884   3.400  0.7098  0.8445  1.9973
 1916SOL     OW17206   4.039   4.633   7.487 -0.0517 -0.1422  0.5724
 1916SOL    HW117207   4.067   4.589   7.567  0.1165  1.0216  1.1471
 1916SOL    HW217208   4.113   4.690   7.468 -1.0625  1.3064  1.0150
 1917SOL     OW17209   1.292   3.309  10.109  0.2266 -0.0086 -0.3893
 1917SOL    HW117210   1.263   3.366  10.180 -1.9003 -2.1850  0.4667
 1917SOL    HW217211   1.296   3.226  10.156 -2.3144  0.4228  0.5994
 1918SOL     OW17212   0.380   0.164   4.303  0.3620 -0.2749 -0.1289
 1918SOL    HW117213   0.315   0.232   4.288  0.0318 -0.7710 -0.9710
 1918SOL    HW217214   0.358   0.127   4.389 -1.4103  0.9520 -0.0420
 1919SOL     OW17215   3.922   4.490  14.504 -0.0469 -0.0988  0.3468
 1919SOL    HW117216   3.921   4.585  14.500 -0.4163 -0.1638 -1.2447
 1919SOL    HW217217   3.877   4.479  14.420  2.6167  1.3658 -1.2909
 1920SOL     OW17218   3.844   2.548  13.078  0.2287  0.7795 -0.5024
 1920SOL    HW117219   3.856   2.542  12.984 -1.5557  0.7432 -0.7152
 1920SOL    HW217220   3.751   2.569  13.085  0.0943 -0.2279  0.9470
 1921SOL     OW17221   1.021   0.458   7.070  0.2939  0.0632  0.1597
 1921SOL    HW117222   1.034   0.377   7.119 -1.8312  1.0669  2.3576
 1921SOL    HW217223   0.939   0.431   7.029 -0.0600 -0.0755  0.9473
 1922SOL     OW17224   0.036   2.432   2.788 -1.0210 -0.3251  0.3009
 1922SOL    HW117225   4.666   2.445   2.777 -0.9548  0.2059  0.3408
 1922SOL    HW217226   0.068   2.518   2.818  0.1321 -1.3051  1.8978
 1923SOL     OW17227   3.623   0.970   8.345  0.1256 -0.2511  0.1660
 1923SOL    HW117228   3.587   0.964   8.256 -0.3452  0.9765  0.2681
 1923SOL    HW217229   3.604   1.060   8.372 -2.2096 -0.4490 -0.8246
 1924SOL     OW17230   3.583   1.589   3.903 -0.4854  0.0399 -0.1553
 1924SOL    HW117231   3.567   1.540   3.822 -3.2488  0.1410  0.3594
 1924SOL    HW217232   3.554   1.676   3.874  2.0429  1.6301  2.0922
 1925SOL     OW17233   2.544   4.041   4.382 -0.2926 -0.5620 -0.1660
 1925SOL    HW117234   2.550   3.964   4.438 -1.4594 -1.2899 -1.0259
 1925SOL    HW217235   2.454   4.066   4.401  0.1470 -0.2750  1.5253
 1926SOL     OW17236   2.190   3.286   4.148 -0.2691 -0.6023  0.2254
 1926SOL    HW117237   2.131   3.362   4.145  0.3466 -0.0772  1.3199
 1926SOL    HW217238   2.243   3.306   4.071 -1.4739 -0.5245 -0.5898
 1927SOL     OW17239   1.808   1.813   2.851  0.0724  0.2010  0.6624
 1927SOL    HW117240   1.890   1.837   2.807 -0.7246  0.4684 -0.6733
 1927SOL    HW217241   1.825   1.862   2.932  0.1177  0.9022  0.2324
 1928SOL     OW17242   3.023   2.466   2.477  0.2170 -0.2312 -0.3475
 1928SOL    HW117243   2.999   2.389   2.529  0.8223 -0.4523 -0.3948
 1928SOL    HW217244   3.118   2.475   2.488  0.0949  0.4573  0.1606
 1929SOL     OW17245   2.705   2.279   7.643  0.0973 -1.1981 -0.4011
 1929SOL    HW117246   2.730   2.210   7.582  0.5351 -1.0401 -0.3957
 1929SOL    HW217247   2.759   2.356   7.627 -0.9762 -0.6510 -1.4215
 1930SOL     OW17248   0.067   0.305  14.642  0.1555  0.4753 -0.2629
 1930SOL    HW117249   0.081   0.272  14.730 -1.0883 -1.7591 -0.9111
 1930SOL    HW217250   0.004   0.238  14.616  1.7455 -0.9963 -0.2370
 1931SOL     OW17251   3.062   3.895   0.051  0.4956 -0.2184 -0.1117
 1931SOL    HW117252   2.984   3.840   0.047  1.0362 -0.8309 -2.0341
 1931SOL    HW217253   3.121   3.839   0.001 -0.8596  0.6349 -2.6841
 1932SOL     OW17254   3.848   1.088   7.319  0.3704 -0.0499 -0.1645
 1932SOL    HW117255   3.816   0.998   7.309  0.8534 -0.0427 -1.8552
 1932SOL    HW217256   3.942   1.075   7.303  0.6871  0.7710  0.9967
 1933SOL     OW17257   1.229   2.705   0.930  0.5767 -0.2968  0.2935
 1933SOL    HW117258   1.287   2.653   0.874  0.3909 -0.3138  0.1172
 1933SOL    HW217259   1.143   2.669   0.911  0.7341 -0.4896 -0.0535
 1934SOL     OW17260   0.651   0.023   9.308 -0.4996 -0.3658  0.0696
 1934SOL    HW117261   0.599   4.671   9.337  0.0869 -1.6669 -2.2480
 1934SOL    HW217262   0.590   0.092   9.334 -1.1159 -0.4927 -1.0242
 1935SOL     OW17263   1.308   1.232  12.072 -0.0206  0.1368  0.4927
 1935SOL    HW117264   1.302   1.297  12.143 -0.8054  1.7780 -1.0829
 1935SOL    HW217265   1.366   1.278  12.011  0.6310 -0.8038  0.4109
 1936SOL     OW17266   1.739   1.779   7.378 -0.0214 -0.6237  0.5743
 1936SOL    HW117267   1.689   1.698   7.364  1.1653 -0.5712 -3.6993
 1936SOL    HW217268   1.684   1.821   7.445  2.7631  0.2184  2.3380
 1937SOL     OW17269   3.698   4.320   3.670 -0.3741 -0.6091  0.6144
 1937SOL    HW117270   3.690   4.372   3.750  0.7995  0.7568 -0.1699
 1937SOL    HW217271   3.766   4.367   3.623 -2.1506 -0.6359 -1.9515
 1938SOL     OW17272   1.952   2.739   1.649  0.2270 -0.0810  0.0078
 1938SOL    HW117273   1.953   2.654   1.693  3.6026 -0.5275 -0.9410
 1938SOL    HW217274   2.009   2.792   1.705 -1.7527  1.1619  0.8280
 1939SOL     OW17275   0.927   4.546   4.659  0.0880  0.1543  0.3598
 1939SOL    HW117276   0.986   4.610   4.619 -1.4603  0.5253 -1.2836
 1939SOL    HW217277   0.911   4.492   4.582 -2.7852  0.1673  0.9512
 1940SOL     OW17278   4.403   1.838   6.997  0.7585  0.8846  0.1199
 1940SOL    HW117279   4.368   1.912   7.046  0.2043  1.5699 -1.3196
 1940SOL    HW217280   4.466   1.890   6.945  2.7556 -0.8618  0.7875
 1941SOL     OW17281   2.537   0.987   4.398  0.7976  0.5930  0.3311
 1941SOL    HW117282   2.479   0.994   4.474  0.8657  0.7764  0.3662
 1941SOL    HW217283   2.494   0.927   4.336  0.2519 -0.0745  1.3632
 1942SOL     OW17284   0.424   2.803  14.461 -0.6178 -0.2523 -0.1693
 1942SOL    HW117285   0.444   2.834  14.549 -1.1065 -0.1350 -0.1023
 1942SOL    HW217286   0.416   2.888  14.418 -1.4398 -0.3018 -0.1159
 1943SOL     OW17287   3.745   1.304   7.459 -0.3650  0.0448  1.1626
 1943SOL    HW117288   3.797   1.242   7.409 -1.7769  2.7018 -3.6141
 1943SOL    HW217289   3.713   1.344   7.378  1.1834  1.8755  1.4396
 1944SOL     OW17290   4.019   4.684   5.495  0.3851 -0.1359 -0.1012
 1944SOL    HW117291   4.031   0.021   5.568 -1.1613  0.8628 -0.6815
 1944SOL    HW217292   3.926   4.665   5.504 -0.0767  2.8918  1.5497
 1945SOL     OW17293   3.661   3.067  15.884 -0.1551 -0.4197 -0.1991
 1945SOL    HW117294   3.647   3.098  15.795  0.2120 -2.1676 -0.8762
 1945SOL    HW217295   3.579   3.046  15.928  0.3107 -0.4578  0.6666
 1946SOL     OW17296   0.703   1.094  10.080 -0.1694  0.1488  0.2351
 1946SOL    HW117297   0.713   1.030  10.009 -0.1707 -0.1344  0.4950
 1946SOL    HW217298   0.767   1.062  10.144 -1.3605 -1.0088  0.8297
 1947SOL     OW17299   1.145   3.907   2.195 -0.6872  0.0267 -0.1175
 1947SOL    HW117300   1.187   3.938   2.115  1.1280 -2.4144 -0.1181
 1947SOL    HW217301   1.218   3.924   2.255 -0.9719  0.8271 -0.0029
 1948SOL     OW17302   4.446   1.176  14.182 -0.8164 -0.0709  0.8283
 1948SOL    HW117303   4.356   1.174  14.217 -1.9121 -0.1355 -1.9821
 1948SOL    HW217304   4.470   1.262  14.216  3.7160 -1.1783  0.3702
 1949SOL     OW17305   1.735   2.587   5.796 -0.3509 -0.0803  0.3875
 1949SOL    HW117306   1.704   2.527   5.863 -2.0433 -0.5154 -0.7819
 1949SOL    HW217307   1.697   2.554   5.715 -0.1698 -1.7163  0.9769
 1950SOL     OW17308   3.547   1.931   7.988  0.0691  0.2346 -0.1923
 1950SOL    HW117309   3.527   1.852   8.039  1.8057 -0.2510 -0.2605
 1950SOL    HW217310   3.563   1.886   7.905  0.1450 -0.3073  0.1097
 1951SOL     OW17311   1.488   1.341   8.671  0.1339  0.1719 -0.7988
 1951SOL    HW117312   1.448   1.321   8.756 -1.5235  1.3718 -1.2990
 1951SOL    HW217313   1.545   1.416   8.688  1.6951 -0.7420 -2.0782
 1952SOL     OW17314   3.231   3.448   3.261 -0.4168  0.5036 -0.2705
 1952SOL    HW117315   3.323   3.458   3.287 -0.6818  0.8536  0.5293
 1952SOL    HW217316   3.249   3.411   3.174 -0.8092  0.7338 -0.4508
 1953SOL     OW17317   2.151   1.622   3.217 -0.0673  0.0863  0.2308
 1953SOL    HW117318   2.184   1.665   3.138 -1.9387 -1.9139 -1.6166
 1953SOL    HW217319   2.143   1.530   3.193  1.4452  0.0706 -0.2516
 1954SOL     OW17320   2.579   3.814  14.201 -0.1982  0.1479 -0.1885
 1954SOL    HW117321   2.498   3.859  14.223  0.2461  1.5226 -1.3003
 1954SOL    HW217322   2.641   3.886  14.188  0.5255  0.1732  3.5819
 1955SOL     OW17323   4.262   4.195   2.310 -0.1748 -0.2123 -0.2121
 1955SOL    HW117324   4.286   4.203   2.217  0.0232 -1.0636 -0.2411
 1955SOL    HW217325   4.170   4.170   2.296 -0.2902  0.3469 -0.4531
 1956SOL     OW17326   1.168   3.636   2.726  0.0976 -0.7646  0.3768
 1956SOL    HW117327   1.075   3.660   2.728  1.2578  3.6877  1.3248
 1956SOL    HW217328   1.197   3.651   2.816 -1.5413  0.1359  0.7649
 1957SOL     OW17329   2.545   2.399   7.412  0.4149  0.3705 -0.3403
 1957SOL    HW117330   2.557   2.318   7.362  0.5831 -1.0250  1.9483
 1957SOL    HW217331   2.633   2.427   7.437 -0.0688  1.2528  0.3779
 1958SOL     OW17332   3.892   3.250   0.436  0.0256  0.3496 -0.2489
 1958SOL    HW117333   3.886   3.320   0.501 -0.8226  1.1547 -1.1899
 1958SOL    HW217334   3.837   3.283   0.365  0.4739  2.3173  0.3102
 1959SOL     OW17335   1.302   0.520   9.435 -0.2675  0.7132  0.3722
 1959SOL    HW117336   1.383   0.485   9.397 -0.4812  0.5647  0.0588
 1959SOL    HW217337   1.259   0.435   9.434 -0.9102  1.0941 -2.7814
 1960SOL     OW17338   2.965   0.384   5.272  0.2551 -0.4045 -0.4332
 1960SOL    HW117339   3.053   0.374   5.236 -0.0652 -0.1641 -1.2849
 1960SOL    HW217340   2.922   0.417   5.193  1.1870 -1.9851 -1.5938
 1961SOL     OW17341   3.210   2.733   0.393 -0.2342 -0.0091  0.2102
 1961SOL    HW117342   3.154   2.726   0.316  0.3220 -0.0376 -0.1962
 1961SOL    HW217343   3.294   2.770   0.366  0.4438 -0.4369  1.7482
 1962SOL     OW17344   1.262   2.764  14.723  0.2998 -0.4680 -0.0251
 1962SOL    HW117345   1.183   2.769  14.777  0.9625 -1.0975  1.0021
 1962SOL    HW217346   1.241   2.694  14.661  2.6371 -1.8840  0.7641
 1963SOL     OW17347   4.424   1.030   9.585 -0.2271  0.1769 -0.0704
 1963SOL    HW117348   4.495   0.966   9.581  0.6899  1.2227 -0.3666
 1963SOL    HW217349   4.388   0.997   9.667  1.6803 -1.3336  0.1378
 1964SOL     OW17350   1.289   4.188   6.736  0.1185  0.1263  0.1120
 1964SOL    HW117351   1.248   4.114   6.692 -1.8321  0.8709  0.7097
 1964SOL    HW217352   1.320   4.154   6.820 -1.3885 -3.9490 -1.0087
 1965SOL     OW17353   4.055   2.659   2.357  0.1093  0.9620 -0.1698
 1965SOL    HW117354   4.141   2.699   2.367  0.4651  0.3125 -0.6931
 1965SOL    HW217355   4.005   2.711   2.421 -0.5213 -0.6968  0.6675
 1966SOL     OW17356   2.310   4.632   7.812 -0.7355 -0.4060 -0.1205
 1966SOL    HW117357   2.380   4.680   7.767 -1.5675  2.9864  2.1976
 1966SOL    HW217358   2.231   4.675   7.779 -0.1652  0.0737 -0.8712
 1967SOL     OW17359   0.372   1.909   7.032  0.1296 -0.2040  0.0939
 1967SOL    HW117360   0.403   2.000   7.038  1.0758 -0.6644  2.1862
 1967SOL    HW217361   0.424   1.870   7.102  0.2047 -0.8002 -0.3003
 1968SOL     OW17362   0.924   0.040   7.615  0.1042 -0.1872  0.2503
 1968SOL    HW117363   0.853   4.700   7.621  0.3425 -0.3969  0.8273
 1968SOL    HW217364   0.973   0.003   7.689  0.1322 -0.2064  0.2226
 1969SOL     OW17365   4.059   2.640   2.912 -0.2469 -0.0887 -0.2368
 1969SOL    HW117366   4.150   2.643   2.881 -0.6712  0.9716 -1.3663
 1969SOL    HW217367   4.062   2.645   3.007  1.9911 -3.2806 -0.1566
 1970SOL     OW17368   1.324   1.000   3.146 -0.0830  0.1063 -0.0468
 1970SOL    HW117369   1.369   0.980   3.228 -2.2202 -1.1188  0.8199
 1970SOL    HW217370   1.242   0.952   3.160 -0.4650  0.3933 -1.3129
 1971SOL     OW17371   4.692   3.234  10.696  0.1178 -0.3698 -0.3802
 1971SOL    HW117372   0.008   3.173  10.759 -2.0046 -0.4300  0.8764
 1971SOL    HW217373   4.603   3.200  10.688 -0.3543  0.7278  0.2737
 1972SOL     OW17374   1.072   0.255   7.236 -0.6243  0.1155  0.1166
 1972SOL    HW117375   1.071   0.288   7.325 -0.5843 -0.4134  0.3127
 1972SOL    HW217376   1.160   0.220   7.229 -0.4904  0.6762 -1.1119
 1973SOL     OW17377   1.424   2.850   0.744  0.2033 -0.3272  0.7248
 1973SOL    HW117378   1.349   2.907   0.728 -1.1396 -1.5576  2.5966
 1973SOL    HW217379   1.386   2.765   0.722 -1.0271 -0.3135  2.7874
 1974SOL     OW17380   3.387   4.399   7.794 -0.6274 -0.4469 -0.3794
 1974SOL    HW117381   3.432   4.353   7.723  1.8130  1.4745 -0.0854
 1974SOL    HW217382   3.454   4.460   7.826  0.5824 -0.9918 -1.8350
 1975SOL     OW17383   3.782   0.666  16.714 -0.5251  0.3930  0.8195
 1975SOL    HW117384   3.766   0.746  16.663 -0.0147 -1.4599 -2.2153
 1975SOL    HW217385   3.739   0.691  16.796  0.6961 -3.1884  2.5303
 1976SOL     OW17386   3.038   2.331   3.544  0.3882 -0.4010  0.1116
 1976SOL    HW117387   3.109   2.381   3.584  0.7177 -1.4846  0.8862
 1976SOL    HW217388   2.966   2.341   3.607 -0.2290 -1.2425 -0.4562
 1977SOL     OW17389   2.617   0.776   8.543  0.9028  0.0726  0.0836
 1977SOL    HW117390   2.652   0.779   8.454  0.9431  1.1212  0.1329
 1977SOL    HW217391   2.698   0.779   8.594  0.6419 -1.1281  0.5691
 1978SOL     OW17392   3.525   2.766   4.510  0.3070  0.1015  0.4673
 1978SOL    HW117393   3.554   2.691   4.459 -0.0634  0.3489 -0.1117
 1978SOL    HW217394   3.470   2.809   4.444  2.3537  0.9456 -0.7193
 1979SOL     OW17395   3.544   1.887   4.490 -0.1817  0.7763 -0.3450
 1979SOL    HW117396   3.616   1.830   4.464 -0.3316  1.3056 -1.9122
 1979SOL    HW217397   3.475   1.824   4.510  1.0096  0.2616  2.1450
 1980SOL     OW17398   2.265   3.920   9.041  0.3680 -0.2164 -0.2984
 1980SOL    HW117399   2.279   3.829   9.017  3.0022  0.3432 -0.9219
 1980SOL    HW217400   2.259   3.919   9.137  0.7798 -2.3560 -0.2927
 1981SOL     OW17401   2.065   3.082   7.876 -0.0079 -0.3196 -0.4881
 1981SOL    HW117402   2.133   3.084   7.944  0.8077  1.6538 -1.3740
 1981SOL    HW217403   2.062   3.176   7.857  0.9102 -0.1834  0.0094
 1982SOL     OW17404   4.571   2.308  10.641 -0.0946  0.1359 -0.1123
 1982SOL    HW117405   4.572   2.233  10.700  1.6910 -0.5054 -0.9676
 1982SOL    HW217406   4.501   2.362  10.678 -0.2237 -2.0183  2.7959
 1983SOL     OW17407   3.113   4.565  17.660  0.5913  0.1048 -0.1223
 1983SOL    HW117408   3.061   4.494   0.002  0.8744  0.1030  0.2613
 1983SOL    HW217409   3.124   4.615   0.045 -2.4450 -1.1997  1.0978
 1984SOL     OW17410   4.458   4.648   8.051 -0.1372 -0.4039 -0.1913
 1984SOL    HW117411   4.390   4.707   8.082  0.4679  0.4265 -0.4479
 1984SOL    HW217412   4.450   4.578   8.116  1.5069 -1.1197 -0.7507
 1985SOL     OW17413   2.273   2.897   5.695 -0.5884 -0.3907  0.1428
 1985SOL    HW117414   2.343   2.899   5.760 -1.2565  0.4915  0.8212
 1985SOL    HW217415   2.220   2.970   5.724 -1.5207 -1.1028  0.2144
 1986SOL     OW17416   3.546   0.071   0.354  0.1562 -0.6890 -0.5173
 1986SOL    HW117417   3.473   0.131   0.367  1.4352  0.7257  0.1553
 1986SOL    HW217418   3.606   0.115   0.293 -1.1951  0.6028 -0.9020
 1987SOL     OW17419   4.011   3.045   8.886 -0.4323 -0.4178  0.3781
 1987SOL    HW117420   3.921   3.013   8.885  0.0855 -1.8937  1.1447
 1987SOL    HW217421   4.010   3.120   8.827 -0.2306 -0.4133  0.3802
 1988SOL     OW17422   1.996   2.551   9.219 -0.2093 -0.3400  0.0213
 1988SOL    HW117423   1.908   2.589   9.218  0.2078  0.5571 -2.5469
 1988SOL    HW217424   1.970   2.460   9.233 -0.0307 -0.2157  1.1150
 1989SOL     OW17425   0.098   4.066   8.039  0.4409  0.6922 -0.1888
 1989SOL    HW117426   0.102   4.159   8.015 -1.8457  0.6309 -0.8190
 1989SOL    HW217427   0.146   4.070   8.121 -0.6655 -0.2823  0.5014
 1990SOL     OW17428   3.621   0.467  13.622  0.5725  0.0456  0.1994
 1990SOL    HW117429   3.621   0.392  13.681  3.4910  1.0893  1.5197
 1990SOL    HW217430   3.712   0.492  13.606 -0.0305  1.6820 -0.8298
 1991SOL     OW17431   2.410   2.431   5.160  0.3465  0.0297 -0.1912
 1991SOL    HW117432   2.369   2.355   5.201  2.3388 -0.1324  1.5430
 1991SOL    HW217433   2.419   2.415   5.066  0.7532 -0.9737  0.0097
 1992SOL     OW17434   2.175   3.354  12.612 -0.0283 -0.0121  0.1648
 1992SOL    HW117435   2.226   3.431  12.586 -1.5003  0.3106 -1.6528
 1992SOL    HW217436   2.230   3.315  12.681 -0.1221  1.0232  0.8310
 1993SOL     OW17437   4.641   3.710  12.002  0.0147 -0.1648  0.0347
 1993SOL    HW117438   4.551   3.742  12.007  1.2289  3.0717  1.4386
 1993SOL    HW217439   4.690   3.786  12.035 -1.0183 -0.4605  2.2787
 1994SOL     OW17440   1.617   2.888   6.423 -0.2594 -0.2413 -0.5867
 1994SOL    HW117441   1.594   2.804   6.463 -0.9430  1.4393  2.5956
 1994SOL    HW217442   1.705   2.870   6.393  0.6657  0.7447  1.5384
 1995SOL     OW17443   3.418   3.869   8.708 -0.1036  0.4211 -0.1485
 1995SOL    HW117444   3.433   3.860   8.803 -0.1269  0.5508 -0.1325
 1995SOL    HW217445   3.359   3.943   8.702 -3.6412 -2.6004 -2.1632
 1996SOL     OW17446   3.443   4.190   6.934 -0.0654 -0.5399 -0.8744
 1996SOL    HW117447   3.525   4.240   6.940 -0.2764 -0.0422 -2.1010
 1996SOL    HW217448   3.448   4.160   7.025  1.4527  1.4498 -0.2900
 1997SOL     OW17449   1.478   2.154   6.228 -0.1275 -0.1174  0.1529
 1997SOL    HW117450   1.490   2.127   6.137 -0.8744  1.0794 -0.3000
 1997SOL    HW217451   1.394   2.200   6.233  0.8994  1.6834  0.3480
 1998SOL     OW17452   2.866   3.613  12.111 -0.9788 -0.3718  0.1182
 1998SOL    HW117453   2.911   3.636  12.192 -0.5798  1.0535 -0.5088
 1998SOL    HW217454   2.869   3.691  12.056  0.3708 -0.4820  0.0476
 1999SOL     OW17455   0.989   0.352   7.860 -0.3489 -0.0496 -0.2120
 1999SOL    HW117456   1.043   0.326   7.934 -1.7456 -1.3687  0.3389
 1999SOL    HW217457   1.052   0.341   7.789 -0.6856  1.1444 -0.6982
 2000SOL     OW17458   1.926   4.425  10.263 -0.0060  0.3991 -0.1701
 2000SOL    HW117459   1.843   4.389  10.230 -0.5947  1.0875  0.5578
 2000SOL    HW217460   1.935   4.365  10.337 -1.5389 -0.8742 -1.0070
 2001SOL     OW17461   2.406   0.605   4.381  0.6717 -0.5939 -0.0232
 2001SOL    HW117462   2.348   0.662   4.431  1.4848  1.5108 -1.4921
 2001SOL    HW217463   2.473   0.665   4.349  0.7360 -0.2088  0.8572
 2002SOL     OW17464   4.184   4.633   6.424  0.0098 -0.2920  0.3263
 2002SOL    HW117465   4.267   4.658   6.466 -0.5031  1.4863  0.2778
 2002SOL    HW217466   4.169   4.710   6.370 -1.7030 -1.7256 -1.2501
 2003SOL     OW17467   1.857   1.063  14.983 -0.2598 -0.0827  0.0442
 2003SOL    HW117468   1.822   1.018  14.907 -1.1544 -1.6646  1.4004
 2003SOL    HW217469   1.934   1.010  15.003 -0.7091 -1.2245 -1.2867
 2004SOL     OW17470   0.401   4.300   3.750 -0.4326 -0.5894 -0.4203
 2004SOL    HW117471   0.490   4.334   3.749  0.1244 -2.0579 -0.4610
 2004SOL    HW217472   0.359   4.371   3.799 -0.1247 -1.3663  0.9412
 2005SOL     OW17473   4.073   1.730  16.901  0.1143 -0.4121 -0.1248
 2005SOL    HW117474   4.026   1.669  16.843 -0.9393 -0.4738  0.7802
 2005SOL    HW217475   4.053   1.811  16.855  0.5946  0.2236  0.8057
 2006SOL     OW17476   0.406   4.172   7.962 -0.3375  0.2258 -0.0379
 2006SOL    HW117477   0.320   4.204   7.989  0.0645  0.5677  0.8410
 2006SOL    HW217478   0.384   4.107   7.896  0.5632  0.8735 -0.9839
 2007SOL     OW17479   0.935   4.479   2.786 -0.1427  0.0540 -0.3313
 2007SOL    HW117480   0.899   4.459   2.872 -0.2432 -0.2200 -0.4384
 2007SOL    HW217481   1.010   4.535   2.805 -0.1554 -0.4858  1.2656
 2008SOL     OW17482   0.504   2.142   5.271 -0.1496 -0.4104  0.4681
 2008SOL    HW117483   0.548   2.166   5.352  1.1499  0.6905 -0.5689
 2008SOL    HW217484   0.510   2.047   5.274  2.9466 -0.2734 -1.5683
 2009SOL     OW17485   3.460   4.623   4.711  0.0116 -0.5199 -0.0027
 2009SOL    HW117486   3.383   4.593   4.758 -0.9698  1.1550 -0.5298
 2009SOL    HW217487   3.412   4.645   4.631  1.2076 -0.7344 -0.7910
 2010SOL     OW17488   0.622   0.591  14.133 -0.3622 -0.1988 -0.1283
 2010SOL    HW117489   0.682   0.517  14.120 -0.0549  0.1037 -0.4377
 2010SOL    HW217490   0.688   0.657  14.154 -1.3341  1.3782 -1.9943
 2011SOL     OW17491   0.119   1.311   3.233 -0.1482 -0.1775 -0.1577
 2011SOL    HW117492   0.101   1.352   3.148 -1.3296  1.2445  0.7621
 2011SOL    HW217493   0.114   1.223   3.198  1.1836 -0.0042 -0.7576
 2012SOL     OW17494   1.040   3.913   8.395  0.8860  0.0373 -0.2371
 2012SOL    HW117495   0.982   3.850   8.353  0.3768  1.1463 -1.2072
 2012SOL    HW217496   1.010   4.001   8.372  0.5684 -0.1049 -0.3630
 2013SOL     OW17497   1.352   0.500   2.042  0.0582 -0.4117  0.2415
 2013SOL    HW117498   1.326   0.524   2.131  1.5144  1.1709  0.2277
 2013SOL    HW217499   1.311   0.413   2.049 -0.0104 -0.3734  0.3262
 2014SOL     OW17500   0.330   4.096   8.262 -0.7483 -0.6839 -0.4516
 2014SOL    HW117501   0.425   4.093   8.258 -0.7311  1.1391 -1.3557
 2014SOL    HW217502   0.310   4.097   8.356  1.1983 -0.7233 -0.0357
 2015SOL     OW17503   3.274   0.320   4.720  0.8937 -0.2473  0.3793
 2015SOL    HW117504   3.286   0.410   4.688  1.9067 -1.6360 -3.0752
 2015SOL    HW217505   3.201   0.295   4.665  0.4453  1.3042  0.2654
 2016SOL     OW17506   0.291   2.294   7.827 -0.0750  0.3267  0.4022
 2016SOL    HW117507   0.229   2.224   7.804  1.8133 -1.9218  2.1022
 2016SOL    HW217508   0.333   2.267   7.909 -0.4066  4.0607  1.7878
 2017SOL     OW17509   3.285   0.632  15.536  0.2158  0.0981 -0.2324
 2017SOL    HW117510   3.206   0.682  15.518  0.0614  0.9594  2.9098
 2017SOL    HW217511   3.299   0.656  15.627  0.4199  0.9869 -0.5043
 2018SOL     OW17512   3.957   3.854   5.477 -0.4889  0.1673  0.7571
 2018SOL    HW117513   4.041   3.868   5.435 -0.2224  1.4180  1.7274
 2018SOL    HW217514   3.913   3.939   5.485  0.8601  1.2415 -3.0055
 2019SOL     OW17515   3.935   1.302  10.202 -0.3423 -0.0391  0.0794
 2019SOL    HW117516   3.981   1.269  10.280  1.2068  0.6469 -0.5524
 2019SOL    HW217517   3.992   1.377  10.189  0.6694 -1.2202 -2.3539
 2020SOL     OW17518   1.868   2.523  16.911 -0.4532 -0.1568 -0.4410
 2020SOL    HW117519   1.787   2.571  16.891 -0.7308 -0.2270  0.5038
 2020SOL    HW217520   1.832   2.455  16.968  0.5474 -0.6759 -0.4373
 2021SOL     OW17521   1.197   2.583  17.180 -0.7677 -0.2281  0.8000
 2021SOL    HW117522   1.234   2.563  17.266  0.7713 -3.0795 -0.5335
 2021SOL    HW217523   1.218   2.677  17.185 -0.8233 -0.1389 -0.8086
 2022SOL     OW17524   1.943   4.291  13.927 -1.1657  0.1969 -0.2328
 2022SOL    HW117525   1.946   4.278  14.022  0.7372 -0.4746 -0.3868
 2022SOL    HW217526   1.949   4.385  13.916 -0.7977 -0.0311 -1.9702
 2023SOL     OW17527   3.354   2.673   4.692  0.1228 -0.4177  0.3662
 2023SOL    HW117528   3.286   2.671   4.624 -0.6519  0.4552  1.1068
 2023SOL    HW217529   3.424   2.729   4.659  0.4545 -1.4246 -0.6548
 2024SOL     OW17530   4.279   0.654   7.520 -0.4611  0.9986  0.4029
 2024SOL    HW117531   4.285   0.731   7.577 -1.9983  0.9424  0.6543
 2024SOL    HW217532   4.329   0.592   7.572 -2.2081  0.7982  1.8597
 2025SOL     OW17533   0.646   4.015   4.616  0.0891  0.3169  0.1574
 2025SOL    HW117534   0.731   3.988   4.652 -1.0568 -0.2672  2.4451
 2025SOL    HW217535   0.597   3.933   4.608 -1.3080  1.0190  1.4334
 2026SOL     OW17536   4.657   3.178   2.392 -0.3116 -0.1949 -0.5630
 2026SOL    HW117537   4.687   3.163   2.482 -1.6632 -1.2991 -0.3091
 2026SOL    HW217538   4.598   3.105   2.375  0.2583 -1.1549  1.5774
 2027SOL     OW17539   4.429   3.318   4.703  0.5464  0.8746 -0.2653
 2027SOL    HW117540   4.402   3.405   4.733  0.7719  1.7910 -2.7601
 2027SOL    HW217541   4.520   3.334   4.677  1.0343  1.4993  1.8132
 2028SOL     OW17542   2.831   0.882   8.717  0.0523 -0.5835  0.1373
 2028SOL    HW117543   2.829   0.925   8.802 -1.7790 -0.0513 -0.1706
 2028SOL    HW217544   2.926   0.882   8.705 -0.1466  1.5211 -1.3474
 2029SOL     OW17545   4.025   1.535   9.809 -0.3888 -0.0024 -0.3873
 2029SOL    HW117546   4.064   1.599   9.868 -1.4856 -0.7209  1.1199
 2029SOL    HW217547   3.932   1.560   9.806 -0.9016 -1.6606  1.6201
 2030SOL     OW17548   4.307   0.913   4.612 -0.7686  0.1323  0.0994
 2030SOL    HW117549   4.253   0.964   4.552 -0.4988 -2.2417 -2.1724
 2030SOL    HW217550   4.383   0.970   4.622 -1.2414  0.9816 -1.0993
 2031SOL     OW17551   0.453   0.647   4.225 -0.0562  0.0118 -0.1376
 2031SOL    HW117552   0.520   0.698   4.180  0.7144 -1.6353 -0.8731
 2031SOL    HW217553   0.496   0.569   4.263 -1.7247 -0.7857  0.1326
 2032SOL     OW17554   4.236   3.441   7.665  0.0776 -0.0413 -0.1427
 2032SOL    HW117555   4.225   3.532   7.639  0.7057 -0.0353 -0.4030
 2032SOL    HW217556   4.321   3.441   7.709  0.8707  0.9561 -1.6657
 2033SOL     OW17557   0.988   4.587   0.803  0.6319 -0.2320  0.2030
 2033SOL    HW117558   0.924   4.606   0.871  0.8858  0.0232  0.3751
 2033SOL    HW217559   0.944   4.524   0.746  0.3346 -1.3980  1.7191
 2034SOL     OW17560   3.365   2.880   4.314  0.4358 -0.2612  0.0917
 2034SOL    HW117561   3.292   2.932   4.348  0.3187 -2.4252  3.1578
 2034SOL    HW217562   3.349   2.902   4.222  1.8009 -2.1771 -0.6021
 2035SOL     OW17563   0.019   0.320  15.359 -0.1298 -0.0617 -0.1504
 2035SOL    HW117564   0.084   0.367  15.308  1.0288 -0.2472  1.1314
 2035SOL    HW217565   4.668   0.319  15.300 -0.5209 -0.0964  0.3458
 2036SOL     OW17566   0.547   1.074  13.053  0.8783 -0.6225  0.3016
 2036SOL    HW117567   0.571   1.145  13.113 -1.3414 -0.5055  1.0570
 2036SOL    HW217568   0.512   1.123  12.978  0.8447 -0.0559  0.6930
 2037SOL     OW17569   3.031   0.534   9.697 -0.3162 -0.1167  0.5153
 2037SOL    HW117570   3.036   0.612   9.752 -0.7879  0.0326  0.3526
 2037SOL    HW217571   3.049   0.468   9.763  0.0410 -0.9731 -0.4274
 2038SOL     OW17572   3.091   2.288   8.144 -0.0152  0.7640  0.3223
 2038SOL    HW117573   3.151   2.214   8.154  0.8168  1.6572  1.9972
 2038SOL    HW217574   3.018   2.249   8.097  0.8301 -1.9406  1.2564
 2039SOL     OW17575   0.290   2.436   3.461  0.7436 -0.0563  0.1046
 2039SOL    HW117576   0.261   2.430   3.370  0.5055 -4.1051  0.4390
 2039SOL    HW217577   0.204   2.464   3.492  0.7337  0.3846 -0.3103
 2040SOL     OW17578   4.708   2.018   5.607 -0.1438 -0.2399 -0.1522
 2040SOL    HW117579   0.022   2.102   5.582 -2.2070  1.6432  3.0167
 2040SOL    HW217580   4.648   2.005   5.534 -0.7093  0.2760  0.2189
 2041SOL     OW17581   3.498   3.884  13.020 -0.0583 -0.3125 -0.0978
 2041SOL    HW117582   3.481   3.963  13.073  0.5329 -0.2236 -0.0390
 2041SOL    HW217583   3.416   3.864  12.975  1.2034 -0.7646 -2.1610
 2042SOL     OW17584   4.363   3.246   7.011 -0.1334 -0.6054  0.1920
 2042SOL    HW117585   4.268   3.257   7.019 -0.4945 -2.6801 -1.4002
 2042SOL    HW217586   4.386   3.338   6.997 -0.3039 -0.7380 -0.9296
 2043SOL     OW17587   3.842   4.684   3.339 -0.2808  1.0630 -0.4103
 2043SOL    HW117588   3.901   0.035   3.330  1.3317 -0.0244  1.0692
 2043SOL    HW217589   3.756   4.723   3.322  0.1892  2.1562 -0.2201
 2044SOL     OW17590   0.887   0.690   2.128  0.0066 -0.2245  0.4275
 2044SOL    HW117591   0.831   0.653   2.059  1.6203  0.8729 -1.4795
 2044SOL    HW217592   0.972   0.705   2.086  0.3902  0.0115  1.2837
 2045SOL     OW17593   2.967   3.151   9.927  0.3375 -0.0659 -0.1304
 2045SOL    HW117594   2.953   3.164   9.833 -0.6268  0.1519  0.0504
 2045SOL    HW217595   2.920   3.224   9.967  0.3071  0.8036 -1.7353
 2046SOL     OW17596   1.190   3.304  17.018 -0.4631 -0.1509 -0.0628
 2046SOL    HW117597   1.134   3.231  17.043 -1.5910  0.4997 -0.7018
 2046SOL    HW217598   1.252   3.309  17.090 -2.4782 -1.6296  1.7431
 2047SOL     OW17599   3.902   2.119   6.251  0.1643 -0.1908 -0.7835
 2047SOL    HW117600   3.872   2.060   6.320 -1.1613  1.5128  0.1169
 2047SOL    HW217601   3.830   2.110   6.189 -0.6297 -0.2181  0.1422
 2048SOL     OW17602   1.586   4.311   6.219  0.3644 -0.7034 -0.5333
 2048SOL    HW117603   1.546   4.335   6.136  0.3395 -0.0297 -0.3263
 2048SOL    HW217604   1.663   4.368   6.217  0.4640 -0.8151  0.0622
 2049SOL     OW17605   3.119   0.893   8.055  0.0267 -0.4305 -0.0553
 2049SOL    HW117606   3.152   0.965   8.003  2.9888 -2.4049 -0.8950
 2049SOL    HW217607   3.082   0.839   7.986  1.0137 -2.7368  1.2212
 2050SOL     OW17608   3.055   1.189   7.966  0.3514 -0.1701 -0.0681
 2050SOL    HW117609   3.122   1.208   7.900 -0.0694  0.4756 -0.3142
 2050SOL    HW217610   3.101   1.204   8.048 -1.9360 -1.3939  1.4164
 2051SOL     OW17611   1.090   0.952   7.457  0.4828 -0.4213 -0.2724
 2051SOL    HW117612   1.100   0.883   7.523  2.8465 -0.8990 -1.1459
 2051SOL    HW217613   1.179   0.973   7.429  0.1499 -0.1472 -1.1027
 2052SOL     OW17614   2.072   2.071  12.705 -0.1990  0.0320  0.6265
 2052SOL    HW117615   2.146   2.106  12.755  0.1038  0.8716 -0.4027
 2052SOL    HW217616   2.107   1.984  12.685 -1.8323 -0.4420 -0.1656
 2053SOL     OW17617   0.684   4.391   6.790  0.1343 -0.1911  0.6205
 2053SOL    HW117618   0.614   4.326   6.788 -1.5506  1.6174  1.0995
 2053SOL    HW217619   0.643   4.477   6.781  0.2098 -0.0890  1.2695
 2054SOL     OW17620   0.369   2.936   0.759 -0.0651  0.3409  0.2666
 2054SOL    HW117621   0.300   2.938   0.693  2.0648 -0.5829 -1.9940
 2054SOL    HW217622   0.437   2.973   0.703 -0.1651  0.9952  0.5833
 2055SOL     OW17623   3.065   0.281  12.988 -0.7550 -0.2075 -0.3321
 2055SOL    HW117624   3.074   0.282  13.083  3.4705  0.7163 -0.7657
 2055SOL    HW217625   3.027   0.194  12.979 -0.3593 -0.0190 -3.6534
 2056SOL     OW17626   2.915   2.166  10.641  0.3311 -0.0171 -0.5503
 2056SOL    HW117627   2.873   2.123  10.716  1.2902 -0.6274 -0.3779
 2056SOL    HW217628   2.879   2.255  10.648  1.2872  0.4285 -1.2700
 2057SOL     OW17629   2.235   1.308   6.623  0.1617 -0.2775 -0.1861
 2057SOL    HW117630   2.230   1.351   6.708  0.6727 -1.8995  0.6856
 2057SOL    HW217631   2.275   1.227   6.655  0.9828  0.7432  1.3381
 2058SOL     OW17632   0.540   0.810  13.007 -0.4234 -0.1358 -0.3201
 2058SOL    HW117633   0.619   0.805  13.061 -2.2009  1.4557  2.4202
 2058SOL    HW217634   0.518   0.899  13.032  1.3497  0.5808 -1.3063
 2059SOL     OW17635   2.045   3.665   3.230  0.1529 -0.7261  0.0380
 2059SOL    HW117636   2.077   3.737   3.175 -3.3343 -0.9760 -2.2985
 2059SOL    HW217637   2.026   3.714   3.310  1.0368 -1.7281  0.8674
 2060SOL     OW17638   4.594   0.661  17.318 -0.0742  0.1025  0.2551
 2060SOL    HW117639   4.581   0.576  17.360 -1.7766  0.4473  0.4184
 2060SOL    HW217640   4.590   0.643  17.224  0.4815  1.0650  0.0472
 2061SOL     OW17641   4.050   0.080  12.705  0.5328 -0.2281  0.5099
 2061SOL    HW117642   4.064   0.003  12.760 -0.2829 -0.0162  1.0152
 2061SOL    HW217643   4.115   0.068  12.636 -0.4433 -0.6715 -0.3300
 2062SOL     OW17644   4.460   2.945   4.643  0.0047 -0.6403 -0.6010
 2062SOL    HW117645   4.464   2.952   4.739 -0.6841  1.3129 -0.7080
 2062SOL    HW217646   4.430   3.032   4.615  0.4839 -0.4494 -0.5299
 2063SOL     OW17647   2.939   3.842   6.781 -0.0364  0.7513  0.4066
 2063SOL    HW117648   3.022   3.864   6.823  0.6698  0.9302 -1.0755
 2063SOL    HW217649   2.884   3.781   6.830 -0.2376  0.6902  0.1021
 2064SOL     OW17650   0.193   1.860  16.393 -0.1165 -0.2067 -0.1382
 2064SOL    HW117651   0.197   1.811  16.311  2.5173 -1.6681  0.8371
 2064SOL    HW217652   0.201   1.943  16.347 -2.8464 -0.3537 -0.8371
 2065SOL     OW17653   2.483   0.428   4.566 -0.0510 -0.5377 -0.9884
 2065SOL    HW117654   2.516   0.357   4.511  2.9869  1.2022 -1.4251
 2065SOL    HW217655   2.470   0.483   4.489  1.0952 -0.4240 -1.1026
 2066SOL     OW17656   0.833   2.057   2.069 -0.6751  0.0230 -0.3981
 2066SOL    HW117657   0.811   2.011   2.150  1.1809 -1.4804 -0.7530
 2066SOL    HW217658   0.846   2.145   2.103 -1.4621 -0.4465  1.1047
 2067SOL     OW17659   2.205   3.333   2.356 -0.1090  0.0319 -0.5343
 2067SOL    HW117660   2.151   3.361   2.430  0.4225  1.4982 -0.7064
 2067SOL    HW217661   2.164   3.251   2.330  1.2145 -0.3312 -1.4473
 2068SOL     OW17662   4.206   4.173   6.945 -0.3101  0.3212  0.0768
 2068SOL    HW117663   4.114   4.144   6.944  0.4056 -1.9327  0.2996
 2068SOL    HW217664   4.251   4.100   6.986  0.0607  1.0698  1.0105
 2069SOL     OW17665   2.653   4.081   2.552 -0.7420  0.4242  0.2007
 2069SOL    HW117666   2.596   4.151   2.583 -0.9628  0.3322 -0.0036
 2069SOL    HW217667   2.661   4.102   2.459  0.0182  1.3403  0.4666
 2070SOL     OW17668   0.468   1.102   6.076  0.3275 -0.7552  0.3382
 2070SOL    HW117669   0.439   1.064   6.159 -2.8978 -2.1610 -1.4567
 2070SOL    HW217670   0.419   1.053   6.010  2.1892 -2.3913  0.1500
 2071SOL     OW17671   3.304   0.162   2.863 -0.8246 -0.3960  0.6388
 2071SOL    HW117672   3.345   0.190   2.781 -3.2572  3.7544  0.8313
 2071SOL    HW217673   3.279   0.071   2.852  2.4529 -0.9883 -1.8405
 2072SOL     OW17674   2.295   3.237   7.285  0.2097 -0.8487  0.1253
 2072SOL    HW117675   2.309   3.323   7.325  1.4876  0.5653 -3.3541
 2072SOL    HW217676   2.340   3.180   7.348  1.7867  1.2641  0.9104
 2073SOL     OW17677   2.633   0.264   5.589  0.3203 -0.0576 -0.0270
 2073SOL    HW117678   2.678   0.190   5.629  0.7856  0.8979  1.2113
 2073SOL    HW217679   2.631   0.236   5.497  0.3606 -1.7643  0.4941
 2074SOL     OW17680   3.949   3.091  17.426 -0.2578 -0.1367 -0.3278
 2074SOL    HW117681   3.880   3.061  17.366  0.0722 -1.8443  0.1600
 2074SOL    HW217682   4.036   3.068  17.393  1.0127  1.3413  2.0013
 2075SOL     OW17683   1.476   1.814   4.087 -0.3860 -0.1996  0.3297
 2075SOL    HW117684   1.483   1.779   3.998 -0.7223  0.2029  0.1454
 2075SOL    HW217685   1.382   1.815   4.100 -0.4297  0.3391 -0.0033
 2076SOL     OW17686   4.078   4.082   3.098 -0.2595 -0.7639 -0.0273
 2076SOL    HW117687   4.091   4.072   3.192  0.0401 -2.1725 -0.2139
 2076SOL    HW217688   4.148   4.024   3.067  2.5045  3.6192 -1.9892
 2077SOL     OW17689   3.200   3.146  16.889  0.4672 -0.5241  0.3408
 2077SOL    HW117690   3.186   3.089  16.813  1.1070 -0.4858  0.1987
 2077SOL    HW217691   3.206   3.071  16.948  1.1228  0.3375  1.3596
 2078SOL     OW17692   4.281   1.514   2.744  0.4762  0.2492 -0.0702
 2078SOL    HW117693   4.226   1.450   2.698 -0.3060  0.0827  1.1222
 2078SOL    HW217694   4.265   1.593   2.692  1.0866 -0.6450 -1.6348
 2079SOL     OW17695   3.474   1.911   1.812 -0.0402 -0.3167  0.1996
 2079SOL    HW117696   3.458   1.834   1.758 -0.5318 -1.1427  1.5273
 2079SOL    HW217697   3.466   1.980   1.746  1.7734  1.1568  1.5101
 2080SOL     OW17698   3.116   0.849   2.714 -0.4329 -0.7819 -0.0976
 2080SOL    HW117699   3.159   0.889   2.790 -2.2029  1.2082 -0.1430
 2080SOL    HW217700   3.027   0.881   2.728  0.5141  0.5314  2.9232
 2081SOL     OW17701   3.515   3.148   4.187 -0.3467 -0.6787  0.5299
 2081SOL    HW117702   3.578   3.210   4.224 -2.4005  1.1375  0.9997
 2081SOL    HW217703   3.561   3.065   4.189  0.5654 -0.1728  0.7385
 2082SOL     OW17704   4.632   3.149   5.573 -0.3900  0.0608  0.4913
 2082SOL    HW117705   4.664   3.200   5.498 -1.8254  1.8517  1.0914
 2082SOL    HW217706   4.560   3.103   5.531 -0.1722  0.0795  0.0981
 2083SOL     OW17707   1.348   0.682  14.608  0.4849  0.7221 -0.1180
 2083SOL    HW117708   1.337   0.630  14.529  1.3312  1.1000 -0.4793
 2083SOL    HW217709   1.395   0.763  14.590 -0.8839  1.3303 -0.9929
 2084SOL     OW17710   1.052   1.653   8.843 -0.3748  0.5793 -0.5252
 2084SOL    HW117711   1.128   1.711   8.847 -0.8873  1.2195 -0.1496
 2084SOL    HW217712   0.980   1.715   8.848  1.4767  2.7114 -0.2725
 2085SOL     OW17713   3.941   2.866   7.454  0.6592  0.1297 -0.5219
 2085SOL    HW117714   4.001   2.796   7.426  2.3918  1.7534 -0.8492
 2085SOL    HW217715   3.969   2.938   7.399  0.7498  1.4522  1.2610
 2086SOL     OW17716   4.570   1.159   5.603  0.3695  0.2404 -0.2139
 2086SOL    HW117717   4.560   1.075   5.647  1.1181 -0.4527 -1.3568
 2086SOL    HW217718   4.631   1.133   5.534  0.3267 -2.9157  0.9182
 2087SOL     OW17719   3.015   1.614   8.073  0.4471 -0.6545 -0.4632
 2087SOL    HW117720   3.000   1.549   8.141 -2.4482 -0.1784 -0.6407
 2087SOL    HW217721   3.035   1.556   7.999 -2.3939 -1.6022 -0.4712
 2088SOL     OW17722   0.612   3.028   9.914 -0.2690 -0.0065 -0.1277
 2088SOL    HW117723   0.645   3.092   9.851 -0.2324  0.1531  0.0526
 2088SOL    HW217724   0.517   3.026   9.911 -0.2086 -1.0114 -1.4018
 2089SOL     OW17725   1.856   3.557   9.415 -0.2427 -0.1888 -0.0650
 2089SOL    HW117726   1.763   3.573   9.397 -0.6104 -1.4763  0.6403
 2089SOL    HW217727   1.887   3.519   9.333 -2.9152  2.3006 -2.2390
 2090SOL     OW17728   2.073   1.452   4.397 -0.0259  0.0617  0.1034
 2090SOL    HW117729   2.116   1.526   4.441 -1.5178  2.0561 -1.8003
 2090SOL    HW217730   2.136   1.422   4.332 -1.0601 -0.0415 -0.8546
 2091SOL     OW17731   3.671   2.989   2.127 -0.0695  0.3179  0.1870
 2091SOL    HW117732   3.637   3.065   2.081  0.4716  0.4558  0.0270
 2091SOL    HW217733   3.654   2.915   2.070  0.8968  0.2973 -0.0695
 2092SOL     OW17734   2.411   3.156   5.281 -0.1510 -0.4488 -0.3657
 2092SOL    HW117735   2.382   3.064   5.282  0.8341 -0.7669 -3.8681
 2092SOL    HW217736   2.437   3.167   5.373  0.1416 -0.9413 -0.3906
 2093SOL     OW17737   0.656   1.114   8.371 -0.5818  0.2604 -0.4385
 2093SOL    HW117738   0.733   1.081   8.418 -0.9189 -0.9878 -0.7693
 2093SOL    HW217739   0.594   1.063   8.422 -0.2150  1.1987  0.9458
 2094SOL     OW17740   2.578   3.311   3.374  0.4114 -0.4155  0.7309
 2094SOL    HW117741   2.594   3.400   3.405  1.3583  1.5540 -5.4592
 2094SOL    HW217742   2.606   3.262   3.452  1.2682  1.2384  1.4702
 2095SOL     OW17743   2.068   0.198  16.201 -0.0385  0.1185  0.3011
 2095SOL    HW117744   2.062   0.106  16.225  2.8000  0.7198  3.2611
 2095SOL    HW217745   2.110   0.181  16.117 -0.1870  1.6297 -0.0806
 2096SOL     OW17746   3.631   4.411   0.555  0.5862  0.2892  0.3350
 2096SOL    HW117747   3.587   4.428   0.472 -0.3736 -1.3602  0.5118
 2096SOL    HW217748   3.565   4.371   0.612 -0.8176  0.3295 -1.2689
 2097SOL     OW17749   2.183   2.740   2.445 -0.9647  0.8880 -0.0978
 2097SOL    HW117750   2.123   2.793   2.499 -2.5133 -0.9806  0.0312
 2097SOL    HW217751   2.138   2.656   2.443  1.4738 -0.3829 -0.8005
 2098SOL     OW17752   3.412   2.975   5.236  0.3583 -0.0693  0.0196
 2098SOL    HW117753   3.365   2.891   5.238 -1.6795  1.1053  2.2653
 2098SOL    HW217754   3.339   3.029   5.206  0.0384 -0.9252 -0.7558
 2099SOL     OW17755   0.417   4.602   4.272 -0.0453  0.2458  0.7623
 2099SOL    HW117756   0.334   4.601   4.225  0.0910 -0.6295  0.5472
 2099SOL    HW217757   0.446   4.693   4.263 -0.6277  0.3108 -0.4517
 2100SOL     OW17758   0.307   3.049   8.712 -0.1657 -0.4856 -0.2347
 2100SOL    HW117759   0.227   3.098   8.731  2.3989  2.7962  1.8983
 2100SOL    HW217760   0.267   2.962   8.711 -2.5513  0.6073  0.4614
 2101SOL     OW17761   1.065   3.645   8.149  0.3205 -0.0993  0.4917
 2101SOL    HW117762   0.987   3.700   8.155 -0.7844 -1.7174  0.7778
 2101SOL    HW217763   1.070   3.629   8.054  0.9644 -1.0273  0.6768
 2102SOL     OW17764   3.117   0.508  10.506  0.0512  0.0323  0.0680
 2102SOL    HW117765   3.081   0.432  10.551 -2.3162  1.0834 -0.0745
 2102SOL    HW217766   3.183   0.462  10.455  1.7254  1.2693  1.0950
 2103SOL     OW17767   2.668   4.646   3.569  0.3047  0.3040  0.2825
 2103SOL    HW117768   2.648   4.719   3.511 -0.8471 -0.3352 -0.1103
 2103SOL    HW217769   2.684   4.692   3.651  3.1065 -1.0245  0.5139
 2104SOL     OW17770   2.280   2.396   6.351 -0.8853  0.2851 -0.5948
 2104SOL    HW117771   2.275   2.398   6.255  0.1602 -1.9025 -0.6856
 2104SOL    HW217772   2.299   2.490   6.357 -1.1459  0.2807  0.2875
 2105SOL     OW17773   0.960   1.642   5.511  0.6518  0.0162  0.1388
 2105SOL    HW117774   0.868   1.664   5.497  0.4624 -0.8469  0.0821
 2105SOL    HW217775   0.983   1.702   5.583 -2.0272  4.0057 -2.3533
 2106SOL     OW17776   0.974   3.517  14.045 -0.2827  0.2805 -0.1643
 2106SOL    HW117777   0.881   3.500  14.035 -0.4181  1.8953 -1.6456
 2106SOL    HW217778   0.973   3.519  14.141  0.5424 -1.6181 -0.1172
 2107SOL     OW17779   2.153   2.845  16.800  0.1990  0.3812 -0.7986
 2107SOL    HW117780   2.154   2.846  16.705  1.8686 -0.5621 -0.7980
 2107SOL    HW217781   2.143   2.754  16.827 -3.3027  1.0257  0.0410
 2108SOL     OW17782   0.767   2.543   3.524 -0.5151  0.1290 -0.3245
 2108SOL    HW117783   0.713   2.488   3.579 -0.4165  1.0045  0.6523
 2108SOL    HW217784   0.704   2.613   3.506 -0.7963 -0.1194 -0.2960
 2109SOL     OW17785   0.025   3.060  13.816  0.4482  0.3686 -0.3738
 2109SOL    HW117786   0.069   3.076  13.900  1.9662  1.2483 -1.3252
 2109SOL    HW217787   4.721   3.150  13.797 -1.5675  0.4380  2.9044
 2110SOL     OW17788   0.662   3.266   7.693  0.7743 -0.5631 -0.4812
 2110SOL    HW117789   0.744   3.217   7.688  0.1488 -1.9107  1.9387
 2110SOL    HW217790   0.648   3.266   7.788  1.4166  2.1091 -0.3914
 2111SOL     OW17791   1.427   4.515  11.071 -0.3488 -0.1694  0.0663
 2111SOL    HW117792   1.486   4.445  11.042 -1.0945 -0.4315 -0.8310
 2111SOL    HW217793   1.439   4.524  11.166  1.6182  1.2017 -0.3207
 2112SOL     OW17794   2.695   0.142   5.316 -0.0041 -0.3051 -0.1880
 2112SOL    HW117795   2.703   0.157   5.222 -0.2132 -0.0955 -0.1720
 2112SOL    HW217796   2.623   0.078   5.318  0.1232 -0.4576 -0.4812
 2113SOL     OW17797   1.373   0.467  13.450  0.4625 -0.5530  0.4461
 2113SOL    HW117798   1.451   0.507  13.413  0.9289 -2.0047 -0.1340
 2113SOL    HW217799   1.369   0.500  13.540  0.9736  0.0960  0.2249
 2114SOL     OW17800   3.606   0.066   9.063 -0.5810  0.2815  0.3762
 2114SOL    HW117801   3.625   0.134   8.999  2.4335  0.3722  1.3570
 2114SOL    HW217802   3.511   0.069   9.067 -0.5936  0.1697  0.1289
 2115SOL     OW17803   4.572   2.743   1.622 -0.5610 -0.4382 -0.3355
 2115SOL    HW117804   4.485   2.702   1.617 -1.9622  2.7536 -2.1215
 2115SOL    HW217805   4.619   2.665   1.649 -0.2672 -0.5771 -1.2631
 2116SOL     OW17806   3.681   2.039   6.841  0.0019 -0.4017  0.3516
 2116SOL    HW117807   3.687   2.135   6.847  1.3964 -0.4828  0.2850
 2116SOL    HW217808   3.598   2.026   6.886  0.7829  0.0646  1.9464
 2117SOL     OW17809   3.746   2.214  15.772 -1.0910 -0.0793 -0.5186
 2117SOL    HW117810   3.705   2.215  15.858  0.5265  0.2712  0.2355
 2117SOL    HW217811   3.672   2.204  15.712 -0.5303  0.4900 -1.3042
 2118SOL     OW17812   0.624   3.460  14.227 -0.4359  0.4890  0.0762
 2118SOL    HW117813   0.554   3.418  14.176  0.5429 -0.4898 -0.4469
 2118SOL    HW217814   0.677   3.479  14.150  0.3829 -0.0509  0.5031
 2119SOL     OW17815   3.042   2.519   5.626  0.0294  0.0274 -0.3525
 2119SOL    HW117816   3.041   2.599   5.679 -0.8182  0.0216 -0.3619
 2119SOL    HW217817   2.971   2.464   5.659  0.6557 -0.0623  0.8263
 2120SOL     OW17818   1.481   3.116  11.168 -0.1213  0.3346  0.1645
 2120SOL    HW117819   1.469   3.142  11.259 -0.0358 -2.8044  1.0685
 2120SOL    HW217820   1.453   3.196  11.124 -1.7030 -0.3156 -0.0201
 2121SOL     OW17821   2.096   1.407   9.897 -1.1300 -0.3713  0.2239
 2121SOL    HW117822   2.170   1.468   9.895 -0.9942 -0.5226  0.5566
 2121SOL    HW217823   2.020   1.465   9.895 -1.0186 -0.2924 -1.2689
 2122SOL     OW17824   1.867   3.665   4.333 -0.1143  0.2036 -0.3587
 2122SOL    HW117825   1.938   3.640   4.273 -1.0368  0.0151 -1.3752
 2122SOL    HW217826   1.830   3.735   4.280 -0.4947 -0.3631 -0.8418
 2123SOL     OW17827   3.535   3.998  10.195  0.1201 -0.2299 -0.1455
 2123SOL    HW117828   3.583   4.078  10.174 -1.1125  0.7737  0.8346
 2123SOL    HW217829   3.555   3.955  10.112  0.2846 -1.0988  0.3434
 2124SOL     OW17830   3.579   1.377   0.499 -0.8862  0.4056 -0.2319
 2124SOL    HW117831   3.656   1.337   0.460 -1.0446 -1.1269  1.0412
 2124SOL    HW217832   3.624   1.456   0.530  1.0721 -1.1526  0.8777
 2125SOL     OW17833   4.223   1.304  11.642  0.2452  0.5192  0.0322
 2125SOL    HW117834   4.183   1.391  11.649 -0.8372 -0.1587  2.0735
 2125SOL    HW217835   4.266   1.314  11.556  0.2987  3.4652  0.3817
 2126SOL     OW17836   3.505   1.294   7.964  0.0263  0.5364  0.0865
 2126SOL    HW117837   3.533   1.302   7.872 -0.6846  4.0004  0.1802
 2126SOL    HW217838   3.448   1.369   7.976  2.1336  1.9149  1.5095
 2127SOL     OW17839   2.446   1.440   7.615  0.1415  0.5372 -0.5274
 2127SOL    HW117840   2.369   1.388   7.640  0.2674  1.2054  1.2728
 2127SOL    HW217841   2.448   1.507   7.683 -2.6109  0.8600 -0.7594
 2128SOL     OW17842   4.239   3.487   8.797  0.4837  0.2239  0.1192
 2128SOL    HW117843   4.317   3.528   8.833  0.6886 -0.2832  0.2639
 2128SOL    HW217844   4.258   3.428   8.724  0.9720  1.2551 -0.5782
 2129SOL     OW17845   2.380   0.302   5.035 -0.4898 -0.0736  0.0802
 2129SOL    HW117846   2.347   0.362   4.968  0.2120 -0.2016 -0.3697
 2129SOL    HW217847   2.298   0.275   5.078 -1.2885 -1.1195 -2.1074
 2130SOL     OW17848   2.051   3.902  13.881  0.3333  0.3789 -0.1287
 2130SOL    HW117849   1.986   3.886  13.813  1.0645  2.3352 -1.2627
 2130SOL    HW217850   2.094   3.816  13.882 -0.6194 -0.0925  1.4169
 2131SOL     OW17851   2.827   4.273   7.053 -0.1518  0.4476  0.6011
 2131SOL    HW117852   2.831   4.181   7.028  1.2426  0.9387 -1.0295
 2131SOL    HW217853   2.917   4.293   7.078  0.3330 -1.7537  0.6147
 2132SOL     OW17854   1.264   2.656   7.593 -0.4898  0.3911 -0.5344
 2132SOL    HW117855   1.342   2.630   7.544  1.7478  0.1106  3.1629
 2132SOL    HW217856   1.289   2.746   7.615  0.3760  0.0363 -0.0476
 2133SOL     OW17857   0.248   0.408  11.586  0.1929  0.3608  0.5072
 2133SOL    HW117858   0.197   0.335  11.621 -0.7694 -0.6474 -3.0672
 2133SOL    HW217859   0.256   0.459  11.667  2.1717  0.0584  0.5098
 2134SOL     OW17860   3.433   2.852   9.261 -0.1585 -0.0019  0.1002
 2134SOL    HW117861   3.437   2.768   9.214 -1.8115 -1.2097  2.0715
 2134SOL    HW217862   3.520   2.855   9.300  0.0018  1.6378 -0.3905
 2135SOL     OW17863   0.719   0.907   9.833  0.1692  0.1207  0.7322
 2135SOL    HW117864   0.758   0.833   9.787 -1.9213 -1.6980  1.9287
 2135SOL    HW217865   0.635   0.866   9.850 -1.1144  1.6689 -1.8340
 2136SOL     OW17866   1.712   3.715  13.301 -0.0151  0.1559  0.2572
 2136SOL    HW117867   1.718   3.806  13.272  1.4625 -1.0395 -3.2046
 2136SOL    HW217868   1.793   3.706  13.350  1.2180  1.2499 -1.5937
 2137SOL     OW17869   1.402   2.230   4.836 -0.3178 -0.3973  0.0454
 2137SOL    HW117870   1.463   2.171   4.793  0.0867 -0.3810  0.6023
 2137SOL    HW217871   1.372   2.262   4.750 -1.1386 -0.0629  0.4518
 2138SOL     OW17872   4.267   1.462   3.497  0.0024  0.1821 -0.2885
 2138SOL    HW117873   4.243   1.534   3.440  0.7794 -0.1970 -1.0933
 2138SOL    HW217874   4.294   1.398   3.431  0.5229  1.0599 -0.9200
 2139SOL     OW17875   2.155   3.285   8.601 -0.0206  0.4649 -0.1983
 2139SOL    HW117876   2.250   3.286   8.613 -0.1035  1.1990  0.4048
 2139SOL    HW217877   2.136   3.242   8.684 -0.7113 -0.4902 -0.8591
 2140SOL     OW17878   0.603   0.741   6.002  0.1353 -0.2371 -0.6554
 2140SOL    HW117879   0.550   0.803   5.952 -1.2161 -1.2959 -0.5396
 2140SOL    HW217880   0.668   0.801   6.036  0.0945 -0.7112  0.2666
 2141SOL     OW17881   3.738   0.630  17.617  0.2182  0.0857 -0.2562
 2141SOL    HW117882   3.716   0.716  17.653  1.0251  1.1244 -2.1754
 2141SOL    HW217883   3.780   0.585  17.690 -2.5544 -1.2052  0.5210
 2142SOL     OW17884   3.126   3.798   5.275 -0.1135  0.5564  0.2178
 2142SOL    HW117885   3.189   3.753   5.219 -3.0223 -0.1297 -2.4917
 2142SOL    HW217886   3.082   3.729   5.325  0.6002 -0.0945 -0.0537
 2143SOL     OW17887   4.184   3.918   5.331 -0.7108 -0.2260  0.1527
 2143SOL    HW117888   4.270   3.961   5.335 -0.5473 -0.5542  0.1866
 2143SOL    HW217889   4.131   3.972   5.273  0.1978 -1.0364 -1.4358
 2144SOL     OW17890   0.783   0.815   9.226  0.4913 -0.2844 -0.2212
 2144SOL    HW117891   0.776   0.791   9.318 -1.5485 -1.6433 -0.7324
 2144SOL    HW217892   0.742   0.901   9.233 -0.7309 -0.9218  0.3124
 2145SOL     OW17893   1.435   2.179   5.280 -0.2714  0.4895  0.1266
 2145SOL    HW117894   1.357   2.225   5.312 -3.1753 -3.2737 -1.5823
 2145SOL    HW217895   1.495   2.200   5.351 -0.3500 -2.4330  1.0686
 2146SOL     OW17896   1.880   1.196   1.920  0.1337 -0.0572 -0.1972
 2146SOL    HW117897   1.833   1.240   1.849 -1.6068  0.4850  1.2768
 2146SOL    HW217898   1.964   1.189   1.874  1.9520 -0.6639  3.2362
 2147SOL     OW17899   4.133   1.436   4.461 -0.5814  0.6720  0.0266
 2147SOL    HW117900   4.078   1.367   4.499  1.5863 -1.1841 -0.2024
 2147SOL    HW217901   4.083   1.448   4.380 -2.1914  0.3021  0.9676
 2148SOL     OW17902   1.952   0.005   3.722 -0.0079 -0.4808 -0.4908
 2148SOL    HW117903   1.995   4.719   3.637 -0.9142 -0.9560 -0.8992
 2148SOL    HW217904   1.905   4.646   3.717 -0.6486 -0.1659  0.2452
 2149SOL     OW17905   2.091   3.658  11.549 -0.5119  0.0925 -0.0385
 2149SOL    HW117906   2.038   3.736  11.568 -0.9206 -0.4642  1.0551
 2149SOL    HW217907   2.171   3.711  11.545 -1.1595  1.1203  0.5568
 2150SOL     OW17908   1.993   2.305   5.109  0.0030 -0.1462 -0.4173
 2150SOL    HW117909   2.034   2.268   5.187  1.2541  2.7937  0.3215
 2150SOL    HW217910   2.006   2.236   5.044  0.0481 -0.9695  0.4745
 2151SOL     OW17911   3.215   1.428  14.578  0.3111 -0.3861 -0.0972
 2151SOL    HW117912   3.214   1.332  14.577  1.0981 -0.4647  3.2901
 2151SOL    HW217913   3.269   1.447  14.502  2.1297 -1.5892  0.8638
 2152SOL     OW17914   0.381   3.465   3.777 -0.0937  0.3255 -0.2389
 2152SOL    HW117915   0.467   3.503   3.796 -0.0968 -0.4102  1.2579
 2152SOL    HW217916   0.327   3.500   3.848 -1.2045  0.2055 -1.0207
 2153SOL     OW17917   0.464   1.260   2.955 -0.2511  0.4600 -0.0677
 2153SOL    HW117918   0.493   1.179   2.997  1.8673  2.0753  1.6102
 2153SOL    HW217919   0.403   1.211   2.901  2.2281 -1.6303 -0.9659
 2154SOL     OW17920   2.551   3.051   0.693  0.3036 -0.0757 -0.3085
 2154SOL    HW117921   2.628   2.995   0.693  0.5767  0.3085  0.1859
 2154SOL    HW217922   2.480   2.988   0.677  1.1123 -1.0439 -0.0210
 2155SOL     OW17923   3.474   0.471  16.873  0.1439 -0.0567 -0.5894
 2155SOL    HW117924   3.434   0.424  16.947  2.2558 -1.0076 -0.0627
 2155SOL    HW217925   3.554   0.422  16.856  0.9480  0.8511  0.6144
 2156SOL     OW17926   3.300   3.283   2.950 -0.1802 -0.2190 -0.0643
 2156SOL    HW117927   3.358   3.314   2.880 -0.5372  0.6998  0.0537
 2156SOL    HW217928   3.288   3.193   2.918 -1.3894 -0.1712  0.2812
 2157SOL     OW17929   0.096   1.331   6.103 -0.1191  0.1846 -0.0188
 2157SOL    HW117930   0.151   1.327   6.025  0.1652 -1.1357  0.2500
 2157SOL    HW217931   0.164   1.326   6.170 -1.3099  0.6186  1.2472
 2158SOL     OW17932   3.317   0.373  10.045  0.3265 -0.6604  0.2428
 2158SOL    HW117933   3.317   0.423   9.964  0.7159 -2.2814 -0.7668
 2158SOL    HW217934   3.285   0.292  10.005  0.4043  0.1018 -1.3249
 2159SOL     OW17935   3.892   4.185   6.994  0.4088 -0.0634 -0.2539
 2159SOL    HW117936   3.832   4.211   6.924 -1.1160 -0.1955  1.0045
 2159SOL    HW217937   3.836   4.128   7.046 -1.3974  1.0241 -1.0131
 2160SOL     OW17938   4.694   2.561   9.103 -0.2704  0.0659 -0.5902
 2160SOL    HW117939   0.053   2.610   9.102  0.1836 -0.7221 -0.8177
 2160SOL    HW217940   4.640   2.641   9.104  1.4059  1.1890  1.9914
 2161SOL     OW17941   0.586   2.138   6.267  0.6437 -0.1781 -0.0110
 2161SOL    HW117942   0.567   2.087   6.346  0.6474  0.9714  0.7222
 2161SOL    HW217943   0.607   2.068   6.204  1.5041  0.8674 -0.8794
 2162SOL     OW17944   1.958   0.335   3.596 -0.3034 -0.1097  0.3023
 2162SOL    HW117945   1.984   0.320   3.506 -0.9333 -1.1970  0.3000
 2162SOL    HW217946   2.036   0.381   3.629  0.4824  0.1887 -1.9938
 2163SOL     OW17947   3.087   2.305   2.238 -0.1144  0.2660  0.4654
 2163SOL    HW117948   3.182   2.313   2.230 -0.2472  2.5195  0.9997
 2163SOL    HW217949   3.068   2.214   2.214  2.1404 -0.7306  2.4494
 2164SOL     OW17950   3.670   0.919   9.793 -0.1203 -0.4905  0.0676
 2164SOL    HW117951   3.664   0.826   9.770  0.0593  0.1799 -2.7239
 2164SOL    HW217952   3.753   0.927   9.842 -0.8391 -1.1858  1.4055
 2165SOL     OW17953   1.392   1.960   9.161  0.8171  0.0434  0.3840
 2165SOL    HW117954   1.374   2.048   9.192 -0.4270  0.7386 -2.2573
 2165SOL    HW217955   1.409   1.912   9.242 -0.2061  0.0130  0.5850
 2166SOL     OW17956   2.772   1.228   7.661 -0.4538  0.5149  0.0307
 2166SOL    HW117957   2.815   1.259   7.740  0.9515  1.7316 -1.2181
 2166SOL    HW217958   2.693   1.185   7.695  0.0135 -0.1428  0.2650
 2167SOL     OW17959   1.905   0.291  15.341 -0.5093 -0.0913  0.0307
 2167SOL    HW117960   1.944   0.263  15.424  0.8315  1.4583 -0.0641
 2167SOL    HW217961   1.966   0.353  15.301  0.2231 -1.4700 -0.9819
 2168SOL     OW17962   2.868   0.490   8.558  0.0389 -0.1344  0.9678
 2168SOL    HW117963   2.935   0.545   8.518  0.6101 -1.4181  0.1395
 2168SOL    HW217964   2.880   0.516   8.649  0.2545 -2.0412  1.4986
 2169SOL     OW17965   0.527   3.878   4.040  0.0347 -0.1003 -0.1039
 2169SOL    HW117966   0.478   3.953   4.008 -0.8662 -0.8376 -0.4298
 2169SOL    HW217967   0.617   3.910   4.027 -0.2188 -0.2958 -2.3358
 2170SOL     OW17968   3.341   1.606   2.456 -0.0409 -0.3194  0.0385
 2170SOL    HW117969   3.342   1.701   2.470  1.1456 -1.1111  5.1407
 2170SOL    HW217970   3.384   1.576   2.535 -0.6773  1.5008  1.0775
 2171SOL     OW17971   4.679   0.806   2.119  0.3788 -0.0979 -0.8034
 2171SOL    HW117972   4.620   0.739   2.154  1.0990  0.0635  0.7251
 2171SOL    HW217973   4.639   0.876   2.170 -0.4862  0.0098 -1.6221
 2172SOL     OW17974   0.368   1.894   4.964 -0.1431  0.1676  0.1067
 2172SOL    HW117975   0.444   1.916   4.911  0.1902  0.2709  0.6283
 2172SOL    HW217976   0.306   1.885   4.892 -0.1746 -0.4284  0.2038
 2173SOL     OW17977   3.287   2.550   3.979 -0.3407 -0.4715  0.6800
 2173SOL    HW117978   3.319   2.543   4.070  0.1479  0.6871  0.5882
 2173SOL    HW217979   3.353   2.604   3.936 -0.7952 -1.5201 -1.3168
 2174SOL     OW17980   1.199   0.500   5.663  0.2721  0.0559  0.1652
 2174SOL    HW117981   1.199   0.441   5.587 -0.3152  1.1311 -0.6723
 2174SOL    HW217982   1.121   0.472   5.711  0.0500 -0.0963 -0.2834
 2175SOL     OW17983   2.533   0.814   7.225  0.5654  0.1682  0.0508
 2175SOL    HW117984   2.600   0.775   7.169  0.9575  0.1914  0.5102
 2175SOL    HW217985   2.526   0.744   7.290 -0.0038 -0.0783 -0.2771
 2176SOL     OW17986   4.438   3.244  16.638 -0.4064  0.1457 -0.0660
 2176SOL    HW117987   4.347   3.270  16.654 -1.2772 -3.2793  0.5106
 2176SOL    HW217988   4.427   3.149  16.639 -1.3579  0.2670  0.4906
 2177SOL     OW17989   1.349   2.245   8.689 -0.0212  0.5537 -0.1075
 2177SOL    HW117990   1.296   2.172   8.722 -0.7884  0.7274 -0.9348
 2177SOL    HW217991   1.316   2.249   8.599 -0.3847  2.1758  0.1043
 2178SOL     OW17992   3.435   3.217   5.481 -0.1419  0.0311  0.2102
 2178SOL    HW117993   3.492   3.187   5.552  1.0232 -1.9147 -1.5830
 2178SOL    HW217994   3.451   3.139   5.428  0.2408  0.4191 -0.2447
 2179SOL     OW17995   3.409   0.597   3.322  0.6570 -0.3524  0.3695
 2179SOL    HW117996   3.473   0.533   3.293  0.9679  0.3534 -0.5265
 2179SOL    HW217997   3.472   0.650   3.372  1.5388  0.5500 -1.6787
 2180SOL     OW17998   1.874   0.679  11.158 -0.7505 -0.3003 -0.3229
 2180SOL    HW117999   1.910   0.700  11.244  0.4854 -2.0910 -0.4118
 2180SOL    HW218000   1.850   0.587  11.172  2.3318 -1.2347 -1.1208
 2181SOL     OW18001   3.297   1.258   8.905 -0.1651  0.0168 -0.7282
 2181SOL    HW118002   3.335   1.214   8.829  0.9496  1.1930 -0.8627
 2181SOL    HW218003   3.315   1.191   8.970 -0.5643  0.8830  0.2722
 2182SOL     OW18004   1.635   0.334  10.893  0.5177 -0.3956 -0.4347
 2182SOL    HW118005   1.583   0.335  10.973  2.6037 -1.7624  0.9325
 2182SOL    HW218006   1.604   0.255  10.849 -0.7698  0.8536 -1.7818
 2183SOL     OW18007   0.229   3.179   3.450  0.1400  0.2450 -0.1985
 2183SOL    HW118008   0.277   3.137   3.521  0.1773 -0.3188 -0.5477
 2183SOL    HW218009   0.249   3.117   3.379 -0.7428 -1.0405  0.6554
 2184SOL     OW18010   3.226   4.292   5.302  0.0321 -0.3169  0.2385
 2184SOL    HW118011   3.246   4.209   5.257 -0.9430 -0.1200 -0.5560
 2184SOL    HW218012   3.179   4.347   5.239  0.8466  1.7623  1.4397
 2185SOL     OW18013   3.413   0.599   9.409 -0.4695 -0.2666 -0.1626
 2185SOL    HW118014   3.459   0.555   9.338  0.1537 -0.0934  0.1324
 2185SOL    HW218015   3.351   0.530   9.432 -0.1358 -0.6059 -0.2926
 2186SOL     OW18016   1.895   3.370   5.063 -0.3105 -0.4622  0.2488
 2186SOL    HW118017   1.897   3.297   5.002 -1.4836  0.2023 -0.6021
 2186SOL    HW218018   1.965   3.426   5.028 -0.3770 -0.6713 -0.2166
 2187SOL     OW18019   2.573   1.006   4.820  0.1777 -0.2599 -0.1647
 2187SOL    HW118020   2.549   1.045   4.904  0.5913 -2.1756  0.8461
 2187SOL    HW218021   2.667   1.022   4.818  0.5607 -2.5371 -0.8460
 2188SOL     OW18022   2.189   0.855  10.622 -0.3757 -0.8489 -0.4192
 2188SOL    HW118023   2.189   0.882  10.530  2.4542  0.0592 -0.1658
 2188SOL    HW218024   2.268   0.801  10.621  0.9264  0.9981  3.0879
 2189SOL     OW18025   1.043   1.463  15.349 -0.3424  0.2122 -0.0935
 2189SOL    HW118026   1.051   1.556  15.328  0.2979  0.0436 -0.5902
 2189SOL    HW218027   1.098   1.410  15.291 -1.8741  0.6006 -1.8961
 2190SOL     OW18028   1.891   2.391   1.803 -0.1187 -0.0265 -0.2238
 2190SOL    HW118029   1.948   2.459   1.838  0.7628 -1.5076  1.2435
 2190SOL    HW218030   1.919   2.386   1.712 -3.5078  1.8194 -1.3730
 2191SOL     OW18031   3.429   2.196   7.847 -0.4632  0.1332 -0.1758
 2191SOL    HW118032   3.481   2.115   7.842  0.5327  0.9028 -2.2379
 2191SOL    HW218033   3.490   2.235   7.910 -0.1052  0.3604 -0.6631
 2192SOL     OW18034   2.292   2.170  12.845 -0.9198 -0.1580 -0.6664
 2192SOL    HW118035   2.256   2.251  12.808 -0.1325  0.6382  0.3186
 2192SOL    HW218036   2.360   2.153  12.780  0.0052 -2.2956  0.9003
 2193SOL     OW18037   4.468   3.180   3.137  0.0701  0.6713  1.0513
 2193SOL    HW118038   4.511   3.094   3.139  1.2823  1.3800  3.8723
 2193SOL    HW218039   4.482   3.221   3.222  2.1210  0.3592  0.8812
 2194SOL     OW18040   3.423   2.351   7.311 -0.1968 -0.3758  0.1105
 2194SOL    HW118041   3.379   2.366   7.395 -0.5151 -0.7996  0.0215
 2194SOL    HW218042   3.514   2.372   7.330  0.5874 -1.9605 -1.8401
 2195SOL     OW18043   0.262   3.441  16.540 -0.3481 -0.2109 -0.3616
 2195SOL    HW118044   0.261   3.524  16.586 -0.5217 -0.4916  0.1457
 2195SOL    HW218045   0.342   3.418  16.588 -0.9325 -1.4829  0.0041
 2196SOL     OW18046   1.219   1.021   2.874  0.1412  0.2194  0.0201
 2196SOL    HW118047   1.283   1.036   2.944  1.6231  0.4231 -1.3824
 2196SOL    HW218048   1.256   1.071   2.801  0.1473 -0.4800 -0.4523
 2197SOL     OW18049   1.583   3.829   4.584 -0.2228  0.2671  0.5546
 2197SOL    HW118050   1.631   3.908   4.607  1.2928 -0.8295  1.1288
 2197SOL    HW218051   1.641   3.763   4.623  1.9642  1.9740  0.1720
 2198SOL     OW18052   2.268   3.762  13.083 -0.0374 -0.2503  0.2644
 2198SOL    HW118053   2.179   3.791  13.063  0.2537 -0.2170 -0.9636
 2198SOL    HW218054   2.304   3.796  13.001 -0.9307 -2.1714 -0.9119
 2199SOL     OW18055   3.449   2.023   1.556  0.3945 -0.3067  0.2513
 2199SOL    HW118056   3.420   1.932   1.560  0.1596 -0.2145  0.6520
 2199SOL    HW218057   3.450   2.041   1.462 -2.5591 -0.9871  0.1017
 2200SOL     OW18058   2.972   3.976  14.440  0.0122 -0.0806 -0.2103
 2200SOL    HW118059   3.026   3.974  14.519 -1.2792 -0.9401  0.6683
 2200SOL    HW218060   2.883   3.997  14.468  0.7736  1.9748  0.6011
 2201SOL     OW18061   3.152   3.969   5.706  0.0317  0.1086 -0.5350
 2201SOL    HW118062   3.152   4.032   5.634 -3.5116 -0.7049 -1.2398
 2201SOL    HW218063   3.217   3.988   5.774 -1.0987 -1.4463  1.0004
 2202SOL     OW18064   2.476   0.959   6.073 -0.1785  0.1799 -0.5170
 2202SOL    HW118065   2.387   0.977   6.103  0.3978  1.1587  0.5983
 2202SOL    HW218066   2.462   0.962   5.978 -0.5812 -1.4264 -0.4953
 2203SOL     OW18067   1.169   1.357   6.795  0.1836 -0.0895 -0.4011
 2203SOL    HW118068   1.094   1.318   6.750  0.5086 -0.8301 -0.2889
 2203SOL    HW218069   1.120   1.407   6.861  2.9722  1.1339  0.7577
 2204SOL     OW18070   0.480   1.682   2.836 -0.3799  0.1292 -0.0292
 2204SOL    HW118071   0.558   1.633   2.863  0.4709  1.3943 -0.1703
 2204SOL    HW218072   0.502   1.769   2.871  0.6041  0.1208 -0.6172
 2205SOL     OW18073   2.553   2.506   0.511 -0.0413 -0.0945  0.4019
 2205SOL    HW118074   2.525   2.417   0.533 -0.7490  0.7009  2.6706
 2205SOL    HW218075   2.643   2.492   0.541  0.1497 -1.1156 -0.6217
 2206SOL     OW18076   3.519   0.113  13.091  0.1057 -0.0782 -0.0858
 2206SOL    HW118077   3.549   0.135  13.003 -2.9992  0.7401 -0.9301
 2206SOL    HW218078   3.589   0.051  13.114  1.0637  0.6032 -1.1823
 2207SOL     OW18079   0.655   2.039   3.240  0.1708 -0.1789  0.0397
 2207SOL    HW118080   0.624   1.949   3.254  1.0449 -0.6271 -0.8603
 2207SOL    HW218081   0.721   2.011   3.177 -0.1022 -0.5080 -0.0981
 2208SOL     OW18082   2.601   3.973   6.363  0.2535  0.2593  0.4327
 2208SOL    HW118083   2.551   3.911   6.308  1.4432  1.1322 -1.6179
 2208SOL    HW218084   2.670   3.912   6.387  1.8767  1.2133 -1.8183
 2209SOL     OW18085   1.324   3.413   3.051 -0.1580  0.6645 -0.3596
 2209SOL    HW118086   1.307   3.386   3.142 -0.6005 -1.0894 -0.9698
 2209SOL    HW218087   1.320   3.329   3.004 -2.0901  0.8475 -0.5430
 2210SOL     OW18088   3.522   1.772  17.596  0.4233  0.0019  0.4609
 2210SOL    HW118089   3.574   1.795  17.674 -0.8418  0.3104  1.2033
 2210SOL    HW218090   3.528   1.843  17.532  1.3939 -1.2355 -0.8141
 2211SOL     OW18091   1.140   3.649   4.799  0.4512 -0.3306 -0.1803
 2211SOL    HW118092   1.210   3.587   4.820 -0.7800 -0.4100  3.8017
 2211SOL    HW218093   1.187   3.712   4.744 -1.1295 -0.4583 -1.6814
 2212SOL     OW18094   4.207   0.576   3.171 -0.3891  0.6576 -0.3395
 2212SOL    HW118095   4.258   0.645   3.128 -0.2051 -0.3074 -1.6873
 2212SOL    HW218096   4.275   0.510   3.186 -0.3223  1.0579  1.1155
 2213SOL     OW18097   2.446   3.508   5.041 -0.6882 -0.1512 -0.7124
 2213SOL    HW118098   2.380   3.527   5.109 -0.5543 -2.4687  0.0703
 2213SOL    HW218099   2.400   3.551   4.969  0.3302  1.7347 -0.2438
 2214SOL     OW18100   4.227   4.516   3.511  0.6053  0.2889  0.0221
 2214SOL    HW118101   4.166   4.533   3.583 -0.9460 -0.4063 -1.1206
 2214SOL    HW218102   4.256   4.429   3.538  1.6796  0.1003 -1.7098
 2215SOL     OW18103   0.951   1.047  12.244 -0.2853 -0.0952  0.0672
 2215SOL    HW118104   0.877   1.094  12.207 -1.3685 -1.6626  0.2262
 2215SOL    HW218105   0.912   1.026  12.329  2.3458 -1.1026  1.0345
 2216SOL     OW18106   2.057   3.538   8.613  0.5469  0.5667 -0.3427
 2216SOL    HW118107   2.094   3.451   8.597 -0.5010  0.0935 -0.1468
 2216SOL    HW218108   2.132   3.580   8.656  0.0713  0.0758  0.9460
 2217SOL     OW18109   2.454   3.760   7.884 -0.2056 -0.5058 -0.5864
 2217SOL    HW118110   2.490   3.676   7.912 -1.2197 -0.7831 -0.1473
 2217SOL    HW218111   2.425   3.785   7.972 -0.0300  1.6199 -1.1272
 2218SOL     OW18112   2.684   0.128   4.655 -0.2082  0.2643  0.5901
 2218SOL    HW118113   2.723   0.169   4.732 -0.7281  2.3797 -0.3002
 2218SOL    HW218114   2.735   0.047   4.645 -3.0056 -1.3355 -0.4612
 2219SOL     OW18115   0.199   0.420   8.644 -0.4219  0.0715  0.1731
 2219SOL    HW118116   0.194   0.327   8.663 -0.9597  0.1076  0.2169
 2219SOL    HW218117   0.105   0.437   8.649 -0.5997 -0.1432 -2.7131
 2220SOL     OW18118   1.613   3.395   0.395  0.4464  0.2542 -0.2696
 2220SOL    HW118119   1.528   3.365   0.426  0.0513  0.7051 -0.9247
 2220SOL    HW218120   1.596   3.461   0.328 -0.8249  1.8734  1.6334
 2221SOL     OW18121   2.563   4.158   0.404 -0.8533 -0.3378  0.1079
 2221SOL    HW118122   2.579   4.246   0.440 -0.5109  0.3177 -1.6630
 2221SOL    HW218123   2.654   4.140   0.379 -0.5667 -1.0525  1.6419
 2222SOL     OW18124   4.595   0.030   1.574  0.1269 -0.3584  0.4438
 2222SOL    HW118125   4.550   0.082   1.509  1.0614  1.1197  0.9768
 2222SOL    HW218126   4.687   0.051   1.558  0.1477 -0.8202 -0.0681
 2223SOL     OW18127   4.208   0.914   3.793 -0.3453 -0.5667 -0.7780
 2223SOL    HW118128   4.204   0.823   3.765 -2.7447 -0.8060  0.3829
 2223SOL    HW218129   4.255   0.944   3.716  1.8969  0.1761  0.8529
 2224SOL     OW18130   4.342   2.981   6.984  0.1449  0.2055  0.0360
 2224SOL    HW118131   4.323   2.928   7.061 -2.3280  1.3875  0.2408
 2224SOL    HW218132   4.344   3.072   7.014  0.7150 -0.2025  1.2246
 2225SOL     OW18133   3.473   0.508   5.632 -0.0981  0.1603  0.4304
 2225SOL    HW118134   3.565   0.531   5.642  0.8856 -3.2377 -1.0093
 2225SOL    HW218135   3.445   0.576   5.570 -2.4080 -0.5360  0.7016
 2226SOL     OW18136   1.193   0.050  11.806 -0.3456 -0.3227  0.4882
 2226SOL    HW118137   1.269   4.715  11.803  0.2375  0.6037 -2.7455
 2226SOL    HW218138   1.234   0.135  11.796 -2.7522  0.6725 -1.0375
 2227SOL     OW18139   1.561   4.074  13.238  0.8247  0.4854 -0.0045
 2227SOL    HW118140   1.498   4.030  13.296  0.5029  1.3767  0.3146
 2227SOL    HW218141   1.519   4.065  13.152 -1.8654  0.5777  1.3031
 2228SOL     OW18142   1.637   0.331   3.368  0.1461 -0.2696 -0.3467
 2228SOL    HW118143   1.646   0.420   3.403 -2.6623  0.0788 -0.4770
 2228SOL    HW218144   1.690   0.331   3.288 -0.1801 -0.4879 -0.5669
 2229SOL     OW18145   0.677   2.243   9.482  0.2509  0.2603  0.0809
 2229SOL    HW118146   0.595   2.266   9.438 -0.1409 -3.9862 -1.4263
 2229SOL    HW218147   0.653   2.157   9.516 -2.6318  0.7840 -0.5887
 2230SOL     OW18148   2.682   3.258   3.971 -0.0356 -0.3246  0.1997
 2230SOL    HW118149   2.599   3.264   3.924  0.4925 -0.0922 -0.7097
 2230SOL    HW218150   2.666   3.187   4.034  1.2573 -0.3125  0.5493
 2231SOL     OW18151   0.129   0.641   1.772  0.1467  0.1944 -0.0997
 2231SOL    HW118152   0.072   0.600   1.707  0.7308 -0.6175 -0.1039
 2231SOL    HW218153   0.190   0.684   1.713  0.9231  0.5799  0.9916
 2232SOL     OW18154   4.640   2.061   1.676  1.0219  0.1630 -0.1068
 2232SOL    HW118155   4.711   2.048   1.613  1.7408 -2.1686  1.1977
 2232SOL    HW218156   4.578   1.991   1.656  0.3427  1.2934 -1.9212
 2233SOL     OW18157   0.669   3.235  16.912  0.1340  0.3783 -0.0379
 2233SOL    HW118158   0.747   3.250  16.858 -0.4451  1.9123 -0.4355
 2233SOL    HW218159   0.685   3.144  16.936 -1.2143  0.1077 -0.1590
 2234SOL     OW18160   2.625   1.949   7.089  0.2735  0.4865 -0.1180
 2234SOL    HW118161   2.575   1.878   7.129 -1.5848  2.1736  0.5682
 2234SOL    HW218162   2.674   1.904   7.020  0.7482 -1.5319  1.5446
 2235SOL     OW18163   1.772   3.861   9.419 -0.0234 -0.1618 -0.0213
 2235SOL    HW118164   1.823   3.927   9.465  1.3890 -0.6309 -0.9321
 2235SOL    HW218165   1.738   3.806   9.490 -1.8649  0.2080 -0.6061
 2236SOL     OW18166   4.254   2.323   8.748 -0.6812  0.1449  0.3395
 2236SOL    HW118167   4.242   2.367   8.664 -0.1908 -0.7030 -0.1651
 2236SOL    HW218168   4.172   2.275   8.754 -0.1269 -0.7296  0.8851
 2237SOL     OW18169   3.769   3.256   9.112  0.0015 -0.0837  0.0496
 2237SOL    HW118170   3.712   3.179   9.121 -1.1853  0.5230 -2.0871
 2237SOL    HW218171   3.773   3.258   9.016 -1.7152 -0.0791 -0.0323
 2238SOL     OW18172   3.941   4.550   6.333  0.0039  0.1636 -0.4391
 2238SOL    HW118173   4.003   4.495   6.285  0.3233  0.3891 -0.2886
 2238SOL    HW218174   4.005   4.579   6.398 -0.3949  1.3005 -0.5576
 2239SOL     OW18175   0.297   1.665   6.111  0.0629  0.2440  0.0261
 2239SOL    HW118176   0.350   1.693   6.036  3.6257 -1.5343  1.9143
 2239SOL    HW218177   0.315   1.737   6.172  0.1663 -0.2943  0.6249
 2240SOL     OW18178   3.818   2.588  11.747 -0.3310  0.8395  0.1641
 2240SOL    HW118179   3.725   2.570  11.756 -0.2534 -0.3185 -1.2717
 2240SOL    HW218180   3.851   2.529  11.815 -0.1262 -1.0046 -1.4992
 2241SOL     OW18181   3.728   3.699   2.002 -0.1384  0.3125  0.1325
 2241SOL    HW118182   3.821   3.675   2.009 -0.5963 -0.7593  2.1628
 2241SOL    HW218183   3.701   3.644   1.928  1.4813  2.8070 -2.3062
 2242SOL     OW18184   2.805   0.176  11.255 -0.7761 -0.4525 -0.5732
 2242SOL    HW118185   2.846   0.226  11.325 -0.0044 -0.2268 -1.1847
 2242SOL    HW218186   2.722   0.179  11.302  0.0355 -1.3836  0.9254
 2243SOL     OW18187   0.479   4.065  12.982  0.5164 -0.4685 -0.3138
 2243SOL    HW118188   0.508   4.010  12.909  0.7076  2.6869 -2.6095
 2243SOL    HW218189   0.477   4.152  12.942 -1.0264 -0.2181  0.3044
 2244SOL     OW18190   0.718   2.488   4.196 -0.0007 -0.1421  0.3380
 2244SOL    HW118191   0.810   2.512   4.185 -0.0718 -0.7251 -1.5859
 2244SOL    HW218192   0.696   2.495   4.103 -2.4144  0.4423  0.9523
 2245SOL     OW18193   1.653   2.493   4.075 -0.3947 -0.3349 -0.0281
 2245SOL    HW118194   1.705   2.421   4.039  0.1448 -0.6303  1.3563
 2245SOL    HW218195   1.716   2.564   4.079 -0.1597 -0.5849  0.6905
 2246SOL     OW18196   1.533   1.514   9.991 -0.7061 -0.2152 -0.7084
 2246SOL    HW118197   1.493   1.499  10.077  2.0736 -0.1071  0.6221
 2246SOL    HW218198   1.607   1.460  10.018 -1.6890 -0.8597  0.7165
 2247SOL     OW18199   3.597   2.931   7.216 -0.3702  0.5171  0.4224
 2247SOL    HW118200   3.619   3.022   7.199  0.3239  0.1671 -0.5622
 2247SOL    HW218201   3.567   2.893   7.133 -1.4610  1.2954  0.4648
 2248SOL     OW18202   2.257   4.398   3.329 -0.2444  0.1649 -0.8170
 2248SOL    HW118203   2.279   4.441   3.246 -0.5523 -0.7281 -1.3645
 2248SOL    HW218204   2.319   4.325   3.326  0.3729  0.5948  1.6646
 2249SOL     OW18205   2.058   1.675   6.592 -0.7344  0.2259 -0.3235
 2249SOL    HW118206   2.147   1.685   6.626 -0.3874  0.1574 -1.1977
 2249SOL    HW218207   2.021   1.593   6.623 -1.1498  0.1004 -1.1426
 2250SOL     OW18208   4.269   4.394   6.777 -0.1242 -0.5970 -0.2911
 2250SOL    HW118209   4.190   4.380   6.724 -1.5507 -1.6478  2.0939
 2250SOL    HW218210   4.290   4.308   6.813  0.5958  0.0842  0.9252
 2251SOL     OW18211   0.330   3.218  13.880  0.2260  0.2879 -0.4466
 2251SOL    HW118212   0.329   3.158  13.954  0.7079 -2.4000 -2.5810
 2251SOL    HW218213   0.401   3.278  13.899 -0.3650 -0.1151  2.9831
 2252SOL     OW18214   0.993   2.874   8.278 -0.2064 -0.4763  0.0225
 2252SOL    HW118215   0.948   2.884   8.194  1.1909  2.7402 -0.3084
 2252SOL    HW218216   0.976   2.963   8.306  2.5929  0.9514 -2.8167
 2253SOL     OW18217   0.476   3.751  13.173  0.2704  0.3789  0.6737
 2253SOL    HW118218   0.478   3.721  13.264  0.9615 -0.1085  0.4927
 2253SOL    HW218219   0.429   3.679  13.130  0.1417  0.5568  0.5205
 2254SOL     OW18220   0.170   1.587   2.785  0.2282 -0.0252 -0.2228
 2254SOL    HW118221   0.239   1.651   2.799  0.3699 -0.5564  1.5294
 2254SOL    HW218222   0.131   1.616   2.702  0.6089  0.3511 -0.2708
 2255SOL     OW18223   3.985   3.026   3.343 -0.0854 -0.3289  0.0226
 2255SOL    HW118224   3.932   3.014   3.264  1.0274 -3.2181 -0.2920
 2255SOL    HW218225   4.038   2.948   3.354  0.8970  0.6505  2.1511
 2256SOL     OW18226   4.037   1.737   2.286 -0.4730 -0.0723 -0.2537
 2256SOL    HW118227   3.983   1.816   2.281  0.7447  0.5873 -2.7732
 2256SOL    HW218228   4.044   1.725   2.192 -1.8426 -3.6464  0.0930
 2257SOL     OW18229   4.172   1.502   5.228 -0.2335  0.0062  0.1533
 2257SOL    HW118230   4.098   1.461   5.184  0.6920  0.2884 -1.6706
 2257SOL    HW218231   4.178   1.576   5.168  0.2460 -1.4443 -1.5917
 2258SOL     OW18232   1.606   4.636   7.195  0.0788 -0.0160 -0.4878
 2258SOL    HW118233   1.666   4.642   7.121 -2.0430  0.9094 -2.1431
 2258SOL    HW218234   1.584   0.006   7.199  0.8976  0.1772 -0.5215
 2259SOL     OW18235   3.911   2.506   4.390  0.1327  0.5127  0.0142
 2259SOL    HW118236   3.919   2.414   4.364  0.7952  0.6964 -0.4144
 2259SOL    HW218237   3.945   2.556   4.316  2.3049 -2.6507 -1.1292
 2260SOL     OW18238   1.644   0.198   6.871 -0.4194  0.3804  0.0799
 2260SOL    HW118239   1.590   0.248   6.810  2.2399  0.7411 -2.0060
 2260SOL    HW218240   1.603   0.218   6.955 -1.2052  0.6675 -0.3708
 2261SOL     OW18241   3.141   2.387  10.902  0.6853 -0.1789  0.4586
 2261SOL    HW118242   3.137   2.470  10.854  0.1182 -1.1087 -1.0892
 2261SOL    HW218243   3.127   2.418  10.992  1.0819 -2.0938  1.1653
 2262SOL     OW18244   0.021   0.812  16.648 -0.1048  0.0860  0.0406
 2262SOL    HW118245   0.081   0.826  16.721 -1.5935 -0.8848  1.4640
 2262SOL    HW218246   4.717   0.903  16.638 -0.5503 -0.1076 -0.4879
 2263SOL     OW18247   1.729   0.676   8.743 -0.4301  0.2979  0.9971
 2263SOL    HW118248   1.785   0.753   8.756  1.2455 -0.6950 -0.4214
 2263SOL    HW218249   1.766   0.649   8.659  0.4345  2.2861  0.7374
 2264SOL     OW18250   2.255   0.202  17.625 -0.2379  0.2036 -1.1689
 2264SOL    HW118251   2.196   0.260  17.673 -0.5469 -0.6650 -0.5032
 2264SOL    HW218252   2.333   0.255  17.639  0.1732 -0.5342 -0.6624
 2265SOL     OW18253   1.795   2.391   8.554 -0.5466 -0.2721 -0.0706
 2265SOL    HW118254   1.851   2.463   8.582 -3.4944  2.3588 -1.0207
 2265SOL    HW218255   1.710   2.430   8.570  1.2851  1.7108  4.6987
 2266SOL     OW18256   1.414   3.542  17.399 -0.2039  0.2431 -0.7102
 2266SOL    HW118257   1.350   3.576  17.462  1.5468 -0.1054  1.2712
 2266SOL    HW218258   1.356   3.495  17.339  0.9825 -1.5912 -0.4227
 2267SOL     OW18259   1.556   0.143  17.193  0.8992  0.2132 -0.1334
 2267SOL    HW118260   1.504   0.139  17.273 -0.5040 -0.7037 -1.0877
 2267SOL    HW218261   1.645   0.148  17.228  0.5821  0.9268  0.5497
 2268SOL     OW18262   2.621   3.297   5.128  0.0843 -0.3732 -0.0286
 2268SOL    HW118263   2.562   3.243   5.180 -1.3119 -0.1954 -1.4461
 2268SOL    HW218264   2.576   3.381   5.123 -3.4253 -2.1409  1.9229
 2269SOL     OW18265   1.996   1.741   6.336  0.0849 -0.0375 -0.1079
 2269SOL    HW118266   1.950   1.825   6.344 -1.6776 -1.0901  0.8705
 2269SOL    HW218267   2.023   1.726   6.426 -0.7681 -0.4552  0.0753
 2270SOL     OW18268   2.755   3.156   5.401 -0.3373  0.2056 -0.7528
 2270SOL    HW118269   2.727   3.218   5.335  1.5177 -1.2117 -2.8566
 2270SOL    HW218270   2.807   3.206   5.463 -1.1765 -0.2942  0.3706
 2271SOL     OW18271   3.049   1.794   2.694  0.2574  0.1726  0.1641
 2271SOL    HW118272   3.131   1.758   2.660 -0.5115 -1.0371 -0.4148
 2271SOL    HW218273   3.027   1.864   2.632  0.8244  0.9465  0.8362
 2272SOL     OW18274   3.258   3.807   7.748 -0.0037  0.2902  0.2719
 2272SOL    HW118275   3.233   3.732   7.801 -2.5709  2.4156  2.0678
 2272SOL    HW218276   3.174   3.850   7.730  0.4308  0.1115 -2.1330
 2273SOL     OW18277   1.771   3.433  11.178 -0.1997 -0.6197  0.1053
 2273SOL    HW118278   1.798   3.503  11.119  0.6342  0.3894  1.6986
 2273SOL    HW218279   1.789   3.476  11.262  0.1873 -0.7859  0.1074
 2274SOL     OW18280   2.764   2.356  11.977  0.7952 -0.1501  0.0273
 2274SOL    HW118281   2.778   2.401  11.893  0.8124 -3.6459 -1.8656
 2274SOL    HW218282   2.694   2.399  12.026 -0.6293 -2.8760  0.3556
 2275SOL     OW18283   1.908   3.356  15.192  0.0118 -0.4092  0.2131
 2275SOL    HW118284   1.939   3.356  15.102 -1.4699 -0.7703 -0.2979
 2275SOL    HW218285   1.816   3.367  15.169 -0.0106  1.8349  1.3402
 2276SOL     OW18286   1.206   3.893  17.195  0.8354  0.0094 -0.2091
 2276SOL    HW118287   1.149   3.946  17.250 -2.6085 -0.3989 -3.3807
 2276SOL    HW218288   1.147   3.820  17.177  0.2101 -0.0020  1.8675
 2277SOL     OW18289   3.891   3.254   1.960  0.0845 -0.1291  0.1942
 2277SOL    HW118290   3.834   3.307   2.015 -0.6513  0.3031 -0.9874
 2277SOL    HW218291   3.951   3.222   2.028 -1.8537  1.0842  2.4671
 2278SOL     OW18292   3.502   3.171   7.557  0.1857 -0.2543  0.8228
 2278SOL    HW118293   3.535   3.259   7.541  0.9746 -0.8240 -0.6403
 2278SOL    HW218294   3.580   3.119   7.535  0.3031  0.5588 -0.6121
 2279SOL     OW18295   2.757   1.626   6.576 -0.1029  0.0769 -0.2073
 2279SOL    HW118296   2.691   1.640   6.509  0.9531 -1.1421 -1.4830
 2279SOL    HW218297   2.785   1.537   6.554 -3.0535 -0.8122 -0.3223
 2280SOL     OW18298   2.292   3.699  14.989  0.3876 -0.3951 -0.0517
 2280SOL    HW118299   2.221   3.665  14.935 -0.5798 -1.5010  1.9203
 2280SOL    HW218300   2.271   3.792  14.979  1.1313 -0.1140  1.0220
 2281SOL     OW18301   3.467   2.022   1.263 -0.1365 -0.5697  0.3071
 2281SOL    HW118302   3.484   2.092   1.200 -1.1548  0.0530  0.7215
 2281SOL    HW218303   3.539   1.961   1.251 -0.4160 -0.5042 -1.5834
 2282SOL     OW18304   0.512   4.308   5.051 -0.4650  0.8220 -0.3126
 2282SOL    HW118305   0.593   4.291   5.100 -1.8812 -3.1626  0.6614
 2282SOL    HW218306   0.539   4.381   4.996  1.0767  0.8441  0.4690
 2283SOL     OW18307   2.930   2.063   6.875  0.2417  0.0126  0.0117
 2283SOL    HW118308   2.936   2.037   6.783 -2.3736 -1.7977  0.3542
 2283SOL    HW218309   3.023   2.082   6.885 -0.4175  2.1514  1.9752
 2284SOL     OW18310   0.774   1.829   8.989  0.2553  0.3930  0.6114
 2284SOL    HW118311   0.706   1.844   8.923 -0.2164  0.9619  1.2251
 2284SOL    HW218312   0.778   1.910   9.040 -2.2928  0.6583  0.4209
 2285SOL     OW18313   0.495   3.761   0.785  0.0917 -0.0835  0.2220
 2285SOL    HW118314   0.404   3.759   0.754  0.0660 -1.3015  0.3667
 2285SOL    HW218315   0.481   3.783   0.877  2.8519  0.9713  0.3817
 2286SOL     OW18316   0.910   3.699   5.928 -0.3620 -0.3911  0.0279
 2286SOL    HW118317   0.982   3.655   5.974 -0.5637 -0.3271  0.4085
 2286SOL    HW218318   0.911   3.640   5.853  1.0528 -0.9179  0.4628
 2287SOL     OW18319   3.287   1.485  14.866 -0.7021 -0.1133 -0.4039
 2287SOL    HW118320   3.306   1.421  14.798  1.3303 -0.8753  0.8529
 2287SOL    HW218321   3.217   1.536  14.826 -1.3281 -0.7635 -0.1307
 2288SOL     OW18322   1.895   2.632   8.545  0.9678 -0.5457 -0.0810
 2288SOL    HW118323   1.986   2.631   8.575  0.3523  0.4034  1.8469
 2288SOL    HW218324   1.868   2.721   8.569  2.5373  0.2032 -1.0698
 2289SOL     OW18325   4.392   2.415  13.293  0.0419 -0.3625  0.0336
 2289SOL    HW118326   4.435   2.483  13.345  0.3542  2.8025 -4.3642
 2289SOL    HW218327   4.337   2.372  13.359  1.2557 -1.3935  0.3623
 2290SOL     OW18328   1.615   1.535   3.555 -0.3771  0.1147 -0.6761
 2290SOL    HW118329   1.541   1.594   3.540 -0.2286  0.2344 -0.9547
 2290SOL    HW218330   1.661   1.594   3.615 -0.6916  0.1304 -0.4557
 2291SOL     OW18331   3.373   1.684  16.988  0.3425 -0.2951  0.2084
 2291SOL    HW118332   3.329   1.612  16.941  0.0940 -0.9451  1.4523
 2291SOL    HW218333   3.337   1.753  16.933 -2.6181 -0.3051  2.1249
 2292SOL     OW18334   2.954   1.941   1.935 -0.1785 -0.5422 -0.0991
 2292SOL    HW118335   2.904   1.923   1.856 -0.6773 -0.2448  0.1505
 2292SOL    HW218336   2.877   1.956   1.990  0.6033  0.0428  0.8397
 2293SOL     OW18337   0.556   0.371   3.583  0.2983 -0.3821 -0.1773
 2293SOL    HW118338   0.586   0.460   3.600 -1.8011  0.3395 -0.2622
 2293SOL    HW218339   0.613   0.341   3.513 -0.4400 -0.2689 -0.8225
 2294SOL     OW18340   3.388   3.718  16.271 -0.6176 -0.5779  0.2481
 2294SOL    HW118341   3.429   3.665  16.340  1.9438  0.2054 -0.6595
 2294SOL    HW218342   3.319   3.772  16.309  0.3568  1.9156 -1.5063
 2295SOL     OW18343   4.542   0.692  12.913  0.4638  0.0920 -0.1159
 2295SOL    HW118344   4.632   0.664  12.926  0.5452  0.4102  0.0133
 2295SOL    HW218345   4.538   0.751  12.988 -1.5782  0.3087 -0.3881
 2296SOL     OW18346   4.424   2.679   5.584  0.6646  0.2759 -0.1078
 2296SOL    HW118347   4.359   2.748   5.575  1.8950  1.6965  1.9060
 2296SOL    HW218348   4.396   2.623   5.511  0.7686  0.0588  0.0203
 2297SOL     OW18349   0.252   2.602  14.475 -0.3780 -0.4575  0.3355
 2297SOL    HW118350   0.183   2.667  14.488  0.6716  0.9163 -1.0177
 2297SOL    HW218351   0.319   2.667  14.453  2.2608 -2.7973  1.3726
 2298SOL     OW18352   0.523   0.982   8.579  0.0431  0.4974 -0.1930
 2298SOL    HW118353   0.605   0.988   8.629 -0.8451  1.6211  1.1468
 2298SOL    HW218354   0.496   0.893   8.601  1.0541  0.4027  0.6788
 2299SOL     OW18355   2.075   4.539   8.300  0.0043  0.5303 -0.3217
 2299SOL    HW118356   1.995   4.524   8.250 -0.1383  2.3977 -0.6715
 2299SOL    HW218357   2.136   4.549   8.227  0.7615  0.5744  0.3177
 2300SOL     OW18358   3.256   2.565   6.840 -0.2799  0.8192 -0.3355
 2300SOL    HW118359   3.280   2.643   6.791  2.4514  1.5448  2.1101
 2300SOL    HW218360   3.171   2.546   6.801  0.1873 -0.6871 -0.6514
 2301SOL     OW18361   0.754   2.548   4.828 -0.3319 -0.3409 -0.6344
 2301SOL    HW118362   0.842   2.579   4.807 -0.0407 -0.0229  1.0114
 2301SOL    HW218363   0.700   2.590   4.761 -0.7660 -1.0977 -0.7651
 2302SOL     OW18364   3.325   2.697   7.139  0.6177  0.2732  0.3145
 2302SOL    HW118365   3.351   2.626   7.080  1.6824  1.2382 -0.3883
 2302SOL    HW218366   3.353   2.774   7.089 -0.7066  0.9373  0.6110
 2303SOL     OW18367   1.783   2.698  16.409 -0.4294  0.0502 -0.1255
 2303SOL    HW118368   1.786   2.605  16.386  0.0859 -0.0892  0.5147
 2303SOL    HW218369   1.734   2.702  16.491 -1.5210 -2.0121 -0.6865
 2304SOL     OW18370   1.311   2.964   8.238 -0.4004 -0.1959  0.7940
 2304SOL    HW118371   1.379   2.940   8.176  0.0977 -0.3720  1.4095
 2304SOL    HW218372   1.243   2.995   8.178  0.2336 -0.1463  0.1174
 2305SOL     OW18373   2.869   4.562   8.662 -0.2551 -0.3319 -0.0356
 2305SOL    HW118374   2.787   4.605   8.636 -0.5402 -1.1496 -0.4845
 2305SOL    HW218375   2.851   4.542   8.754  1.2305  0.2360  0.3794
 2306SOL     OW18376   2.744   3.941   8.939  0.4798 -0.3824 -0.6249
 2306SOL    HW118377   2.696   3.889   9.003  2.1025 -0.1593  0.7691
 2306SOL    HW218378   2.790   4.007   8.991 -2.4423  0.5242  0.7713
 2307SOL     OW18379   2.217   4.375   4.140 -0.1055 -0.3886 -0.0189
 2307SOL    HW118380   2.227   4.282   4.161  2.0265 -0.2192 -0.2792
 2307SOL    HW218381   2.168   4.376   4.057 -0.6878  0.4396  0.3269
 2308SOL     OW18382   1.690   2.887   3.981 -0.0714 -0.2589 -0.0852
 2308SOL    HW118383   1.699   2.980   3.961  0.2068 -0.2068  0.2743
 2308SOL    HW218384   1.631   2.899   4.055 -1.7723 -1.0380 -1.3183
 2309SOL     OW18385   1.928   2.385   0.769 -0.4110 -0.1501 -0.2796
 2309SOL    HW118386   1.959   2.347   0.687 -2.3793 -2.1832 -0.1036
 2309SOL    HW218387   1.986   2.338   0.829 -2.2279 -1.5461  0.3847
 2310SOL     OW18388   2.359   3.373   2.641  0.5347  0.3272  0.2174
 2310SOL    HW118389   2.287   3.399   2.584 -0.3050 -0.3597  0.9602
 2310SOL    HW218390   2.428   3.350   2.578 -0.9049  2.5072 -2.1524
 2311SOL     OW18391   3.757   2.637   3.044 -0.1440 -0.2827 -0.2081
 2311SOL    HW118392   3.804   2.554   3.038  0.6552  0.0932  0.8312
 2311SOL    HW218393   3.679   2.612   2.994 -0.0661 -0.2438 -0.3483
 2312SOL     OW18394   0.091   2.161   5.340 -0.1797 -0.2485  0.0989
 2312SOL    HW118395   0.161   2.188   5.280  0.7986 -2.8964  0.0259
 2312SOL    HW218396   0.015   2.152   5.282  0.5809  1.1871 -1.1122
 2313SOL     OW18397   2.570   0.255   2.519  0.0611 -0.2869 -0.1942
 2313SOL    HW118398   2.487   0.226   2.480 -2.2691  2.6413  2.5431
 2313SOL    HW218399   2.561   0.350   2.522 -2.1730 -0.4489 -1.6670
 2314SOL     OW18400   3.176   3.874  16.368 -0.1100 -0.0012  0.0597
 2314SOL    HW118401   3.089   3.840  16.353  1.2002 -2.2826 -2.1886
 2314SOL    HW218402   3.167   3.913  16.455  0.4088  1.4529 -0.5286
 2315SOL     OW18403   4.502   4.339   4.585 -0.0346 -0.0583  0.3379
 2315SOL    HW118404   4.470   4.274   4.522 -0.0266 -0.7082  0.9905
 2315SOL    HW218405   4.596   4.321   4.588  0.1186  0.4627 -1.3628
 2316SOL     OW18406   0.648   2.050   1.614  0.1347 -0.1337 -0.3675
 2316SOL    HW118407   0.635   1.957   1.593 -4.5607  0.3749  0.3645
 2316SOL    HW218408   0.734   2.072   1.578  0.3539  0.7534  0.6898
 2317SOL     OW18409   0.554   2.677   7.707 -0.0177 -0.4588  0.3091
 2317SOL    HW118410   0.468   2.638   7.722 -0.6492 -0.2840 -3.0182
 2317SOL    HW218411   0.608   2.598   7.701 -0.4019 -0.6074 -1.1186
 2318SOL     OW18412   0.062   1.015  10.716  0.9048 -0.1372 -0.4590
 2318SOL    HW118413   0.120   1.085  10.684 -1.4967  1.4544 -1.2812
 2318SOL    HW218414   0.065   1.043  10.808 -2.6186 -1.8961  0.1974
 2319SOL     OW18415   0.249   1.132   3.889  0.3496 -0.5833 -0.1142
 2319SOL    HW118416   0.200   1.051   3.904  1.7635 -1.9361 -2.9224
 2319SOL    HW218417   0.244   1.137   3.794 -0.5770  0.2153 -0.0266
 2320SOL     OW18418   2.120   4.124   5.250 -0.5175  0.0227  0.1994
 2320SOL    HW118419   2.115   4.212   5.213 -4.2014  0.6523  2.1476
 2320SOL    HW218420   2.207   4.121   5.291 -0.8064  0.9116  0.8915
 2321SOL     OW18421   4.036   4.113   9.106  0.2174 -0.0147 -0.1706
 2321SOL    HW118422   3.999   4.119   9.018 -0.0125 -2.0836 -0.2185
 2321SOL    HW218423   3.973   4.058   9.152 -1.5090 -0.2675 -2.8896
 2322SOL     OW18424   3.570   3.896   2.051 -0.8118  0.8155  0.1056
 2322SOL    HW118425   3.638   3.956   2.019  0.2234  0.0318  0.8550
 2322SOL    HW218426   3.621   3.815   2.050 -0.4818  1.0282 -0.7657
 2323SOL     OW18427   0.023   4.430   3.419  0.3817  0.0303  0.1564
 2323SOL    HW118428   0.092   4.374   3.454 -0.2835  0.6019  2.3402
 2323SOL    HW218429   0.031   4.416   3.324 -1.2682 -0.4183  0.0814
 2324SOL     OW18430   2.727   0.457   0.815  0.1358 -0.1981 -0.7896
 2324SOL    HW118431   2.747   0.480   0.725 -0.6398 -1.0575 -1.1870
 2324SOL    HW218432   2.802   0.398   0.821  0.2031 -0.2281 -1.9925
 2325SOL     OW18433   3.515   4.262   7.573  0.9431 -0.2768  0.3452
 2325SOL    HW118434   3.592   4.309   7.540  1.5069  1.3414  3.9493
 2325SOL    HW218435   3.519   4.189   7.511 -1.5774 -2.6458  3.0075
 2326SOL     OW18436   2.503   3.043   4.035  0.0472  0.0463 -0.2955
 2326SOL    HW118437   2.468   3.015   3.951  0.3489  1.1417 -0.7850
 2326SOL    HW218438   2.425   3.028   4.087  1.0557 -1.1973  0.8765
 2327SOL     OW18439   1.743   1.690   7.915 -0.0483 -0.3215  0.2729
 2327SOL    HW118440   1.805   1.628   7.953 -0.3286 -2.2849 -2.4673
 2327SOL    HW218441   1.711   1.730   7.995 -1.4423  1.9823 -1.4325
 2328SOL     OW18442   3.140   3.294  10.816  0.4045 -0.9790 -0.1898
 2328SOL    HW118443   3.215   3.340  10.778  0.2819  1.4191  2.4696
 2328SOL    HW218444   3.091   3.274  10.737  0.7365  4.1670 -1.7279
 2329SOL     OW18445   1.859   3.885   3.055  0.1802 -0.3141  0.6558
 2329SOL    HW118446   1.823   3.970   3.028 -0.4270 -0.3649  1.3084
 2329SOL    HW218447   1.952   3.904   3.066 -0.1649  1.2651  0.8445
 2330SOL     OW18448   0.487   2.984   7.989  0.3162  0.4993  0.2269
 2330SOL    HW118449   0.554   2.916   7.984 -1.2625 -0.8854 -1.9926
 2330SOL    HW218450   0.445   2.990   7.903 -0.2005  3.2772  0.6617
 2331SOL     OW18451   1.286   1.889   2.382 -1.2327  0.3977  0.1380
 2331SOL    HW118452   1.335   1.905   2.300 -2.7461 -0.8886 -1.0028
 2331SOL    HW218453   1.264   1.799   2.403 -2.5856  0.6336 -0.2670
 2332SOL     OW18454   0.733   0.639  11.385  0.1643 -0.1638  0.3562
 2332SOL    HW118455   0.646   0.615  11.416 -0.6423  1.9961 -0.1925
 2332SOL    HW218456   0.793   0.587  11.438 -0.0188 -0.6622  0.0759
 2333SOL     OW18457   1.069   1.005   8.724 -0.4163  0.7933 -0.0192
 2333SOL    HW118458   1.104   0.938   8.664  2.8063 -0.9904  3.8332
 2333SOL    HW218459   1.127   0.994   8.799 -1.0630 -3.2188 -0.0849
 2334SOL     OW18460   1.199   0.647   6.939 -0.1312 -0.7342  0.2094
 2334SOL    HW118461   1.149   0.599   7.005  1.1359 -4.9509 -1.8395
 2334SOL    HW218462   1.270   0.684   6.991 -0.0243 -0.2672 -0.2656
 2335SOL     OW18463   3.922   2.586   8.749  0.4623  0.0557 -0.0786
 2335SOL    HW118464   3.845   2.610   8.801  1.1669 -3.9194  2.7750
 2335SOL    HW218465   3.897   2.503   8.710 -0.7435 -0.2031  1.2698
 2336SOL     OW18466   1.224   3.436   9.411 -0.2243 -0.3927 -0.5491
 2336SOL    HW118467   1.238   3.377   9.485 -0.2271 -1.1334 -1.1270
 2336SOL    HW218468   1.223   3.522   9.453 -1.6509 -0.3777 -0.6256
 2337SOL     OW18469   2.761   3.536   8.312 -0.2672  0.1652  0.1443
 2337SOL    HW118470   2.666   3.535   8.300  0.0437  1.2243 -2.4036
 2337SOL    HW218471   2.780   3.447   8.281  0.9844  0.3718  0.3170
 2338SOL     OW18472   1.449   2.137   6.695 -0.0174 -0.2708 -0.3863
 2338SOL    HW118473   1.398   2.218   6.687 -0.5355 -0.7297 -1.7120
 2338SOL    HW218474   1.534   2.172   6.721 -0.6865  0.0650  1.2842
 2339SOL     OW18475   3.709   4.113   7.456  0.1428  0.3760 -0.6827
 2339SOL    HW118476   3.785   4.060   7.430 -0.3555 -1.1934  1.0058
 2339SOL    HW218477   3.693   4.167   7.379  0.2546  1.1151 -0.1824
 2340SOL     OW18478   2.745   2.056  12.246 -0.0179  0.1178  0.0242
 2340SOL    HW118479   2.832   2.032  12.215  1.0817  0.3380  2.9929
 2340SOL    HW218480   2.748   2.016  12.333  1.2240 -1.5113 -0.7641
 2341SOL     OW18481   1.681   3.779   1.721 -0.1523  0.3547  0.4195
 2341SOL    HW118482   1.676   3.790   1.626  2.1798  0.3464  0.3003
 2341SOL    HW218483   1.638   3.860   1.749 -0.9778  0.0836 -0.0605
 2342SOL     OW18484   0.975   1.346  12.181  0.1314  0.4821  0.1889
 2342SOL    HW118485   1.038   1.274  12.193 -0.3792  0.1526  0.8932
 2342SOL    HW218486   0.891   1.301  12.170 -0.5140  1.4367  1.2403
 2343SOL     OW18487   2.808   4.356   1.096  0.3566 -0.2857 -0.2031
 2343SOL    HW118488   2.788   4.268   1.063 -1.5292  0.0441  0.0338
 2343SOL    HW218489   2.814   4.392   1.008 -0.9735  0.6533  0.0974
 2344SOL     OW18490   2.957   2.618   0.591 -0.5605  0.5786  0.3011
 2344SOL    HW118491   2.879   2.563   0.595  1.0947 -1.7177  0.7716
 2344SOL    HW218492   3.013   2.565   0.535 -0.5284  0.0740  0.8110
 2345SOL     OW18493   0.699   0.082   0.445 -0.0160 -0.1759  0.1419
 2345SOL    HW118494   0.764   0.145   0.475 -0.5644  0.2406  0.4423
 2345SOL    HW218495   0.759   0.011   0.420 -0.5250 -0.2041 -1.0270
 2346SOL     OW18496   4.323   3.878   8.593  0.4704 -0.1274 -0.0814
 2346SOL    HW118497   4.364   3.814   8.536 -0.1888 -0.4814 -0.1567
 2346SOL    HW218498   4.350   3.849   8.681 -1.3178 -0.4541  0.3612
 2347SOL     OW18499   1.291   1.008   5.767  0.4293 -0.2851  0.1235
 2347SOL    HW118500   1.216   0.950   5.753 -0.4279  0.3208  2.2501
 2347SOL    HW218501   1.250   1.092   5.746  1.3769  0.2147  0.2714
 2348SOL     OW18502   1.732   4.497   8.646  0.3057  0.0003  0.8272
 2348SOL    HW118503   1.817   4.516   8.688  0.3188  0.2679  0.6808
 2348SOL    HW218504   1.741   4.543   8.562 -0.8055  2.2453  1.9468
 2349SOL     OW18505   2.129   3.908  14.868  0.7203  0.1085 -0.1352
 2349SOL    HW118506   2.186   3.974  14.907  0.1245 -0.7478  2.1506
 2349SOL    HW218507   2.161   3.887  14.780  1.3284 -2.6790  0.7351
 2350SOL     OW18508   4.359   1.246   4.941 -0.5165  0.1370 -0.1560
 2350SOL    HW118509   4.415   1.324   4.940  1.3376 -1.2417 -1.2060
 2350SOL    HW218510   4.322   1.250   5.029 -0.0699  1.0556 -0.0098
 2351SOL     OW18511   1.710   1.141  11.938  0.2430 -0.2791  0.4686
 2351SOL    HW118512   1.706   1.208  11.869 -0.9114 -1.6409 -0.7931
 2351SOL    HW218513   1.717   1.195  12.016  1.0949  1.4177 -0.7843
 2352SOL     OW18514   3.844   3.766   1.517 -0.3700 -0.3822  0.4503
 2352SOL    HW118515   3.783   3.779   1.590 -1.0244 -1.2097  0.0613
 2352SOL    HW218516   3.808   3.833   1.459  0.1438 -0.7160 -0.2544
 2353SOL     OW18517   1.951   2.490   6.727  0.4263 -0.4280 -0.4546
 2353SOL    HW118518   1.880   2.548   6.754 -0.2767 -0.4247 -2.2639
 2353SOL    HW218519   1.945   2.420   6.791 -2.1687 -0.2860 -0.5459
 2354SOL     OW18520   1.878   1.503  12.710  0.3515 -1.0851  0.1639
 2354SOL    HW118521   1.834   1.587  12.723  0.1506 -1.3053  0.9500
 2354SOL    HW218522   1.852   1.465  12.626  0.4719 -0.8916  0.0432
 2355SOL     OW18523   3.681   2.847   5.011  0.1882 -0.5558 -0.0158
 2355SOL    HW118524   3.672   2.810   4.923 -0.3452 -1.1270  0.2767
 2355SOL    HW218525   3.688   2.939   4.983  1.2335 -0.0571  1.8734
 2356SOL     OW18526   0.555   3.101   3.281  0.2225 -0.0469 -0.3725
 2356SOL    HW118527   0.485   3.036   3.284 -0.2581  0.5222  0.6949
 2356SOL    HW218528   0.619   3.054   3.227 -1.4308 -0.4632 -1.9929
 2357SOL     OW18529   1.276   3.183  12.265 -0.2599  0.5274 -0.3742
 2357SOL    HW118530   1.220   3.134  12.324 -0.7692  0.1262 -1.1831
 2357SOL    HW218531   1.270   3.268  12.308 -2.3017  0.5774 -0.7828
 2358SOL     OW18532   1.674   4.169   5.921  0.0251  0.5005  0.1428
 2358SOL    HW118533   1.750   4.163   5.979 -0.8275 -0.5726  1.1285
 2358SOL    HW218534   1.713   4.220   5.849  0.3172  0.2157  0.1022
 2359SOL     OW18535   0.906   1.923  16.868  0.3323 -0.1989 -0.6100
 2359SOL    HW118536   0.979   1.972  16.830  1.5015 -0.8052  0.8952
 2359SOL    HW218537   0.842   1.928  16.797 -0.0648 -0.8146 -0.2969
 2360SOL     OW18538   0.958   1.366  13.639 -0.2619  0.4262  0.1217
 2360SOL    HW118539   1.043   1.402  13.614 -0.0380  1.4641  2.4157
 2360SOL    HW218540   0.913   1.445  13.669  0.1165  0.2392  1.1693
 2361SOL     OW18541   0.926   0.900   8.157  0.2601 -0.0726  0.3273
 2361SOL    HW118542   0.846   0.859   8.123  0.5183  0.5354 -1.0272
 2361SOL    HW218543   0.993   0.831   8.153  0.6389  0.3857 -1.5009
 2362SOL     OW18544   1.881   1.007   5.335 -0.0409  0.6821  0.0235
 2362SOL    HW118545   1.963   1.053   5.317 -0.1236  1.1503  0.8244
 2362SOL    HW218546   1.917   0.937   5.390 -1.8852  0.9441  1.5493
 2363SOL     OW18547   3.004   0.648   8.375 -0.4351  0.2317  0.2315
 2363SOL    HW118548   3.034   0.733   8.407  0.6970 -0.1825  0.2727
 2363SOL    HW218549   2.945   0.679   8.306  1.1411  0.4426 -1.0228
 2364SOL     OW18550   0.722   2.315   2.219 -0.0015  0.2226 -0.1403
 2364SOL    HW118551   0.708   2.398   2.264  0.3950  0.3500 -0.2463
 2364SOL    HW218552   0.812   2.319   2.185  0.3213 -0.2642  0.6284
 2365SOL     OW18553   2.826   3.785   6.426 -0.4852 -0.0894 -0.5112
 2365SOL    HW118554   2.897   3.750   6.372 -0.3511  2.1579 -1.7819
 2365SOL    HW218555   2.795   3.704   6.467 -0.6492 -0.0914 -0.6386
 2366SOL     OW18556   2.242   2.818  15.935 -0.1018  0.4157 -0.1292
 2366SOL    HW118557   2.150   2.829  15.961 -1.6842 -1.2819 -5.0202
 2366SOL    HW218558   2.240   2.873  15.857 -0.3195 -1.0945 -1.1925
 2367SOL     OW18559   2.033   1.185   8.808  0.0677  0.6690 -0.2938
 2367SOL    HW118560   1.953   1.192   8.756 -1.9985 -3.1829  2.3564
 2367SOL    HW218561   2.024   1.094   8.835 -0.8686  1.3937  1.8652
 2368SOL     OW18562   2.362   2.650   1.527  0.3019 -0.2862 -0.1704
 2368SOL    HW118563   2.314   2.640   1.610  0.4982 -0.9950 -0.1388
 2368SOL    HW218564   2.341   2.740   1.503 -0.7170  0.1401  2.2581
 2369SOL     OW18565   4.297   0.288   0.881 -0.0058 -0.3188  0.0644
 2369SOL    HW118566   4.237   0.361   0.894  0.3143 -0.2662  1.2806
 2369SOL    HW218567   4.353   0.324   0.812 -1.3378 -0.0324 -0.8703
 2370SOL     OW18568   3.305   0.590   1.141 -0.1560  0.0131 -0.3751
 2370SOL    HW118569   3.225   0.538   1.136  0.5685 -1.2483  1.1199
 2370SOL    HW218570   3.272   0.664   1.190 -2.9262 -2.0011  0.7979
 2371SOL     OW18571   3.087   0.474   2.532  0.3898  0.3228  0.4917
 2371SOL    HW118572   3.023   0.499   2.466  0.6007 -1.2683 -0.3073
 2371SOL    HW218573   3.121   0.556   2.568 -1.9400  2.5786 -2.4362
 2372SOL     OW18574   3.346   3.045  10.800 -0.4985 -0.3425 -0.2299
 2372SOL    HW118575   3.411   3.076  10.737 -0.1024  0.2882  0.4926
 2372SOL    HW218576   3.374   3.104  10.869 -0.2068 -0.4329 -0.2735
 2373SOL     OW18577   1.277   4.472   4.371  0.1686  0.8839 -0.3252
 2373SOL    HW118578   1.201   4.450   4.317  0.0933 -0.7700  0.4585
 2373SOL    HW218579   1.239   4.496   4.455 -0.1050  3.2469 -1.1008
 2374SOL     OW18580   3.389   0.315   7.707  0.5391 -0.7055  0.1316
 2374SOL    HW118581   3.468   0.364   7.730 -0.5769  1.2525 -0.2041
 2374SOL    HW218582   3.321   0.379   7.685  0.0686 -1.1757  0.1919
 2375SOL     OW18583   2.358   2.014  12.353 -0.1013 -0.5531 -0.0683
 2375SOL    HW118584   2.336   1.938  12.300 -0.7863  0.4330 -1.1969
 2375SOL    HW218585   2.424   2.057  12.299  2.8628 -0.5375  3.5564
 2376SOL     OW18586   0.778   3.168  11.238  0.2327 -0.5235 -0.5802
 2376SOL    HW118587   0.718   3.233  11.274  0.6836 -0.1183 -0.5637
 2376SOL    HW218588   0.833   3.163  11.317  0.7166  1.1745 -0.8031
 2377SOL     OW18589   2.502   3.197   5.530  0.1951  0.0824  0.0513
 2377SOL    HW118590   2.583   3.164   5.492 -0.2078 -1.8286  0.8597
 2377SOL    HW218591   2.526   3.195   5.622 -0.6618  1.0318  0.2934
 2378SOL     OW18592   4.195   1.171   7.522 -0.3023 -0.6057  0.0192
 2378SOL    HW118593   4.221   1.241   7.462 -0.3889 -0.7560 -0.1894
 2378SOL    HW218594   4.141   1.216   7.588 -0.3934 -2.2336  1.0568
 2379SOL     OW18595   1.545   2.075   3.669 -0.2075  0.2247 -0.4863
 2379SOL    HW118596   1.450   2.081   3.663 -0.5185 -2.5986  1.6132
 2379SOL    HW218597   1.571   2.081   3.576 -1.3770  1.1191 -0.7557
 2380SOL     OW18598   0.428   4.622   5.161 -0.2761  0.1320 -0.2411
 2380SOL    HW118599   0.508   4.572   5.178 -0.5001  1.1133  3.6341
 2380SOL    HW218600   0.362   4.556   5.182 -1.1226  0.7819 -0.8551
 2381SOL     OW18601   0.046   1.074  10.981  0.6766 -0.4641  0.0811
 2381SOL    HW118602   0.014   1.040  11.064 -2.2878  1.3999 -0.2581
 2381SOL    HW218603   0.040   1.168  10.998  0.5802 -0.8620  2.2355
 2382SOL     OW18604   3.051   3.425  11.924  0.4365 -0.3022  0.6204
 2382SOL    HW118605   3.007   3.407  11.841 -0.6830  0.0230  1.1442
 2382SOL    HW218606   3.022   3.516  11.925  0.4898 -0.2792 -0.3268
 2383SOL     OW18607   3.161   3.627   8.067  0.1812 -0.0735 -0.0536
 2383SOL    HW118608   3.230   3.684   8.100 -1.5849  1.4064  1.1464
 2383SOL    HW218609   3.203   3.591   7.989  0.7715  1.0231 -0.2492
 2384SOL     OW18610   3.253   4.520  13.077  0.1235  0.2652 -0.1089
 2384SOL    HW118611   3.333   4.504  13.026 -0.9448 -0.7934 -1.4216
 2384SOL    HW218612   3.196   4.458  13.033  0.1560  0.2740 -0.1636
 2385SOL     OW18613   4.157   2.515   7.155 -0.3041 -0.0121 -0.0338
 2385SOL    HW118614   4.179   2.576   7.085 -3.1320  0.7098 -0.2793
 2385SOL    HW218615   4.064   2.534   7.167 -0.6218 -2.4038  1.3223
 2386SOL     OW18616   4.428   3.592  11.431 -0.2687  0.0853 -0.0109
 2386SOL    HW118617   4.439   3.497  11.442  2.8946  0.4025 -0.5575
 2386SOL    HW218618   4.513   3.628  11.452  0.1578  0.0579 -1.6529
 2387SOL     OW18619   2.206   3.665   1.755  0.5132  0.1807 -0.5953
 2387SOL    HW118620   2.111   3.667   1.746  0.3212 -1.8497  1.0517
 2387SOL    HW218621   2.224   3.607   1.828 -2.4906 -0.5855 -0.4685
 2388SOL     OW18622   0.876   0.076   6.153  0.0069 -0.5270 -0.2520
 2388SOL    HW118623   0.893   4.716   6.197  1.4596 -0.1516 -0.1046
 2388SOL    HW218624   0.831   0.134   6.215 -0.1963  0.1123 -0.9875
 2389SOL     OW18625   0.515   2.839   4.681  0.2164  0.4563  0.1510
 2389SOL    HW118626   0.488   2.817   4.770 -0.1406  0.7014  0.1043
 2389SOL    HW218627   0.597   2.883   4.702 -0.8682  2.4060  0.3375
 2390SOL     OW18628   0.747   0.277  15.535 -0.1424 -0.0349  0.1734
 2390SOL    HW118629   0.690   0.264  15.459  0.4689 -1.0956 -0.1102
 2390SOL    HW218630   0.720   0.362  15.568 -0.5713  0.6859 -1.9785
 2391SOL     OW18631   4.088   3.150   9.122 -0.5444  0.3079 -0.6653
 2391SOL    HW118632   4.084   3.244   9.109  0.1502  0.2032 -1.6338
 2391SOL    HW218633   4.035   3.122   9.047  0.8314 -3.7484 -0.1571
 2392SOL     OW18634   0.476   0.773   9.278 -0.2586  0.2408 -0.1561
 2392SOL    HW118635   0.520   0.741   9.199  1.1052 -1.3117  1.2329
 2392SOL    HW218636   0.389   0.733   9.270  0.2266 -1.1219  1.2831
 2393SOL     OW18637   2.122   0.478   7.911  0.4312  0.0810 -0.0430
 2393SOL    HW118638   2.098   0.529   7.989 -0.1744 -2.0411  1.1387
 2393SOL    HW218639   2.194   0.427   7.948  0.3146 -0.6331 -0.8282
 2394SOL     OW18640   1.643   2.287   9.761 -0.3159 -0.3512  0.5911
 2394SOL    HW118641   1.662   2.294   9.668  0.5574  1.9492  0.9531
 2394SOL    HW218642   1.549   2.296   9.742 -0.5465  0.3297  2.0272
 2395SOL     OW18643   3.733   1.497   0.697 -0.4931 -0.4700 -0.0402
 2395SOL    HW118644   3.799   1.545   0.747 -0.5287 -1.0709  0.5930
 2395SOL    HW218645   3.660   1.513   0.757 -0.6122  1.6320 -0.7560
 2396SOL     OW18646   0.424   4.516  12.998 -0.6842 -0.3025  0.5381
 2396SOL    HW118647   0.450   4.432  12.959 -0.0350  0.3366 -0.4122
 2396SOL    HW218648   0.424   4.569  12.918 -1.7798 -0.4528  0.4249
 2397SOL     OW18649   1.089   4.205  14.306  0.1934  0.7821 -0.1008
 2397SOL    HW118650   1.107   4.234  14.217  0.2588 -0.8804 -0.6155
 2397SOL    HW218651   1.177   4.172  14.326 -0.4736 -1.5067 -0.9701
 2398SOL     OW18652   3.799   0.682   3.953 -0.0031  0.0912 -0.3501
 2398SOL    HW118653   3.858   0.610   3.933  4.9722  4.2062 -0.5945
 2398SOL    HW218654   3.753   0.686   3.869 -0.8984 -3.1999 -0.0010
 2399SOL     OW18655   0.078   2.586   6.406 -0.4021  0.7420 -0.1690
 2399SOL    HW118656   0.019   2.511   6.401 -0.0604  0.4129  0.7333
 2399SOL    HW218657   0.028   2.647   6.460 -2.0875 -0.5664 -0.2364
 2400SOL     OW18658   3.235   3.633  15.837  0.8740  0.0621  0.2603
 2400SOL    HW118659   3.285   3.644  15.918  1.3987 -0.0832 -0.0456
 2400SOL    HW218660   3.179   3.710  15.848  2.2185  1.6151 -3.6081
 2401SOL     OW18661   3.403   4.546   2.144  0.5761 -0.2360 -0.0253
 2401SOL    HW118662   3.311   4.548   2.116  0.8989 -0.4776 -1.1017
 2401SOL    HW218663   3.441   4.475   2.093  0.2460  0.0218 -0.6255
 2402SOL     OW18664   0.815   1.011   5.350  0.3496  0.0912 -0.0548
 2402SOL    HW118665   0.864   0.999   5.432 -0.2926 -0.0286  0.3115
 2402SOL    HW218666   0.730   1.049   5.373  0.1298  0.2521 -1.1357
 2403SOL     OW18667   2.603   3.172   8.485 -0.4406  0.2559  0.1516
 2403SOL    HW118668   2.672   3.110   8.511  0.9588  1.9474  0.4480
 2403SOL    HW218669   2.650   3.229   8.425  2.7091 -1.6228  0.8361
 2404SOL     OW18670   2.324   2.087   9.463  0.2829 -0.4595 -0.0615
 2404SOL    HW118671   2.321   2.162   9.523  0.3992  0.9044 -1.7427
 2404SOL    HW218672   2.348   2.024   9.531  0.1182 -1.6388 -1.0996
 2405SOL     OW18673   0.273   0.146   8.760 -0.8627  0.4903  0.2517
 2405SOL    HW118674   0.322   0.092   8.698  0.3574  0.4122  1.2896
 2405SOL    HW218675   0.185   0.110   8.755 -0.6530 -0.1666  1.3857
 2406SOL     OW18676   4.072   0.076   0.947 -0.5374  0.2710  0.0123
 2406SOL    HW118677   4.154   0.096   0.903 -0.4846  0.0886  0.0279
 2406SOL    HW218678   4.022   0.031   0.879 -3.1427  2.8567  0.2058
 2407SOL     OW18679   1.130   0.050   3.640 -0.4858  0.2513 -0.5024
 2407SOL    HW118680   1.196   0.105   3.681  1.0536 -2.5743  0.7414
 2407SOL    HW218681   1.059   0.113   3.621 -1.3890 -0.7399 -0.4353
 2408SOL     OW18682   1.629   4.086   1.757  0.0006  0.3942  0.4444
 2408SOL    HW118683   1.554   4.070   1.814 -0.3350  2.7872  0.6911
 2408SOL    HW218684   1.671   4.152   1.814  0.7861 -0.4862  0.8889
 2409SOL     OW18685   3.954   1.063  15.915  0.0870  0.3873  0.6603
 2409SOL    HW118686   3.921   1.033  16.000 -0.0679  0.3000  0.5701
 2409SOL    HW218687   4.047   1.043  15.928  0.1902  1.6986  1.9438
 2410SOL     OW18688   2.155   2.729  16.516 -0.1063 -0.1265 -0.5111
 2410SOL    HW118689   2.114   2.800  16.467 -0.5580 -1.3986 -1.9858
 2410SOL    HW218690   2.086   2.666  16.536  0.2039 -0.3231 -0.0640
 2411SOL     OW18691   0.641   0.283   6.640  0.0889 -0.0737 -0.3426
 2411SOL    HW118692   0.594   0.249   6.563 -0.7150  2.2331 -0.8731
 2411SOL    HW218693   0.685   0.203   6.669  0.4062 -0.0010 -0.6131
 2412SOL     OW18694   2.305   4.034   7.883  0.6492 -0.0653 -0.1634
 2412SOL    HW118695   2.394   4.000   7.891 -0.0199 -1.9987 -0.7789
 2412SOL    HW218696   2.305   4.049   7.788 -0.9244  1.5204  0.0887
 2413SOL     OW18697   2.624   2.746   4.301  0.4160 -0.1578 -0.1878
 2413SOL    HW118698   2.561   2.696   4.249  0.2176 -0.9422  0.8141
 2413SOL    HW218699   2.577   2.829   4.294 -2.0960 -1.6262 -0.6209
 2414SOL     OW18700   1.061   2.073   2.649  0.2937  0.2780  0.5705
 2414SOL    HW118701   1.038   2.142   2.588  1.2949 -1.2068 -1.4866
 2414SOL    HW218702   1.027   1.997   2.602  0.3815  0.9117 -0.5059
 2415SOL     OW18703   0.102   1.283  11.481  0.5528 -0.1518 -0.0680
 2415SOL    HW118704   0.096   1.294  11.386 -1.9639  2.6550  0.4006
 2415SOL    HW218705   0.014   1.255  11.502  1.1168 -0.7562  1.4429
 2416SOL     OW18706   0.526   2.425   3.638 -0.5345 -0.0406  0.0171
 2416SOL    HW118707   0.465   2.440   3.565 -0.2245  1.0795 -0.0128
 2416SOL    HW218708   0.492   2.342   3.672 -0.6106  0.0766  0.2307
 2417SOL     OW18709   4.316   4.679   4.416  1.0343  0.0474 -0.1629
 2417SOL    HW118710   4.378   0.011   4.369  1.0834 -0.5171 -0.7681
 2417SOL    HW218711   4.349   4.684   4.506 -0.4046 -0.2501  0.3680
 2418SOL     OW18712   1.311   3.426   5.662 -0.6659  0.0199 -0.7093
 2418SOL    HW118713   1.269   3.360   5.607  1.6042  0.2308 -2.6905
 2418SOL    HW218714   1.275   3.510   5.635 -0.4667  0.7385  1.2313
 2419SOL     OW18715   4.459   2.085  14.750 -0.4843 -0.3458 -0.4128
 2419SOL    HW118716   4.440   2.011  14.693  0.9495 -0.8831 -0.1852
 2419SOL    HW218717   4.393   2.075  14.818  3.7124  2.6711  4.0998
 2420SOL     OW18718   0.903   0.072  11.834  0.0809  0.3851  0.3159
 2420SOL    HW118719   0.998   0.066  11.840  0.1725  1.0228 -0.4973
 2420SOL    HW218720   0.872   0.129  11.905  1.9367  0.4469  1.0708
 2421SOL     OW18721   2.203   2.918   8.582 -0.8322 -0.3163  0.5886
 2421SOL    HW118722   2.171   2.978   8.649 -0.9920  1.4299 -1.0500
 2421SOL    HW218723   2.293   2.902   8.610 -0.3433  2.1134  0.4294
 2422SOL     OW18724   0.239   3.064   7.190  0.0594  0.9445  0.1822
 2422SOL    HW118725   0.311   3.108   7.144  1.3267  0.4868  1.6961
 2422SOL    HW218726   0.181   3.050   7.116 -0.7753 -1.5160  1.3140
 2423SOL     OW18727   0.307   4.245  15.065  0.1922 -0.4455 -0.0051
 2423SOL    HW118728   0.389   4.292  15.075  0.4214 -0.5282 -1.5671
 2423SOL    HW218729   0.234   4.301  15.094  1.5668  1.4740 -0.2437
 2424SOL     OW18730   1.158   4.174   8.303 -0.1931 -0.4455  0.4158
 2424SOL    HW118731   1.150   4.148   8.211  0.6609  0.2679  0.1433
 2424SOL    HW218732   1.254   4.178   8.305 -0.3184  2.0661  0.8030
 2425SOL     OW18733   0.902   4.708  11.577  0.8860  0.5669  0.2559
 2425SOL    HW118734   0.992   0.015  11.571  0.5879  1.0495 -1.6741
 2425SOL    HW218735   0.895   4.706  11.672  1.4511  0.7179  0.2970
 2426SOL     OW18736   1.723   3.016  11.039  0.3523 -0.2627 -0.5714
 2426SOL    HW118737   1.638   3.022  11.083  0.5211  0.3197 -0.3270
 2426SOL    HW218738   1.746   3.105  11.014  0.8108 -0.2967 -0.2674
 2427SOL     OW18739   3.029   4.307   8.847 -0.5339 -0.2927 -0.5216
 2427SOL    HW118740   3.105   4.265   8.808  0.1967 -2.3562  3.0413
 2427SOL    HW218741   2.979   4.328   8.768 -0.2105  2.0526 -0.0921
 2428SOL     OW18742   0.534   2.187   7.393 -0.1141 -0.2560  0.0203
 2428SOL    HW118743   0.621   2.228   7.401 -0.1438 -0.1315 -0.2746
 2428SOL    HW218744   0.555   2.106   7.347  1.8564 -0.3756  1.1015
 2429SOL     OW18745   0.603   2.421   6.961 -0.1516  0.1498 -0.3492
 2429SOL    HW118746   0.560   2.448   7.042 -0.4279  0.7239 -0.6899
 2429SOL    HW218747   0.661   2.496   6.952 -0.9434  0.5454 -2.1517
 2430SOL     OW18748   0.642   0.697   5.594  0.2702 -0.1552 -0.0306
 2430SOL    HW118749   0.698   0.707   5.516 -4.5149 -0.9539 -3.5762
 2430SOL    HW218750   0.560   0.732   5.561  0.1680  0.0421  0.4347
 2431SOL     OW18751   2.569   0.681  10.389 -0.6280 -0.3863  0.1162
 2431SOL    HW118752   2.607   0.602  10.428  0.7609 -0.1714 -0.8050
 2431SOL    HW218753   2.494   0.696  10.447 -0.1971  1.7304  0.1207
 2432SOL     OW18754   3.462   4.300  11.763  0.3462  0.2227  0.4108
 2432SOL    HW118755   3.435   4.324  11.851 -0.6922 -1.0903  0.4442
 2432SOL    HW218756   3.413   4.219  11.751  0.9922  0.0507 -1.1332
 2433SOL     OW18757   3.519   3.714  13.743 -0.2059 -0.6459 -0.5452
 2433SOL    HW118758   3.531   3.696  13.836 -2.7245  1.8757  0.2590
 2433SOL    HW218759   3.500   3.625  13.712 -1.9082  0.1297 -1.7323
 2434SOL     OW18760   2.771   0.223  13.854 -0.0418 -1.1338  0.7094
 2434SOL    HW118761   2.831   0.207  13.780 -2.3237 -3.3232 -0.6755
 2434SOL    HW218762   2.832   0.228  13.928  0.6199  1.5646 -0.0297
 2435SOL     OW18763   1.203   2.459   4.298  0.2702 -0.2863  0.5213
 2435SOL    HW118764   1.141   2.463   4.371  0.7219  1.1316  0.8491
 2435SOL    HW218765   1.168   2.381   4.255 -0.8812  0.3187  0.3511
 2436SOL     OW18766   1.820   3.189   8.770 -0.0024 -0.5523 -0.2231
 2436SOL    HW118767   1.779   3.272   8.748  0.7557  0.1069  0.8216
 2436SOL    HW218768   1.824   3.192   8.866  1.9772  0.4855 -0.3279
 2437SOL     OW18769   4.270   4.460  12.506  0.0378  0.1617  0.1083
 2437SOL    HW118770   4.240   4.549  12.522 -2.4653 -0.4029 -1.4860
 2437SOL    HW218771   4.344   4.449  12.566  0.3386  2.3840  0.1289
 2438SOL     OW18772   2.486   1.911   3.972  0.5118 -0.0196  0.1359
 2438SOL    HW118773   2.409   1.967   3.965  0.4432  0.0600  1.4570
 2438SOL    HW218774   2.492   1.885   4.064 -0.9572 -1.5615 -0.1927
 2439SOL     OW18775   3.088   0.458   0.984 -0.2104  0.0653  0.2426
 2439SOL    HW118776   3.059   0.422   0.900 -3.3105  1.2843  0.7855
 2439SOL    HW218777   3.125   0.543   0.961  2.2083 -0.6990  1.3287
 2440SOL     OW18778   4.399   0.414   8.556  0.0978 -0.6304 -0.1894
 2440SOL    HW118779   4.383   0.433   8.464 -1.3698 -0.4092  0.1092
 2440SOL    HW218780   4.384   0.320   8.568  0.9566 -0.6175  1.0002
 2441SOL     OW18781   1.626   0.853  11.134 -0.2065  0.5982 -0.2388
 2441SOL    HW118782   1.710   0.808  11.144 -0.1934  0.2447 -1.9422
 2441SOL    HW218783   1.639   0.926  11.195 -0.2401 -0.2389  0.7679
 2442SOL     OW18784   3.141   1.439   3.041 -0.6152 -0.4441  0.4685
 2442SOL    HW118785   3.115   1.452   3.132 -0.6873  0.1529  0.3627
 2442SOL    HW218786   3.120   1.526   3.007  2.9600 -0.0220 -0.6948
 2443SOL     OW18787   0.764   0.291  15.129  0.6540 -0.3275 -0.5149
 2443SOL    HW118788   0.695   0.321  15.069  2.9990  0.1549 -2.9459
 2443SOL    HW218789   0.790   0.374  15.169  1.2341 -1.2731  1.0537
 2444SOL     OW18790   0.327   2.534   7.374 -0.4062  0.4231  0.4224
 2444SOL    HW118791   0.269   2.472   7.419 -1.8540  1.4086 -0.1022
 2444SOL    HW218792   0.261   2.599   7.351 -0.7885 -0.3811 -0.7207
 2445SOL     OW18793   0.179   2.543   3.852  0.1798 -0.0980 -0.5801
 2445SOL    HW118794   0.103   2.559   3.908 -0.5104  0.8531 -1.7969
 2445SOL    HW218795   0.183   2.621   3.797 -0.4625  0.4896  0.1981
 2446SOL     OW18796   2.502   3.981  17.176 -0.5937 -0.4266  0.3839
 2446SOL    HW118797   2.465   4.059  17.134 -0.1681 -0.8196 -0.7202
 2446SOL    HW218798   2.580   3.967  17.124  1.1054  2.6742  2.0459
 2447SOL     OW18799   2.635   0.559   5.515  0.0656  1.1988 -0.1746
 2447SOL    HW118800   2.686   0.589   5.590 -0.0114 -0.9057  0.7380
 2447SOL    HW218801   2.664   0.468   5.510 -2.9373  0.3423 -1.9494
 2448SOL     OW18802   1.575   3.324   6.353 -0.5574  0.1122  0.2893
 2448SOL    HW118803   1.638   3.395   6.364  0.7423 -0.4440 -3.3486
 2448SOL    HW218804   1.505   3.377   6.391  0.7515  0.7845  1.7576
 2449SOL     OW18805   0.356   0.960   7.549 -0.4422  0.4729  0.8182
 2449SOL    HW118806   0.361   0.884   7.491  0.1384  1.2343 -0.1352
 2449SOL    HW218807   0.296   1.011   7.494 -0.3630 -1.4714 -1.0668
 2450SOL     OW18808   3.681   1.390  14.179 -0.0891 -0.1454 -1.0553
 2450SOL    HW118809   3.666   1.388  14.274  0.0435  0.0970 -1.0288
 2450SOL    HW218810   3.615   1.327  14.150 -2.7277  1.3752  1.6342
 2451SOL     OW18811   1.615   1.997   2.349 -0.0112 -0.2198 -0.3073
 2451SOL    HW118812   1.589   2.088   2.366 -0.9917 -0.7140  0.8585
 2451SOL    HW218813   1.551   1.978   2.281  0.1104  3.7998 -1.5736
 2452SOL     OW18814   1.932   2.928   8.343 -1.0417  0.4859  0.5888
 2452SOL    HW118815   1.972   3.014   8.330  1.7537 -0.8466  0.3069
 2452SOL    HW218816   2.015   2.880   8.354 -0.0619  2.2785  1.0388
 2453SOL     OW18817   3.648   3.986   5.340  0.4531  0.1082  0.0353
 2453SOL    HW118818   3.597   3.915   5.379  1.4030  0.0216  1.1260
 2453SOL    HW218819   3.698   4.011   5.418  0.3552  2.4942 -0.6720
 2454SOL     OW18820   4.519   0.854   5.440  0.6441  0.1320 -0.6681
 2454SOL    HW118821   4.515   0.876   5.533  0.8961  0.3284 -0.7035
 2454SOL    HW218822   4.537   0.760   5.444  0.5612  0.2201  1.6006
 2455SOL     OW18823   1.663   0.738   4.012  0.5463 -0.9095 -0.2698
 2455SOL    HW118824   1.568   0.731   4.018  0.3172  0.3195 -2.2842
 2455SOL    HW218825   1.687   0.739   4.105 -0.2413  1.1916 -0.0968
 2456SOL     OW18826   2.223   4.210  15.371 -0.2536 -1.1974 -0.1258
 2456SOL    HW118827   2.247   4.119  15.356 -2.8715 -2.0172  0.7520
 2456SOL    HW218828   2.133   4.222  15.341 -0.2079  0.0535  0.2270
 2457SOL     OW18829   3.767   4.339  15.455 -0.1038 -0.3604  0.0114
 2457SOL    HW118830   3.675   4.310  15.461 -0.3497  0.6138  0.8159
 2457SOL    HW218831   3.761   4.359  15.361  0.5368 -1.6340 -0.3112
 2458SOL     OW18832   2.796   2.962   8.547  0.6621  0.0180  0.5296
 2458SOL    HW118833   2.757   2.921   8.625 -0.2617  1.2515  0.7145
 2458SOL    HW218834   2.761   2.912   8.473  0.3588 -0.2623  0.8580
 2459SOL     OW18835   4.279   3.205   8.391 -0.2874 -0.1719  0.7188
 2459SOL    HW118836   4.218   3.276   8.408  0.2894  0.2802  0.9129
 2459SOL    HW218837   4.339   3.253   8.334  0.0443 -0.5114  0.7783
 2460SOL     OW18838   3.466   4.115   6.469 -0.0427 -0.2585  0.1826
 2460SOL    HW118839   3.496   4.191   6.518  0.1554  0.0577 -0.4380
 2460SOL    HW218840   3.524   4.131   6.395  1.0500 -1.0452  0.8553
 2461SOL     OW18841   4.613   0.620  16.530  0.6206 -0.0755 -0.0913
 2461SOL    HW118842   4.535   0.606  16.583  0.3886 -1.0612 -0.6914
 2461SOL    HW218843   4.651   0.682  16.592  0.2845 -0.3144  0.3489
 2462SOL     OW18844   3.307   0.703   5.269 -0.4718  0.0550 -0.0592
 2462SOL    HW118845   3.349   0.624   5.302 -0.6606  0.8709  2.1513
 2462SOL    HW218846   3.231   0.667   5.224 -0.2313  0.4681 -0.7939
 2463SOL     OW18847   1.522   3.834   9.273 -0.4170 -0.3536  0.2439
 2463SOL    HW118848   1.609   3.842   9.313 -0.9052 -1.3254  1.4942
 2463SOL    HW218849   1.495   3.749   9.309  1.8059 -1.0082  0.3850
 2464SOL     OW18850   3.549   4.525   6.230  0.2428  0.2029  0.1055
 2464SOL    HW118851   3.465   4.486   6.206  0.2423  0.8141 -0.8673
 2464SOL    HW218852   3.526   4.611   6.264  0.8145  0.3850  0.0382
 2465SOL     OW18853   0.764   2.508  16.395  0.5159 -0.2814  0.1211
 2465SOL    HW118854   0.734   2.426  16.432  0.7857 -0.3963  0.0865
 2465SOL    HW218855   0.721   2.568  16.456 -1.8148 -1.4807 -0.3558
 2466SOL     OW18856   2.217   1.635   4.553 -0.1612 -0.2104  0.6866
 2466SOL    HW118857   2.215   1.694   4.478  2.6388 -1.8069 -0.6485
 2466SOL    HW218858   2.260   1.687   4.621  1.4389 -1.0765  0.3465
 2467SOL     OW18859   4.146   2.511   8.137 -0.4222 -0.3176  0.3859
 2467SOL    HW118860   4.121   2.528   8.228  1.4399  2.3571  0.3963
 2467SOL    HW218861   4.151   2.417   8.150 -1.5544 -0.3537  0.5731
 2468SOL     OW18862   1.682   0.137   4.183  0.1623  0.5352  0.5073
 2468SOL    HW118863   1.613   0.202   4.194  1.0492  1.2677  1.7739
 2468SOL    HW218864   1.730   0.177   4.110 -0.6415 -1.7102 -1.2330
 2469SOL     OW18865   1.999   1.673  10.985 -0.1798 -0.1689  0.0715
 2469SOL    HW118866   2.059   1.724  10.930  0.8134  0.6693  1.9296
 2469SOL    HW218867   2.059   1.617  11.033  1.2846  0.4951 -0.9822
 2470SOL     OW18868   2.050   0.294   6.801  0.6897 -0.4781  0.1353
 2470SOL    HW118869   2.133   0.268   6.762 -0.0442 -0.1719 -1.6343
 2470SOL    HW218870   2.039   0.373   6.748  1.3381 -0.6943 -0.3172
 2471SOL     OW18871   4.334   4.445   4.253 -0.1897  0.1098 -0.1876
 2471SOL    HW118872   4.269   4.426   4.186 -0.2976  0.8616 -0.2981
 2471SOL    HW218873   4.300   4.521   4.300  1.0745 -0.0499  0.9910
 2472SOL     OW18874   4.264   4.699   1.882  0.2606  0.1824  0.1650
 2472SOL    HW118875   4.269   4.603   1.877  1.1825  0.2801 -0.7641
 2472SOL    HW218876   4.347   0.006   1.919  1.2257  0.1884 -1.9846
 2473SOL     OW18877   4.570   0.959   0.121 -0.0023  0.9518  0.1610
 2473SOL    HW118878   4.531   1.043   0.097  3.1574  2.2570 -0.4100
 2473SOL    HW218879   4.491   0.905   0.121  1.0043 -0.5514  3.4152
 2474SOL     OW18880   1.607   0.116   2.872 -0.0611  0.1694  0.0212
 2474SOL    HW118881   1.692   0.119   2.827  0.7007 -2.8304  1.2982
 2474SOL    HW218882   1.550   0.175   2.822  0.9060  0.3143 -0.9116
 2475SOL     OW18883   4.453   2.096   3.879  0.0679  0.0520  0.3408
 2475SOL    HW118884   4.545   2.109   3.901 -0.1579  0.8208  0.8445
 2475SOL    HW218885   4.469   2.122   3.788  0.8276 -1.9922 -0.0945
 2476SOL     OW18886   2.064   1.347   8.510  0.0806 -0.0153 -0.0738
 2476SOL    HW118887   1.977   1.312   8.490  0.2974 -0.4894 -0.1678
 2476SOL    HW218888   2.043   1.436   8.538 -0.3582  0.2218 -1.1372
 2477SOL     OW18889   2.018   3.873   1.105  0.2967 -0.6188 -0.2711
 2477SOL    HW118890   2.048   3.820   1.179  0.2325  1.0219  0.9195
 2477SOL    HW218891   2.082   3.863   1.034  1.1277 -1.4385  0.5926
 2478SOL     OW18892   2.246   2.405   2.214  0.4385  0.0968 -0.2052
 2478SOL    HW118893   2.174   2.404   2.152 -0.8543 -0.2381  1.3084
 2478SOL    HW218894   2.257   2.500   2.213 -1.2483  0.3180  2.5692
 2479SOL     OW18895   4.169   0.374   2.555 -0.2925 -0.4332 -0.0592
 2479SOL    HW118896   4.218   0.340   2.481  0.4874 -0.8798  0.6579
 2479SOL    HW218897   4.124   0.450   2.517  0.4918 -0.0808 -0.2687
 2480SOL     OW18898   1.910   1.907   4.503  0.0398  0.2607 -0.4095
 2480SOL    HW118899   1.961   1.988   4.499  0.9598 -0.3567 -1.2047
 2480SOL    HW218900   1.940   1.857   4.427  0.3963  1.0456 -0.7773
 2481SOL     OW18901   3.853   3.780   6.519 -0.5493 -0.5032 -0.2144
 2481SOL    HW118902   3.903   3.788   6.438 -1.5475 -0.8702 -0.8653
 2481SOL    HW218903   3.930   3.792   6.575 -0.2675  0.1793 -0.7495
 2482SOL     OW18904   3.495   3.655  11.150 -0.2143  0.1256 -0.0514
 2482SOL    HW118905   3.501   3.615  11.236 -3.8882 -0.2027  0.0837
 2482SOL    HW218906   3.580   3.698  11.155 -0.6354  0.8448  0.8845
 2483SOL     OW18907   4.312   2.055   7.153  0.4469 -0.3249  0.0574
 2483SOL    HW118908   4.370   2.122   7.117  2.8286 -2.1143  0.4819
 2483SOL    HW218909   4.233   2.106   7.168 -0.8052 -2.0055 -0.8597
 2484SOL     OW18910   1.745   4.500   4.707  0.1487 -0.5081 -0.4776
 2484SOL    HW118911   1.778   4.454   4.630  1.4182 -0.5529  0.0839
 2484SOL    HW218912   1.660   4.458   4.721  1.6282 -3.6117 -0.9119
 2485SOL     OW18913   1.128   4.685   7.402 -0.3187  0.3096 -0.3761
 2485SOL    HW118914   1.039   4.681   7.436  0.9773 -2.8997  2.5302
 2485SOL    HW218915   1.105   4.634   7.324 -0.6288 -1.5803  0.9515
 2486SOL     OW18916   0.195   3.232   7.866 -0.5005 -0.0001  0.7853
 2486SOL    HW118917   0.214   3.259   7.955  1.3962  1.4934 -0.0772
 2486SOL    HW218918   0.242   3.302   7.820 -2.0776  0.9538  0.6123
 2487SOL     OW18919   4.616   0.856   9.595 -0.0637 -0.1182  0.5310
 2487SOL    HW118920   4.697   0.864   9.645  0.3230  1.2259 -0.3199
 2487SOL    HW218921   4.615   0.761   9.585  0.9729  0.0872 -1.4934
 2488SOL     OW18922   1.872   0.396   0.243  0.1518 -0.6687 -0.9111
 2488SOL    HW118923   1.900   0.350   0.322  1.8744  0.2927 -0.9683
 2488SOL    HW218924   1.952   0.422   0.198 -0.7005 -1.2080 -2.7423
 2489SOL     OW18925   0.615   4.384   6.377  0.6619  0.4412 -0.0008
 2489SOL    HW118926   0.524   4.407   6.360  0.5530 -0.6767 -0.9296
 2489SOL    HW218927   0.653   4.467   6.406 -0.9931  0.8004  1.1379
 2490SOL     OW18928   3.144   4.675   2.042 -0.1705 -0.1254  0.3482
 2490SOL    HW118929   3.056   4.714   2.040 -0.0136  0.1022 -1.3807
 2490SOL    HW218930   3.206   0.017   2.012  0.0185 -1.2509 -1.6944
 2491SOL     OW18931   4.640   1.865   7.216  0.4821 -0.1627  0.2215
 2491SOL    HW118932   4.552   1.835   7.192  1.7756 -1.5951 -2.8282
 2491SOL    HW218933   4.683   1.797   7.164 -1.6487 -1.1372 -0.2761
 2492SOL     OW18934   2.263   4.469   1.829 -0.0282  0.4325 -0.1838
 2492SOL    HW118935   2.208   4.422   1.766 -0.4518  1.6438 -0.7174
 2492SOL    HW218936   2.202   4.538   1.855 -1.4190 -0.6469 -0.5594
 2493SOL     OW18937   0.569   4.308   8.599  0.1268 -0.1389  0.1095
 2493SOL    HW118938   0.602   4.388   8.560  1.8618  0.3864  2.5980
 2493SOL    HW218939   0.617   4.242   8.549 -0.3468 -0.0833 -0.4165
 2494SOL     OW18940   3.438   0.625   1.578 -0.0651 -0.5066 -0.0202
 2494SOL    HW118941   3.439   0.542   1.626 -0.4846 -0.1522  0.5919
 2494SOL    HW218942   3.501   0.604   1.509  1.0636  1.6753  0.3259
 2495SOL     OW18943   3.950   0.592   6.166  0.1291 -0.3605 -0.7921
 2495SOL    HW118944   4.013   0.656   6.132 -0.0486  0.6705  0.8323
 2495SOL    HW218945   3.887   0.594   6.094  0.2022  1.0135 -0.8194
 2496SOL     OW18946   4.275   1.551   4.662 -0.0886  0.1965 -0.1398
 2496SOL    HW118947   4.352   1.538   4.607  0.2335 -1.5239  0.7224
 2496SOL    HW218948   4.213   1.496   4.616  0.6045 -0.2870 -0.4919
 2497SOL     OW18949   1.353   4.571  13.718  0.2342 -0.7242  0.2580
 2497SOL    HW118950   1.416   4.601  13.783 -2.6132  0.1454  2.5880
 2497SOL    HW218951   1.270   4.606  13.752  0.6954  0.6836 -0.0613
 2498SOL     OW18952   4.492   3.663   9.155  0.4614  0.4158 -0.1585
 2498SOL    HW118953   4.525   3.579   9.186  2.1174  1.3606  0.6750
 2498SOL    HW218954   4.417   3.689   9.209 -0.0284 -0.3873 -0.4586
 2499SOL     OW18955   0.918   0.180   5.893  0.1268  0.4825 -0.4469
 2499SOL    HW118956   0.895   0.188   5.985  1.7832  0.5485 -0.0352
 2499SOL    HW218957   0.937   0.086   5.891  2.3944  0.9242 -0.4809
 2500SOL     OW18958   4.266   0.175   5.731  0.1471  0.2832  0.3590
 2500SOL    HW118959   4.181   0.173   5.687  1.5183 -1.7686 -2.1521
 2500SOL    HW218960   4.254   0.251   5.788  1.6549  1.4328 -0.8495
 2501SOL     OW18961   4.174   4.016   4.394  0.2768 -0.9550  0.4813
 2501SOL    HW118962   4.256   4.055   4.364  1.2125 -1.5383  2.2699
 2501SOL    HW218963   4.140   3.978   4.313 -2.2421  0.9719  0.6335
 2502SOL     OW18964   2.975   4.006  13.531 -0.0455  0.1715 -0.3193
 2502SOL    HW118965   2.919   4.014  13.454 -0.1511  2.8570  0.0544
 2502SOL    HW218966   3.039   3.939  13.504 -0.7542  0.2834 -2.2817
 2503SOL     OW18967   0.246   4.087   5.773 -0.2835 -0.1485  0.0638
 2503SOL    HW118968   0.165   4.039   5.786 -1.2482  1.6033  0.6087
 2503SOL    HW218969   0.302   4.054   5.843 -1.1252  0.9592  1.2712
 2504SOL     OW18970   0.106   3.511  10.422 -0.2131 -0.0672  0.2523
 2504SOL    HW118971   0.201   3.513  10.430 -0.1250 -1.6567 -0.5361
 2504SOL    HW218972   0.088   3.605  10.410  0.6891  0.1353  0.5160
 2505SOL     OW18973   3.176   3.727   4.654 -0.2875  0.3264  0.1028
 2505SOL    HW118974   3.082   3.732   4.640 -0.4550 -2.5695  0.2691
 2505SOL    HW218975   3.191   3.633   4.666  2.3783  0.7766  0.3698
 2506SOL     OW18976   1.391   3.616   7.127 -0.2577  0.1070 -0.5475
 2506SOL    HW118977   1.435   3.605   7.042  0.8501 -2.6175  0.4052
 2506SOL    HW218978   1.374   3.710   7.123 -1.3301 -0.1028 -0.7075
 2507SOL     OW18979   0.011   3.762   8.325 -0.2715 -0.2557  0.0629
 2507SOL    HW118980   0.070   3.687   8.312  1.9039  1.0600  2.2728
 2507SOL    HW218981   0.072   3.830   8.355  0.3871 -0.4218 -0.9069
 2508SOL     OW18982   0.165   1.396   7.020  0.2996  0.0460 -0.0952
 2508SOL    HW118983   0.214   1.446   6.955  0.8637  0.2184  0.4594
 2508SOL    HW218984   0.172   1.456   7.095 -0.4819  0.9658 -0.7560
 2509SOL     OW18985   2.241   4.166  17.416 -0.6357  0.0050 -0.1315
 2509SOL    HW118986   2.231   4.151  17.321 -1.8987 -1.5527  0.2360
 2509SOL    HW218987   2.253   4.259  17.431 -0.8793  0.2100 -1.1793
 2510SOL     OW18988   2.508   3.105  13.795  0.0460 -0.2404  0.6559
 2510SOL    HW118989   2.518   3.117  13.889  1.6852 -0.1860  0.4671
 2510SOL    HW218990   2.479   3.013  13.798 -0.1913 -0.1278  1.7311
 2511SOL     OW18991   0.997   2.451   5.694  0.1010 -0.0253 -0.1308
 2511SOL    HW118992   1.079   2.461   5.644 -0.6585 -0.2625 -1.4374
 2511SOL    HW218993   1.025   2.485   5.778  0.0839  1.9442 -0.9265
 2512SOL     OW18994   0.617   0.615   7.415  0.4154  0.5234  0.0005
 2512SOL    HW118995   0.637   0.596   7.323 -1.2012  0.8568 -0.4207
 2512SOL    HW218996   0.538   0.668   7.425 -1.3094 -1.6665 -1.9290
 2513SOL     OW18997   3.478   4.375   1.972 -0.0842  0.0361 -0.4421
 2513SOL    HW118998   3.566   4.393   1.939 -1.2094  1.0103 -2.9112
 2513SOL    HW218999   3.470   4.280   1.972 -1.4188  0.1396 -1.8220
 2514SOL     OW19000   0.824   1.897   4.964  0.2786 -0.4944  0.2076
 2514SOL    HW119001   0.868   1.883   5.048  1.2145 -0.5774 -0.2908
 2514SOL    HW219002   0.872   1.973   4.931  0.6044 -0.1749  1.4092
 2515SOL     OW19003   2.532   2.978   3.212 -0.0234  0.2490 -0.0783
 2515SOL    HW119004   2.477   3.037   3.264 -0.6561  0.1663 -0.6489
 2515SOL    HW219005   2.457   2.931   3.175  1.0456 -0.5535 -1.2088
 2516SOL     OW19006   0.742   1.355   5.585 -0.0152 -0.3690 -0.6833
 2516SOL    HW119007   0.832   1.347   5.554  0.0552  0.1950 -0.6134
 2516SOL    HW219008   0.711   1.435   5.544  2.1521 -0.5127 -2.6018
 2517SOL     OW19009   3.066   0.525  13.784  0.0795 -0.0373  0.1873
 2517SOL    HW119010   3.113   0.482  13.855  0.7666  2.4122  1.1990
 2517SOL    HW219011   3.043   0.612  13.817 -1.5168 -0.2453 -0.3906
 2518SOL     OW19012   1.287   0.079   5.803 -0.0255 -0.2929 -0.3609
 2518SOL    HW119013   1.270   0.068   5.896  3.7618 -0.2547  0.3609
 2518SOL    HW219014   1.287   0.174   5.796 -2.5017 -0.1728  1.4992
 2519SOL     OW19015   1.176   3.153  13.399  0.9589 -1.1491  0.1407
 2519SOL    HW119016   1.217   3.239  13.404  2.9552 -2.1107  0.6003
 2519SOL    HW219017   1.157   3.126  13.489 -0.9914  1.2809  0.4585
 2520SOL     OW19018   3.203   2.741   0.674  0.3297 -0.0855 -0.0513
 2520SOL    HW119019   3.163   2.658   0.699 -1.5467  1.2314  1.2777
 2520SOL    HW219020   3.183   2.733   0.581 -0.2147 -0.3253  0.0871
 2521SOL     OW19021   2.098   1.252  13.727 -0.5353 -0.8823  0.0732
 2521SOL    HW119022   2.102   1.287  13.638  0.2724 -2.5245 -0.5550
 2521SOL    HW219023   2.152   1.173  13.718  0.9413 -0.3266  4.1023
 2522SOL     OW19024   1.766   0.915   5.840  0.0732 -0.5298  0.4772
 2522SOL    HW119025   1.766   1.000   5.796 -0.7857  0.5702  2.5858
 2522SOL    HW219026   1.674   0.894   5.855  0.2574  0.3137  2.8043
 2523SOL     OW19027   0.287   4.148   6.138  0.6125  0.1326  0.4595
 2523SOL    HW119028   0.205   4.194   6.117 -0.0538 -1.1530  0.2758
 2523SOL    HW219029   0.263   4.056   6.140 -0.5124  0.3903 -1.4297
 2524SOL     OW19030   4.514   4.331   6.584  0.3697  0.5731  0.1751
 2524SOL    HW119031   4.421   4.352   6.581  0.5290  1.0426 -1.6147
 2524SOL    HW219032   4.518   4.283   6.502 -1.0354 -1.4454  1.3023
 2525SOL     OW19033   0.055   1.202  14.612 -0.3029  1.0119  0.3512
 2525SOL    HW119034   4.710   1.135  14.620 -0.2430  0.5377 -3.1435
 2525SOL    HW219035   0.127   1.160  14.660 -0.9857  0.2368  0.6967
 2526SOL     OW19036   2.096   0.816   5.145  0.0559 -0.2711  0.3484
 2526SOL    HW119037   2.065   0.837   5.233  0.1394  0.3069  0.2413
 2526SOL    HW219038   2.187   0.844   5.143 -0.4003  1.2274  0.2984
 2527SOL     OW19039   0.302   1.171   7.708  0.0654  0.2660 -0.3035
 2527SOL    HW119040   0.342   1.093   7.668 -1.8426 -0.9659  0.1796
 2527SOL    HW219041   0.258   1.197   7.627 -0.5790  0.3155  0.0668
 2528SOL     OW19042   3.009   0.777  11.311 -0.4266 -0.9821 -0.1264
 2528SOL    HW119043   3.005   0.725  11.391 -1.5993 -0.3030  0.2649
 2528SOL    HW219044   2.915   0.776  11.292 -0.2291 -1.2158 -1.0926
 2529SOL     OW19045   2.091   3.236  11.336  0.0156  0.2279 -0.1782
 2529SOL    HW119046   2.091   3.217  11.430  0.8464 -1.5791 -0.5380
 2529SOL    HW219047   2.092   3.331  11.336  2.6193  0.2164 -3.8991
 2530SOL     OW19048   2.782   3.326   7.070  0.1181 -0.2224 -0.3053
 2530SOL    HW119049   2.792   3.343   7.164 -4.0135  0.1097  0.0616
 2530SOL    HW219050   2.858   3.374   7.036 -1.6812  2.8840  0.0714
 2531SOL     OW19051   2.430   3.447   2.240  0.1600 -0.3896  0.0857
 2531SOL    HW119052   2.407   3.428   2.148  0.5778  1.6571 -0.4355
 2531SOL    HW219053   2.352   3.412   2.284  0.9918  1.1753  2.7672
 2532SOL     OW19054   2.788   2.589   5.838  0.2799 -0.2565 -0.4759
 2532SOL    HW119055   2.816   2.649   5.769  1.1028  0.9903  0.9577
 2532SOL    HW219056   2.710   2.548   5.800  1.6835 -4.3698  1.1730
 2533SOL     OW19057   1.188   3.569  15.410  0.0197  0.3825 -0.1798
 2533SOL    HW119058   1.159   3.581  15.320 -0.5845 -0.9916 -0.1692
 2533SOL    HW219059   1.203   3.663  15.426  1.5347  0.1920 -0.5222
 2534SOL     OW19060   1.881   2.469   8.020  0.0637 -0.0087  0.0478
 2534SOL    HW119061   1.809   2.490   8.080 -0.9831 -2.0901 -0.4904
 2534SOL    HW219062   1.928   2.552   8.031  1.6744 -1.1276  1.7181
 2535SOL     OW19063   3.039   1.876   7.646 -0.5757 -0.0571 -0.3873
 2535SOL    HW119064   3.082   1.870   7.732  0.1491 -0.7851 -0.8067
 2535SOL    HW219065   3.118   1.898   7.597 -1.1219  0.8184 -0.8711
 2536SOL     OW19066   4.228   1.921  10.946 -0.0343 -0.5597 -0.7492
 2536SOL    HW119067   4.140   1.957  10.934  0.1614 -0.5435 -2.1185
 2536SOL    HW219068   4.271   1.958  10.869 -3.4741  0.3873 -2.1826
 2537SOL     OW19069   1.695   2.733   3.736 -0.0330  0.3504  0.4401
 2537SOL    HW119070   1.634   2.793   3.695 -1.7713 -1.7807 -0.0668
 2537SOL    HW219071   1.710   2.785   3.815 -1.6738  0.4311  0.6898
 2538SOL     OW19072   3.567   2.302  11.093  0.0948 -0.0918  0.2779
 2538SOL    HW119073   3.510   2.226  11.101  1.5887 -1.2035  0.3074
 2538SOL    HW219074   3.575   2.331  11.183  1.0290  0.2446  0.0901
 2539SOL     OW19075   3.727   2.343   0.933  0.2458  0.2113  0.6457
 2539SOL    HW119076   3.739   2.437   0.948 -0.7851  0.4900 -0.3301
 2539SOL    HW219077   3.785   2.324   0.859  2.3057  0.3204  2.2291
 2540SOL     OW19078   0.752   3.275   2.904 -0.5744 -0.1319 -0.3594
 2540SOL    HW119079   0.724   3.289   2.813 -0.6358  2.5102  0.0836
 2540SOL    HW219080   0.845   3.297   2.900 -0.5547 -0.2800 -0.7133
 2541SOL     OW19081   1.658   0.036   4.763  0.3919 -0.7620  0.1448
 2541SOL    HW119082   1.564   0.022   4.776  0.7272 -0.2405  3.0965
 2541SOL    HW219083   1.681   4.675   4.726  3.1485  0.6017 -1.3009
 2542SOL     OW19084   1.973   1.588   8.597 -1.3188  0.2543  0.1084
 2542SOL    HW119085   1.929   1.624   8.520 -0.2986  0.1108 -0.5477
 2542SOL    HW219086   1.917   1.622   8.668 -1.3781 -0.6337  0.4902
 2543SOL     OW19087   3.554   1.713   8.129 -0.3165  0.0561  0.2756
 2543SOL    HW119088   3.607   1.635   8.114 -1.0497  0.4934 -4.4371
 2543SOL    HW219089   3.552   1.712   8.225 -0.9120  0.6450  0.2642
 2544SOL     OW19090   2.296   0.025   3.711  0.1878 -0.2826  0.5344
 2544SOL    HW119091   2.366   0.089   3.723  0.9371 -0.6894 -1.7126
 2544SOL    HW219092   2.349   4.671   3.696  0.6708  0.3313 -0.9531
 2545SOL     OW19093   0.355   2.377   1.349  0.5660 -0.0347  0.9132
 2545SOL    HW119094   0.440   2.372   1.393  1.3179  0.3552 -0.4881
 2545SOL    HW219095   0.307   2.429   1.413 -1.2726  0.6549 -1.0352
 2546SOL     OW19096   2.875   1.516   1.093  1.0770 -0.7599 -0.0889
 2546SOL    HW119097   2.902   1.561   1.173 -3.5285 -1.2252  1.7789
 2546SOL    HW219098   2.962   1.493   1.060  2.1926 -0.6721  2.8144
 2547SOL     OW19099   3.233   2.505   5.433  0.0092 -0.0127 -0.0738
 2547SOL    HW119100   3.138   2.509   5.447  0.1093  0.6608  0.3783
 2547SOL    HW219101   3.271   2.546   5.511  0.1044  1.7427 -1.0481
 2548SOL     OW19102   0.466   1.355   5.693  0.0943 -0.1133  0.2560
 2548SOL    HW119103   0.415   1.315   5.623  0.5430 -0.1598 -0.0391
 2548SOL    HW219104   0.558   1.331   5.688 -0.0334 -0.7417  0.8639
 2549SOL     OW19105   1.562   3.420   5.543  0.0219 -0.5650  0.6600
 2549SOL    HW119106   1.471   3.419   5.574  0.5840 -1.3390  2.2814
 2549SOL    HW219107   1.548   3.469   5.461  1.7479  0.6487  1.0955
 2550SOL     OW19108   1.985   4.472   0.142  0.3980  0.1326 -0.1354
 2550SOL    HW119109   2.072   4.483   0.179 -0.2435 -1.0687  1.7216
 2550SOL    HW219110   1.975   4.552   0.090  0.9780 -1.0699 -2.1047
 2551SOL     OW19111   1.248   3.923   6.648  0.4702 -0.0407 -0.3331
 2551SOL    HW119112   1.247   3.905   6.554 -1.0591  1.1457 -0.5414
 2551SOL    HW219113   1.198   3.852   6.688  0.6593  0.8659  1.5342
 2552SOL     OW19114   3.789   2.424   5.258 -0.1320 -0.0123 -0.1541
 2552SOL    HW119115   3.779   2.472   5.175 -0.6841  1.2637  0.6585
 2552SOL    HW219116   3.760   2.491   5.320  1.6456  1.1591 -0.5850
 2553SOL     OW19117   1.370   3.961   3.618 -0.2310 -0.6680 -0.0279
 2553SOL    HW119118   1.456   3.988   3.585 -0.5093 -1.2587 -1.2138
 2553SOL    HW219119   1.398   3.892   3.679 -1.1914 -2.1213 -1.2391
 2554SOL     OW19120   2.081   0.075   8.394 -0.0145  0.1704 -0.2941
 2554SOL    HW119121   2.091   4.703   8.388 -2.3605 -0.1108  0.1159
 2554SOL    HW219122   2.132   0.092   8.473  1.2560 -3.3163 -0.3632
 2555SOL     OW19123   2.827   4.038   8.342  0.3657 -0.4523 -0.0387
 2555SOL    HW119124   2.816   3.949   8.308 -0.5715  0.4048 -1.9586
 2555SOL    HW219125   2.918   4.054   8.317 -0.9295  0.6575 -3.9411
 2556SOL     OW19126   4.197   3.546   4.942 -0.0023 -1.0623  0.0305
 2556SOL    HW119127   4.262   3.554   4.872 -1.7121  1.6182 -1.2569
 2556SOL    HW219128   4.206   3.639   4.964 -0.5782 -1.2852  1.1949
 2557SOL     OW19129   2.929   0.413  11.362 -0.1036 -0.0959 -0.0015
 2557SOL    HW119130   2.861   0.476  11.338 -0.6721 -0.4451  0.6762
 2557SOL    HW219131   2.920   0.421  11.457 -0.1469 -3.1934  0.2484
 2558SOL     OW19132   4.622   0.786   7.367 -0.0109 -0.4497  1.0741
 2558SOL    HW119133   4.684   0.838   7.317 -2.5570  1.0355 -0.5898
 2558SOL    HW219134   4.554   0.853   7.375  0.9409  0.4358  1.6076
 2559SOL     OW19135   1.438   3.255  12.786  0.1126 -0.2554  0.2948
 2559SOL    HW119136   1.511   3.316  12.781  1.1196 -1.3715  1.7207
 2559SOL    HW219137   1.364   3.299  12.744  0.0952 -0.1842  0.4020
 2560SOL     OW19138   0.200   2.581  16.908  0.3054 -0.2514 -0.1497
 2560SOL    HW119139   0.173   2.623  16.990 -0.0400  0.6462 -0.7165
 2560SOL    HW219140   0.142   2.625  16.846  0.3323 -1.0111 -0.6993
 2561SOL     OW19141   3.324   1.529   8.822  0.5355  0.0899 -0.2241
 2561SOL    HW119142   3.253   1.520   8.758 -0.0735  0.9699  0.3365
 2561SOL    HW219143   3.334   1.438   8.849 -0.3310  0.1795  0.4002
 2562SOL     OW19144   3.530   4.449  13.775 -0.2728  0.2998 -0.0225
 2562SOL    HW119145   3.458   4.390  13.752  1.7148 -2.6990  1.3929
 2562SOL    HW219146   3.482   4.520  13.817 -0.1715  0.3199  0.0601
 2563SOL     OW19147   3.301   1.690   7.795 -0.4349 -0.6992  0.1978
 2563SOL    HW119148   3.263   1.619   7.742  0.3296 -1.0385  0.0997
 2563SOL    HW219149   3.379   1.703   7.740 -0.8570  2.1284  0.2680
 2564SOL     OW19150   2.711   2.316  15.108  0.0640 -0.9469 -0.2865
 2564SOL    HW119151   2.695   2.240  15.164  0.9164 -0.7728  0.1888
 2564SOL    HW219152   2.802   2.297  15.084 -0.0847 -1.0015 -0.8011
 2565SOL     OW19153   3.786   1.667   9.823  0.2276 -0.0546  0.4848
 2565SOL    HW119154   3.772   1.591   9.878 -1.6757  0.8270  1.2065
 2565SOL    HW219155   3.702   1.676   9.777 -0.3870  0.0964  1.6475
 2566SOL     OW19156   0.609   3.538   5.190 -0.3144 -0.4328 -0.5604
 2566SOL    HW119157   0.623   3.570   5.101  1.3741  0.6375  0.0940
 2566SOL    HW219158   0.542   3.470   5.179 -0.2675 -0.4525 -0.7260
 2567SOL     OW19159   3.420   1.319   4.586 -0.1881 -0.6916 -0.2664
 2567SOL    HW119160   3.505   1.308   4.543  0.5548 -1.4718  1.3608
 2567SOL    HW219161   3.444   1.319   4.679 -2.1925  0.1720  0.2429
 2568SOL     OW19162   0.734   1.916   7.946  0.0325 -0.2172  0.1500
 2568SOL    HW119163   0.742   1.823   7.925 -3.5170 -0.6460  0.6594
 2568SOL    HW219164   0.824   1.938   7.923 -0.1524  1.2115  0.8093
 2569SOL     OW19165   2.890   3.787   2.582 -0.1096  0.1630  0.0183
 2569SOL    HW119166   2.978   3.754   2.597  0.9024  2.2327 -1.3061
 2569SOL    HW219167   2.920   3.848   2.515  4.2038  1.4865  3.1417
 2570SOL     OW19168   3.092   4.612   6.745  0.5702  0.5409  0.1921
 2570SOL    HW119169   3.037   4.588   6.820 -0.3828  1.7847 -0.1049
 2570SOL    HW219170   3.152   4.675   6.784  0.2767 -0.1623  1.8062
 2571SOL     OW19171   2.847   0.017   2.102  0.1723 -0.0942 -0.2452
 2571SOL    HW119172   2.806   0.041   2.185 -0.1605  0.6257 -0.6199
 2571SOL    HW219173   2.804   4.658   2.080 -1.5692  0.5224  0.8451
 2572SOL     OW19174   3.471   3.598   1.613 -0.6820 -0.2982 -0.3327
 2572SOL    HW119175   3.385   3.563   1.636 -0.6000 -0.4632 -0.2763
 2572SOL    HW219176   3.474   3.565   1.523 -0.8292 -1.0326 -0.0682
 2573SOL     OW19177   3.187   2.372   3.276  0.2938 -0.1414  0.3074
 2573SOL    HW119178   3.215   2.442   3.335  2.9072  0.2151 -1.3399
 2573SOL    HW219179   3.124   2.330   3.334 -0.6035 -0.5867 -0.9829
 2574SOL     OW19180   2.068   4.179   9.481 -0.1363 -0.5755 -0.0220
 2574SOL    HW119181   1.984   4.188   9.436 -0.8000 -3.4380  0.6557
 2574SOL    HW219182   2.113   4.262   9.466  0.2350 -0.9503 -0.9508
 2575SOL     OW19183   3.460   4.511   8.115 -0.1733  0.8555  0.7615
 2575SOL    HW119184   3.527   4.442   8.125  0.0363  0.6688 -1.7980
 2575SOL    HW219185   3.501   4.561   8.044 -0.1741 -0.3351 -0.0895
 2576SOL     OW19186   4.562   0.877   6.530  0.3323  0.3062 -0.5081
 2576SOL    HW119187   4.657   0.875   6.519  0.2380  1.5789 -1.4995
 2576SOL    HW219188   4.574   0.920   6.615  1.5817  1.0940 -1.1009
 2577SOL     OW19189   3.128   4.089   7.995 -0.7497 -0.1596 -0.3155
 2577SOL    HW119190   3.095   4.007   7.958 -1.1618 -1.3932  2.8656
 2577SOL    HW219191   3.117   4.075   8.089 -1.0991 -1.5665 -0.5726
 2578SOL     OW19192   2.200   0.048   8.779  0.1025 -0.2355 -0.2024
 2578SOL    HW119193   2.270   0.082   8.724  1.1697 -0.5080  0.9821
 2578SOL    HW219194   2.252   0.003   8.846  1.6019 -1.0740 -1.9146
 2579SOL     OW19195   3.715   4.364   6.094 -0.2485  0.0811 -0.8906
 2579SOL    HW119196   3.808   4.381   6.114 -0.1637  1.1083 -2.1593
 2579SOL    HW219197   3.670   4.436   6.138  0.4836  0.9339 -1.5222
 2580SOL     OW19198   3.154   3.522   9.522 -0.1598  0.3086 -0.6047
 2580SOL    HW119199   3.225   3.511   9.459  0.3191  2.6314 -0.4687
 2580SOL    HW219200   3.075   3.516   9.470 -0.8383 -0.2105  0.4870
 2581SOL     OW19201   1.891   1.220   6.640 -0.3181 -0.4887  0.7725
 2581SOL    HW119202   1.838   1.274   6.699  1.2319  0.8086  0.9892
 2581SOL    HW219203   1.967   1.231   6.698  0.5108  3.0671 -1.0151
 2582SOL     OW19204   0.817   1.905   4.189 -0.0235 -0.5868  0.1831
 2582SOL    HW119205   0.809   1.809   4.190  0.1951 -0.6180 -0.6987
 2582SOL    HW219206   0.858   1.910   4.103 -0.7332 -1.0045 -0.1794
 2583SOL     OW19207   1.281   3.766  11.967 -0.6588 -0.3923  0.0117
 2583SOL    HW119208   1.215   3.785  11.901 -1.2928  2.0560  1.3416
 2583SOL    HW219209   1.341   3.841  11.972 -0.9749 -0.0326 -1.4654
 2584SOL     OW19210   2.506   1.405   6.579 -0.4864 -0.3579 -0.3674
 2584SOL    HW119211   2.421   1.365   6.596  0.0506 -0.4224  2.1971
 2584SOL    HW219212   2.492   1.453   6.498 -1.4437 -0.6650 -0.3784
 2585SOL     OW19213   1.675   2.281   2.380  0.2499  0.2246 -0.0130
 2585SOL    HW119214   1.693   2.334   2.303  1.4306 -0.2210 -0.0480
 2585SOL    HW219215   1.714   2.343   2.442  0.0298 -0.7848  1.1397
 2586SOL     OW19216   1.411   3.388  13.200  0.2673  0.2763  0.1517
 2586SOL    HW119217   1.426   3.326  13.271 -1.0161  1.2086  1.2502
 2586SOL    HW219218   1.316   3.395  13.194  0.1398 -0.1780  1.6318
 2587SOL     OW19219   1.281   3.431  13.462  0.1876 -0.3177  0.1052
 2587SOL    HW119220   1.227   3.491  13.512  0.9336  0.8104 -0.4331
 2587SOL    HW219221   1.369   3.466  13.475  0.4796 -1.3886  0.9862
 2588SOL     OW19222   1.510   2.568   3.285 -0.5959 -0.3061  0.1856
 2588SOL    HW119223   1.582   2.504   3.287  0.9842  1.4674 -0.4788
 2588SOL    HW219224   1.536   2.631   3.218  0.2311  0.2167  0.9932
 2589SOL     OW19225   2.534   2.638  10.429 -0.7568 -0.0472 -0.1425
 2589SOL    HW119226   2.573   2.656  10.343 -1.0558 -3.4662 -0.9963
 2589SOL    HW219227   2.569   2.551  10.451  1.1165  0.4946 -1.0043
 2590SOL     OW19228   1.691   3.356   8.293 -0.5264  0.0827  0.5081
 2590SOL    HW119229   1.641   3.306   8.358  0.6798  0.7819  1.9768
 2590SOL    HW219230   1.756   3.393   8.353  0.2378  1.4105 -1.1428
 2591SOL     OW19231   2.380   0.088  11.575 -0.1981  0.5652 -0.1742
 2591SOL    HW119232   2.286   0.106  11.568 -1.4225 -5.0632  1.1149
 2591SOL    HW219233   2.388   0.103  11.669  0.3058 -0.1740 -0.0983
 2592SOL     OW19234   4.169   2.958   5.120  0.0833  0.1692 -0.1625
 2592SOL    HW119235   4.167   3.015   5.043 -0.5620 -1.6774 -1.5056
 2592SOL    HW219236   4.191   2.871   5.088  1.4423  0.2356  0.5704
 2593SOL     OW19237   3.101   0.316   9.871 -0.1932  0.3300  0.2935
 2593SOL    HW119238   3.035   0.280   9.930 -0.7239 -0.2131 -0.6247
 2593SOL    HW219239   3.162   0.242   9.872  1.1063  1.3603 -2.1143
 2594SOL     OW19240   3.955   0.603   5.422  0.4909 -0.0026 -0.3759
 2594SOL    HW119241   3.901   0.534   5.383 -1.6492  1.9950 -0.9068
 2594SOL    HW219242   3.986   0.638   5.339  1.7473 -2.0288 -0.7598
 2595SOL     OW19243   1.567   0.031  16.679 -0.3085  0.2296 -0.0863
 2595SOL    HW119244   1.508   0.052  16.752  1.7801 -0.5729  1.8439
 2595SOL    HW219245   1.559   0.119  16.644 -0.8477  0.5861  0.9117
 2596SOL     OW19246   3.852   0.728  11.687 -0.0977 -0.3572  0.3795
 2596SOL    HW119247   3.775   0.687  11.649 -1.0668  3.1176 -1.3787
 2596SOL    HW219248   3.849   0.678  11.769  0.8508 -2.3267 -0.7807
 2597SOL     OW19249   3.357   2.083   6.071 -0.4045 -0.1005 -1.0623
 2597SOL    HW119250   3.384   2.055   6.158  0.3298 -2.3043 -1.9845
 2597SOL    HW219251   3.319   2.000   6.042 -0.2965 -0.3963 -0.3632
 2598SOL     OW19252   3.755   2.380   7.868 -0.2511 -0.1886 -0.2514
 2598SOL    HW119253   3.696   2.370   7.942 -0.0574 -1.0324 -0.2153
 2598SOL    HW219254   3.818   2.322   7.911  0.4941 -1.7602 -3.4447
 2599SOL     OW19255   1.636   2.955   4.945 -0.4452  0.1365 -0.5113
 2599SOL    HW119256   1.549   2.922   4.923  0.2190 -1.3394 -0.9226
 2599SOL    HW219257   1.675   2.933   4.860 -1.4325 -3.0934 -0.1205
 2600SOL     OW19258   2.398   4.332  10.175 -0.5611 -0.0194  0.2516
 2600SOL    HW119259   2.316   4.344  10.127 -0.0562  1.3401 -0.2482
 2600SOL    HW219260   2.453   4.404  10.145 -0.1500 -0.4340  0.0081
 2601SOL     OW19261   0.137   3.731   5.901  0.1051  0.2204 -0.1343
 2601SOL    HW119262   0.080   3.808   5.896  0.7451  0.7919  1.2055
 2601SOL    HW219263   0.077   3.671   5.855 -2.1705  1.8443  0.6886
 2602SOL     OW19264   2.399   2.492   3.830  0.0020  0.2613 -0.2475
 2602SOL    HW119265   2.384   2.430   3.901 -0.2270  0.1941 -0.3550
 2602SOL    HW219266   2.343   2.470   3.756 -1.7555  0.6609  0.9541
 2603SOL     OW19267   3.096   1.108   6.085 -0.0043  0.3492  0.8827
 2603SOL    HW119268   3.094   1.199   6.116  1.9424  0.2662  1.2587
 2603SOL    HW219269   3.165   1.086   6.148 -0.1904  0.2976  1.0650
 2604SOL     OW19270   0.722   4.185   9.293 -0.8912  0.3479  0.1898
 2604SOL    HW119271   0.662   4.139   9.234 -0.9919  1.1794 -0.3623
 2604SOL    HW219272   0.657   4.224   9.350 -2.0110 -2.2208  0.6826
 2605SOL     OW19273   1.599   0.171   0.510 -0.0935  0.0664 -0.1843
 2605SOL    HW119274   1.690   0.191   0.532 -0.0059 -1.3711  0.8223
 2605SOL    HW219275   1.575   0.134   0.595 -1.0041 -1.8830 -1.2807
 2606SOL     OW19276   1.165   0.961   7.068 -0.0017 -0.3325  0.1708
 2606SOL    HW119277   1.244   0.942   7.017 -0.0977 -0.5505  0.1042
 2606SOL    HW219278   1.108   1.016   7.013 -1.9661  0.2766  2.8197
 2607SOL     OW19279   1.574   1.848   2.563  0.1760 -0.1800 -0.3661
 2607SOL    HW119280   1.590   1.905   2.488 -1.4085 -0.6600 -1.0649
 2607SOL    HW219281   1.494   1.805   2.533  1.1745 -3.0141  1.0260
 2608SOL     OW19282   0.119   2.714   7.309  0.2187  0.5682  0.2398
 2608SOL    HW119283   0.044   2.772   7.314  0.4029  0.6085  2.7287
 2608SOL    HW219284   0.108   2.671   7.224 -0.7549 -1.5412  1.4150
 2609SOL     OW19285   2.167   1.756   5.316  0.4017  0.0888 -0.6160
 2609SOL    HW119286   2.132   1.697   5.249 -0.5256  0.3733 -0.3858
 2609SOL    HW219287   2.086   1.767   5.366  1.5164  2.1727  0.7332
 2610SOL     OW19288   1.254   1.740  14.764  0.1636 -0.1123 -0.1126
 2610SOL    HW119289   1.160   1.754  14.751  0.0140  1.5158  2.7997
 2610SOL    HW219290   1.256   1.748  14.859 -1.1784  0.2539 -0.1228
 2611SOL     OW19291   2.659   2.752   9.720 -0.6250 -0.2678  0.1549
 2611SOL    HW119292   2.596   2.783   9.785  0.1395 -0.5768  1.0605
 2611SOL    HW219293   2.604   2.725   9.647  0.7278 -4.3707  0.6003
 2612SOL     OW19294   1.050   2.557   6.219 -0.4714 -0.1697 -0.1280
 2612SOL    HW119295   1.109   2.604   6.277 -0.6189  0.6924 -0.6853
 2612SOL    HW219296   1.051   2.470   6.260  2.1901  0.4506  1.1362
 2613SOL     OW19297   2.813   0.975   2.371  0.1776  0.3839 -0.0003
 2613SOL    HW119298   2.835   0.959   2.280 -0.3350 -2.8799  0.4391
 2613SOL    HW219299   2.901   0.989   2.405  0.5590  0.8646 -1.2207
 2614SOL     OW19300   3.446   3.483   6.794  0.3498 -0.2097 -0.2239
 2614SOL    HW119301   3.406   3.491   6.881  1.4748 -2.4236  0.4872
 2614SOL    HW219302   3.423   3.569   6.757  1.3582 -1.0404 -2.7473
 2615SOL     OW19303   1.394   4.550  15.422 -0.4347 -0.3879 -0.2049
 2615SOL    HW119304   1.450   4.627  15.416 -2.8272  1.2249 -2.0493
 2615SOL    HW219305   1.465   4.487  15.425  0.5814  0.7817  0.2277
 2616SOL     OW19306   0.169   3.199   6.925  0.2003  0.5294 -0.0037
 2616SOL    HW119307   0.264   3.198   6.919  0.2509 -1.3053  0.9290
 2616SOL    HW219308   0.144   3.107   6.913  0.5028  0.1968  1.9277
 2617SOL     OW19309   1.287   2.399   3.964  0.4348 -0.1562 -0.0077
 2617SOL    HW119310   1.262   2.461   3.896  3.6794  0.3982 -0.6942
 2617SOL    HW219311   1.382   2.397   3.951  0.2772  0.5395 -1.2575
 2618SOL     OW19312   2.751   3.047   1.563  0.7170 -0.0008 -0.0257
 2618SOL    HW119313   2.678   3.087   1.610 -0.7842 -2.5604 -0.2146
 2618SOL    HW219314   2.778   2.972   1.616 -0.9566 -0.3945  0.2595
 2619SOL     OW19315   0.829   4.364   4.853  0.6011  0.6708  0.5909
 2619SOL    HW119316   0.852   4.444   4.806 -0.4734 -0.5018 -1.9539
 2619SOL    HW219317   0.755   4.322   4.809  1.4056  0.8105 -0.8826
 2620SOL     OW19318   3.817   1.530  17.135 -0.1144  0.4543  0.0139
 2620SOL    HW119319   3.819   1.589  17.059 -0.7251  0.3770 -0.0629
 2620SOL    HW219320   3.906   1.495  17.130 -0.5646 -0.5424 -1.0099
 2621SOL     OW19321   2.959   3.095   2.605 -0.5274  0.0523  0.5912
 2621SOL    HW119322   2.879   3.080   2.655  0.5963  1.0472  2.7011
 2621SOL    HW219323   2.930   3.138   2.525  0.0782  0.7766  0.7550
 2622SOL     OW19324   2.763   0.475   2.061 -0.4344 -0.2131  0.4792
 2622SOL    HW119325   2.696   0.426   2.109  0.3331 -0.4944  1.2655
 2622SOL    HW219326   2.800   0.404   2.008  1.8836  2.2365 -1.1369
 2623SOL     OW19327   1.280   0.050   6.088 -0.2616  0.5479  0.0505
 2623SOL    HW119328   1.349   0.035   6.152 -0.2647  1.8287  0.3428
 2623SOL    HW219329   1.207   0.069   6.148 -0.2048  0.0700  0.2754
 2624SOL     OW19330   4.132   2.012   0.344  0.3690 -0.3247  0.2681
 2624SOL    HW119331   4.108   1.996   0.435 -0.9843  1.0653  0.1522
 2624SOL    HW219332   4.160   2.104   0.346 -1.1398  0.0746  3.1879
 2625SOL     OW19333   1.939   2.878   6.670 -0.1553 -0.9076 -0.1304
 2625SOL    HW119334   2.017   2.851   6.718 -0.2167 -1.1529 -0.1657
 2625SOL    HW219335   1.953   2.972   6.659 -0.8550 -0.6682  1.1040
 2626SOL     OW19336   0.065   2.449   6.790 -0.6212  0.4109  0.5819
 2626SOL    HW119337   0.157   2.458   6.766 -1.1495  4.4636  0.1208
 2626SOL    HW219338   0.059   2.525   6.847  1.9849  2.2475 -1.6416
 2627SOL     OW19339   3.782   1.443   2.914 -0.2612  0.0715 -0.6214
 2627SOL    HW119340   3.869   1.413   2.886 -0.3109 -1.0611  0.4093
 2627SOL    HW219341   3.764   1.376   2.981 -0.8504  1.1639  0.3207
 2628SOL     OW19342   2.763   3.621   7.171  0.5654  0.2007 -0.4336
 2628SOL    HW119343   2.818   3.547   7.198  1.3311  0.8162 -0.2946
 2628SOL    HW219344   2.740   3.659   7.256  3.1005 -0.2357  0.4779
 2629SOL     OW19345   0.051   2.980   3.584  0.0864 -0.0539  0.1525
 2629SOL    HW119346   0.089   3.052   3.533 -0.6196 -0.8549 -1.5197
 2629SOL    HW219347   4.680   2.998   3.587  0.0500 -0.0548 -0.9526
 2630SOL     OW19348   3.225   3.191   5.913  1.2141 -0.0112  0.6141
 2630SOL    HW119349   3.221   3.109   5.961 -0.7349 -1.1597 -1.4845
 2630SOL    HW219350   3.318   3.208   5.926  1.0453  0.0418  1.7263
 2631SOL     OW19351   2.618   2.136   3.723 -0.0694 -0.4501  0.7398
 2631SOL    HW119352   2.660   2.102   3.802  0.6208 -0.3730  0.3996
 2631SOL    HW219353   2.527   2.123   3.750 -0.0647 -0.2413  0.8548
 2632SOL     OW19354   2.155   2.190   3.425  0.3650 -0.2242 -0.3612
 2632SOL    HW119355   2.170   2.280   3.452  0.3619 -0.6708  1.1415
 2632SOL    HW219356   2.223   2.182   3.358  2.2379 -1.0409  1.6579
 2633SOL     OW19357   0.084   3.333   6.296  0.3787  0.3798  0.6531
 2633SOL    HW119358   0.061   3.397   6.229 -0.0683 -0.3635  0.1016
 2633SOL    HW219359   0.115   3.395   6.362 -1.7182  0.4552  1.5930
 2634SOL     OW19360   3.134   3.970   8.551 -0.6109 -0.2571  0.2832
 2634SOL    HW119361   3.196   4.002   8.616 -0.7697  0.3998  0.1123
 2634SOL    HW219362   3.054   4.024   8.551 -1.6054 -1.7225  0.3456
 2635SOL     OW19363   3.550   1.027   4.759  0.1033  0.5826  0.8869
 2635SOL    HW119364   3.625   0.980   4.724  0.5200  1.1510  1.0276
 2635SOL    HW219365   3.572   1.112   4.797 -0.2498  0.9608  0.2359
 2636SOL     OW19366   4.483   2.936   1.871  0.1367  0.9471 -0.2046
 2636SOL    HW119367   4.396   2.976   1.873  0.3577  1.4535 -0.6047
 2636SOL    HW219368   4.536   3.013   1.850  1.2725  0.0915 -0.4844
 2637SOL     OW19369   3.695   3.170   6.254  0.1385 -0.0640 -0.1860
 2637SOL    HW119370   3.772   3.130   6.294  0.8865  1.0503 -0.5332
 2637SOL    HW219371   3.731   3.216   6.178 -0.7458  1.5859  0.3958
 2638SOL     OW19372   1.362   3.738   1.879 -0.1360  0.5641 -0.3683
 2638SOL    HW119373   1.435   3.740   1.941 -1.3499  1.0645  1.0404
 2638SOL    HW219374   1.336   3.830   1.883  2.8220  1.3177  1.3696
 2639SOL     OW19375   4.240   4.527   8.515 -0.4143  0.2823 -0.4168
 2639SOL    HW119376   4.223   4.620   8.507 -1.2558  0.2662  1.3141
 2639SOL    HW219377   4.157   4.496   8.552 -1.8463  0.6706 -3.2498
 2640SOL     OW19378   3.732   0.146   5.470  0.0566 -0.3309 -0.4279
 2640SOL    HW119379   3.724   0.213   5.403 -1.2030 -0.3789 -0.3341
 2640SOL    HW219380   3.656   0.167   5.524  0.7387 -2.1151  1.2400
 2641SOL     OW19381   2.056   0.472   4.732 -0.3357 -0.0931 -0.5324
 2641SOL    HW119382   2.043   0.432   4.646  1.0726 -2.1903  0.2177
 2641SOL    HW219383   1.976   0.446   4.777  0.5252 -2.8651 -0.5706
 2642SOL     OW19384   3.466   0.080  10.269 -0.2267  0.1392 -0.1871
 2642SOL    HW119385   3.530   0.024  10.313 -1.3828  0.1504  1.5096
 2642SOL    HW219386   3.480   0.054  10.178 -0.6101  1.5062 -0.6221
 2643SOL     OW19387   1.292   0.053   0.895  0.0054 -0.1224 -0.2756
 2643SOL    HW119388   1.326   0.106   0.967  1.3064  0.9283 -1.6477
 2643SOL    HW219389   1.236   0.111   0.843 -0.1942 -0.6038 -0.6018
 2644SOL     OW19390   0.526   3.101   8.871 -0.4597 -0.0561  0.0147
 2644SOL    HW119391   0.460   3.069   8.810 -0.8206  0.1562  0.2974
 2644SOL    HW219392   0.549   3.177   8.817 -3.3191  0.6135 -0.2441
 2645SOL     OW19393   1.911   2.727   5.117  0.5718  0.4065 -0.1962
 2645SOL    HW119394   1.909   2.821   5.134 -1.5622  0.4880 -0.8136
 2645SOL    HW219395   1.865   2.703   5.197 -0.3459 -1.3096 -1.2423
 2646SOL     OW19396   3.049   0.390   0.374 -0.0251  0.0627 -0.4756
 2646SOL    HW119397   3.085   0.416   0.289  0.1627  0.1815 -0.3583
 2646SOL    HW219398   3.069   0.296   0.382  0.1964  0.1413 -0.1307
 2647SOL     OW19399   4.401   4.194   4.384  0.1096 -0.2853 -0.0976
 2647SOL    HW119400   4.362   4.280   4.370  1.0343  0.4482  1.6829
 2647SOL    HW219401   4.415   4.160   4.296 -1.1754  0.2321 -0.5011
 2648SOL     OW19402   1.624   4.159   4.538  0.2814  0.5097  0.2574
 2648SOL    HW119403   1.634   4.247   4.503  0.4511 -1.1019 -3.7374
 2648SOL    HW219404   1.536   4.129   4.516  1.4066 -0.4677 -2.8655
 2649SOL     OW19405   2.157   1.109  15.297 -0.0748  0.4576 -0.4741
 2649SOL    HW119406   2.166   1.111  15.392 -0.1820  1.6896 -0.4917
 2649SOL    HW219407   2.168   1.019  15.264 -1.1833  0.5746 -1.1567
 2650SOL     OW19408   0.581   2.767   6.115 -0.7818 -0.3471 -0.9912
 2650SOL    HW119409   0.517   2.713   6.162  0.7668 -0.8260  0.5946
 2650SOL    HW219410   0.652   2.702   6.108  1.6380  2.1972  0.0587
 2651SOL     OW19411   1.546   3.346   2.393  0.2380  0.1162  0.1863
 2651SOL    HW119412   1.457   3.379   2.401  0.0715 -0.3302  0.1518
 2651SOL    HW219413   1.590   3.426   2.361 -0.9490 -0.7373 -3.6391
 2652SOL     OW19414   4.398   0.913  14.185  0.0713  0.6243 -0.5260
 2652SOL    HW119415   4.428   1.005  14.185 -0.3714  0.7572 -2.5043
 2652SOL    HW219416   4.479   0.874  14.217 -1.3762 -1.2880  0.7777
 2653SOL     OW19417   2.644   1.065  10.375 -0.0570 -0.0942 -0.5088
 2653SOL    HW119418   2.671   1.077  10.466 -0.5092  0.4477 -0.4458
 2653SOL    HW219419   2.727   1.060  10.328  0.2644 -0.6583  0.1114
 2654SOL     OW19420   2.094   4.092  11.672 -0.9341  0.9362 -0.5637
 2654SOL    HW119421   2.030   4.022  11.689  0.4585 -0.1351  0.2284
 2654SOL    HW219422   2.161   4.052  11.726 -1.7336  0.7020  0.2557
 2655SOL     OW19423   1.172   3.416  13.049 -0.2417 -0.4390 -0.1020
 2655SOL    HW119424   1.145   3.501  13.015  2.6740 -0.2267 -1.8178
 2655SOL    HW219425   1.127   3.351  12.995 -0.7383  0.3128 -0.5767
 2656SOL     OW19426   4.569   0.231   6.063  0.4009  0.5948 -0.0009
 2656SOL    HW119427   4.558   0.137   6.046 -1.2413  0.8683 -0.4525
 2656SOL    HW219428   4.619   0.247   5.982  1.3919  2.1813  0.9188
 2657SOL     OW19429   3.884   4.221  17.344  0.2017 -0.3990  0.2936
 2657SOL    HW119430   3.898   4.146  17.402 -0.0017 -1.4110 -0.9636
 2657SOL    HW219431   3.845   4.291  17.397  2.4255 -0.4902  2.0790
 2658SOL     OW19432   1.813   4.694  11.852  0.1304  0.5247  0.3951
 2658SOL    HW119433   1.734   4.706  11.905 -1.2103 -0.6640 -1.3589
 2658SOL    HW219434   1.784   0.007  11.768 -1.4970  0.2656  0.8414
 2659SOL     OW19435   2.561   4.010  11.025  0.6606  0.0946  0.4068
 2659SOL    HW119436   2.656   4.010  11.027  0.7094  0.5317 -2.6944
 2659SOL    HW219437   2.545   3.932  10.971  3.9750 -0.1867 -0.1577
 2660SOL     OW19438   3.005   2.841   8.787  0.7233 -0.1168 -0.2049
 2660SOL    HW119439   2.933   2.893   8.822  0.8719 -0.5832  0.8216
 2660SOL    HW219440   3.038   2.897   8.718  1.5552  0.2748  0.5211
 2661SOL     OW19441   2.701   1.604   4.206  0.0922 -0.3460  0.4330
 2661SOL    HW119442   2.718   1.583   4.298 -1.2984  0.4379  0.8551
 2661SOL    HW219443   2.725   1.697   4.205 -0.7613 -0.1314  0.3501
 2662SOL     OW19444   1.745   4.012   4.737 -0.2666  0.3020  0.1769
 2662SOL    HW119445   1.723   4.068   4.662 -0.3462 -1.2833 -0.9914
 2662SOL    HW219446   1.771   4.081   4.798  1.4602 -0.4127  0.2428
 2663SOL     OW19447   3.702   1.833   1.251 -0.1412  0.1869 -0.5015
 2663SOL    HW119448   3.708   1.797   1.340  0.9600  1.9497  0.1253
 2663SOL    HW219449   3.742   1.768   1.193 -0.4369 -1.3659  1.0108
 2664SOL     OW19450   0.924   1.140   8.051 -0.1592  0.3189  0.0941
 2664SOL    HW119451   1.010   1.179   8.034  0.9446 -2.0135  0.4719
 2664SOL    HW219452   0.935   1.050   8.080 -2.4674 -0.6820 -2.1635
 2665SOL     OW19453   3.126   3.077   3.062  0.0118  0.1837  0.3146
 2665SOL    HW119454   3.174   3.037   2.989 -1.1370 -0.4678 -0.0839
 2665SOL    HW219455   3.164   3.163   3.079  2.3611 -0.5219 -1.3254
 2666SOL     OW19456   1.085   3.958   2.718  0.2093  0.2299  0.4347
 2666SOL    HW119457   1.003   3.932   2.760 -0.4262  0.8460 -0.4288
 2666SOL    HW219458   1.145   3.964   2.792 -2.2834  3.1057  2.2123
 2667SOL     OW19459   2.555   3.696   3.679  0.0439  0.0606 -0.2090
 2667SOL    HW119460   2.546   3.665   3.769  2.2201  0.8869  0.3006
 2667SOL    HW219461   2.608   3.775   3.691 -2.5383  1.6900  0.2421
 2668SOL     OW19462   2.310   1.674   4.831  0.1181  0.8930  0.1265
 2668SOL    HW119463   2.396   1.712   4.847  1.4979 -2.3417  0.3589
 2668SOL    HW219464   2.313   1.585   4.866  0.7589  0.2975 -1.4805
 2669SOL     OW19465   1.859   0.653   5.804 -0.1296  0.1964 -0.3367
 2669SOL    HW119466   1.846   0.616   5.716 -0.4034  0.1365 -0.2696
 2669SOL    HW219467   1.835   0.741   5.776  2.2175  1.4660  1.6216
 2670SOL     OW19468   1.964   3.930   6.527  0.3886 -0.0351  0.6152
 2670SOL    HW119469   1.895   3.913   6.591 -0.8463  0.2584 -0.6585
 2670SOL    HW219470   2.039   3.941   6.586 -0.6218 -0.7062  2.0455
 2671SOL     OW19471   2.094   0.009   2.749 -0.0308  0.0432 -0.5802
 2671SOL    HW119472   2.175   4.690   2.776 -0.6841 -0.3622  0.7562
 2671SOL    HW219473   2.136   0.061   2.681 -0.7677 -0.4801 -1.4467
 2672SOL     OW19474   0.447   0.434   4.904 -1.0649  0.1691 -0.2696
 2672SOL    HW119475   0.408   0.501   4.960 -1.4541 -0.0565 -0.2658
 2672SOL    HW219476   0.540   0.458   4.901 -0.5597 -1.5857  0.8500
 2673SOL     OW19477   0.908   3.596   2.498  0.6962  0.2414  0.8708
 2673SOL    HW119478   0.840   3.535   2.470  0.5092 -0.1630  2.1950
 2673SOL    HW219479   0.956   3.611   2.416 -1.9646  1.1570 -0.5101
 2674SOL     OW19480   3.706   4.041   7.130 -0.4576  0.3155 -0.3216
 2674SOL    HW119481   3.685   3.949   7.144 -0.2741  0.6078  1.8976
 2674SOL    HW219482   3.624   4.067   7.172  0.2697  2.0967  0.0242
 2675SOL     OW19483   3.186   2.126   6.873  0.1359 -0.7087  0.5835
 2675SOL    HW119484   3.270   2.145   6.830 -0.4163  1.8820  0.6382
 2675SOL    HW219485   3.178   2.199   6.934 -0.1240  1.0361 -1.5693
 2676SOL     OW19486   1.011   2.923   2.375 -0.4744 -0.1546 -0.4414
 2676SOL    HW119487   1.093   2.944   2.331  0.2301  0.5358  1.2109
 2676SOL    HW219488   0.991   3.007   2.417  1.5586 -0.8046  1.7907
 2677SOL     OW19489   1.256   1.716  15.073  0.2516  0.7748  0.1213
 2677SOL    HW119490   1.254   1.620  15.073  0.7130  0.7655 -0.4358
 2677SOL    HW219491   1.292   1.724  15.162  1.3673  2.4766 -0.4913
 2678SOL     OW19492   3.931   3.883   0.068  0.0783  0.3866  0.3566
 2678SOL    HW119493   4.018   3.885   0.027 -0.1527  1.0627 -0.0944
 2678SOL    HW219494   3.959   3.886   0.160  0.7732  0.1263  0.1508
 2679SOL     OW19495   0.909   2.777   4.369 -0.5781  0.4239 -0.5085
 2679SOL    HW119496   0.819   2.792   4.398 -1.0055  2.8154 -3.0742
 2679SOL    HW219497   0.906   2.688   4.335  1.8338 -0.1334  0.7099
 2680SOL     OW19498   0.987   3.062   2.760 -0.3630 -0.3120  0.3123
 2680SOL    HW119499   1.068   3.014   2.745 -0.6843 -1.0015  0.7610
 2680SOL    HW219500   0.970   3.104   2.676 -1.8444 -0.7201  0.4003
 2681SOL     OW19501   4.200   3.095   7.916  0.2312 -0.1852 -0.2196
 2681SOL    HW119502   4.173   3.046   7.839  1.0367  1.3482 -1.4868
 2681SOL    HW219503   4.147   3.041   7.975  1.8039 -0.9471  0.4947
 2682SOL     OW19504   3.128   4.621   4.315 -0.0534 -0.1224  0.0814
 2682SOL    HW119505   3.180   4.690   4.274 -0.2684  1.2214  2.0996
 2682SOL    HW219506   3.170   4.615   4.401  0.8458  0.0922 -0.3428
 2683SOL     OW19507   1.289   3.173   2.894  0.0129 -0.0767 -0.0235
 2683SOL    HW119508   1.295   3.172   2.798 -0.9731  0.2624 -0.0875
 2683SOL    HW219509   1.324   3.085   2.905  2.0908  0.7499 -0.0093
 2684SOL     OW19510   4.435   3.842   7.799  0.0327  0.2972  0.7493
 2684SOL    HW119511   4.449   3.753   7.767 -2.5154  0.0757  0.2256
 2684SOL    HW219512   4.525   3.872   7.811 -0.7525  2.1565  1.9896
 2685SOL     OW19513   0.682   2.354   2.933 -0.0101  0.5379  0.0560
 2685SOL    HW119514   0.645   2.358   2.845 -0.9106 -0.8769  0.3617
 2685SOL    HW219515   0.756   2.294   2.922  0.1464  0.6058  0.7368
 2686SOL     OW19516   2.277   4.207   0.598  0.1832  0.1142  0.4443
 2686SOL    HW119517   2.233   4.164   0.524  0.9744 -0.4118  0.2806
 2686SOL    HW219518   2.292   4.291   0.555  0.0823  0.0510  0.2851
 2687SOL     OW19519   2.599   3.343   2.924  0.3650 -0.0599 -0.0254
 2687SOL    HW119520   2.554   3.423   2.896 -0.0314  0.7102  2.7825
 2687SOL    HW219521   2.690   3.372   2.930 -0.0462  1.1266  0.4937
 2688SOL     OW19522   4.003   0.663  14.384 -0.0152 -0.9715  0.2951
 2688SOL    HW119523   3.995   0.580  14.337  1.4121 -0.0203 -1.6604
 2688SOL    HW219524   3.917   0.703  14.373  0.2742 -0.4700 -0.2213
 2689SOL     OW19525   2.937   3.282   5.595 -0.0523 -0.1834  0.0708
 2689SOL    HW119526   3.028   3.288   5.564  0.3159 -0.2669  1.1370
 2689SOL    HW219527   2.954   3.325   5.679  0.8305  0.7145 -0.5571
 2690SOL     OW19528   1.404   3.135   5.961  0.0412 -0.6442 -0.5453
 2690SOL    HW119529   1.449   3.121   5.878  1.7886 -1.0186  0.4828
 2690SOL    HW219530   1.479   3.118   6.017  0.7344  0.5753 -1.1068
 2691SOL     OW19531   1.228   4.194   9.459 -0.1135  0.3404 -0.4996
 2691SOL    HW119532   1.310   4.187   9.410 -1.7439  0.7692 -3.2843
 2691SOL    HW219533   1.194   4.105   9.454  0.2408  0.2827 -1.7471
 2692SOL     OW19534   4.275   1.018   8.721  0.8270 -0.0541  0.4709
 2692SOL    HW119535   4.220   1.032   8.798 -0.3552 -0.8294 -0.2379
 2692SOL    HW219536   4.285   0.923   8.721 -1.8512 -0.3548  0.8480
 2693SOL     OW19537   0.457   1.228   2.262  0.5615 -1.0184 -0.7021
 2693SOL    HW119538   0.499   1.235   2.347 -0.8783 -0.2039 -0.0612
 2693SOL    HW219539   0.414   1.314   2.260  1.5988 -0.4745  0.7762
 2694SOL     OW19540   2.540   4.612   7.011  0.3481 -0.5370  0.1761
 2694SOL    HW119541   2.598   4.552   6.963  0.8957 -0.5047  0.8059
 2694SOL    HW219542   2.456   4.567   7.011  0.7909 -1.3460  1.3039
 2695SOL     OW19543   0.935   3.164  15.865  0.0595 -0.0544  0.2710
 2695SOL    HW119544   0.840   3.165  15.850  0.2249  0.4395 -0.8126
 2695SOL    HW219545   0.960   3.073  15.853  0.4988 -0.0158  0.9041
 2696SOL     OW19546   4.202   1.362   4.024  0.0283  0.0689 -0.0123
 2696SOL    HW119547   4.181   1.279   4.066  0.6117 -0.0672  0.0169
 2696SOL    HW219548   4.197   1.340   3.931 -0.9751  2.4472 -0.5299
 2697SOL     OW19549   1.546   3.555   8.133 -0.5724 -0.2527  0.2508
 2697SOL    HW119550   1.570   3.476   8.181 -0.1213 -1.6689 -2.3417
 2697SOL    HW219551   1.552   3.625   8.198  0.2508  0.2012 -0.3147
 2698SOL     OW19552   2.908   4.374   2.449 -0.0230 -0.5419 -0.3988
 2698SOL    HW119553   2.967   4.406   2.381  2.5177  0.8571  2.4657
 2698SOL    HW219554   2.839   4.440   2.434  0.1526 -0.7224 -2.0203
 2699SOL     OW19555   0.881   0.652   3.946 -0.2744  0.5036 -0.3797
 2699SOL    HW119556   0.917   0.728   3.993 -0.2063  1.1618 -1.5073
 2699SOL    HW219557   0.944   0.632   3.877  0.5620  1.8306 -0.0120
 2700SOL     OW19558   1.979   0.085  11.591  0.1149 -0.0691  0.3160
 2700SOL    HW119559   1.962   0.112  11.500 -2.8040  2.1534  1.5083
 2700SOL    HW219560   2.002   0.161  11.645  0.8824 -0.2043  0.1823
 2701SOL     OW19561   3.109   0.806   9.511 -0.0760  0.0656 -0.3410
 2701SOL    HW119562   3.085   0.895   9.537 -1.1917 -0.0241 -1.0424
 2701SOL    HW219563   3.137   0.752   9.585  0.0497  0.6161  0.0179
 2702SOL     OW19564   1.842   4.462   8.110 -0.1260 -0.7793 -0.1495
 2702SOL    HW119565   1.778   4.395   8.087 -0.6979  0.3170 -1.7188
 2702SOL    HW219566   1.848   4.519   8.034 -1.0678 -2.8281 -1.7472
 2703SOL     OW19567   1.585   2.499   2.981  0.0592  0.1235 -0.0417
 2703SOL    HW119568   1.529   2.457   3.046  2.2484 -0.8625  1.2118
 2703SOL    HW219569   1.529   2.483   2.905 -0.5842 -1.9718  0.8957
 2704SOL     OW19570   4.692   3.782  10.431  0.2917 -0.3124  0.0931
 2704SOL    HW119571   0.004   3.869  10.411  0.0094 -0.2301 -0.0446
 2704SOL    HW219572   4.665   3.781  10.523  1.1822  0.3605  0.3659
 2705SOL     OW19573   3.950   3.053  16.051 -0.1724 -0.1088  0.0879
 2705SOL    HW119574   3.921   3.084  15.965  1.1596  0.1607 -0.2653
 2705SOL    HW219575   3.961   2.958  16.045 -0.3931 -0.1969  1.0871
 2706SOL     OW19576   3.266   1.507  11.850  0.2568  0.6618  0.3852
 2706SOL    HW119577   3.210   1.537  11.922  1.1045  0.7797  1.0006
 2706SOL    HW219578   3.331   1.453  11.896  0.3814  0.3171 -0.1936
 2707SOL     OW19579   2.109   4.650   3.948  0.1519 -0.3825  0.7472
 2707SOL    HW119580   2.064   4.675   4.028 -1.7237  0.0553 -0.4553
 2707SOL    HW219581   2.057   4.697   3.883  2.6861 -1.5337 -2.1399
 2708SOL     OW19582   1.937   3.446  17.472 -0.1066 -0.5867 -0.2057
 2708SOL    HW119583   1.848   3.480  17.474 -0.9267 -2.6864 -0.2672
 2708SOL    HW219584   1.937   3.371  17.532  0.5803  1.8149  2.7900
 2709SOL     OW19585   2.651   3.616   0.917  0.4712  0.0850 -0.6330
 2709SOL    HW119586   2.736   3.636   0.878  0.6467  1.0321  0.2473
 2709SOL    HW219587   2.603   3.562   0.854  3.1481 -1.8091 -1.0253
 2710SOL     OW19588   3.239   1.764   3.915  0.6864 -0.4919 -0.2717
 2710SOL    HW119589   3.222   1.714   3.995 -0.5748  1.7247  0.8418
 2710SOL    HW219590   3.332   1.785   3.919 -0.1562  2.9819  2.0715
 2711SOL     OW19591   4.559   4.260  11.774  0.2991 -0.6778  0.5849
 2711SOL    HW119592   4.468   4.266  11.745  0.3127  0.3764  0.7755
 2711SOL    HW219593   4.549   4.277  11.867 -0.2878  0.3673  0.3280
 2712SOL     OW19594   2.241   1.996   6.359 -0.3337  0.1022  0.0170
 2712SOL    HW119595   2.164   2.051   6.358  0.4728  1.2580  1.3809
 2712SOL    HW219596   2.226   1.935   6.287 -1.5224 -0.5681  0.8254
 2713SOL     OW19597   1.624   1.126   4.841 -0.2647 -0.0802  0.9686
 2713SOL    HW119598   1.590   1.203   4.795 -0.7709  0.7288  2.6628
 2713SOL    HW219599   1.540   1.085   4.863  0.2241 -2.1847 -1.1787
 2714SOL     OW19600   0.595   0.108   2.595 -0.3061 -0.0000  0.4508
 2714SOL    HW119601   0.634   0.040   2.650  1.0687 -0.3768 -1.0143
 2714SOL    HW219602   0.605   0.055   2.517 -0.0912  0.2941  0.2757
 2715SOL     OW19603   3.948   2.170   7.873  0.1614 -0.0189  0.5679
 2715SOL    HW119604   4.043   2.178   7.862  0.1463 -2.4557 -1.4726
 2715SOL    HW219605   3.940   2.134   7.961  2.8255  0.5748  1.0560
 2716SOL     OW19606   3.471   1.337  15.204 -0.2309 -0.4199  0.4810
 2716SOL    HW119607   3.547   1.283  15.181 -0.4503 -0.3633 -0.3569
 2716SOL    HW219608   3.512   1.401  15.263 -0.4458  0.5378 -0.4088
 2717SOL     OW19609   1.704   1.620   5.660  0.3975 -0.3874  0.1962
 2717SOL    HW119610   1.777   1.610   5.721 -1.4752 -2.6608  2.0403
 2717SOL    HW219611   1.722   1.545   5.603 -1.8712 -1.1656  0.5042
 2718SOL     OW19612   2.787   3.080   4.650 -0.0688  0.6683 -0.6129
 2718SOL    HW119613   2.806   2.986   4.640 -3.4644 -0.0607 -0.0991
 2718SOL    HW219614   2.859   3.111   4.705 -0.8095 -0.2001  0.8567
 2719SOL     OW19615   3.741   0.839   6.784  0.0330  0.0668 -0.4917
 2719SOL    HW119616   3.768   0.765   6.730  0.6849  1.2986 -1.8428
 2719SOL    HW219617   3.704   0.892   6.714  0.0812 -0.9029 -1.2413
 2720SOL     OW19618   1.556   1.630   9.612 -0.4103 -0.0884  0.5000
 2720SOL    HW119619   1.477   1.620   9.665  0.3802 -2.2666  1.2271
 2720SOL    HW219620   1.597   1.545   9.624 -0.6917 -0.4530 -1.0865
 2721SOL     OW19621   3.026   3.376   1.008 -0.1733  0.1567 -0.4720
 2721SOL    HW119622   3.033   3.348   1.099 -1.1828 -2.4625 -1.2213
 2721SOL    HW219623   3.105   3.338   0.971 -0.5658 -2.6391  1.5834
 2722SOL     OW19624   0.096   1.636   2.203  0.4587 -0.5411 -0.1054
 2722SOL    HW119625   0.069   1.611   2.114 -0.0122 -0.5186  0.0361
 2722SOL    HW219626   0.100   1.549   2.243  1.3296 -0.4076  0.1044
 2723SOL     OW19627   1.290   2.534   5.562 -0.2634 -0.3987 -0.2797
 2723SOL    HW119628   1.204   2.569   5.539  0.3471  0.6691 -0.9274
 2723SOL    HW219629   1.352   2.592   5.518  0.2424  1.3826  2.7520
 2724SOL     OW19630   3.313   0.239   8.487 -0.2237 -0.1450 -0.3240
 2724SOL    HW119631   3.260   0.294   8.428 -0.9108  0.8391  1.1987
 2724SOL    HW219632   3.261   0.241   8.568  1.7999  0.2217  0.9731
 2725SOL     OW19633   3.998   0.804  11.152  0.6477  0.2698 -0.4176
 2725SOL    HW119634   3.959   0.828  11.236 -0.0041  0.2978 -0.7269
 2725SOL    HW219635   4.019   0.711  11.162  1.3840  0.7664  2.6681
 2726SOL     OW19636   4.126   0.830   0.290 -0.6406 -0.0430  0.7305
 2726SOL    HW119637   4.041   0.804   0.255 -0.9778  0.3867  1.2458
 2726SOL    HW219638   4.150   0.760   0.351 -0.2855 -0.7628 -0.2310
 2727SOL     OW19639   4.197   0.050   2.685  0.0614  0.0240 -0.2444
 2727SOL    HW119640   4.268   0.103   2.647  0.2603 -0.2733 -0.2880
 2727SOL    HW219641   4.119   0.097   2.656 -0.4531 -1.7147 -1.7214
 2728SOL     OW19642   3.959   0.822   8.479 -1.0297  0.2222 -0.4998
 2728SOL    HW119643   3.913   0.855   8.556  0.4991  0.6867  0.2157
 2728SOL    HW219644   3.996   0.905   8.450 -1.9654  0.1242 -1.9527
 2729SOL     OW19645   1.588   0.866  10.861  0.2250 -0.0608 -0.0082
 2729SOL    HW119646   1.594   0.772  10.843 -0.7765 -0.2540  0.6795
 2729SOL    HW219647   1.594   0.870  10.956  2.1257  0.4972 -0.1426
 2730SOL     OW19648   1.628   0.608  10.799 -0.3087  0.5467 -0.1182
 2730SOL    HW119649   1.691   0.541  10.824 -0.5617 -0.8336 -3.2099
 2730SOL    HW219650   1.557   0.555  10.762 -1.2968  1.0413  1.0625
 2731SOL     OW19651   1.499   0.432   8.243 -0.6159  0.3501  0.1944
 2731SOL    HW119652   1.485   0.410   8.335 -1.6493  2.6950  0.5901
 2731SOL    HW219653   1.573   0.493   8.254 -1.0211  0.9835 -0.5560
 2732SOL     OW19654   0.939   4.209  16.008 -0.1481 -0.5216  0.5037
 2732SOL    HW119655   1.018   4.260  16.029 -1.9497  3.0288 -1.2567
 2732SOL    HW219656   0.978   4.138  15.958  0.1279  0.2588 -0.3776
 2733SOL     OW19657   2.347   4.455  11.254 -0.0991  0.0558  0.6915
 2733SOL    HW119658   2.276   4.430  11.314 -1.3368  2.6031  0.3057
 2733SOL    HW219659   2.337   4.550  11.259  0.8435  0.1334  1.0028
 2734SOL     OW19660   1.331   3.962   4.977 -0.1671 -0.1394  0.0498
 2734SOL    HW119661   1.393   3.913   5.031  1.2454  0.1596 -1.3002
 2734SOL    HW219662   1.321   4.040   5.031  0.9705  0.7665 -1.0642
 2735SOL     OW19663   4.678   0.492   3.132  0.1992  0.5551 -0.1442
 2735SOL    HW119664   0.007   0.423   3.172 -2.0121  0.5866  2.8550
 2735SOL    HW219665   4.723   0.562   3.179  3.8481 -1.6391 -0.3917
 2736SOL     OW19666   3.618   2.097   8.552  0.5451  0.4701  0.0510
 2736SOL    HW119667   3.587   2.160   8.487 -0.6018  1.4789  1.5955
 2736SOL    HW219668   3.646   2.023   8.498 -1.3966 -1.3267  1.5334
 2737SOL     OW19669   3.037   0.878   0.571  0.9667  0.1405 -0.3836
 2737SOL    HW119670   3.108   0.910   0.516  0.4432 -1.8474 -2.2205
 2737SOL    HW219671   3.068   0.788   0.575 -1.0724 -0.5874 -0.6237
 2738SOL     OW19672   3.107   4.689   6.487 -0.1080  0.1685 -0.5889
 2738SOL    HW119673   3.107   4.658   6.578 -1.3392  0.9998 -0.3114
 2738SOL    HW219674   3.173   0.033   6.506  0.7846 -0.3148 -1.9372
 2739SOL     OW19675   0.038   0.280   9.409  0.9083 -0.0993 -0.4807
 2739SOL    HW119676   0.124   0.245   9.432  0.4112 -1.0862 -0.0959
 2739SOL    HW219677   4.723   0.196   9.381 -1.1050  0.7537 -0.2888
 2740SOL     OW19678   4.302   1.251   9.892 -0.1558 -0.2574 -0.3156
 2740SOL    HW119679   4.324   1.162   9.865  0.5139  0.3793 -1.8600
 2740SOL    HW219680   4.225   1.264   9.838  0.4343  0.6041 -0.9508
 2741SOL     OW19681   3.395   4.123   6.123 -0.0693 -0.4299  0.3441
 2741SOL    HW119682   3.339   4.196   6.151 -0.5366 -0.5398 -0.3038
 2741SOL    HW219683   3.475   4.140   6.173  0.8741 -0.2351 -1.2221
 2742SOL     OW19684   4.261   4.353   6.427  0.3358 -0.1115 -0.0086
 2742SOL    HW119685   4.256   4.447   6.411  1.7844 -0.1481 -0.6828
 2742SOL    HW219686   4.277   4.313   6.341  2.1764  1.9732 -0.6285
 2743SOL     OW19687   0.231   4.400   5.251 -0.5045  0.5402  0.0038
 2743SOL    HW119688   0.232   4.404   5.346 -2.9427 -0.8283  0.1008
 2743SOL    HW219689   0.199   4.315   5.221 -0.0114  0.3866 -0.0810
 2744SOL     OW19690   0.148   1.749   9.499  0.1525  0.1357 -0.5208
 2744SOL    HW119691   0.214   1.743   9.430  1.2742  0.1422  0.5676
 2744SOL    HW219692   0.077   1.712   9.445  2.1571 -2.8580 -1.1070
 2745SOL     OW19693   4.701   2.656   3.201  0.0505  0.0879  0.9580
 2745SOL    HW119694   0.060   2.618   3.232 -0.5290 -0.5450  1.7021
 2745SOL    HW219695   4.718   2.660   3.107 -1.7736 -0.5214  0.6132
 2746SOL     OW19696   0.915   0.044   9.228  0.2454  0.5114  0.0757
 2746SOL    HW119697   0.872   0.103   9.166 -0.9312  0.7090  1.0683
 2746SOL    HW219698   0.827   0.020   9.259  0.6503 -1.8776 -0.6353
 2747SOL     OW19699   0.617   1.406  17.577  0.6296  0.2651 -0.4909
 2747SOL    HW119700   0.615   1.449  17.492 -1.8850  3.2445  1.0268
 2747SOL    HW219701   0.566   1.471  17.627  1.7791  3.1780 -3.1676
 2748SOL     OW19702   4.342   1.690   5.593  0.1922  0.4752  0.1672
 2748SOL    HW119703   4.332   1.596   5.578  3.7364 -0.0345  1.1633
 2748SOL    HW219704   4.260   1.724   5.558 -0.9945  0.6041  3.0356
 2749SOL     OW19705   1.347   4.011  16.967  0.9420  0.6602 -0.0908
 2749SOL    HW119706   1.305   3.927  16.946 -0.8428  1.8222 -1.2077
 2749SOL    HW219707   1.350   4.001  17.062 -2.5548 -1.2355 -0.1465
 2750SOL     OW19708   4.517   2.198   9.636  0.0176  0.1093 -0.4375
 2750SOL    HW119709   4.510   2.211   9.730  0.2674 -0.1924 -0.3782
 2750SOL    HW219710   4.604   2.157   9.630 -0.1567 -0.1451 -1.3094
 2751SOL     OW19711   3.659   4.497  10.620 -0.1406  0.0016 -0.1709
 2751SOL    HW119712   3.680   4.560  10.552 -0.2526 -0.1515 -0.3472
 2751SOL    HW219713   3.638   4.554  10.694 -1.3210 -0.2779 -0.2926
 2752SOL     OW19714   0.095   2.997   1.738 -0.4269 -0.4292 -0.0643
 2752SOL    HW119715   0.149   3.070   1.710 -3.1094  1.0552 -1.3777
 2752SOL    HW219716   0.023   3.042   1.783  0.0540  0.6442 -0.3892
 2753SOL     OW19717   1.262   1.542   4.117  0.7571 -0.3029  0.5542
 2753SOL    HW119718   1.181   1.519   4.163 -0.1684 -1.4787 -1.6179
 2753SOL    HW219719   1.241   1.634   4.103  1.4280 -0.2076  0.1986
 2754SOL     OW19720   3.212   0.820   0.904 -0.0209  0.3927  0.6757
 2754SOL    HW119721   3.180   0.833   0.993 -0.8862 -1.3343  0.6191
 2754SOL    HW219722   3.294   0.869   0.897 -0.3262  0.8426  0.2437
 2755SOL     OW19723   4.505   0.224   7.886 -0.1029  0.2506  0.2613
 2755SOL    HW119724   4.518   0.129   7.886 -1.0045  0.1350  0.2540
 2755SOL    HW219725   4.518   0.231   7.792 -0.8437 -1.4280  0.0380
 2756SOL     OW19726   1.449   0.833  13.538  0.0002  0.1598  0.5879
 2756SOL    HW119727   1.364   0.874  13.527 -1.4125 -2.3163  2.2929
 2756SOL    HW219728   1.500   0.857  13.461 -0.8537 -0.9826 -0.3235
 2757SOL     OW19729   2.720   1.386   6.817  0.2632 -0.0085  0.2774
 2757SOL    HW119730   2.690   1.302   6.782  1.3594  0.2792 -1.3406
 2757SOL    HW219731   2.752   1.422   6.735  1.7249 -0.1637  0.7680
 2758SOL     OW19732   2.371   0.973   4.619  0.3104 -0.3856 -0.0816
 2758SOL    HW119733   2.333   0.885   4.627  2.9634 -1.2984  2.5701
 2758SOL    HW219734   2.414   0.980   4.704  1.2311 -0.6161 -0.5300
 2759SOL     OW19735   2.173   0.915  17.673 -0.1190  0.6702  0.1655
 2759SOL    HW119736   2.227   0.966   0.037  1.8274 -0.1846 -0.8476
 2759SOL    HW219737   2.105   0.881   0.035 -1.6069  1.9358 -0.8404
 2760SOL     OW19738   4.113   4.453   4.595  0.3820  0.3633  0.0917
 2760SOL    HW119739   4.058   4.419   4.525  0.7618  1.3473 -0.6931
 2760SOL    HW219740   4.057   4.433   4.670  0.1633 -0.4843 -0.3024
 2761SOL     OW19741   0.422   3.650   1.599  0.4226 -0.2064 -0.0636
 2761SOL    HW119742   0.429   3.566   1.643 -0.9353 -0.8947 -1.1449
 2761SOL    HW219743   0.512   3.682   1.601  0.5190 -0.5297  0.9271
 2762SOL     OW19744   0.148   0.295  14.387  0.2744 -0.1487  0.5422
 2762SOL    HW119745   0.143   0.304  14.482  0.0370 -1.1578  0.6209
 2762SOL    HW219746   0.070   0.244  14.368  1.7606 -1.8879 -0.8596
 2763SOL     OW19747   3.746   3.424   8.048  0.4092 -0.4554 -0.9907
 2763SOL    HW119748   3.772   3.504   8.003  2.5860 -0.6621 -0.0922
 2763SOL    HW219749   3.786   3.361   7.989 -0.8219 -1.2507 -0.9733
 2764SOL     OW19750   0.106   2.267   8.503 -0.3485 -0.4563 -0.1151
 2764SOL    HW119751   0.197   2.292   8.484 -0.8683 -1.2114 -3.4787
 2764SOL    HW219752   0.126   2.173   8.500  3.0701  0.2336  0.2813
 2765SOL     OW19753   0.297   2.276   4.168 -0.3878  0.2247  0.0631
 2765SOL    HW119754   0.295   2.372   4.169 -2.7517  0.1733 -2.5396
 2765SOL    HW219755   0.203   2.257   4.178 -0.4131  1.9730  3.1691
 2766SOL     OW19756   4.129   3.257   2.848 -0.7482  0.6287 -0.0164
 2766SOL    HW119757   4.218   3.291   2.860 -0.5745 -0.0182  0.4985
 2766SOL    HW219758   4.083   3.339   2.831 -0.1475  1.4893  2.5690
 2767SOL     OW19759   0.333   3.566   6.148  0.2991  0.5484 -0.2025
 2767SOL    HW119760   0.312   3.520   6.067 -1.3219  1.2107 -0.1642
 2767SOL    HW219761   0.426   3.547   6.163 -0.0010 -0.6876  0.0832
 2768SOL     OW19762   3.753   1.460   9.990  1.0476 -0.0669  0.3471
 2768SOL    HW119763   3.697   1.383  10.000  1.4633 -0.2373  1.4130
 2768SOL    HW219764   3.816   1.437  10.058  0.7317 -0.4297  0.5196
 2769SOL     OW19765   1.018   0.264   5.647 -1.0388 -0.6751  0.7155
 2769SOL    HW119766   0.937   0.263   5.597 -0.6727 -2.6584  0.1515
 2769SOL    HW219767   0.989   0.223   5.729 -0.8262 -0.5250  0.8671
 2770SOL     OW19768   2.245   1.797   5.795 -0.5424 -0.3333 -0.2257
 2770SOL    HW119769   2.255   1.703   5.808  0.6770 -0.2942 -0.9184
 2770SOL    HW219770   2.169   1.815   5.851  0.0293  0.5830  0.2433
 2771SOL     OW19771   2.359   0.559   0.177  0.1636 -0.5553 -0.3273
 2771SOL    HW119772   2.390   0.648   0.195 -0.6011 -0.1434 -1.0640
 2771SOL    HW219773   2.372   0.560   0.083 -0.1591 -1.2722 -0.3799
 2772SOL     OW19774   0.418   0.371  12.304  0.0751  0.3663 -0.4415
 2772SOL    HW119775   0.441   0.362  12.211  0.3208 -0.1165 -0.3320
 2772SOL    HW219776   0.380   0.285  12.321 -2.8451  1.5248 -1.1279
 2773SOL     OW19777   3.414   0.891   5.794 -0.1539 -0.0843 -0.0305
 2773SOL    HW119778   3.432   0.865   5.703  2.2392 -1.7451  0.9257
 2773SOL    HW219779   3.365   0.973   5.788  0.2869  0.0182 -2.4531
 2774SOL     OW19780   4.016   4.027  12.716  0.0401  0.1441  0.0245
 2774SOL    HW119781   3.926   4.021  12.686  0.2034  0.5278 -0.5247
 2774SOL    HW219782   4.061   4.099  12.672  0.6938  0.5110  1.2730
 2775SOL     OW19783   0.963   2.738   7.854  0.1184 -0.3016  0.4419
 2775SOL    HW119784   0.945   2.662   7.800 -0.3639  0.4680 -0.4842
 2775SOL    HW219785   1.012   2.697   7.925 -1.8421  0.6577  2.3501
 2776SOL     OW19786   2.356   2.857   7.919 -0.0026 -0.0497  0.4141
 2776SOL    HW119787   2.325   2.930   7.972 -1.7027  0.1234 -0.8473
 2776SOL    HW219788   2.346   2.886   7.828 -1.8551 -0.6666  0.4293
 2777SOL     OW19789   3.069   3.516   0.199 -0.0136  0.1547 -0.5723
 2777SOL    HW119790   3.061   3.524   0.103  1.8356 -0.5135 -0.7729
 2777SOL    HW219791   3.029   3.430   0.213 -2.6665  1.3700 -0.5839
 2778SOL     OW19792   1.977   4.231   4.806 -0.5476  0.0762  0.0658
 2778SOL    HW119793   2.013   4.155   4.853 -0.5190  1.2411  1.9176
 2778SOL    HW219794   2.043   4.298   4.826 -2.6540  2.1770 -0.0434
 2779SOL     OW19795   1.785   2.685   0.415 -0.6494 -0.0327  0.0649
 2779SOL    HW119796   1.824   2.755   0.362 -0.9298 -1.4149 -1.9599
 2779SOL    HW219797   1.693   2.698   0.391 -0.4837 -0.5870 -0.8935
 2780SOL     OW19798   4.236   1.967  12.239 -0.3066  0.7825 -0.3635
 2780SOL    HW119799   4.159   2.023  12.251 -1.8914 -1.6656  0.9434
 2780SOL    HW219800   4.200   1.897  12.184 -0.0344  0.8198 -0.5862
 2781SOL     OW19801   3.031   3.388   2.707  0.2110  0.8702 -0.0822
 2781SOL    HW119802   2.977   3.426   2.638 -0.6276  0.9516  0.6163
 2781SOL    HW219803   3.064   3.312   2.659  1.9230  1.5376  0.0381
 2782SOL     OW19804   3.630   1.256   1.486  0.0340 -0.1637 -0.5011
 2782SOL    HW119805   3.628   1.167   1.523 -0.0750 -0.1176 -0.3956
 2782SOL    HW219806   3.726   1.261   1.484 -0.1073  1.2158 -2.7920
 2783SOL     OW19807   0.183   3.813  13.033  0.2659 -0.5898 -0.3053
 2783SOL    HW119808   0.191   3.721  13.058  0.3253  0.1442  2.3461
 2783SOL    HW219809   0.239   3.822  12.956  0.0347  0.2892 -0.3695
 2784SOL     OW19810   2.477   1.814   3.135  0.2002  0.4871  0.0697
 2784SOL    HW119811   2.539   1.751   3.099 -1.3332 -1.2255  0.4159
 2784SOL    HW219812   2.475   1.880   3.066 -0.1391  1.4104  0.9641
 2785SOL     OW19813   3.036   1.443   5.458 -0.5722  0.3922 -0.0001
 2785SOL    HW119814   3.118   1.427   5.506  0.2563 -0.7773 -1.7949
 2785SOL    HW219815   2.994   1.361   5.483 -1.5786  1.3553  1.4726
 2786SOL     OW19816   1.263   2.271   5.572 -0.1324  0.1417 -0.2528
 2786SOL    HW119817   1.302   2.358   5.572 -1.1210  0.5803 -0.1710
 2786SOL    HW219818   1.327   2.219   5.621  0.4349 -1.0142 -2.2345
 2787SOL     OW19819   2.226   1.892   9.774 -0.5773 -0.1823 -0.1313
 2787SOL    HW119820   2.143   1.930   9.804 -0.7384 -0.8173  0.2320
 2787SOL    HW219821   2.270   1.977   9.770 -2.6809  0.9335  0.2561
 2788SOL     OW19822   2.184   1.243  12.833 -0.5016  0.5138 -0.4051
 2788SOL    HW119823   2.089   1.233  12.833 -0.2055 -2.3652  0.2074
 2788SOL    HW219824   2.204   1.207  12.747 -1.6837 -0.4932 -0.2656
 2789SOL     OW19825   3.780   1.279   8.679 -0.3839 -0.4405 -0.1359
 2789SOL    HW119826   3.834   1.248   8.606 -0.4564  0.9787 -0.7927
 2789SOL    HW219827   3.847   1.304   8.743  0.1774  0.9642 -1.2817
 2790SOL     OW19828   1.130   2.008   6.259 -0.2349  0.4143  0.0753
 2790SOL    HW119829   1.203   2.003   6.321 -0.8833  1.5607  0.9425
 2790SOL    HW219830   1.119   1.917   6.235 -0.4660  0.0390  1.6115
 2791SOL     OW19831   4.349   3.547   0.793 -0.1287  0.1935 -0.2964
 2791SOL    HW119832   4.304   3.629   0.770 -1.8738 -0.0652  2.2531
 2791SOL    HW219833   4.309   3.493   0.724 -3.7322  0.7837  1.3139
 2792SOL     OW19834   2.243   3.714   2.886  0.0544  0.2527  0.6764
 2792SOL    HW119835   2.205   3.785   2.835  0.9533  0.1089 -0.2011
 2792SOL    HW219836   2.330   3.698   2.849  0.4730 -1.7364  2.5882
 2793SOL     OW19837   4.698   0.607   9.385  0.0869 -0.6186  0.0932
 2793SOL    HW119838   4.622   0.658   9.356  0.3719  0.9128  2.0110
 2793SOL    HW219839   4.696   0.550   9.309 -0.1647 -0.1260 -0.2664
 2794SOL     OW19840   4.325   2.811   7.584 -0.0972  0.0389  0.5780
 2794SOL    HW119841   4.304   2.818   7.677 -0.0457  2.2023  0.4352
 2794SOL    HW219842   4.379   2.889   7.571  2.2132 -1.6875 -0.1528
 2795SOL     OW19843   0.978   3.510  14.361  0.3329 -0.3105 -0.2849
 2795SOL    HW119844   0.935   3.430  14.391  0.9242  0.8409  3.6031
 2795SOL    HW219845   0.931   3.570  14.420  0.4081 -0.5541  0.0202
 2796SOL     OW19846   3.517   1.054   7.564 -0.0384 -0.4013 -0.4163
 2796SOL    HW119847   3.483   1.084   7.479 -0.9401  0.7774  0.3563
 2796SOL    HW219848   3.608   1.026   7.552  0.1389 -0.2391  0.5867
 2797SOL     OW19849   4.474   2.444   2.936 -0.5040  0.2331 -0.1873
 2797SOL    HW119850   4.469   2.391   2.856  1.6098 -0.1175 -0.1029
 2797SOL    HW219851   4.507   2.372   2.990 -0.9131  0.1185 -0.0874
 2798SOL     OW19852   4.404   3.600   4.782 -0.3449  0.2289 -0.2986
 2798SOL    HW119853   4.449   3.644   4.853 -1.1853 -0.1208  0.4529
 2798SOL    HW219854   4.425   3.653   4.705 -0.4048  0.0091 -0.4656
 2799SOL     OW19855   3.235   0.992   2.911  0.1174  0.1170 -0.2879
 2799SOL    HW119856   3.198   1.052   2.976 -1.1461  0.1381 -1.0326
 2799SOL    HW219857   3.304   1.047   2.872  0.9517 -0.0457  0.9378
 2800SOL     OW19858   2.878   0.453  12.868 -0.3864  0.1824 -0.3441
 2800SOL    HW119859   2.895   0.528  12.925  1.2621  0.6020 -1.4110
 2800SOL    HW219860   2.951   0.394  12.889 -1.3558 -0.0938  2.3102
 2801SOL     OW19861   2.620   1.780   8.111  0.1823 -0.2585  0.1464
 2801SOL    HW119862   2.641   1.696   8.152 -0.3911 -0.4238  0.0866
 2801SOL    HW219863   2.701   1.829   8.128  0.6517 -1.0029  0.0672
 2802SOL     OW19864   4.283   2.437   2.538  0.3989 -0.0766  0.3459
 2802SOL    HW119865   4.210   2.376   2.547  0.3642  0.0555  0.9685
 2802SOL    HW219866   4.295   2.426   2.444  0.4074  0.2746  0.3051
 2803SOL     OW19867   1.619   3.262   2.776  0.1439 -0.8780 -0.0562
 2803SOL    HW119868   1.607   3.318   2.853  1.6547 -0.5463 -0.0671
 2803SOL    HW219869   1.547   3.285   2.717  1.2505  0.5209 -0.8735
 2804SOL     OW19870   4.414   0.046   2.151  0.3688 -0.1381  0.3815
 2804SOL    HW119871   4.378   4.697   2.202  2.0746 -1.3488 -0.1378
 2804SOL    HW219872   4.479   4.719   2.102 -0.4082  0.4615 -1.2752
 2805SOL     OW19873   0.312   1.425  16.362 -0.2208  0.3119  0.1578
 2805SOL    HW119874   0.354   1.424  16.447 -0.1533 -0.4419  0.1127
 2805SOL    HW219875   0.356   1.353  16.317 -0.5905  0.9043 -1.1750
 2806SOL     OW19876   3.559   3.374   7.085 -0.2255 -0.4088 -0.0016
 2806SOL    HW119877   3.593   3.299   7.036 -0.5567  0.0077 -0.8706
 2806SOL    HW219878   3.587   3.347   7.172 -0.6339  0.0679  0.2784
 2807SOL     OW19879   0.704   1.859  16.651 -0.0962  0.2364 -0.2837
 2807SOL    HW119880   0.658   1.777  16.667 -1.0645  0.5691 -1.4166
 2807SOL    HW219881   0.790   1.834  16.617 -1.3273 -1.9310 -1.7544
 2808SOL     OW19882   1.145   0.779   5.678  0.1125  0.1533 -0.4372
 2808SOL    HW119883   1.079   0.752   5.742 -0.4980  2.1762 -0.2177
 2808SOL    HW219884   1.160   0.691   5.643  0.4673  0.6962 -1.6558
 2809SOL     OW19885   0.198   1.376   4.002  0.2796  0.4309 -0.5107
 2809SOL    HW119886   0.183   1.410   3.914  1.0003  0.2080 -0.7208
 2809SOL    HW219887   0.210   1.282   3.985 -1.2833 -0.1963  1.9091
 2810SOL     OW19888   0.229   1.558   6.607  0.7735  1.3448 -0.5052
 2810SOL    HW119889   0.240   1.464   6.617 -1.0607  1.2414  0.5956
 2810SOL    HW219890   0.318   1.591   6.597  0.6664  1.5059 -0.9065
 2811SOL     OW19891   0.708   0.578   7.158 -0.2041  0.0140  0.1092
 2811SOL    HW119892   0.673   0.622   7.081  0.5010  0.2434 -0.0851
 2811SOL    HW219893   0.709   0.485   7.138 -2.6718  0.0179  0.0540
 2812SOL     OW19894   3.873   2.657   6.322 -0.2925 -0.3098 -0.5299
 2812SOL    HW119895   3.850   2.701   6.241  0.7152  1.0655 -0.0663
 2812SOL    HW219896   3.967   2.647   6.308 -0.3616  0.5338 -1.5072
 2813SOL     OW19897   3.136   2.644   7.383  0.7899  0.0157 -0.1132
 2813SOL    HW119898   3.211   2.618   7.330  0.3305 -0.8694 -0.3246
 2813SOL    HW219899   3.070   2.686   7.329  0.3744 -1.3333 -0.6587
 2814SOL     OW19900   3.489   4.567  16.921 -0.2631  0.2177  0.2966
 2814SOL    HW119901   3.397   4.555  16.898 -0.8462 -1.1921  3.4084
 2814SOL    HW219902   3.485   4.646  16.974  0.5227  0.0838  0.5563
 2815SOL     OW19903   3.711   3.205   7.244 -0.2324 -0.1237  0.5991
 2815SOL    HW119904   3.785   3.155   7.278  0.8174  0.0097 -1.4712
 2815SOL    HW219905   3.689   3.245   7.328 -1.3859  0.3753  0.0502
 2816SOL     OW19906   1.711   4.693   6.750 -0.1726 -0.3018  0.0213
 2816SOL    HW119907   1.675   0.041   6.802 -2.3537  0.4098 -2.5110
 2816SOL    HW219908   1.799   0.004   6.734 -1.2831  2.2479 -0.6195
 2817SOL     OW19909   2.331   0.809  14.857  0.1637 -0.2589 -0.3514
 2817SOL    HW119910   2.347   0.880  14.796 -0.6411 -0.9046 -1.3168
 2817SOL    HW219911   2.247   0.769  14.835  0.6375 -0.6954 -1.3481
 2818SOL     OW19912   4.177   3.984   2.591  0.0379 -0.1819  0.2688
 2818SOL    HW119913   4.166   3.948   2.503 -2.0260 -1.4575  1.0366
 2818SOL    HW219914   4.141   4.072   2.582 -0.3962 -0.3719  0.1168
 2819SOL     OW19915   2.112   1.310   4.004 -0.7822  0.0541  0.0621
 2819SOL    HW119916   2.056   1.318   4.081 -1.4016  0.7675 -0.4690
 2819SOL    HW219917   2.179   1.254   4.043 -2.4697 -1.0523  1.3861
 2820SOL     OW19918   1.491   4.083  10.308  0.1486  0.6232  0.0548
 2820SOL    HW119919   1.433   4.136  10.252  0.5604  0.5111 -0.4762
 2820SOL    HW219920   1.568   4.059  10.257 -0.5788 -0.5069 -0.4961
 2821SOL     OW19921   1.144   2.771   6.384 -0.7424 -0.2731 -0.1611
 2821SOL    HW119922   1.226   2.817   6.403 -0.0127 -2.1428  1.2103
 2821SOL    HW219923   1.132   2.715   6.461 -2.4582 -1.5456 -1.3563
 2822SOL     OW19924   2.112   3.798   8.127  0.5232  0.2867  0.3362
 2822SOL    HW119925   2.058   3.833   8.198  0.2100 -0.6745  0.5683
 2822SOL    HW219926   2.083   3.866   8.068 -2.1329 -0.8736  0.2999
 2823SOL     OW19927   2.900   1.412   7.443  0.2816  0.1788  0.2614
 2823SOL    HW119928   2.895   1.478   7.512 -1.4706 -1.7876  2.0178
 2823SOL    HW219929   2.813   1.377   7.462  0.4835 -1.2482 -1.3811
 2824SOL     OW19930   0.721   0.050   4.999  0.1674  0.1661  0.4203
 2824SOL    HW119931   0.763   0.010   5.075 -2.2205 -0.1370  1.5941
 2824SOL    HW219932   0.786   0.117   4.977  0.4458  0.7476  2.9863
 2825SOL     OW19933   1.549   2.894   4.223 -0.1030 -0.2203  0.3565
 2825SOL    HW119934   1.494   2.972   4.231  0.4739  0.0152  2.0957
 2825SOL    HW219935   1.490   2.821   4.244  1.2545 -0.7605  2.2793
 2826SOL     OW19936   2.157   1.530  14.460  0.0761 -0.4915 -0.5152
 2826SOL    HW119937   2.180   1.575  14.379  1.0235 -0.8252 -0.4269
 2826SOL    HW219938   2.113   1.454  14.422 -1.3049 -0.5478  1.1729
 2827SOL     OW19939   1.488   4.629   3.656  0.2461  0.2665  0.5002
 2827SOL    HW119940   1.563   4.592   3.609 -0.4441  0.8979 -1.1017
 2827SOL    HW219941   1.416   4.599   3.600  1.6592 -1.7454 -0.2523
 2828SOL     OW19942   2.555   0.797  15.090 -0.2903  0.3584 -0.1004
 2828SOL    HW119943   2.510   0.870  15.047 -0.4038  1.1765  1.4200
 2828SOL    HW219944   2.644   0.824  15.069  0.3169 -0.0062  2.0160
 2829SOL     OW19945   4.423   2.559  16.826 -0.3129  0.3658  0.1447
 2829SOL    HW119946   4.375   2.481  16.797 -0.1746  0.4238 -0.2469
 2829SOL    HW219947   4.478   2.519  16.894  0.1014 -0.3921 -0.6238
 2830SOL     OW19948   3.505   2.588   7.469 -0.1472  0.0188  0.1974
 2830SOL    HW119949   3.583   2.644   7.472 -0.1566  0.1035 -1.0197
 2830SOL    HW219950   3.520   2.515   7.529  0.8674  0.1521  0.1043
 2831SOL     OW19951   3.162   0.777   9.102  0.3266 -0.1667  0.1890
 2831SOL    HW119952   3.143   0.853   9.156 -1.7292 -1.3159  1.0668
 2831SOL    HW219953   3.106   0.711   9.141 -1.0616  0.2956 -1.0268
 2832SOL     OW19954   4.518   1.688   3.812  0.2621 -0.0339 -0.1072
 2832SOL    HW119955   4.531   1.593   3.812  1.1268  0.0885 -0.5033
 2832SOL    HW219956   4.608   1.717   3.826 -0.0314  0.1550  1.3777
 2833SOL     OW19957   2.243   4.669   5.101  0.2351 -0.1900 -0.7942
 2833SOL    HW119958   2.286   4.679   5.016 -1.3429 -0.2413 -1.5969
 2833SOL    HW219959   2.181   0.018   5.097  0.3258  0.0222  1.2607
 2834SOL     OW19960   1.729   3.319   9.874  0.0654 -0.0274  0.1174
 2834SOL    HW119961   1.686   3.234   9.878 -1.0415  0.5640  0.5850
 2834SOL    HW219962   1.677   3.363   9.808 -0.9012 -1.0530  0.1832
 2835SOL     OW19963   2.443   3.698   5.920 -0.2966  0.4044  0.0436
 2835SOL    HW119964   2.458   3.615   5.966  1.4199  1.6865  1.7881
 2835SOL    HW219965   2.350   3.718   5.928 -0.2440 -0.0284  1.8431
 2836SOL     OW19966   3.792   1.074  14.133  0.1150  0.2247  0.1748
 2836SOL    HW119967   3.700   1.051  14.117  0.3206 -1.2073  0.9759
 2836SOL    HW219968   3.832   0.986  14.131  1.3754  0.7996  0.1843
 2837SOL     OW19969   2.306   4.065   4.168  0.1381  0.2758  0.0928
 2837SOL    HW119970   2.248   4.053   4.093 -1.6680 -0.6562  1.6303
 2837SOL    HW219971   2.372   3.997   4.154  0.6353  0.6141  0.8194
 2838SOL     OW19972   4.334   0.744   6.588 -0.2131  0.7111 -0.7005
 2838SOL    HW119973   4.323   0.791   6.671 -0.2459  0.7096 -0.7040
 2838SOL    HW219974   4.411   0.789   6.552  1.1455 -0.7455  0.3513
 2839SOL     OW19975   0.949   0.798   4.928  0.1190  0.7472 -0.0008
 2839SOL    HW119976   0.982   0.824   5.014 -0.0017 -0.4509  0.4010
 2839SOL    HW219977   0.859   0.829   4.937  0.0801  0.6449 -0.0442
 2840SOL     OW19978   4.403   0.150   8.488  0.0093 -0.1329  0.0845
 2840SOL    HW119979   4.438   0.062   8.502 -2.0838 -0.9105  0.4293
 2840SOL    HW219980   4.311   0.129   8.507 -0.5019  0.1840 -2.0522
 2841SOL     OW19981   0.571   1.257   2.496 -0.2672 -0.6968  0.0570
 2841SOL    HW119982   0.534   1.332   2.543 -1.4374 -1.2545  0.0341
 2841SOL    HW219983   0.640   1.218   2.550  1.4594 -1.8833 -3.0409
 2842SOL     OW19984   1.234   0.260   1.973 -0.3022  0.0522 -0.2708
 2842SOL    HW119985   1.276   0.263   1.887  1.1679 -0.9745  0.4229
 2842SOL    HW219986   1.288   0.194   2.018  1.0373  0.6858 -0.9727
 2843SOL     OW19987   0.936   4.090   6.570 -0.0117 -0.0445  0.3798
 2843SOL    HW119988   0.984   4.032   6.510  2.2593  1.8479  0.3703
 2843SOL    HW219989   0.880   4.132   6.505 -0.5111 -0.2109  0.7030
 2844SOL     OW19990   1.072   1.859   8.604  0.3211  0.0013  0.1070
 2844SOL    HW119991   1.149   1.803   8.597 -1.5013 -2.9243  3.3622
 2844SOL    HW219992   1.053   1.870   8.511 -1.7641 -1.1864  0.3824
 2845SOL     OW19993   0.295   0.789  11.528  0.7188  0.1767  0.3579
 2845SOL    HW119994   0.231   0.791  11.599  0.5265 -0.1023  0.1921
 2845SOL    HW219995   0.289   0.880  11.499  0.4776  0.4437  1.2579
 2846SOL     OW19996   4.660   0.001   3.432 -0.2635  0.0406  0.4626
 2846SOL    HW119997   0.007   4.664   3.411  0.7746  1.9759 -1.7198
 2846SOL    HW219998   4.611   0.009   3.351 -0.5375  0.8451  0.7046
 2847SOL     OW19999   0.192   1.694   5.532 -0.1711 -0.3150 -0.5855
 2847SOL    HW120000   0.235   1.637   5.595  0.0322 -0.7516 -1.1212
 2847SOL    HW220001   0.105   1.654   5.531 -0.1254 -0.3207 -4.3346
 2848SOL     OW20002   0.126   4.501  15.846  0.3632  0.6395 -0.1526
 2848SOL    HW120003   0.142   4.595  15.836  1.4648  0.3763 -0.8837
 2848SOL    HW220004   0.109   4.507  15.940  2.6344  0.3916  0.2867
 2849SOL     OW20005   4.540   1.987   5.367 -0.2384  0.7396  0.2657
 2849SOL    HW120006   4.548   2.033   5.283  1.0792  1.1451  0.6106
 2849SOL    HW220007   4.450   2.006   5.392 -1.3591 -2.5029 -1.3142
 2850SOL     OW20008   2.234   1.702   7.751  0.8465  0.4267 -0.0660
 2850SOL    HW120009   2.139   1.702   7.758  0.7813 -1.1702 -0.9624
 2850SOL    HW220010   2.248   1.792   7.782 -1.8926  1.4694 -1.8860
 2851SOL     OW20011   0.350   3.139   8.429 -0.2821  0.4980  0.6158
 2851SOL    HW120012   0.289   3.200   8.471 -1.1598  0.1386 -0.1452
 2851SOL    HW220013   0.336   3.057   8.475 -1.1749  0.7505  0.7889
 2852SOL     OW20014   0.569   4.179   3.246 -0.6612 -0.2455  0.0601
 2852SOL    HW120015   0.485   4.133   3.253  0.7227 -2.7880 -0.0820
 2852SOL    HW220016   0.532   4.268   3.249  0.9262  0.3990  0.2460
 2853SOL     OW20017   4.253   0.220   9.335 -0.0653 -0.4188  0.1183
 2853SOL    HW120018   4.246   0.160   9.410  1.5066  0.9771  1.3636
 2853SOL    HW220019   4.180   0.197   9.277 -0.4239  2.6242 -0.6568
 2854SOL     OW20020   3.029   2.748  12.174 -0.1799 -0.2809 -0.7635
 2854SOL    HW120021   3.063   2.831  12.207 -1.5020  0.0002 -0.1187
 2854SOL    HW220022   3.052   2.699  12.253 -0.6305 -1.9614 -1.6833
 2855SOL     OW20023   1.272   3.140   8.843  0.0420  0.5957 -0.3572
 2855SOL    HW120024   1.218   3.214   8.871 -1.2180 -0.4432 -0.0391
 2855SOL    HW220025   1.215   3.096   8.780 -1.0780 -1.0456  1.8150
 2856SOL     OW20026   2.773   3.193   9.370  0.2774 -0.0797  0.7257
 2856SOL    HW120027   2.709   3.122   9.375  1.2973 -0.9578  1.0565
 2856SOL    HW220028   2.766   3.243   9.452 -1.5175  0.0527  0.4967
 2857SOL     OW20029   0.991   2.909   6.238 -0.1028  0.6426  0.0329
 2857SOL    HW120030   1.051   2.847   6.280 -0.6750 -0.8177 -1.2808
 2857SOL    HW220031   0.911   2.865   6.267  0.9856 -0.1817  1.7784
 2858SOL     OW20032   1.738   0.741   4.287  0.2490 -0.0540 -1.1352
 2858SOL    HW120033   1.767   0.818   4.336 -1.7619  0.4954 -0.7912
 2858SOL    HW220034   1.745   0.684   4.363  1.7873  1.3862 -0.2109
 2859SOL     OW20035   0.136   4.316   7.973 -0.0994 -0.0110 -0.5483
 2859SOL    HW120036   0.089   4.399   7.985 -0.9749 -0.6877  0.7608
 2859SOL    HW220037   0.158   4.332   7.881  0.5347 -0.7647 -0.5182
 2860SOL     OW20038   3.071   1.445   3.806 -0.3736 -0.5628 -0.4328
 2860SOL    HW120039   3.092   1.503   3.880  0.5835 -2.1139  0.5175
 2860SOL    HW220040   3.008   1.505   3.767  2.0429  1.4553 -1.2342
 2861SOL     OW20041   2.029   1.298  16.944  0.1650  0.2884 -0.3065
 2861SOL    HW120042   2.056   1.344  17.024 -2.3729  0.1579  0.6241
 2861SOL    HW220043   2.114   1.274  16.907 -0.0225  2.2264 -1.9711
 2862SOL     OW20044   4.511   3.244   8.918 -0.4067  0.1060 -0.6904
 2862SOL    HW120045   4.445   3.272   8.855  0.3842 -0.1932 -1.6477
 2862SOL    HW220046   4.555   3.327   8.931  1.0860 -0.7305 -0.4364
 2863SOL     OW20047   1.635   2.982   8.907  0.1722 -0.5768  0.1405
 2863SOL    HW120048   1.593   2.918   8.964 -0.1880 -1.6717 -1.3727
 2863SOL    HW220049   1.693   2.917   8.868  1.0520  0.6782 -0.6534
 2864SOL     OW20050   3.183   2.936   6.999  0.0356  0.0572  0.7739
 2864SOL    HW120051   3.235   3.006   7.040 -1.8759  1.4261  0.8787
 2864SOL    HW220052   3.178   2.972   6.910 -0.6915 -1.2019  0.3058
 2865SOL     OW20053   3.388   0.853   0.644  0.6731 -0.3345 -0.8621
 2865SOL    HW120054   3.306   0.809   0.669  0.0414  1.8585  0.9267
 2865SOL    HW220055   3.429   0.856   0.731  2.1780 -1.1712 -1.5540
 2866SOL     OW20056   4.058   3.493   4.628 -0.3521  0.6852 -0.4228
 2866SOL    HW120057   3.976   3.539   4.611 -0.5635 -0.6629 -2.9836
 2866SOL    HW220058   4.065   3.520   4.720  1.4720 -1.8402  0.2014
 2867SOL     OW20059   4.287   4.213   1.689  0.2042 -0.4258 -0.0339
 2867SOL    HW120060   4.291   4.119   1.705  0.7514 -0.1021  1.8141
 2867SOL    HW220061   4.273   4.215   1.595  0.7029  1.7979 -0.0523
 2868SOL     OW20062   3.862   2.378  14.381 -0.0947  0.4168 -0.1643
 2868SOL    HW120063   3.925   2.446  14.361  1.5061 -0.7449  0.9131
 2868SOL    HW220064   3.809   2.417  14.451  0.4234 -0.5991  0.8050
 2869SOL     OW20065   0.727   0.306   7.173  0.3115  0.3880  0.6155
 2869SOL    HW120066   0.793   0.256   7.125 -0.7318 -1.5326  1.1828
 2869SOL    HW220067   0.700   0.243   7.240 -0.9743  0.8942  0.5746
 2870SOL     OW20068   3.875   4.648   4.640  0.4852  0.3489  0.2150
 2870SOL    HW120069   3.898   4.724   4.694  0.1002  0.5120  0.1457
 2870SOL    HW220070   3.948   4.588   4.658  0.4739  0.4423  0.5757
 2871SOL     OW20071   0.704   4.589   8.189  0.5577  0.2352  0.3860
 2871SOL    HW120072   0.674   4.551   8.272 -1.2900 -1.4674 -1.0665
 2871SOL    HW220073   0.619   4.612   8.153  1.0772  0.9942 -0.3575
 2872SOL     OW20074   3.211   1.213   3.303  0.6387 -0.2965 -0.3728
 2872SOL    HW120075   3.275   1.284   3.303 -0.3413  0.5824 -0.3582
 2872SOL    HW220076   3.173   1.214   3.391  0.4768 -2.4057 -0.4155
 2873SOL     OW20077   0.177   2.324   1.722 -0.1969  0.3173 -0.0502
 2873SOL    HW120078   0.195   2.310   1.629 -0.0505 -0.2105  0.0570
 2873SOL    HW220079   0.264   2.294   1.747 -0.1977 -1.7290 -2.4286
 2874SOL     OW20080   1.552   3.815   8.999 -0.2269  0.0118 -0.3907
 2874SOL    HW120081   1.540   3.830   9.093  3.6635 -0.6979  0.2293
 2874SOL    HW220082   1.550   3.719   9.004  0.8987 -0.0223 -0.6181
 2875SOL     OW20083   4.619   2.866   7.268  0.4479 -0.0414 -0.3451
 2875SOL    HW120084   4.538   2.854   7.317  1.2807  1.1909  1.3408
 2875SOL    HW220085   4.603   2.959   7.251  0.0568  0.1077  0.8494
 2876SOL     OW20086   4.151   3.728   7.769 -0.6842 -0.1412  0.2279
 2876SOL    HW120087   4.092   3.796   7.737  0.5191  0.4526 -0.7009
 2876SOL    HW220088   4.238   3.768   7.778 -0.2026 -1.0449 -0.3884
 2877SOL     OW20089   1.999   3.088   7.192  0.2936 -0.3639 -0.1971
 2877SOL    HW120090   2.020   3.035   7.269  2.2568  0.1432 -0.3932
 2877SOL    HW220091   2.024   3.177   7.218 -1.0558  0.2912 -1.1835
 2878SOL     OW20092   1.910   3.961   2.733  0.0103  0.4457  0.1230
 2878SOL    HW120093   1.890   3.870   2.711 -1.3623  1.1140 -1.4673
 2878SOL    HW220094   1.996   3.943   2.771  0.4545 -1.2174 -1.6682
 2879SOL     OW20095   0.654   2.536   3.841  0.5944  0.0308 -0.2480
 2879SOL    HW120096   0.616   2.496   3.762  0.4294 -1.7973  0.7544
 2879SOL    HW220097   0.575   2.535   3.895  0.0555 -0.7577 -1.0464
 2880SOL     OW20098   2.301   0.176  13.871  0.8380 -0.1435  0.2682
 2880SOL    HW120099   2.313   0.229  13.792  0.9914 -1.2051 -0.4180
 2880SOL    HW220100   2.206   0.163  13.863  0.9702 -2.1761  1.8343
 2881SOL     OW20101   0.838   4.444   2.373 -0.1406 -0.0815  0.3321
 2881SOL    HW120102   0.872   4.525   2.335 -0.8428 -0.0375 -0.2017
 2881SOL    HW220103   0.900   4.428   2.445  2.6063  0.5938 -1.8752
 2882SOL     OW20104   0.837   3.355   4.243  0.3872  0.6237 -0.1379
 2882SOL    HW120105   0.888   3.286   4.284 -0.4572  2.1575  3.5299
 2882SOL    HW220106   0.753   3.311   4.231 -0.2114  2.0114 -1.0825
 2883SOL     OW20107   4.458   0.746  13.184  0.0031  0.1912  0.6742
 2883SOL    HW120108   4.387   0.756  13.247 -0.5860 -0.5934  0.1379
 2883SOL    HW220109   4.526   0.702  13.235 -0.9761 -1.6532  0.3881
 2884SOL     OW20110   3.906   2.958   6.700 -0.1734  0.3342  0.1804
 2884SOL    HW120111   3.914   2.870   6.665  0.8475  0.7096 -0.5300
 2884SOL    HW220112   3.951   3.002   6.627 -2.2403 -1.2706 -2.0645
 2885SOL     OW20113   1.689   0.831   0.330  0.3808  0.5156 -0.2842
 2885SOL    HW120114   1.759   0.851   0.392  0.2529  1.6620 -0.5067
 2885SOL    HW220115   1.684   0.736   0.341  0.8745  0.4067 -1.0059
 2886SOL     OW20116   3.079   2.666   3.041 -0.2782 -0.0150 -0.1645
 2886SOL    HW120117   3.074   2.658   3.136 -1.0830 -0.6413 -0.2586
 2886SOL    HW220118   3.170   2.688   3.019 -1.5077  3.5756 -1.6883
 2887SOL     OW20119   2.047   1.308  14.341 -0.4025 -0.0373 -0.0485
 2887SOL    HW120120   2.001   1.241  14.290  1.6029 -0.5344 -1.2039
 2887SOL    HW220121   2.120   1.258  14.376  1.0680  1.3811 -1.0662
 2888SOL     OW20122   2.458   4.038  11.472 -0.0784 -0.3627  0.1125
 2888SOL    HW120123   2.436   4.091  11.395 -0.5296  1.2119  1.3281
 2888SOL    HW220124   2.551   4.018  11.464 -0.3483 -1.8078  0.6310
 2889SOL     OW20125   4.120   0.174   1.459  0.2455  0.3472  0.0552
 2889SOL    HW120126   4.044   0.128   1.495  1.6236  0.5270  3.1692
 2889SOL    HW220127   4.163   0.177   1.544  0.0018 -2.5842  0.2846
 2890SOL     OW20128   1.534   4.416   7.352 -0.1124  0.4958 -0.1451
 2890SOL    HW120129   1.555   4.494   7.300 -1.4656  0.9004 -0.0911
 2890SOL    HW220130   1.602   4.422   7.419  0.6132  0.1348 -0.8471
 2891SOL     OW20131   3.610   1.904   6.057 -0.6619  0.0198 -0.0026
 2891SOL    HW120132   3.704   1.904   6.077 -0.8768  1.1075  0.9683
 2891SOL    HW220133   3.596   1.998   6.064  0.8323  0.5919 -4.3152
 2892SOL     OW20134   0.333   4.116   6.873  0.1783  0.3004 -0.1224
 2892SOL    HW120135   0.351   4.025   6.900 -0.3812 -0.0316 -0.8798
 2892SOL    HW220136   0.308   4.153   6.958  2.1209 -2.2739  1.6041
 2893SOL     OW20137   4.209   3.863  17.642 -0.0841  0.1326 -0.0977
 2893SOL    HW120138   4.295   3.859  17.685 -0.3768  0.8551  0.5562
 2893SOL    HW220139   4.178   3.953  17.649  2.4548  1.1217 -1.4156
 2894SOL     OW20140   4.322   0.174  13.317 -1.0690  0.6664  0.0392
 2894SOL    HW120141   4.267   0.196  13.242  2.4831 -0.9815 -3.0407
 2894SOL    HW220142   4.264   0.111  13.359 -0.0517  0.7499  1.5929
 2895SOL     OW20143   1.606   2.800   2.691 -0.1546  1.3810  0.1189
 2895SOL    HW120144   1.647   2.878   2.728 -2.0026  1.8375  1.2089
 2895SOL    HW220145   1.676   2.773   2.632  0.4191 -0.5248  1.7166
 2896SOL     OW20146   4.185   1.485   6.561  0.2234  0.4125 -0.3502
 2896SOL    HW120147   4.205   1.453   6.473 -1.8028  0.9961 -1.0194
 2896SOL    HW220148   4.189   1.401   6.607 -0.4116  0.5895  0.0278
 2897SOL     OW20149   0.917   0.437   7.404 -0.4906 -0.1772 -0.0688
 2897SOL    HW120150   0.979   0.392   7.462 -0.7831 -0.5344 -0.0299
 2897SOL    HW220151   0.835   0.389   7.418 -0.1790 -1.3285 -2.2093
 2898SOL     OW20152   2.452   4.421   8.356  0.1323  0.2328 -0.2496
 2898SOL    HW120153   2.407   4.458   8.280 -2.9787  0.0372  1.4962
 2898SOL    HW220154   2.393   4.429   8.431 -0.9800 -0.2760 -1.0598
 2899SOL     OW20155   2.202   0.424   2.749 -0.3361 -0.1583 -0.5040
 2899SOL    HW120156   2.110   0.432   2.777 -0.1237  0.5892 -0.0204
 2899SOL    HW220157   2.200   0.489   2.679 -1.8391  1.8812  1.4359
 2900SOL     OW20158   3.800   0.605  11.925 -0.1718 -0.0497  0.6133
 2900SOL    HW120159   3.857   0.652  11.986 -0.6188 -0.1857  1.1339
 2900SOL    HW220160   3.721   0.610  11.978 -0.3360 -4.4413  0.7649
 2901SOL     OW20161   4.549   4.183   3.367 -0.1302 -0.0160  0.2773
 2901SOL    HW120162   4.574   4.197   3.276  1.6853 -0.9288  0.6397
 2901SOL    HW220163   4.522   4.091   3.371  2.0484 -0.6944 -0.5521
 2902SOL     OW20164   2.386   2.170   7.944  0.3691 -0.0453  0.7458
 2902SOL    HW120165   2.325   2.231   7.985 -0.6469 -0.7657  0.3122
 2902SOL    HW220166   2.406   2.102   8.009 -0.1180 -0.5466  0.3659
 2903SOL     OW20167   3.806   0.868   6.007  0.1474  0.1630  0.2057
 2903SOL    HW120168   3.760   0.891   5.926  0.5668 -2.0705 -0.6897
 2903SOL    HW220169   3.885   0.920   5.994 -1.6181  2.6144 -0.5309
 2904SOL     OW20170   0.790   2.652   6.993 -0.0284  0.5661 -0.5658
 2904SOL    HW120171   0.875   2.664   7.036  0.4605  1.2001 -1.7225
 2904SOL    HW220172   0.762   2.742   6.980  0.7922  1.0747  1.1445
 2905SOL     OW20173   2.052   0.255   0.874  0.0306  0.4639 -0.3777
 2905SOL    HW120174   2.015   0.321   0.815  2.1545  1.0697 -1.0420
 2905SOL    HW220175   2.128   0.304   0.906 -0.9271  1.2529  0.6581
 2906SOL     OW20176   3.079   3.704   0.811 -0.2378 -0.2546  0.5796
 2906SOL    HW120177   3.151   3.714   0.748 -1.0893 -0.0167 -0.3658
 2906SOL    HW220178   3.014   3.763   0.772 -0.5675 -1.8498 -1.2746
 2907SOL     OW20179   4.403   0.969   7.501 -0.0685  0.0704  0.2883
 2907SOL    HW120180   4.341   1.034   7.535 -0.3113  0.2137 -0.4329
 2907SOL    HW220181   4.395   0.907   7.573  0.3996 -0.2495  0.0664
 2908SOL     OW20182   4.592   2.684   5.301 -0.4562  0.0619 -0.5437
 2908SOL    HW120183   4.507   2.698   5.344 -0.6966 -0.5207 -0.8294
 2908SOL    HW220184   4.603   2.591   5.284 -0.8640  0.2235 -1.7171
 2909SOL     OW20185   3.898   2.277   1.549  0.3233 -0.8452  0.0950
 2909SOL    HW120186   3.911   2.256   1.457 -1.4414  1.6264 -0.7176
 2909SOL    HW220187   3.986   2.303   1.576  0.1404  0.3954 -0.4978
 2910SOL     OW20188   2.421   1.646   4.311 -0.5016  0.0942  0.9874
 2910SOL    HW120189   2.499   1.654   4.365  0.1970  2.0315 -0.2924
 2910SOL    HW220190   2.420   1.552   4.294  1.8100  0.5160 -1.5202
 2911SOL     OW20191   2.821   0.903   6.082 -0.1131  0.2808  0.1540
 2911SOL    HW120192   2.784   0.858   6.157 -0.5252  1.2012  0.5064
 2911SOL    HW220193   2.787   0.991   6.099  2.0220  0.9722  0.8306
 2912SOL     OW20194   0.127   2.196   3.179 -0.4599 -0.2369 -0.0532
 2912SOL    HW120195   0.067   2.166   3.110 -0.5324  1.3234 -0.6812
 2912SOL    HW220196   0.213   2.158   3.162 -0.7027 -0.7956 -0.0212
 2913SOL     OW20197   0.732   1.175  17.012 -0.0815  0.0053 -0.3426
 2913SOL    HW120198   0.806   1.231  17.036  2.1366 -3.5624  1.0504
 2913SOL    HW220199   0.658   1.236  17.015  1.6743  2.0654  1.7189
 2914SOL     OW20200   3.213   1.364   1.966 -0.5013  0.4290 -0.2445
 2914SOL    HW120201   3.140   1.307   1.991 -0.2021  0.0251 -0.2897
 2914SOL    HW220202   3.212   1.363   1.870 -1.4375  0.2681 -0.2367
 2915SOL     OW20203   2.387   1.634   3.374  0.6844  0.4119  0.5259
 2915SOL    HW120204   2.292   1.632   3.359  0.6728  1.4264  0.4766
 2915SOL    HW220205   2.402   1.697   3.304  1.3698 -0.4163 -0.0830
 2916SOL     OW20206   1.432   0.607   2.316  0.0236  0.1334 -0.6630
 2916SOL    HW120207   1.480   0.688   2.333 -1.0766  0.4499  0.9445
 2916SOL    HW220208   1.499   0.540   2.326  0.0626  0.1630 -0.7305
 2917SOL     OW20209   4.164   1.799  13.313  0.2703  0.0609  0.6793
 2917SOL    HW120210   4.153   1.715  13.357 -0.2773 -1.6065 -2.6076
 2917SOL    HW220211   4.227   1.838  13.374  1.1842 -1.8368  0.9549
 2918SOL     OW20212   4.277   0.975   1.340  0.1592  0.2076 -0.2196
 2918SOL    HW120213   4.265   0.899   1.284 -1.4380  0.9336 -0.8339
 2918SOL    HW220214   4.346   0.942   1.399  0.6848  1.6556 -0.0175
 2919SOL     OW20215   4.484   2.026   0.441 -0.2266 -0.9397 -0.3446
 2919SOL    HW120216   4.422   2.085   0.398  1.9072  2.6535  1.5996
 2919SOL    HW220217   4.533   2.091   0.491 -0.4850 -0.1010 -1.1960
 2920SOL     OW20218   2.043   0.361   4.494 -0.1714 -0.6156 -0.1748
 2920SOL    HW120219   2.026   0.268   4.478  2.2451 -1.1017  0.0504
 2920SOL    HW220220   1.980   0.393   4.430  0.5546  0.5064 -0.3413
 2921SOL     OW20221   1.457   4.101   6.066 -0.0493  0.1962 -0.0648
 2921SOL    HW120222   1.532   4.106   6.007 -0.5631 -1.1052 -0.8318
 2921SOL    HW220223   1.473   4.164   6.136  0.6028 -3.3371  3.0103
 2922SOL     OW20224   2.339   3.137  13.058 -0.2401  0.3562  0.0968
 2922SOL    HW120225   2.401   3.196  13.100  1.5550 -0.9151 -0.7431
 2922SOL    HW220226   2.264   3.153  13.115 -0.5550  2.2428 -0.8206
 2923SOL     OW20227   0.005   4.718   3.727  0.1463 -0.1769  0.3424
 2923SOL    HW120228   4.680   4.684   3.652  0.6671 -1.0780  0.4105
 2923SOL    HW220229   0.096   4.714   3.698 -0.6547 -0.0631 -2.1478
 2924SOL     OW20230   2.789   1.866   8.447 -0.5961 -0.0456  0.4845
 2924SOL    HW120231   2.735   1.891   8.521 -1.9031  0.2537 -0.5589
 2924SOL    HW220232   2.794   1.772   8.466 -1.9955 -0.5204 -1.5014
 2925SOL     OW20233   0.357   0.527   6.397  0.8751  0.2681  0.5297
 2925SOL    HW120234   0.270   0.566   6.388  0.8310  0.2099  0.7010
 2925SOL    HW220235   0.400   0.536   6.312 -2.0731 -0.1316 -0.9677
 2926SOL     OW20236   0.574   1.098   4.518  0.0689  0.1522  0.1348
 2926SOL    HW120237   0.542   1.009   4.531 -1.6039  0.4453 -1.9227
 2926SOL    HW220238   0.621   1.071   4.439  1.7475 -0.3629  1.3063
 2927SOL     OW20239   3.728   0.380   4.487  0.0002 -0.0738  0.1788
 2927SOL    HW120240   3.824   0.371   4.485  0.1320  1.5540 -0.3864
 2927SOL    HW220241   3.727   0.446   4.419 -3.6248  0.7348  1.0295
 2928SOL     OW20242   0.128   0.244  11.761  0.0342 -0.1620 -0.1309
 2928SOL    HW120243   0.098   0.157  11.789  1.3614  0.1649  2.3833
 2928SOL    HW220244   0.191   0.244  11.834  2.4198 -0.2860 -2.2068
 2929SOL     OW20245   4.153   1.777   1.647 -0.4604  0.4315  0.0096
 2929SOL    HW120246   4.225   1.836   1.623 -0.9026  0.6941 -0.7021
 2929SOL    HW220247   4.082   1.822   1.601  0.0087  1.1774  0.0133
 2930SOL     OW20248   0.025   1.190   6.915  0.0024  0.0135 -0.3994
 2930SOL    HW120249   0.091   1.231   6.971 -1.2456  1.2290  0.2106
 2930SOL    HW220250   4.664   1.231   6.934  0.5468  0.4927  1.0362
 2931SOL     OW20251   4.076   0.729  11.532 -0.3669  0.3136  0.5606
 2931SOL    HW120252   4.007   0.753  11.594 -0.4581  1.5880 -0.0382
 2931SOL    HW220253   4.152   0.767  11.576 -0.3805 -1.1977  1.8838
 2932SOL     OW20254   0.971   2.672   4.698  0.0014  0.4596 -0.0073
 2932SOL    HW120255   0.991   2.690   4.606 -0.3490 -0.8821 -0.3454
 2932SOL    HW220256   0.990   2.754   4.744  1.5778 -0.7102  1.4070
 2933SOL     OW20257   2.092   4.669   1.825 -0.2042  0.1652  0.1642
 2933SOL    HW120258   2.001   4.670   1.854 -0.4446 -0.5877 -0.5702
 2933SOL    HW220259   2.095   0.017   1.762  0.1517  0.5428  0.6086
 2934SOL     OW20260   1.377   3.601  10.005 -0.0549 -0.5927  0.0487
 2934SOL    HW120261   1.468   3.632  10.007  0.2950 -1.5812 -0.4561
 2934SOL    HW220262   1.387   3.518  10.052 -1.7147 -0.0051  1.4508
 2935SOL     OW20263   4.118   0.317   8.389 -0.5962 -0.3570 -0.2805
 2935SOL    HW120264   4.131   0.320   8.294  0.8031 -0.8372 -0.1026
 2935SOL    HW220265   4.068   0.396   8.410 -2.8313 -1.7236 -0.4467
 2936SOL     OW20266   1.875   3.300   2.375  0.4900 -1.1818  0.6569
 2936SOL    HW120267   1.842   3.375   2.326  0.4796 -1.4789  0.2124
 2936SOL    HW220268   1.807   3.236   2.357 -0.3896 -0.4636  1.4130
 2937SOL     OW20269   2.138   1.043   2.729  0.2787  0.0457  0.0914
 2937SOL    HW120270   2.138   0.954   2.765  1.8451 -0.7369 -1.8271
 2937SOL    HW220271   2.113   1.026   2.638 -0.5594  3.6602 -0.3251
 2938SOL     OW20272   0.045   1.782   4.532  0.1063  0.4213 -0.0504
 2938SOL    HW120273   4.720   1.864   4.519 -0.1049  0.2315 -0.4485
 2938SOL    HW220274   4.700   1.717   4.516 -1.0536  1.8172 -0.7709
 2939SOL     OW20275   4.240   2.516   6.706 -0.9095  0.1083 -0.4734
 2939SOL    HW120276   4.255   2.494   6.614 -3.9533 -1.5831 -0.5359
 2939SOL    HW220277   4.220   2.609   6.696 -0.8046  0.3006  1.1276
 2940SOL     OW20278   0.205   1.029  11.421  0.3664 -0.2062 -0.2839
 2940SOL    HW120279   0.168   1.109  11.458 -1.5015 -0.5298 -1.4757
 2940SOL    HW220280   0.152   1.022  11.342  0.2543 -2.8579  0.0351
 2941SOL     OW20281   0.871   3.912   8.836  0.1777  0.8332 -0.2744
 2941SOL    HW120282   0.902   3.974   8.771  1.5976  0.2484 -0.1515
 2941SOL    HW220283   0.952   3.883   8.877 -1.0454 -0.0245  1.5673
 2942SOL     OW20284   2.004   0.010   6.203  0.1882  0.4205 -0.3902
 2942SOL    HW120285   1.973   4.652   6.240 -1.4103  0.6401 -1.2489
 2942SOL    HW220286   2.098   4.719   6.217  0.2828 -0.2686 -1.7382
 2943SOL     OW20287   1.585   2.146  14.662 -0.2156  0.9209  0.8266
 2943SOL    HW120288   1.600   2.114  14.573 -1.9955  0.7862  0.5680
 2943SOL    HW220289   1.527   2.079  14.698  3.2754 -0.2311  4.2426
 2944SOL     OW20290   4.457   4.180   7.520  0.3270  0.4738 -0.6077
 2944SOL    HW120291   4.447   4.174   7.615 -0.7118  0.1397 -0.7397
 2944SOL    HW220292   4.464   4.086   7.499 -4.3352  0.0541 -0.1740
 2945SOL     OW20293   2.220   1.348   2.263  0.2549 -0.6351 -0.0552
 2945SOL    HW120294   2.226   1.268   2.211 -2.6586 -1.0574  0.2874
 2945SOL    HW220295   2.198   1.415   2.197  0.8932  0.4610  0.8436
 2946SOL     OW20296   2.264   3.233   1.520 -0.3155  0.4180  0.0582
 2946SOL    HW120297   2.335   3.208   1.461  0.3355  3.1109 -0.3116
 2946SOL    HW220298   2.197   3.177   1.481 -0.0320 -0.0022  0.1722
 2947SOL     OW20299   2.963   3.247   6.122  0.6237 -0.1926 -0.4373
 2947SOL    HW120300   3.027   3.175   6.125 -1.0313 -1.5997  0.9342
 2947SOL    HW220301   3.028   3.315   6.139  1.3702 -1.1518  0.5520
 2948SOL     OW20302   2.282   3.017   4.227  0.0382  0.3138 -0.0587
 2948SOL    HW120303   2.214   2.950   4.223  0.2056  0.1710 -0.4862
 2948SOL    HW220304   2.241   3.085   4.173  0.4369  0.9024  0.3820
 2949SOL     OW20305   4.352   2.838   5.300  0.3528  0.2948  0.0642
 2949SOL    HW120306   4.315   2.766   5.351  0.0218 -0.0927 -0.7171
 2949SOL    HW220307   4.276   2.865   5.249 -0.7953  0.3372  1.8268
 2950SOL     OW20308   3.802   2.247   9.020 -0.4358  0.2104 -0.0812
 2950SOL    HW120309   3.780   2.166   9.065  1.5865  0.2266  0.9421
 2950SOL    HW220310   3.754   2.239   8.938  0.7769  1.8643 -0.9625
 2951SOL     OW20311   1.026   1.352   3.774 -0.3650  0.1166 -0.3148
 2951SOL    HW120312   1.070   1.340   3.689  1.4723  0.6402  0.5716
 2951SOL    HW220313   1.004   1.445   3.774 -1.9485 -0.2621  0.4991
 2952SOL     OW20314   4.265   3.482   3.212  0.8473 -0.1023  0.3170
 2952SOL    HW120315   4.234   3.402   3.256  2.7137 -1.0360 -0.0488
 2952SOL    HW220316   4.203   3.494   3.141  0.3842 -0.7580  0.6051
 2953SOL     OW20317   2.865   1.845   3.094  0.4233  0.1315  0.1702
 2953SOL    HW120318   2.919   1.786   3.042  0.7590 -0.8943  1.6997
 2953SOL    HW220319   2.837   1.794   3.170 -0.1611 -0.5983 -0.5309
 2954SOL     OW20320   1.700   2.137   2.701  0.3041 -0.1069 -0.4729
 2954SOL    HW120321   1.628   2.187   2.663 -0.1921 -0.9399 -0.6436
 2954SOL    HW220322   1.734   2.090   2.625  1.1315  0.3105 -0.3616
 2955SOL     OW20323   0.139   0.623   9.006  0.2137  0.2556 -0.0994
 2955SOL    HW120324   0.078   0.562   9.047  0.1954 -0.9427 -1.9298
 2955SOL    HW220325   0.206   0.559   8.984  2.3701  2.6277 -0.4040
 2956SOL     OW20326   0.988   4.441   8.957 -0.1167  0.4538 -0.3769
 2956SOL    HW120327   0.912   4.426   8.901 -0.3961 -2.2443  0.7188
 2956SOL    HW220328   1.030   4.355   8.962 -0.1102  0.4900  0.2380
 2957SOL     OW20329   3.215   0.746  13.082 -0.3556  0.7074  0.5370
 2957SOL    HW120330   3.218   0.660  13.040 -2.3835  0.7476  0.3131
 2957SOL    HW220331   3.298   0.787  13.057  0.9456 -2.4029 -0.2083
 2958SOL     OW20332   4.317   3.421  12.667 -0.3675  0.1866  0.1835
 2958SOL    HW120333   4.329   3.461  12.753 -0.7029 -1.2338  0.8809
 2958SOL    HW220334   4.248   3.359  12.690 -2.3156  2.4773  0.5515
 2959SOL     OW20335   3.008   2.721   7.777  0.0890 -0.3248 -0.3392
 2959SOL    HW120336   3.099   2.723   7.806 -0.1890 -1.2171  0.5863
 2959SOL    HW220337   2.997   2.626   7.780 -1.6645 -0.0572  1.9836
 2960SOL     OW20338   2.499   4.456   5.163 -0.1819  0.8664 -0.4254
 2960SOL    HW120339   2.525   4.470   5.254 -2.5982  2.0608  0.0617
 2960SOL    HW220340   2.448   4.534   5.141  0.1252  1.0894 -0.3483
 2961SOL     OW20341   3.237   2.040  12.581 -0.2054 -0.6403 -1.0191
 2961SOL    HW120342   3.261   1.995  12.662  1.0867 -0.6463 -1.4033
 2961SOL    HW220343   3.311   2.098  12.561 -0.9183  0.7208  0.2554
 2962SOL     OW20344   2.265   0.556  13.210 -0.3340  0.1203 -0.1359
 2962SOL    HW120345   2.260   0.603  13.127  1.5634  1.1318  0.3252
 2962SOL    HW220346   2.251   0.471  13.168  1.3323 -0.0234 -0.4100
 2963SOL     OW20347   1.979   3.770   6.307  0.4540 -0.0201  0.2244
 2963SOL    HW120348   1.976   3.816   6.391  2.4017 -1.5048  1.1116
 2963SOL    HW220349   1.887   3.762   6.282  0.7792 -3.7258  0.1990
 2964SOL     OW20350   3.973   0.310   7.255 -1.0942  0.4182  0.3153
 2964SOL    HW120351   3.969   0.237   7.193 -0.2776  0.8467 -0.2332
 2964SOL    HW220352   3.915   0.369   7.206 -1.4602 -0.0576  0.1717
 2965SOL     OW20353   2.820   4.563   8.947  0.1142  0.6220 -0.1200
 2965SOL    HW120354   2.880   4.636   8.965 -0.8827  1.2870  0.5233
 2965SOL    HW220355   2.823   4.522   9.033  2.1159  1.0643  0.0250
 2966SOL     OW20356   3.959   2.044   3.239 -0.1112 -0.7650  0.7978
 2966SOL    HW120357   4.017   1.968   3.226  0.3264 -0.4313  0.8234
 2966SOL    HW220358   3.909   2.041   3.157 -0.7245 -3.0492  1.2374
 2967SOL     OW20359   1.416   1.513   4.342 -0.1013  0.6114  0.0331
 2967SOL    HW120360   1.363   1.437   4.366  0.1654 -0.4282 -2.6644
 2967SOL    HW220361   1.392   1.522   4.249  0.2186  0.3046 -0.0800
 2968SOL     OW20362   1.880   1.362   2.348  0.4409  0.2831 -0.0301
 2968SOL    HW120363   1.898   1.384   2.257 -1.6319  2.7185  0.1501
 2968SOL    HW220364   1.785   1.375   2.347  0.0837 -2.3041 -0.7298
 2969SOL     OW20365   0.129   3.557   1.868 -0.8912  0.1533  0.4060
 2969SOL    HW120366   0.171   3.569   1.953  0.8832 -1.7333 -0.1986
 2969SOL    HW220367   0.177   3.483   1.831 -3.0773 -1.7542  1.4029
 2970SOL     OW20368   4.367   4.080   0.971  0.2539  0.4116  0.9212
 2970SOL    HW120369   4.441   4.108   0.917  1.1311  0.8576  2.3509
 2970SOL    HW220370   4.317   4.038   0.901  1.1539  0.3471  0.3197
 2971SOL     OW20371   2.422   4.364   2.164 -0.2162  0.7915  0.1952
 2971SOL    HW120372   2.469   4.364   2.080  1.3319 -0.5034  1.0555
 2971SOL    HW220373   2.330   4.352   2.140 -0.5018  0.4290  1.4603
 2972SOL     OW20374   4.477   1.261   6.937 -0.6157 -0.2229 -0.7430
 2972SOL    HW120375   4.424   1.196   6.983  0.4483  0.0307  0.8232
 2972SOL    HW220376   4.444   1.263   6.847 -1.2492  1.8867 -0.4479
 2973SOL     OW20377   0.880   3.082   7.566 -0.2333  0.6931  0.5154
 2973SOL    HW120378   0.961   3.036   7.589 -0.5710 -0.2486 -0.1617
 2973SOL    HW220379   0.815   3.030   7.616  0.3828 -1.4815 -0.9554
 2974SOL     OW20380   2.419   1.739  11.023  0.3407 -0.0156  0.0323
 2974SOL    HW120381   2.385   1.712  11.108  1.2418  0.7313  0.6314
 2974SOL    HW220382   2.339   1.766  10.978  1.5248  1.8085 -0.9713
 2975SOL     OW20383   4.672   2.274   2.558 -0.0323  0.5984  0.0833
 2975SOL    HW120384   0.021   2.257   2.617 -0.2442  1.7012  0.6674
 2975SOL    HW220385   4.697   2.364   2.535 -1.7051  0.8170 -0.9480
 2976SOL     OW20386   3.226   4.171   3.206  0.6439  0.7273 -0.1610
 2976SOL    HW120387   3.227   4.261   3.174  0.1135  0.6772 -0.3132
 2976SOL    HW220388   3.197   4.110   3.139  1.4324  0.3179 -0.1341
 2977SOL     OW20389   1.343   2.549   8.106 -0.5573  0.0466 -0.0492
 2977SOL    HW120390   1.272   2.590   8.056 -1.5582 -0.8908  0.5867
 2977SOL    HW220391   1.419   2.579   8.056 -1.1372  1.8464  0.1534
 2978SOL     OW20392   1.433   3.043  11.607 -0.4859 -0.1321 -0.1468
 2978SOL    HW120393   1.431   3.126  11.559  1.0868  0.3885  0.7112
 2978SOL    HW220394   1.455   2.990  11.530 -0.1900 -0.6508  0.2966
 2979SOL     OW20395   4.589   1.224   6.473 -0.3955 -0.7406 -0.5543
 2979SOL    HW120396   4.662   1.203   6.531 -0.6486 -1.1884 -0.3995
 2979SOL    HW220397   4.601   1.317   6.456 -2.9197 -1.0788 -4.0299
 2980SOL     OW20398   3.201   1.563   5.716 -0.4607  0.0419  0.1217
 2980SOL    HW120399   3.154   1.617   5.780  3.1716  1.3751  1.6561
 2980SOL    HW220400   3.289   1.600   5.708 -0.2745 -0.1305  1.4643
 2981SOL     OW20401   2.035   3.965   1.773  0.4342  0.0404  0.2455
 2981SOL    HW120402   1.992   4.042   1.810  1.3248  0.4548  0.4024
 2981SOL    HW220403   1.988   3.938   1.694  0.7266  0.7772 -0.1878
 2982SOL     OW20404   2.921   4.322   5.650  0.1853 -0.7874  0.3264
 2982SOL    HW120405   2.894   4.385   5.582 -0.9561 -1.5591  0.0671
 2982SOL    HW220406   2.984   4.271   5.599 -1.0631  0.9984 -3.0184
 2983SOL     OW20407   3.563   1.967   3.535  0.3956  0.8470 -0.2048
 2983SOL    HW120408   3.506   1.939   3.463  0.7848 -0.9060  0.1708
 2983SOL    HW220409   3.625   2.019   3.484 -0.4586  1.7151 -0.3537
 2984SOL     OW20410   0.634   0.699   6.348  0.2319 -0.4438 -0.0811
 2984SOL    HW120411   0.620   0.646   6.426 -0.3278 -0.7061 -0.3558
 2984SOL    HW220412   0.592   0.647   6.279 -1.8859  3.3665 -1.6811
 2985SOL     OW20413   1.074   1.483   7.012 -0.3778  0.9331 -0.0199
 2985SOL    HW120414   0.986   1.474   7.049 -0.5109  0.7087 -0.3926
 2985SOL    HW220415   1.119   1.440   7.084  2.1453 -0.2479 -2.3311
 2986SOL     OW20416   2.246   3.700   3.941 -0.1907 -0.1267 -0.0929
 2986SOL    HW120417   2.186   3.639   3.898  1.1725 -1.2922 -0.3554
 2986SOL    HW220418   2.328   3.660   3.911  0.6310  1.4487  0.0825
 2987SOL     OW20419   3.848   4.504   3.108  0.3779  0.0563 -0.1611
 2987SOL    HW120420   3.834   4.555   3.187  1.1340  0.5145 -0.3256
 2987SOL    HW220421   3.870   4.416   3.138  0.5369  0.3752  0.6563
 2988SOL     OW20422   3.193   2.679   1.632 -0.5200 -0.2184  0.4815
 2988SOL    HW120423   3.214   2.629   1.553  0.7455 -0.9735  1.3012
 2988SOL    HW220424   3.262   2.746   1.639 -0.3689 -0.3497  0.2458
 2989SOL     OW20425   1.897   4.186   1.884  0.7433 -0.0190  0.4246
 2989SOL    HW120426   1.871   4.277   1.897 -1.0617 -0.3211 -1.1864
 2989SOL    HW220427   1.867   4.144   1.965  0.6846  1.5156  1.1974
 2990SOL     OW20428   1.859   1.276   1.434  0.2495  0.5453 -0.3068
 2990SOL    HW120429   1.952   1.252   1.428 -0.8087 -3.9373  1.9870
 2990SOL    HW220430   1.813   1.193   1.439  3.0296 -1.0896 -1.8786
 2991SOL     OW20431   2.163   0.558   8.736  0.6623  0.2247 -0.7993
 2991SOL    HW120432   2.167   0.521   8.824 -0.4036 -0.1951 -0.9311
 2991SOL    HW220433   2.251   0.583   8.708  1.1750 -1.1987 -0.4644
 2992SOL     OW20434   0.124   3.616   7.181 -0.8467  0.0086  0.1677
 2992SOL    HW120435   0.170   3.692   7.216 -0.4055  0.1335 -0.6832
 2992SOL    HW220436   0.069   3.599   7.258  0.0287 -1.0114  0.5578
 2993SOL     OW20437   3.721   2.939   7.703 -0.2375 -0.2964 -0.2238
 2993SOL    HW120438   3.682   2.861   7.663 -0.1610 -2.1939  3.4315
 2993SOL    HW220439   3.665   2.944   7.781 -1.0267  2.6590 -0.9759
 2994SOL     OW20440   3.078   4.278   0.936 -0.3457  0.1193  0.0775
 2994SOL    HW120441   3.151   4.296   0.995 -0.7246  0.7964  0.3316
 2994SOL    HW220442   3.075   4.182   0.943  1.0226 -0.0712 -1.9711
 2995SOL     OW20443   1.600   1.775   5.486 -0.1106 -0.4492  0.0932
 2995SOL    HW120444   1.633   1.718   5.556  0.3835 -1.7124 -1.1674
 2995SOL    HW220445   1.507   1.787   5.506 -0.8880 -0.5207 -3.3827
 2996SOL     OW20446   2.072   3.348   1.302 -0.3724 -0.2393  0.2792
 2996SOL    HW120447   2.132   3.376   1.372 -1.1436 -0.0310  0.8573
 2996SOL    HW220448   2.071   3.254   1.319 -0.5423 -0.0658  1.1970
 2997SOL     OW20449   3.772   3.566   6.058 -0.5930 -0.8004 -0.1846
 2997SOL    HW120450   3.719   3.629   6.106  3.0057  0.4988  2.0694
 2997SOL    HW220451   3.774   3.604   5.970 -0.2729  1.0582  0.6298
 2998SOL     OW20452   2.367   4.087   6.013 -0.2979 -0.4504  0.2132
 2998SOL    HW120453   2.325   4.096   6.098  1.0454  0.9094  0.7409
 2998SOL    HW220454   2.373   3.991   6.014  2.3019 -0.3024  0.3877
 2999SOL     OW20455   1.156   4.383   6.968 -0.0862  0.2228  0.1070
 2999SOL    HW120456   1.096   4.353   6.900 -1.9300 -1.2914  2.3984
 2999SOL    HW220457   1.235   4.416   6.927  0.1230  0.3624  0.6278
 3000SOL     OW20458   1.860   1.828   8.995  0.2799  0.8900 -0.4511
 3000SOL    HW120459   1.828   1.833   9.086  3.2101 -1.5065  0.6957
 3000SOL    HW220460   1.947   1.866   9.001  0.5038  0.3631 -0.3664
 3001SOL     OW20461   4.259   3.945  14.629  0.6944  0.1655  0.1513
 3001SOL    HW120462   4.238   3.905  14.714  1.1827  2.1666  1.2098
 3001SOL    HW220463   4.272   4.035  14.660  0.9538  0.1490  0.0833
 3002SOL     OW20464   0.709   3.833  12.973 -0.1063 -0.0055 -0.2378
 3002SOL    HW120465   0.802   3.821  12.951 -0.6875 -3.2151 -0.9388
 3002SOL    HW220466   0.667   3.843  12.887  0.7473 -0.4617 -0.7134
 3003SOL     OW20467   0.252   4.588  13.708  0.1171 -0.3821  0.4043
 3003SOL    HW120468   0.179   4.615  13.764 -1.1228 -0.0106 -1.3907
 3003SOL    HW220469   0.270   4.500  13.741  0.4365 -0.3093  0.4220
 3004SOL     OW20470   2.618   3.255   8.848  0.3393  0.4016  0.3533
 3004SOL    HW120471   2.546   3.282   8.791 -0.2106 -2.2699 -0.1973
 3004SOL    HW220472   2.628   3.325   8.913 -3.0953  1.3334 -0.1266
 3005SOL     OW20473   0.600   1.549  13.909  0.5444 -0.1335  0.3791
 3005SOL    HW120474   0.616   1.642  13.925 -3.5179  0.0888  3.2365
 3005SOL    HW220475   0.628   1.543  13.817 -0.9371  0.1725 -0.1044
 3006SOL     OW20476   0.500   1.456   3.999  0.5620 -0.2542  0.1778
 3006SOL    HW120477   0.477   1.542   3.963  0.4325 -0.2781  0.2026
 3006SOL    HW220478   0.422   1.408   3.970  2.2982 -2.7137 -0.3458
 3007SOL     OW20479   0.490   3.295   7.112 -0.4069 -0.7526 -0.0598
 3007SOL    HW120480   0.574   3.331   7.082 -0.8566  1.4165  1.2336
 3007SOL    HW220481   0.465   3.252   7.031  0.1013  0.5455 -0.9091
 3008SOL     OW20482   0.670   3.019   6.820 -0.3934  0.2711  0.3265
 3008SOL    HW120483   0.732   3.004   6.891 -0.5320 -1.8894 -0.0109
 3008SOL    HW220484   0.729   2.994   6.749 -1.2899 -0.1158 -0.2827
 3009SOL     OW20485   3.813   4.042   5.001 -0.1397 -0.1997  0.3519
 3009SOL    HW120486   3.896   4.029   5.046 -0.3987 -1.7868  0.3895
 3009SOL    HW220487   3.758   3.981   5.049 -0.0948 -0.1863  0.4197
 3010SOL     OW20488   3.348   3.147   1.641 -0.6253  0.2854  0.0134
 3010SOL    HW120489   3.345   3.164   1.547 -0.3072 -1.5181 -0.3290
 3010SOL    HW220490   3.442   3.129   1.648 -0.9686 -1.8136 -0.7030
 3011SOL     OW20491   3.379   3.536  17.275  0.3297 -0.3057 -0.4377
 3011SOL    HW120492   3.451   3.507  17.220  0.7893  0.9364 -0.5009
 3011SOL    HW220493   3.299   3.512  17.228 -0.4233  0.0004  0.6815
 3012SOL     OW20494   2.783   2.360   4.238 -0.3032 -0.2394  0.6317
 3012SOL    HW120495   2.797   2.266   4.243 -0.3710 -0.2616  0.4195
 3012SOL    HW220496   2.738   2.365   4.154  0.2099  0.5348  0.3950
 3013SOL     OW20497   1.447   4.403   6.590  0.1785 -0.0775  0.0436
 3013SOL    HW120498   1.519   4.355   6.548  1.0701  0.2950  1.1505
 3013SOL    HW220499   1.392   4.333   6.624 -0.3795 -0.3408 -1.4156
 3014SOL     OW20500   0.521   0.620   1.108  0.1545 -0.3332  0.1548
 3014SOL    HW120501   0.582   0.578   1.047  1.4269  0.9445  0.5473
 3014SOL    HW220502   0.567   0.701   1.132  0.1836 -0.1257 -0.5994
 3015SOL     OW20503   0.666   4.294  10.095 -0.6658 -0.6217  0.0447
 3015SOL    HW120504   0.666   4.336  10.181 -1.2186 -1.8167  0.6250
 3015SOL    HW220505   0.580   4.317  10.059  0.5746  3.7797 -0.0898
 3016SOL     OW20506   0.634   1.129  15.713 -0.2660  0.2714  0.2170
 3016SOL    HW120507   0.616   1.039  15.685  1.1121  0.7458 -2.1609
 3016SOL    HW220508   0.656   1.128  15.806  1.3152 -0.7269 -0.1655
 3017SOL     OW20509   0.833   2.699   2.377 -0.0543  0.1864  0.0953
 3017SOL    HW120510   0.890   2.640   2.328  2.0769 -1.7265  4.8627
 3017SOL    HW220511   0.877   2.782   2.362 -0.6842  0.5817  0.4190
 3018SOL     OW20512   3.021   2.506   6.688  0.5289 -0.4502 -0.0698
 3018SOL    HW120513   3.025   2.486   6.594  1.2789 -2.1244  0.3245
 3018SOL    HW220514   2.951   2.450   6.720 -0.3889  1.1504  0.7464
 3019SOL     OW20515   0.072   1.791   0.470  0.2341  0.1525  0.8701
 3019SOL    HW120516   0.012   1.745   0.528  0.8834 -1.0962  0.5554
 3019SOL    HW220517   0.149   1.802   0.526 -0.1339  3.4813  0.7340
 3020SOL     OW20518   4.555   2.511   8.440  0.0038  0.9550  0.0859
 3020SOL    HW120519   4.536   2.544   8.352 -0.1179 -0.6072 -0.4753
 3020SOL    HW220520   4.467   2.508   8.477 -0.3057 -0.6056 -0.7797
 3021SOL     OW20521   2.162   1.266   1.793  0.0402  0.9421 -0.4594
 3021SOL    HW120522   2.193   1.216   1.868 -1.4289 -0.3105 -0.6860
 3021SOL    HW220523   2.243   1.311   1.767  1.8479 -1.8668  0.2829
 3022SOL     OW20524   0.130   2.718  14.769  0.2910 -0.3759  0.0758
 3022SOL    HW120525   0.091   2.715  14.681  0.5611  0.5070 -0.0749
 3022SOL    HW220526   0.110   2.808  14.794  0.0027 -0.4318  0.0439
 3023SOL     OW20527   0.324   0.097   2.352 -0.3179 -0.1552  0.2854
 3023SOL    HW120528   0.353   0.174   2.303  1.9591 -2.0200 -1.2652
 3023SOL    HW220529   0.386   0.036   2.312  0.9169  0.3094  1.5102
 3024SOL     OW20530   1.892   0.980  10.898 -0.2491 -0.0415  0.2265
 3024SOL    HW120531   1.838   1.059  10.894  1.7151  1.2878  0.4106
 3024SOL    HW220532   1.833   0.907  10.877  3.3042 -3.1769  1.2599
 3025SOL     OW20533   0.311   0.426   8.146 -0.5540 -0.0652 -0.4825
 3025SOL    HW120534   0.338   0.480   8.220 -2.0207  0.4004 -0.2909
 3025SOL    HW220535   0.351   0.477   8.075 -1.4891  1.7101  0.2996
 3026SOL     OW20536   1.277   3.650   3.917  0.4052  0.0126 -0.3522
 3026SOL    HW120537   1.194   3.604   3.908  1.0721 -0.8560 -2.0584
 3026SOL    HW220538   1.251   3.731   3.962  0.0200  0.8422 -2.0766
 3027SOL     OW20539   0.049   0.957   3.457 -0.1033 -0.3151 -0.0743
 3027SOL    HW120540   4.712   1.023   3.422 -0.1232 -0.2170  0.1430
 3027SOL    HW220541   4.717   0.914   3.522  1.5713  0.1200  1.6777
 3028SOL     OW20542   3.934   3.324   5.090  0.3280 -0.1101  0.1360
 3028SOL    HW120543   4.014   3.349   5.043 -1.5253  0.3039 -2.7592
 3028SOL    HW220544   3.974   3.267   5.156 -1.2092  0.2522  1.3803
 3029SOL     OW20545   3.422   0.923   7.285  0.0781 -0.1544  0.9243
 3029SOL    HW120546   3.391   0.917   7.195  2.0396  0.2052  0.2326
 3029SOL    HW220547   3.388   1.007   7.314  0.0209 -0.3288  1.3759
 3030SOL     OW20548   3.955   2.642   3.600  0.2040 -0.0223  0.6705
 3030SOL    HW120549   4.024   2.575   3.608  0.9274  0.6468  0.0665
 3030SOL    HW220550   3.886   2.581   3.575 -1.2512  0.6968  2.9619
 3031SOL     OW20551   0.861   0.592  10.835  0.3415 -0.2942  0.1505
 3031SOL    HW120552   0.844   0.522  10.771 -0.8743 -0.9522  1.1918
 3031SOL    HW220553   0.771   0.616  10.857 -0.2005 -1.9587 -0.2263
 3032SOL     OW20554   3.082   0.431   0.060  0.3906  0.3212 -0.6416
 3032SOL    HW120555   3.097   0.337   0.067 -0.2030  0.4359  1.9537
 3032SOL    HW220556   3.163   0.450   0.013 -1.0812  1.7897 -2.5778
 3033SOL     OW20557   1.674   2.436   1.964  0.4428 -0.6055  0.1284
 3033SOL    HW120558   1.718   2.375   2.023  0.8670  0.0745  0.5181
 3033SOL    HW220559   1.742   2.423   1.898  1.6031  2.5573  0.6737
 3034SOL     OW20560   1.121   0.209   6.810 -0.2088 -0.0516 -0.7709
 3034SOL    HW120561   1.188   0.188   6.875  0.3497  2.1846 -0.6283
 3034SOL    HW220562   1.168   0.189   6.729  1.6309 -2.0291  0.7896
 3035SOL     OW20563   1.531   1.981   2.877 -0.4680 -0.6390  0.5074
 3035SOL    HW120564   1.457   1.965   2.818  0.1869  2.3846 -1.1186
 3035SOL    HW220565   1.582   2.036   2.818 -1.8438 -1.8062 -1.7893
 3036SOL     OW20566   3.743   0.372  11.341  0.6517 -0.0650  0.2422
 3036SOL    HW120567   3.833   0.364  11.374  1.1245  0.0537 -1.0207
 3036SOL    HW220568   3.719   0.288  11.302  0.5092 -0.2282  0.6838
 3037SOL     OW20569   1.491   2.937   6.968  0.4946  0.0452  0.4380
 3037SOL    HW120570   1.494   3.009   7.030  2.3904  2.0323 -1.9542
 3037SOL    HW220571   1.440   2.987   6.903 -1.2997 -2.9932 -0.4998
 3038SOL     OW20572   3.038   0.008  13.016 -0.2081 -0.1182 -0.6451
 3038SOL    HW120573   2.984   4.670  13.066  1.1677 -1.7594 -1.1669
 3038SOL    HW220574   3.110   0.017  13.079 -0.1007  1.1446 -0.9503
 3039SOL     OW20575   3.058   2.762   6.167 -0.0438 -0.0249 -0.1529
 3039SOL    HW120576   3.031   2.679   6.128 -0.0693  0.0167 -0.2259
 3039SOL    HW220577   2.988   2.766   6.232 -0.3010 -2.8333 -0.2784
 3040SOL     OW20578   0.926   1.340  10.336  0.4407 -0.5547  0.0906
 3040SOL    HW120579   0.832   1.341  10.354  0.0256  0.0308 -2.1212
 3040SOL    HW220580   0.932   1.394  10.257 -0.4862 -2.0476 -0.9886
 3041SOL     OW20581   1.534   2.787  13.137 -0.0764 -0.0343 -0.2501
 3041SOL    HW120582   1.479   2.747  13.069  1.6202 -0.3062 -1.4459
 3041SOL    HW220583   1.615   2.742  13.112  0.1700  0.0838  0.3272
 3042SOL     OW20584   4.369   2.356   4.195 -0.2103 -0.1871 -0.3409
 3042SOL    HW120585   4.369   2.429   4.256 -2.0604 -0.6938  0.2791
 3042SOL    HW220586   4.394   2.407   4.119 -0.9125  2.1828  1.0348
 3043SOL     OW20587   0.751   2.635   5.098  0.2341  0.1786  0.0422
 3043SOL    HW120588   0.763   2.605   5.008 -1.7401  0.1287 -0.1911
 3043SOL    HW220589   0.844   2.645   5.118  0.2217  2.6343 -1.0467
 3044SOL     OW20590   0.516   4.486  14.319 -0.0789  0.1531 -0.6883
 3044SOL    HW120591   0.507   4.580  14.301  0.7364  0.2709 -0.4808
 3044SOL    HW220592   0.431   4.466  14.280 -0.4503 -0.9867  0.7255
 3045SOL     OW20593   0.482   3.840   7.875 -0.1843  0.2642  0.4347
 3045SOL    HW120594   0.405   3.806   7.921 -1.9159  1.9258 -1.2006
 3045SOL    HW220595   0.444   3.895   7.806  1.5406  0.9793  0.0622
 3046SOL     OW20596   2.105   4.569   7.145 -0.0531  0.6129  0.0441
 3046SOL    HW120597   2.162   4.509   7.096 -1.9506 -0.2906 -1.0507
 3046SOL    HW220598   2.174   4.612   7.196  0.2921  1.2875 -0.9899
 3047SOL     OW20599   2.191   3.055   9.285 -0.8212  0.8809 -0.2478
 3047SOL    HW120600   2.095   3.061   9.286 -0.9006 -0.6351  0.7186
 3047SOL    HW220601   2.207   3.008   9.204 -0.8535 -0.4320  0.5199
 3048SOL     OW20602   4.360   1.993  10.410  0.1207  0.4236  0.0569
 3048SOL    HW120603   4.401   2.029  10.332  0.6614  0.5666  0.4024
 3048SOL    HW220604   4.324   1.908  10.385 -1.9038  1.3512 -0.1663
 3049SOL     OW20605   2.114   2.328  16.119 -0.4561  0.4431 -0.3627
 3049SOL    HW120606   2.046   2.338  16.185  0.6517  1.8971  0.5609
 3049SOL    HW220607   2.099   2.407  16.067 -1.5784 -0.9846 -2.2168
 3050SOL     OW20608   0.130   1.377   5.625 -0.2698  0.1112  0.4185
 3050SOL    HW120609   0.128   1.397   5.531 -0.0270 -0.9764  0.1696
 3050SOL    HW220610   0.056   1.429   5.653  0.3414  1.1387  0.1388
 3051SOL     OW20611   0.600   4.029   8.124 -0.6235  0.3311  0.0671
 3051SOL    HW120612   0.543   3.961   8.160  0.3221 -2.7396 -4.2045
 3051SOL    HW220613   0.540   4.082   8.072  0.0514  1.6646  0.6505
 3052SOL     OW20614   2.456   2.942   5.873  0.0261  0.4641 -0.1417
 3052SOL    HW120615   2.460   3.015   5.934 -1.4693 -0.7303  1.3738
 3052SOL    HW220616   2.548   2.933   5.848  0.1819 -2.7660  1.5612
 3053SOL     OW20617   4.172   3.225   6.578  0.2817  0.2897 -0.1815
 3053SOL    HW120618   4.180   3.298   6.640  1.0525 -0.0305  0.0907
 3053SOL    HW220619   4.233   3.255   6.511  1.3978 -0.5987  0.4592
 3054SOL     OW20620   3.843   4.686   5.209 -0.1991  0.3289  0.3147
 3054SOL    HW120621   3.887   0.046   5.222 -0.4826  0.3986  0.8500
 3054SOL    HW220622   3.817   4.649   5.294 -1.8769  1.6868  0.3906
 3055SOL     OW20623   0.952   1.261   7.471 -0.3577 -0.6313  0.6476
 3055SOL    HW120624   0.875   1.316   7.485 -0.0424  0.5295 -2.3197
 3055SOL    HW220625   0.948   1.206   7.550 -0.9630 -0.9419  0.3938
 3056SOL     OW20626   4.105   1.084   3.987  0.0205  0.4787 -0.3234
 3056SOL    HW120627   4.148   1.029   3.922  1.4507  1.1721  0.0363
 3056SOL    HW220628   4.132   1.043   4.070 -0.9629  0.2712 -0.1102
 3057SOL     OW20629   0.933   2.422   5.270 -0.3152 -0.0952 -0.6649
 3057SOL    HW120630   0.877   2.360   5.223 -2.6570  1.0779  0.5956
 3057SOL    HW220631   0.867   2.477   5.312  0.9807  1.2433 -0.3815
 3058SOL     OW20632   4.228   0.873   6.844 -0.3585 -0.1179  0.6544
 3058SOL    HW120633   4.142   0.898   6.876  0.0927  1.3312  0.7385
 3058SOL    HW220634   4.234   0.788   6.888  1.3290 -0.7720 -0.8329
 3059SOL     OW20635   3.065   0.928   8.328 -1.0481 -0.1876 -0.2887
 3059SOL    HW120636   3.090   0.926   8.235 -0.0108 -2.0245  0.0452
 3059SOL    HW220637   3.142   0.969   8.367 -1.1520 -1.5291  1.3112
 3060SOL     OW20638   2.506   0.257   7.248  0.0852  0.1305 -0.0916
 3060SOL    HW120639   2.561   0.193   7.202 -0.9416 -1.0034  0.2878
 3060SOL    HW220640   2.544   0.338   7.212  0.2451 -0.3162 -0.9267
 3061SOL     OW20641   2.918   0.200  14.088  0.0284 -0.3230  0.9168
 3061SOL    HW120642   2.992   0.232  14.140 -0.8094  0.5237  1.6031
 3061SOL    HW220643   2.912   0.111  14.124  2.5818 -0.7232  0.3277
 3062SOL     OW20644   1.454   0.745   6.679 -0.1670  0.1210 -0.5279
 3062SOL    HW120645   1.526   0.681   6.678  0.1985  0.4813  2.6013
 3062SOL    HW220646   1.399   0.703   6.613 -1.1685 -0.4678  0.6749
 3063SOL     OW20647   0.091   3.708   0.228 -0.2008 -0.8406 -0.9055
 3063SOL    HW120648   0.086   3.612   0.231 -1.4904 -0.7229  0.7190
 3063SOL    HW220649   0.041   3.731   0.307  1.5465  0.7597 -0.2756
 3064SOL     OW20650   0.432   0.405   5.427 -0.1276 -0.7183  0.8496
 3064SOL    HW120651   0.426   0.327   5.371  0.0277  0.1778 -0.4310
 3064SOL    HW220652   0.495   0.452   5.373 -1.1631 -0.3092 -0.0042
 3065SOL     OW20653   2.346   2.799  12.718  0.2901  0.9378 -0.3731
 3065SOL    HW120654   2.344   2.711  12.681  2.6227  0.9766 -0.6349
 3065SOL    HW220655   2.254   2.824  12.724 -0.1291 -0.9475  0.9386
 3066SOL     OW20656   1.437   3.140   0.441 -0.4870 -0.3084 -0.5316
 3066SOL    HW120657   1.491   3.080   0.491  0.3655 -0.8990 -2.1480
 3066SOL    HW220658   1.349   3.107   0.461 -1.3143  2.1337 -0.1091
 3067SOL     OW20659   3.087   0.654   3.470 -0.2270  0.4147  0.0591
 3067SOL    HW120660   3.017   0.600   3.433  0.5915 -1.4293  1.1861
 3067SOL    HW220661   3.094   0.624   3.560  2.3509  0.8799  0.0354
 3068SOL     OW20662   2.224   1.689   6.161  0.3897 -0.0957 -0.4277
 3068SOL    HW120663   2.161   1.646   6.218 -0.7746  2.0871 -0.0721
 3068SOL    HW220664   2.170   1.756   6.119  0.5231 -0.2371 -0.8248
 3069SOL     OW20665   4.223   2.423   3.657  0.1671  0.5038  0.1544
 3069SOL    HW120666   4.272   2.374   3.591  0.7218 -0.0903  1.0175
 3069SOL    HW220667   4.298   2.458   3.705  0.5525 -0.6609  0.3812
 3070SOL     OW20668   3.219   2.174   9.208  0.1463 -0.1252  0.5435
 3070SOL    HW120669   3.271   2.222   9.274  1.5322 -0.1788 -0.5070
 3070SOL    HW220670   3.230   2.088   9.248 -1.2210 -1.0189 -1.0525
 3071SOL     OW20671   1.032   2.924   4.821 -0.0766  0.0145 -0.2397
 3071SOL    HW120672   1.115   2.912   4.776  0.2929 -1.0165  0.7388
 3071SOL    HW220673   1.061   2.987   4.886  1.0615 -1.5456  0.7466
 3072SOL     OW20674   1.544   3.595  13.540  0.0338  0.3854  0.4935
 3072SOL    HW120675   1.588   3.620  13.459  0.5643 -2.8637 -0.2450
 3072SOL    HW220676   1.611   3.547  13.589  0.8565  2.0873  1.0269
 3073SOL     OW20677   3.510   1.311   1.232  0.0228 -0.1758  0.3821
 3073SOL    HW120678   3.436   1.255   1.253  0.4286 -0.3383  1.3786
 3073SOL    HW220679   3.560   1.300   1.313 -1.3231 -1.0336  1.0965
 3074SOL     OW20680   0.165   1.874   4.786  0.0517 -0.0873  0.2972
 3074SOL    HW120681   0.158   1.848   4.695 -0.0845 -0.3516  0.3827
 3074SOL    HW220682   0.196   1.964   4.773 -0.3635  0.0259  0.0879
 3075SOL     OW20683   3.343   3.028   8.509  0.1246 -0.2428 -0.2732
 3075SOL    HW120684   3.257   3.062   8.535 -0.7837 -0.6669 -2.7596
 3075SOL    HW220685   3.320   2.937   8.491 -3.5816  0.7290 -0.4258
 3076SOL     OW20686   0.265   2.042  16.154  0.2161 -0.0706  0.0698
 3076SOL    HW120687   0.210   2.120  16.153  1.4501  0.7759 -1.3201
 3076SOL    HW220688   0.280   2.026  16.061  1.4053  0.8610  0.1121
 3077SOL     OW20689   2.325   4.587   3.131 -0.0682  0.3393 -0.3163
 3077SOL    HW120690   2.312   4.668   3.082 -3.1890  0.7713  1.1997
 3077SOL    HW220691   2.409   4.564   3.092 -0.7604 -1.8207 -0.6007
 3078SOL     OW20692   4.200   3.900   1.290  0.3083  0.1588  0.3493
 3078SOL    HW120693   4.150   3.922   1.212  1.1345 -1.2886 -0.5982
 3078SOL    HW220694   4.193   3.804   1.287  1.7652  0.0088  1.9178
 3079SOL     OW20695   0.087   2.748   8.356  0.6933 -0.7553 -0.3574
 3079SOL    HW120696   0.134   2.831   8.355 -0.2489 -0.2498 -2.1961
 3079SOL    HW220697   0.005   2.770   8.313  0.8328 -0.0069 -0.2483
 3080SOL     OW20698   1.340   1.059  15.958 -0.0527 -0.2473  0.4324
 3080SOL    HW120699   1.352   0.983  16.015  0.3353  0.2355  0.9914
 3080SOL    HW220700   1.406   1.116  15.996 -0.2596  1.7796 -2.2397
 3081SOL     OW20701   0.690   0.380   6.085 -0.1332 -0.5937 -0.0292
 3081SOL    HW120702   0.600   0.399   6.114 -0.3529 -0.0163 -1.1058
 3081SOL    HW220703   0.687   0.393   5.990 -0.7386 -0.7710 -0.0373
 3082SOL     OW20704   1.443   3.847   0.319  0.1822  0.3720  0.4685
 3082SOL    HW120705   1.364   3.825   0.369  1.3064  1.4981  2.7627
 3082SOL    HW220706   1.453   3.936   0.354  0.8484  1.5921 -2.8240
 3083SOL     OW20707   2.438   3.837   6.180  0.4139  0.4766 -0.0536
 3083SOL    HW120708   2.359   3.784   6.174  2.8589 -3.0634 -1.2525
 3083SOL    HW220709   2.498   3.787   6.124  3.2811  1.8484  1.7731
 3084SOL     OW20710   4.683   2.247   1.865 -0.4952  0.0613  0.1741
 3084SOL    HW120711   4.644   2.194   1.796 -0.8738  0.1424  0.3249
 3084SOL    HW220712   0.037   2.270   1.814  0.2890  1.0866  1.8116
 3085SOL     OW20713   1.102   3.299  10.341  0.3357  0.0959  0.1285
 3085SOL    HW120714   1.068   3.261  10.260  0.8641  0.4034 -0.2386
 3085SOL    HW220715   1.102   3.223  10.399  0.5436  0.0570  0.0750
 3086SOL     OW20716   2.914   3.417   3.507 -0.1822 -0.0117 -0.1720
 3086SOL    HW120717   2.962   3.433   3.588  0.6040 -0.1977 -0.5993
 3086SOL    HW220718   2.827   3.455   3.518  0.0130  0.6457 -0.8818
 3087SOL     OW20719   0.834   4.276   9.858  0.5466  0.6577 -0.1496
 3087SOL    HW120720   0.837   4.372   9.860  0.1932  0.6092  2.2011
 3087SOL    HW220721   0.768   4.264   9.926 -0.8023  1.2114 -1.3429
 3088SOL     OW20722   4.719   2.472  14.509  0.2037  0.0902 -0.8803
 3088SOL    HW120723   0.083   2.498  14.538 -0.0687  0.6593 -0.5676
 3088SOL    HW220724   4.712   2.381  14.538 -1.4833  0.3589 -0.4536
 3089SOL     OW20725   3.664   3.560  15.928  0.2468 -0.0462 -0.3755
 3089SOL    HW120726   3.620   3.559  15.843 -0.0156  1.9167 -0.2597
 3089SOL    HW220727   3.714   3.478  15.933  1.4507  0.5912 -1.8472
 3090SOL     OW20728   3.147   0.963  12.125  0.4459 -0.3224  0.3844
 3090SOL    HW120729   3.224   1.017  12.143  0.5908 -0.6507  0.7313
 3090SOL    HW220730   3.153   0.974  12.030 -0.8635  1.7239  0.5272
 3091SOL     OW20731   2.234   2.512  11.374  0.5192 -0.2593  0.7002
 3091SOL    HW120732   2.228   2.585  11.436  0.0940  2.0149 -2.0173
 3091SOL    HW220733   2.159   2.455  11.390 -0.1059  1.5224  4.0644
 3092SOL     OW20734   0.376   0.094  12.452 -0.0635 -0.2865  0.2901
 3092SOL    HW120735   0.464   0.106  12.418  0.3239 -2.1675  0.6423
 3092SOL    HW220736   0.402   0.065  12.539  1.9522 -0.9987 -0.5643
 3093SOL     OW20737   3.243   0.421   5.292 -0.3726  0.8407 -0.7460
 3093SOL    HW120738   3.197   0.364   5.353  0.6502  2.2895  1.3903
 3093SOL    HW220739   3.330   0.382   5.286  0.0454  1.4820  1.0367
 3094SOL     OW20740   2.432   2.421   6.696  0.9849 -0.3775 -0.0829
 3094SOL    HW120741   2.464   2.491   6.752  0.3025 -1.9517  2.2515
 3094SOL    HW220742   2.347   2.460   6.673  0.4240 -1.6011 -0.1120
 3095SOL     OW20743   2.812   0.427  10.677 -0.2556  0.0336 -0.4322
 3095SOL    HW120744   2.892   0.378  10.658 -0.2263  0.2899 -0.9811
 3095SOL    HW220745   2.776   0.436  10.589  0.9666  0.8897 -0.8430
 3096SOL     OW20746   0.418   2.527   5.443 -0.7214  0.1779 -0.1036
 3096SOL    HW120747   0.443   2.442   5.480 -1.3940  0.9080  2.0178
 3096SOL    HW220748   0.503   2.559   5.411 -0.4025 -0.3983  0.1695
 3097SOL     OW20749   0.883   3.333  13.156  0.3582  0.2275  0.5248
 3097SOL    HW120750   0.888   3.248  13.199 -0.3555 -0.6573 -1.1695
 3097SOL    HW220751   0.970   3.369  13.174  0.2324  0.4670  0.6662
 3098SOL     OW20752   2.978   3.974   8.793 -0.4292 -1.0358  0.0058
 3098SOL    HW120753   2.958   4.052   8.741  1.4832 -1.3807 -1.2338
 3098SOL    HW220754   2.893   3.964   8.835 -1.2581 -0.8646 -1.6351
 3099SOL     OW20755   1.107   4.638   7.795  0.1357  0.2343 -0.0585
 3099SOL    HW120756   1.134   4.549   7.773  0.1060  0.3624 -0.6031
 3099SOL    HW220757   1.130   4.636   7.888 -0.6459 -1.3125  0.0914
 3100SOL     OW20758   1.120   0.933   4.306 -0.0554  0.1294 -0.4037
 3100SOL    HW120759   1.039   0.940   4.356  0.8650  2.9914  0.6696
 3100SOL    HW220760   1.108   0.855   4.252  0.3553  1.8583 -2.9727
 3101SOL     OW20761   0.972   0.667   5.849  0.0126 -0.0521  0.1931
 3101SOL    HW120762   0.900   0.604   5.843  0.2067 -0.1119 -1.4204
 3101SOL    HW220763   1.004   0.645   5.937 -2.0278  1.1890  1.2777
 3102SOL     OW20764   3.629   3.104   8.134 -0.4328  0.1839 -0.1800
 3102SOL    HW120765   3.559   3.124   8.195  2.0921  2.3444  2.0279
 3102SOL    HW220766   3.612   3.165   8.062 -0.1540  1.0630  0.5035
 3103SOL     OW20767   1.716   0.978   7.331 -0.3853 -0.0017 -0.3277
 3103SOL    HW120768   1.756   1.062   7.352 -0.0761  0.1983 -1.7301
 3103SOL    HW220769   1.712   0.997   7.237  0.7172  1.6741 -0.0326
 3104SOL     OW20770   1.621   3.902   7.520 -0.3530 -0.9049 -0.7796
 3104SOL    HW120771   1.600   3.882   7.611 -0.9169  1.5286 -0.3900
 3104SOL    HW220772   1.681   3.831   7.497  0.7502 -1.0026  2.4125
 3105SOL     OW20773   2.315   1.389  14.134  0.1275  0.0865 -0.5015
 3105SOL    HW120774   2.230   1.361  14.100  0.0498  0.1571 -0.3678
 3105SOL    HW220775   2.301   1.482  14.154  0.6802 -0.1464  0.9979
 3106SOL     OW20776   3.637   2.403   6.716 -0.0402 -0.2586  0.1750
 3106SOL    HW120777   3.669   2.406   6.626  0.6282  2.2582  0.4985
 3106SOL    HW220778   3.710   2.360   6.762  0.1265  0.7993  0.9101
 3107SOL     OW20779   1.997   1.656   3.537  0.3519  0.9809 -0.6128
 3107SOL    HW120780   2.006   1.733   3.481  0.7324  1.6447  0.3669
 3107SOL    HW220781   2.078   1.650   3.587  0.9704  1.6898 -1.5446
 3108SOL     OW20782   1.539   0.491  12.534 -0.1350  0.3518  0.8761
 3108SOL    HW120783   1.484   0.413  12.532 -0.7817  0.8407 -0.2917
 3108SOL    HW220784   1.610   0.449  12.485 -1.8992 -2.5813  0.8638
 3109SOL     OW20785   2.409   4.397  12.638 -0.7200 -0.3857  0.9114
 3109SOL    HW120786   2.348   4.342  12.687 -1.7365  0.0736  0.1674
 3109SOL    HW220787   2.490   4.371  12.682 -1.8195 -3.8894  0.9217
 3110SOL     OW20788   1.374   3.040   3.815 -0.6749 -0.5961  0.1730
 3110SOL    HW120789   1.300   3.070   3.868  0.3109 -0.0381  1.2119
 3110SOL    HW220790   1.444   3.063   3.875 -0.6400 -0.1530 -0.0378
 3111SOL     OW20791   2.335   3.218  11.846  0.0820 -0.4276 -0.2778
 3111SOL    HW120792   2.374   3.140  11.886  0.9347 -0.9421 -2.1076
 3111SOL    HW220793   2.284   3.257  11.916  0.4715 -2.3674  1.0934
 3112SOL     OW20794   1.321   1.834   7.567  0.3979  0.4405  0.2059
 3112SOL    HW120795   1.326   1.928   7.552  2.1893  0.6355  2.1875
 3112SOL    HW220796   1.300   1.800   7.480  0.2395  0.3117  0.2946
 3113SOL     OW20797   3.556   1.487   8.660  0.4231 -0.4321 -0.9553
 3113SOL    HW120798   3.560   1.394   8.681 -0.6703 -0.2982 -0.1723
 3113SOL    HW220799   3.493   1.527   8.719  0.8342 -0.8293 -0.2448
 3114SOL     OW20800   1.195   0.291   9.470 -0.1043 -0.6715  0.3115
 3114SOL    HW120801   1.175   0.214   9.416  2.6089 -1.3370  0.2359
 3114SOL    HW220802   1.255   0.258   9.537  0.4808 -0.9376 -0.3419
 3115SOL     OW20803   2.238   1.618   3.686  0.0116 -0.1830  0.0633
 3115SOL    HW120804   2.319   1.669   3.690 -0.3782  0.4074  0.4457
 3115SOL    HW220805   2.219   1.612   3.779  2.0208  0.6655  0.5370
 3116SOL     OW20806   4.526   3.149   3.639  0.0197 -0.0427  0.4394
 3116SOL    HW120807   4.492   3.200   3.712 -0.3762  1.1115 -0.5577
 3116SOL    HW220808   4.562   3.220   3.586 -1.5781  0.1063 -0.4442
 3117SOL     OW20809   4.127   3.918   5.777 -0.0399 -0.3193  0.0356
 3117SOL    HW120810   4.120   3.926   5.682  2.1614  1.2015 -0.0009
 3117SOL    HW220811   4.141   3.823   5.782  4.3219  0.2473 -1.3242
 3118SOL     OW20812   0.847   3.538   8.675 -0.5367  0.1957 -0.0366
 3118SOL    HW120813   0.763   3.584   8.674 -0.5055  0.3058  2.3633
 3118SOL    HW220814   0.909   3.610   8.692 -2.4731  2.2119 -1.4988
 3119SOL     OW20815   3.720   4.080   0.144 -0.8040  0.6269 -1.0406
 3119SOL    HW120816   3.811   4.109   0.154 -0.0816 -2.7740  2.3063
 3119SOL    HW220817   3.735   4.028   0.066 -2.3223 -0.1661 -0.8080
 3120SOL     OW20818   3.656   4.120   5.914  0.0946 -0.5171  0.1254
 3120SOL    HW120819   3.672   4.198   5.967  1.0457 -1.1314  0.7330
 3120SOL    HW220820   3.735   4.120   5.860 -1.9263  0.9271 -2.8580
 3121SOL     OW20821   1.914   1.712  13.251 -0.2409  0.2833 -0.1635
 3121SOL    HW120822   1.955   1.796  13.230 -0.6598  0.1332 -1.5925
 3121SOL    HW220823   1.968   1.681  13.324 -0.4721  0.8388  0.2513
 3122SOL     OW20824   4.489   3.812   5.805 -0.4362  0.2197  0.3496
 3122SOL    HW120825   4.407   3.763   5.814 -0.2380  0.0860  1.4206
 3122SOL    HW220826   4.477   3.843   5.715 -0.5720 -0.4528  0.1348
 3123SOL     OW20827   0.057   4.632   4.761 -0.5289 -0.0394  0.8710
 3123SOL    HW120828   0.092   4.687   4.690 -2.2143 -3.8944 -2.9574
 3123SOL    HW220829   0.117   4.652   4.833  1.7988 -3.2170 -0.1843
 3124SOL     OW20830   1.384   2.847   5.689  0.2933  0.0233 -0.1696
 3124SOL    HW120831   1.454   2.877   5.747  0.5913  0.9205 -0.9919
 3124SOL    HW220832   1.328   2.924   5.683 -0.9385 -0.9878 -1.6659
 3125SOL     OW20833   3.668   1.331   7.160  0.6089  0.0780 -0.1020
 3125SOL    HW120834   3.657   1.418   7.121  0.4097 -0.3870 -1.0781
 3125SOL    HW220835   3.763   1.329   7.165  0.6507 -0.4476 -1.1721
 3126SOL     OW20836   2.183   0.750   6.531 -0.2340 -0.0557 -0.2912
 3126SOL    HW120837   2.131   0.807   6.587  0.6670 -0.2044  0.7000
 3126SOL    HW220838   2.215   0.690   6.598  0.0016 -0.5812 -0.8675
 3127SOL     OW20839   0.174   4.549  14.064  0.1412  0.1935  0.1077
 3127SOL    HW120840   0.139   4.575  13.979 -0.5377 -1.2434 -0.0529
 3127SOL    HW220841   0.234   4.480  14.039  1.5110  2.0219 -1.6593
 3128SOL     OW20842   1.517   2.544  17.218  0.7923  0.1673  0.3889
 3128SOL    HW120843   1.537   2.459  17.179 -2.1446  0.5267 -1.8547
 3128SOL    HW220844   1.514   2.599  17.140  1.9506  0.5444  0.6080
 3129SOL     OW20845   0.936   3.618   6.259  0.2880  0.1832 -0.0621
 3129SOL    HW120846   1.008   3.616   6.323  2.8112  2.4511 -2.8403
 3129SOL    HW220847   0.985   3.598   6.179  1.3498  2.0699  0.1270
 3130SOL     OW20848   0.126   1.918   4.058 -0.8693 -0.6891  0.0543
 3130SOL    HW120849   0.088   2.001   4.030  1.7169  0.2494 -0.6621
 3130SOL    HW220850   0.213   1.949   4.080 -1.4173  2.1604 -1.8822
 3131SOL     OW20851   4.114   1.980   2.492  0.2314 -0.5789  0.2718
 3131SOL    HW120852   4.036   1.956   2.442 -0.6431  4.9161 -1.0408
 3131SOL    HW220853   4.169   2.001   2.417 -0.2478 -1.9315 -0.4512
 3132SOL     OW20854   2.844   0.393   4.619 -0.2155 -0.2119  0.3400
 3132SOL    HW120855   2.790   0.319   4.590 -2.2050  1.3427  0.0324
 3132SOL    HW220856   2.867   0.360   4.705  1.3562  3.0454  1.1556
 3133SOL     OW20857   3.414   0.415   4.346 -0.4354  0.2967 -0.1774
 3133SOL    HW120858   3.421   0.338   4.290 -0.3955  0.3428 -0.2362
 3133SOL    HW220859   3.470   0.477   4.299 -1.7134  0.5539 -1.3552
 3134SOL     OW20860   0.834   3.920   2.864 -0.5259 -0.3506 -0.1989
 3134SOL    HW120861   0.808   4.003   2.905 -1.2756 -1.4311  1.5141
 3134SOL    HW220862   0.800   3.867   2.936  0.6473 -0.0230  0.5939
 3135SOL     OW20863   0.153   0.990   7.920 -0.1864  0.1957  0.8006
 3135SOL    HW120864   0.235   1.017   7.878 -2.0480  2.7911 -1.2326
 3135SOL    HW220865   0.165   1.032   8.005 -1.7007  0.3474  0.9446
 3136SOL     OW20866   0.287   0.482   6.762  0.3003  0.0413 -0.8029
 3136SOL    HW120867   0.263   0.423   6.690 -0.9162 -0.4670  0.0178
 3136SOL    HW220868   0.307   0.416   6.829 -2.3511 -0.1773 -0.2313
 3137SOL     OW20869   3.527   2.804   5.514 -0.1894  0.0351 -0.4072
 3137SOL    HW120870   3.519   2.891   5.552 -0.5146  0.2334 -0.9343
 3137SOL    HW220871   3.466   2.751   5.566  1.7792 -2.5041 -0.6821
 3138SOL     OW20872   3.170   1.127  14.317  0.3062 -0.2132 -0.4985
 3138SOL    HW120873   3.167   1.145  14.411  1.5610 -1.8111 -0.1520
 3138SOL    HW220874   3.246   1.182  14.299 -0.5286  1.0941  0.0207
 3139SOL     OW20875   1.055   0.205   3.033 -0.2427 -0.3760  0.6681
 3139SOL    HW120876   1.093   0.147   2.967 -0.4872 -1.2413  1.2757
 3139SOL    HW220877   0.973   0.231   2.991  0.0585  1.0744  0.9961
 3140SOL     OW20878   3.875   0.106   4.857  0.2334  0.4621  0.0180
 3140SOL    HW120879   3.807   0.083   4.920 -1.8052  1.4358 -1.8529
 3140SOL    HW220880   3.958   0.097   4.905  1.3669 -2.8533 -2.5562
 3141SOL     OW20881   0.143   2.010   8.552  0.2841 -0.0706 -0.3805
 3141SOL    HW120882   0.188   2.066   8.615 -2.4233  0.9304  0.6582
 3141SOL    HW220883   0.134   1.930   8.603  1.4120  0.2555  0.3095
 3142SOL     OW20884   0.617   3.152   3.548  0.1252  0.4734  0.1244
 3142SOL    HW120885   0.538   3.107   3.578 -0.4325  1.3940  0.0107
 3142SOL    HW220886   0.600   3.165   3.455  2.8280  0.8279 -0.3105
 3143SOL     OW20887   0.946   1.965   3.685  0.3373 -0.2022  0.0540
 3143SOL    HW120888   0.953   1.931   3.596  2.8181 -0.8555  0.4940
 3143SOL    HW220889   0.972   2.057   3.682 -2.1484  0.5500  1.0284
 3144SOL     OW20890   4.439   0.693   7.925 -0.1868 -0.0798  0.3426
 3144SOL    HW120891   4.471   0.755   7.860  0.0946  0.4365  0.9869
 3144SOL    HW220892   4.443   0.615   7.869  1.2908  1.7463 -2.0838
 3145SOL     OW20893   0.197   0.370   4.208 -0.4437 -0.0507  0.6676
 3145SOL    HW120894   0.199   0.448   4.263  0.1317  1.9493 -2.1576
 3145SOL    HW220895   0.190   0.416   4.124 -0.6446 -0.9892  0.1711
 3146SOL     OW20896   3.989   0.737   3.210  0.6408  0.4518 -0.7486
 3146SOL    HW120897   4.067   0.683   3.195  1.9707  2.3418 -0.6675
 3146SOL    HW220898   4.002   0.792   3.133  4.4493  1.6482  0.7539
 3147SOL     OW20899   4.573   4.119   1.609 -0.4130  0.0726  0.2653
 3147SOL    HW120900   4.489   4.082   1.584 -1.0519  0.7849  1.3327
 3147SOL    HW220901   4.639   4.067   1.563  0.1284 -1.0880  2.3668
 3148SOL     OW20902   1.744   1.435  10.477 -0.1910  0.5360  0.0228
 3148SOL    HW120903   1.707   1.440  10.565 -0.5439 -0.8868 -0.0415
 3148SOL    HW220904   1.737   1.340  10.465 -0.2709  0.4777  0.5314
 3149SOL     OW20905   3.040   3.968   7.644 -0.2245  0.2947  0.0675
 3149SOL    HW120906   3.004   4.056   7.646 -0.0684  0.3533  0.2939
 3149SOL    HW220907   3.059   3.968   7.550 -1.4307 -0.1553 -0.1726
 3150SOL     OW20908   0.587   0.694   8.359 -0.1096 -0.0632 -0.2769
 3150SOL    HW120909   0.615   0.699   8.267 -2.5582  1.7679 -0.9144
 3150SOL    HW220910   0.501   0.733   8.348  1.3516  3.3318  0.5254
 3151SOL     OW20911   2.252   3.361   7.033 -0.4356  0.5425 -0.3889
 3151SOL    HW120912   2.344   3.386   7.041  0.4754 -2.1105 -2.9137
 3151SOL    HW220913   2.244   3.320   7.119  1.2996 -0.9410 -0.9389
 3152SOL     OW20914   0.424   1.280   4.400  0.7421  0.0597 -0.5695
 3152SOL    HW120915   0.486   1.353   4.397  1.1400 -0.2842 -0.7379
 3152SOL    HW220916   0.481   1.209   4.430  0.3191 -0.3841 -0.8191
 3153SOL     OW20917   0.732   0.337   1.969  0.0211  0.1613 -0.1489
 3153SOL    HW120918   0.688   0.334   1.884 -1.0061 -0.1066  0.3878
 3153SOL    HW220919   0.738   0.432   1.978  1.5525 -0.0638  1.1102
 3154SOL     OW20920   2.087   1.078   7.935  0.1027 -0.2912 -0.3841
 3154SOL    HW120921   2.181   1.072   7.954  0.0947  1.2801  0.0908
 3154SOL    HW220922   2.072   1.003   7.878  1.0542 -0.0609 -0.9415
 3155SOL     OW20923   2.838   0.992   2.999 -0.0421 -0.2124 -0.2370
 3155SOL    HW120924   2.845   0.922   3.063  0.2139  2.7998  3.0252
 3155SOL    HW220925   2.752   1.030   3.016 -0.5864 -1.1350 -0.8665
 3156SOL     OW20926   1.824   3.835   4.134 -0.3978 -0.2135  0.2133
 3156SOL    HW120927   1.918   3.841   4.116 -0.5368 -0.4909 -0.6320
 3156SOL    HW220928   1.794   3.872   4.051 -0.0141  2.8061  1.4495
 3157SOL     OW20929   3.771   0.697   3.385  0.0788  0.5056 -0.1665
 3157SOL    HW120930   3.787   0.604   3.368 -3.1265  0.3764 -2.2537
 3157SOL    HW220931   3.838   0.734   3.328  0.6021  1.9583  1.3872
 3158SOL     OW20932   0.212   3.855  11.678  0.2265  0.1283  0.3803
 3158SOL    HW120933   0.305   3.872  11.664  0.1841 -0.9415 -1.2036
 3158SOL    HW220934   0.201   3.921  11.746 -1.3732 -0.2031  0.4613
 3159SOL     OW20935   2.053   0.664   6.246 -0.1824 -0.6251 -1.2085
 3159SOL    HW120936   2.050   0.759   6.252 -0.3421 -0.7300  0.4604
 3159SOL    HW220937   2.119   0.648   6.314 -1.2928 -1.0137 -0.2020
 3160SOL     OW20938   3.104   2.958   4.454  0.8530  0.0395  0.3661
 3160SOL    HW120939   3.016   2.939   4.419  0.4621  3.0568 -0.2773
 3160SOL    HW220940   3.088   3.032   4.512 -3.3702 -1.1927  0.8297
 3161SOL     OW20941   1.999   3.255   1.933  0.0559 -0.3042  0.3667
 3161SOL    HW120942   1.995   3.345   1.900  0.6281 -0.2478  0.4527
 3161SOL    HW220943   2.078   3.226   1.888  0.4031 -0.6536  1.1934
 3162SOL     OW20944   2.692   0.808   4.982 -0.5560  0.0727 -0.1216
 3162SOL    HW120945   2.624   0.745   4.960 -1.3228  0.4993  1.0580
 3162SOL    HW220946   2.661   0.878   4.924  0.4655  1.0865  0.5546
 3163SOL     OW20947   1.952   2.007   8.360 -0.4802  0.1629 -0.2033
 3163SOL    HW120948   1.915   2.094   8.345 -0.3671  0.2052 -0.2337
 3163SOL    HW220949   2.017   2.002   8.290 -1.6088 -0.5327 -1.2045
 3164SOL     OW20950   1.819   1.730  16.385  0.4483 -0.8302 -0.4400
 3164SOL    HW120951   1.908   1.763  16.371  0.2827  0.0005  0.4981
 3164SOL    HW220952   1.762   1.765  16.317 -1.4940  1.6751  2.5169
 3165SOL     OW20953   3.796   1.537   5.883 -0.1551 -0.0338 -0.4906
 3165SOL    HW120954   3.887   1.562   5.871  0.1046 -0.8290 -0.1505
 3165SOL    HW220955   3.746   1.619   5.880 -1.4622 -0.9020 -2.3179
 3166SOL     OW20956   1.227   4.638   8.048  0.6832 -0.2915 -0.2734
 3166SOL    HW120957   1.178   4.623   8.129  0.1340 -0.0654 -0.5613
 3166SOL    HW220958   1.301   4.579   8.061  2.1800  1.3075 -1.6310
 3167SOL     OW20959   3.670   3.871  16.863 -0.1926 -0.1005  0.0441
 3167SOL    HW120960   3.588   3.822  16.860  0.6127 -1.4304 -0.2793
 3167SOL    HW220961   3.662   3.925  16.942  0.3335  1.2493 -0.8413
 3168SOL     OW20962   0.564   4.560   4.872  0.0907  0.4399 -0.3346
 3168SOL    HW120963   0.635   4.623   4.856  1.2015 -0.3583  1.4769
 3168SOL    HW220964   0.498   4.627   4.889  0.9190  1.1640  0.0475
 3169SOL     OW20965   1.977   0.045   6.790  0.0265 -0.8381 -0.2585
 3169SOL    HW120966   2.070   0.020   6.794  0.4763  0.9469  0.3172
 3169SOL    HW220967   1.981   0.140   6.778 -1.6355 -0.9327 -1.5698
 3170SOL     OW20968   1.424   2.201   4.567  0.1356  0.3025 -0.5569
 3170SOL    HW120969   1.489   2.192   4.497  2.6398  0.4119  1.7130
 3170SOL    HW220970   1.350   2.188   4.509 -0.0693  1.0533 -0.4559
 3171SOL     OW20971   4.232   2.229   7.807  0.1742 -0.0419  0.1226
 3171SOL    HW120972   4.232   2.321   7.834  0.6106  0.2022 -0.7091
 3171SOL    HW220973   4.263   2.238   7.717  0.4702 -2.0751  0.0262
 3172SOL     OW20974   4.585   1.823   2.271  0.3590  0.7389  0.1349
 3172SOL    HW120975   4.624   1.847   2.187 -0.5536 -1.5237 -0.9275
 3172SOL    HW220976   4.641   1.746   2.285  0.6204  0.7295 -0.9879
 3173SOL     OW20977   3.276   4.656   7.226 -0.4500 -0.2392 -0.1498
 3173SOL    HW120978   3.205   4.704   7.269 -1.7423 -0.2604 -2.2691
 3173SOL    HW220979   3.341   4.653   7.297 -1.7886 -0.3821  1.0815
 3174SOL     OW20980   2.607   4.590  15.305  0.6685 -0.0045  0.5183
 3174SOL    HW120981   2.612   4.522  15.373 -0.8267 -0.6896 -0.0519
 3174SOL    HW220982   2.672   4.658  15.322  1.3770 -0.5028 -0.2084
 3175SOL     OW20983   4.137   0.602  11.928  0.6077 -0.3258  0.2364
 3175SOL    HW120984   4.222   0.642  11.945  0.4858  0.7440 -1.7061
 3175SOL    HW220985   4.076   0.639  11.992 -1.2635  1.3289 -2.4833
 3176SOL     OW20986   1.721   1.068   2.619  0.1829 -0.2727  0.1766
 3176SOL    HW120987   1.807   1.085   2.579 -0.7283  0.6622 -1.3713
 3176SOL    HW220988   1.738   0.995   2.679  1.9700 -0.8841 -1.0721
 3177SOL     OW20989   2.608   3.466   1.137 -0.3007  0.3441  0.2213
 3177SOL    HW120990   2.691   3.456   1.183 -0.8626 -1.5413  0.8137
 3177SOL    HW220991   2.636   3.522   1.064  0.6067 -1.4855 -0.8339
 3178SOL     OW20992   0.350   4.426   6.375 -0.1890 -0.1860 -0.5184
 3178SOL    HW120993   0.356   4.462   6.464 -2.0670  0.8479 -0.7942
 3178SOL    HW220994   0.267   4.380   6.385 -0.0757 -0.0681  1.0088
 3179SOL     OW20995   0.782   0.709   0.782  0.3894 -0.2992 -0.1262
 3179SOL    HW120996   0.838   0.714   0.860 -0.9752 -0.9942  0.8944
 3179SOL    HW220997   0.823   0.781   0.735  0.9469  0.9248  2.2128
 3180SOL     OW20998   3.831   0.424   0.139 -0.3898  0.0923 -0.5419
 3180SOL    HW120999   3.803   0.434   0.230 -1.0603 -0.7024 -0.6659
 3180SOL    HW221000   3.890   0.500   0.138 -2.0640  1.4206  0.4905
 3181SOL     OW21001   4.081   2.501  11.217  0.2254 -0.1397  0.1558
 3181SOL    HW121002   4.123   2.557  11.283 -0.9863 -1.7463  2.3036
 3181SOL    HW221003   4.151   2.436  11.219 -0.8360 -1.2916 -0.3269
 3182SOL     OW21004   2.867   4.662   1.057  0.2635 -0.0863 -0.2850
 3182SOL    HW121005   2.829   4.589   1.008 -0.2935 -0.3413  0.5078
 3182SOL    HW221006   2.956   4.633   1.076  0.0576 -0.0855  0.6806
 3183SOL     OW21007   2.014   2.797   3.582  0.1703 -0.5893  0.5116
 3183SOL    HW121008   2.086   2.813   3.522 -1.0599  0.8408 -0.5936
 3183SOL    HW221009   1.949   2.844   3.530  0.2113 -0.0976  0.8996
 3184SOL     OW21010   4.487   3.895   6.747 -0.2448 -0.8826  0.0406
 3184SOL    HW121011   4.535   3.891   6.664  1.9569  0.7533  1.2300
 3184SOL    HW221012   4.509   3.984   6.775 -0.0268 -0.4387 -1.5349
 3185SOL     OW21013   1.133   0.604   3.808 -0.3284 -0.1787  0.5207
 3185SOL    HW121014   1.104   0.528   3.758  1.7302 -0.2115 -0.6221
 3185SOL    HW221015   1.190   0.634   3.738  0.0940  2.2621  1.8997
 3186SOL     OW21016   2.117   2.267   0.340 -0.0096  0.2668 -0.2550
 3186SOL    HW121017   2.196   2.241   0.292 -0.5086 -0.4907 -0.6727
 3186SOL    HW221018   2.045   2.216   0.302  0.0430 -0.1066  0.1536
 3187SOL     OW21019   2.382   3.810  13.747 -0.2158 -0.4969  0.0326
 3187SOL    HW121020   2.391   3.881  13.811  1.3099 -0.6240 -0.0309
 3187SOL    HW221021   2.316   3.762  13.796 -1.7778  2.8495  1.1776
 3188SOL     OW21022   2.069   0.939   9.196 -0.3393 -0.4587 -0.2634
 3188SOL    HW121023   2.096   1.030   9.183  0.0205 -0.5818 -0.3790
 3188SOL    HW221024   2.021   0.927   9.114 -0.4203 -1.1304 -0.1206
 3189SOL     OW21025   2.772   1.000   3.419  0.0565 -0.2336 -0.0274
 3189SOL    HW121026   2.764   0.921   3.472  1.1881 -0.2962  0.0539
 3189SOL    HW221027   2.845   0.968   3.366  1.5849  4.3663 -0.7352
 3190SOL     OW21028   3.854   3.363   3.939 -0.3821  0.3549 -0.3227
 3190SOL    HW121029   3.840   3.357   3.844  1.4478  2.7366 -0.7519
 3190SOL    HW221030   3.946   3.389   3.929  0.2733 -1.1965  1.8383
 3191SOL     OW21031   1.485   3.765   3.804 -0.0423  0.0085 -0.0749
 3191SOL    HW121032   1.551   3.696   3.813 -0.9795 -0.6793  1.6657
 3191SOL    HW221033   1.407   3.715   3.825  0.8687 -1.0176  0.8728
 3192SOL     OW21034   0.337   1.403   4.860  0.1789  0.2331 -0.1737
 3192SOL    HW121035   0.395   1.345   4.812 -2.7986 -2.2930 -0.7637
 3192SOL    HW221036   0.325   1.353   4.941 -1.3724 -1.2212 -1.3188
 3193SOL     OW21037   1.049   3.481  12.751  0.1229 -0.4867 -0.0373
 3193SOL    HW121038   1.026   3.571  12.729  0.7915 -0.3658 -0.2513
 3193SOL    HW221039   0.960   3.449  12.766  0.0980 -0.6635 -0.5643
 3194SOL     OW21040   3.140   2.096  16.843 -0.0141 -0.3134 -0.5441
 3194SOL    HW121041   3.094   2.127  16.921 -1.0337  0.2316 -1.3591
 3194SOL    HW221042   3.076   2.123  16.777  0.4328 -0.7839 -1.1694
 3195SOL     OW21043   4.660   4.196   2.954 -0.3361  0.4968 -0.7752
 3195SOL    HW121044   4.583   4.200   2.897 -1.3005 -1.0488  0.4316
 3195SOL    HW221045   0.010   4.207   2.893  1.2682  0.5538  1.1507
 3196SOL     OW21046   0.242   0.681   2.243 -0.3908 -0.3388  0.2847
 3196SOL    HW121047   0.291   0.703   2.164  0.3606  3.1991  1.7314
 3196SOL    HW221048   0.164   0.732   2.223 -0.1115 -0.2740 -0.6377
 3197SOL     OW21049   1.699   2.522   4.421 -0.0987 -0.6942 -0.4968
 3197SOL    HW121050   1.638   2.474   4.366 -2.0732 -0.0397  1.1115
 3197SOL    HW221051   1.651   2.519   4.504 -0.2778  3.6096 -0.4203
 3198SOL     OW21052   2.171   2.595   6.642  0.2403 -0.0204  0.2194
 3198SOL    HW121053   2.086   2.553   6.661 -0.2063  0.5767 -0.4695
 3198SOL    HW221054   2.161   2.593   6.547  0.1026  1.6508  0.1967
 3199SOL     OW21055   4.056   0.686   8.025 -0.0262  0.1378 -0.7013
 3199SOL    HW121056   3.994   0.748   7.987 -1.1869 -0.2914  0.4831
 3199SOL    HW221057   4.128   0.736   8.062  1.6232 -0.9632 -2.4142
 3200SOL     OW21058   2.323   0.893   7.803  0.1000 -0.1501  0.0219
 3200SOL    HW121059   2.317   0.934   7.717  1.5500 -0.2217 -0.1044
 3200SOL    HW221060   2.406   0.847   7.798  0.2170 -0.1119  1.6867
 3201SOL     OW21061   3.628   1.620   7.461  0.3019 -0.6163  0.3852
 3201SOL    HW121062   3.638   1.665   7.377  0.3233 -1.9115 -0.3052
 3201SOL    HW221063   3.717   1.585   7.468  0.4790 -0.0012  1.2567
 3202SOL     OW21064   1.110   3.388   2.573 -0.1968 -0.6012 -0.2879
 3202SOL    HW121065   1.059   3.468   2.559 -0.6682 -0.6814  1.0452
 3202SOL    HW221066   1.173   3.422   2.637  0.4599 -1.6363 -0.3854
 3203SOL     OW21067   1.165   2.838   2.708 -0.1625 -0.1779 -0.2504
 3203SOL    HW121068   1.225   2.869   2.775 -0.6959 -1.0738  0.6435
 3203SOL    HW221069   1.213   2.761   2.676  2.3007  0.7688  1.1863
 3204SOL     OW21070   0.137   1.054   3.070 -0.6274  0.4554  0.1633
 3204SOL    HW121071   0.194   1.004   3.129  0.0475 -0.0804 -0.9467
 3204SOL    HW221072   0.200   1.074   3.002 -3.2461  1.5287 -1.9531
 3205SOL     OW21073   4.064   3.515   2.994 -0.4599 -0.6245  0.5510
 3205SOL    HW121074   3.994   3.498   3.057 -0.1852 -0.6721  0.8446
 3205SOL    HW221075   4.022   3.579   2.936  1.2920 -1.0210 -1.1338
 3206SOL     OW21076   2.867   3.387   9.977 -0.2639 -0.3577  0.2474
 3206SOL    HW121077   2.897   3.438   9.901 -0.2825 -2.1264 -0.9560
 3206SOL    HW221078   2.915   3.433  10.045 -0.4827  0.9303 -0.4622
 3207SOL     OW21079   0.978   0.473   4.201  0.2611  0.3164  0.2613
 3207SOL    HW121080   1.028   0.397   4.169  0.1750 -0.3951  1.7994
 3207SOL    HW221081   0.897   0.464   4.152 -0.9716 -1.1531  2.5375
 3208SOL     OW21082   0.907   4.274   7.210 -0.8284 -0.4994 -0.1351
 3208SOL    HW121083   0.842   4.308   7.148 -2.5131 -0.7307  1.4858
 3208SOL    HW221084   0.958   4.214   7.156 -0.5025  0.8573 -1.3462
 3209SOL     OW21085   3.075   3.757   3.601  0.0813  0.2794 -0.0303
 3209SOL    HW121086   3.079   3.699   3.525 -1.8231  0.9007 -0.5940
 3209SOL    HW221087   3.155   3.726   3.643  0.9217 -0.7715 -2.4021
 3210SOL     OW21088   0.581   2.525   7.241  0.3690  1.0863  0.0433
 3210SOL    HW121089   0.505   2.541   7.297 -0.1188 -0.1655 -0.2573
 3210SOL    HW221090   0.652   2.531   7.305 -1.5675  0.5998  2.2074
 3211SOL     OW21091   4.052   0.799   5.607  0.1960 -0.4722 -0.4104
 3211SOL    HW121092   3.979   0.789   5.667 -0.9738 -1.4630 -2.0144
 3211SOL    HW221093   4.030   0.744   5.532 -0.8340  0.9478 -1.1490
 3212SOL     OW21094   1.077   2.516   3.077 -0.5325 -0.3392 -0.3195
 3212SOL    HW121095   1.072   2.439   3.134  1.2737  2.3255  3.4395
 3212SOL    HW221096   1.154   2.562   3.110 -1.4428  0.9601 -0.0539
 3213SOL     OW21097   0.420   4.235  11.817  0.3401 -0.5157  0.0369
 3213SOL    HW121098   0.453   4.224  11.727 -0.8022  1.6986 -0.6698
 3213SOL    HW221099   0.412   4.331  11.816  0.1717 -0.5244  3.3133
 3214SOL     OW21100   3.969   3.432   8.841 -1.0760  0.3904  0.2707
 3214SOL    HW121101   4.053   3.462   8.805 -0.6114 -0.9999  0.1656
 3214SOL    HW221102   4.003   3.411   8.928 -0.7223 -0.1725  0.0018
 3215SOL     OW21103   1.403   0.207   3.218 -0.2323  0.2967  0.5355
 3215SOL    HW121104   1.348   0.146   3.268  1.2471 -0.5063  1.1854
 3215SOL    HW221105   1.468   0.228   3.284 -0.8384  0.2143  1.1580
 3216SOL     OW21106   4.324   2.238   0.333 -0.1480 -0.1715 -0.1051
 3216SOL    HW121107   4.303   2.316   0.283  0.1605 -0.0477 -0.0412
 3216SOL    HW221108   4.314   2.280   0.419  2.1265 -0.8503  0.5191
 3217SOL     OW21109   1.313   0.734   3.650  0.1299  0.0624 -0.3996
 3217SOL    HW121110   1.370   0.657   3.649  2.5799  1.9013 -2.5029
 3217SOL    HW221111   1.371   0.800   3.688  1.5468 -1.0712 -0.6007
 3218SOL     OW21112   1.459   1.470  11.943  0.5316  0.1971  0.2215
 3218SOL    HW121113   1.391   1.533  11.917  0.6253  0.5358  0.7943
 3218SOL    HW221114   1.503   1.453  11.859  1.0817  2.1351  0.1272
 3219SOL     OW21115   1.722   2.870   5.788  0.3763 -0.5292 -0.0875
 3219SOL    HW121116   1.809   2.893   5.755  0.6120 -1.3684 -0.0579
 3219SOL    HW221117   1.720   2.774   5.791  0.0787 -0.5688 -1.4453
 3220SOL     OW21118   3.832   0.493   2.403  0.0012 -0.4739 -1.0394
 3220SOL    HW121119   3.909   0.520   2.452 -0.4217 -2.6298  0.8134
 3220SOL    HW221120   3.868   0.480   2.315  1.1060 -2.3460 -0.3216
 3221SOL     OW21121   3.460   1.015   3.259 -0.4166  0.2717  0.0237
 3221SOL    HW121122   3.433   0.924   3.245  0.8128 -0.0495 -0.2431
 3221SOL    HW221123   3.413   1.039   3.339 -2.5559 -0.5408 -0.9646
 3222SOL     OW21124   1.156   3.016   5.621  0.0617  0.0047 -0.3266
 3222SOL    HW121125   1.085   3.076   5.642  0.6848  0.6085  0.0486
 3222SOL    HW221126   1.133   2.951   5.688  1.0322 -0.1522 -0.1352
 3223SOL     OW21127   0.250   1.557   7.526 -0.2061  0.1782  0.1174
 3223SOL    HW121128   0.284   1.624   7.585 -0.5348  1.1139 -0.7657
 3223SOL    HW221129   0.183   1.613   7.486 -0.7491  0.3855  1.2979
 3224SOL     OW21130   3.432   0.236  13.945  0.2150  0.4176  0.3156
 3224SOL    HW121131   3.478   0.249  13.863  0.2551  2.6943  0.7083
 3224SOL    HW221132   3.408   0.143  13.947 -1.5834  0.8355 -1.5771
 3225SOL     OW21133   2.367   0.047   1.874  0.9219  0.6914  0.4839
 3225SOL    HW121134   2.411   0.055   1.789 -0.4869  2.1470 -0.1086
 3225SOL    HW221135   2.286   0.001   1.853  1.3271  0.0452  0.3277
 3226SOL     OW21136   2.465   0.991   8.687  0.2737  0.2289  0.2557
 3226SOL    HW121137   2.406   0.969   8.615 -0.0165 -0.7106  0.7696
 3226SOL    HW221138   2.545   0.956   8.649 -0.6643 -1.1883 -0.4083
 3227SOL     OW21139   0.415   4.339  16.201  0.2879  0.1136 -0.2653
 3227SOL    HW121140   0.359   4.262  16.205  2.6181 -1.4604  1.9005
 3227SOL    HW221141   0.430   4.348  16.107  0.1282 -2.3565 -0.5216
 3228SOL     OW21142   4.698   1.496   6.428 -0.3951 -0.4916  0.1407
 3228SOL    HW121143   4.688   1.536   6.342 -0.7571 -3.4037 -1.1577
 3228SOL    HW221144   4.661   1.564   6.484  0.5210 -0.4674  0.7278
 3229SOL     OW21145   3.987   0.963   6.941 -0.0309 -0.9657  0.2767
 3229SOL    HW121146   3.914   0.915   6.902  0.1327  0.4692 -1.8112
 3229SOL    HW221147   3.964   1.048   6.903  0.2462 -1.0726 -0.1320
 3230SOL     OW21148   3.655   2.686   6.781 -0.4606  0.7597  0.4014
 3230SOL    HW121149   3.655   2.596   6.749 -0.1512  0.7293  0.4945
 3230SOL    HW221150   3.744   2.687   6.815 -0.2042  0.0105 -0.2513
 3231SOL     OW21151   3.506   2.820   2.776  0.1315  0.5285  0.2193
 3231SOL    HW121152   3.574   2.811   2.709 -0.6180  1.6827 -0.6869
 3231SOL    HW221153   3.540   2.901   2.814  0.7115  0.9982 -1.3342
 3232SOL     OW21154   2.013   4.611   8.640  0.2614  0.4794  0.0688
 3232SOL    HW121155   2.049   4.675   8.701 -0.2391  0.9507 -0.1220
 3232SOL    HW221156   1.958   4.670   8.588  0.3622  0.2338 -0.3161
 3233SOL     OW21157   2.876   1.705   9.229 -0.1330  0.1994 -0.3593
 3233SOL    HW121158   2.832   1.672   9.151  1.3111  2.6062 -2.1812
 3233SOL    HW221159   2.958   1.659   9.212  0.1555  0.9961 -1.1158
 3234SOL     OW21160   3.375   1.145  11.276 -0.0848 -0.4582  0.2130
 3234SOL    HW121161   3.306   1.096  11.321  0.5024 -0.1812  1.3952
 3234SOL    HW221162   3.319   1.203  11.224  0.3681 -1.7426 -1.7089
 3235SOL     OW21163   2.464   2.099   2.539  0.4225 -0.2828  0.5535
 3235SOL    HW121164   2.441   2.101   2.632  0.7139  0.5602  0.6016
 3235SOL    HW221165   2.551   2.139   2.541  0.6829 -0.8020 -0.6009
 3236SOL     OW21166   0.050   1.249   7.879 -0.4831 -0.1751  0.0427
 3236SOL    HW121167   0.107   1.306   7.828  0.5285 -0.3858  0.9494
 3236SOL    HW221168   0.054   1.163   7.839  0.1308  0.0022 -0.2703
 3237SOL     OW21169   1.145   3.332   4.633 -0.3186 -0.2794 -0.2751
 3237SOL    HW121170   1.205   3.402   4.605 -0.2726 -0.1454  0.1623
 3237SOL    HW221171   1.157   3.275   4.557  1.4207 -0.0343 -0.1967
 3238SOL     OW21172   4.122   0.631  17.537 -0.0148 -0.1742  0.1255
 3238SOL    HW121173   4.215   0.645  17.557 -0.0218 -1.8084  1.2629
 3238SOL    HW221174   4.128   0.543  17.502 -0.3408  0.4387 -1.4558
 3239SOL     OW21175   4.333   3.889   8.077 -0.9366 -0.4693 -0.2288
 3239SOL    HW121176   4.247   3.848   8.070 -0.9482 -0.5305  0.2614
 3239SOL    HW221177   4.365   3.871   7.989  1.2493 -0.2985  0.5157
 3240SOL     OW21178   0.966   0.329   8.243  0.9485 -0.9044 -0.1529
 3240SOL    HW121179   0.885   0.321   8.293  0.3866 -2.2238 -1.2921
 3240SOL    HW221180   1.029   0.284   8.300  0.6448 -0.9362  0.1576
 3241SOL     OW21181   2.993   3.443   4.717  0.1577 -0.4834 -0.0095
 3241SOL    HW121182   2.943   3.453   4.799 -1.6356 -1.5651 -0.9664
 3241SOL    HW221183   2.999   3.348   4.705 -1.0155 -0.4943 -0.5623
 3242SOL     OW21184   2.461   3.030  15.914 -0.5263  0.3829  0.3819
 3242SOL    HW121185   2.428   2.962  15.973  1.7499 -1.0888 -0.0871
 3242SOL    HW221186   2.524   2.988  15.856  1.4054  2.4803  0.9602
 3243SOL     OW21187   1.895   2.907  16.236 -0.1723 -0.0621  0.2815
 3243SOL    HW121188   1.866   2.829  16.283  1.5700 -0.9348 -0.0965
 3243SOL    HW221189   1.815   2.956  16.256 -0.1387 -1.8197  4.7644
 3244SOL     OW21190   2.962   1.647   4.444 -0.1777  0.3932 -0.0965
 3244SOL    HW121191   2.886   1.592   4.463 -0.3731  0.6367 -0.1755
 3244SOL    HW221192   3.036   1.588   4.460 -1.1977 -0.3913  1.7929
 3245SOL     OW21193   3.262   4.514  12.604  0.2514 -0.7073  0.1326
 3245SOL    HW121194   3.206   4.568  12.659 -1.7381 -0.6854 -1.9221
 3245SOL    HW221195   3.329   4.583  12.601 -2.1917  1.7145  1.0594
 3246SOL     OW21196   1.450   0.919   3.369 -0.7399  0.5228  0.6098
 3246SOL    HW121197   1.541   0.926   3.398 -0.9998  3.2620  0.6984
 3246SOL    HW221198   1.401   0.922   3.451  0.3571  1.8608  1.2048
 3247SOL     OW21199   4.256   2.119   5.691  0.1637 -0.4773 -0.3938
 3247SOL    HW121200   4.197   2.085   5.624 -1.4652 -0.3816  0.9914
 3247SOL    HW221201   4.305   2.040   5.713  0.3300 -0.1531  0.3907
 3248SOL     OW21202   2.074   4.230   6.045 -0.1304 -0.3829 -0.5410
 3248SOL    HW121203   2.157   4.228   6.092  0.9461 -0.4162 -2.4558
 3248SOL    HW221204   2.068   4.324   6.027  1.0811 -0.3778 -0.9017
 3249SOL     OW21205   0.110   0.914   0.184  0.2249  0.2598 -0.2225
 3249SOL    HW121206   0.141   1.001   0.157 -0.0434  0.3205 -0.3373
 3249SOL    HW221207   0.018   0.920   0.157  0.1020  1.3742  0.4256
 3250SOL     OW21208   0.672   2.955   7.707  0.3806  0.0483 -0.1961
 3250SOL    HW121209   0.598   3.012   7.728 -0.7407 -1.3514 -0.3722
 3250SOL    HW221210   0.626   2.872   7.700 -1.0823  0.8997 -0.5697
 3251SOL     OW21211   0.297   3.957   9.499 -0.2290 -0.1554  0.3574
 3251SOL    HW121212   0.268   3.884   9.445  1.0317 -0.1889 -0.2771
 3251SOL    HW221213   0.305   3.908   9.581  1.7328 -0.6485 -0.1283
 3252SOL     OW21214   3.461   0.458   3.780 -0.6228  0.2203 -0.0175
 3252SOL    HW121215   3.394   0.430   3.717  1.1841 -1.2300 -1.3077
 3252SOL    HW221216   3.431   0.407   3.855  1.6891 -0.0795  0.7150
 3253SOL     OW21217   3.579   0.488  17.449  0.1571 -0.1226  0.4354
 3253SOL    HW121218   3.566   0.576  17.414 -0.7513 -0.8119 -0.9821
 3253SOL    HW221219   3.644   0.516  17.513  0.7636  0.1111 -0.2785
 3254SOL     OW21220   4.330   3.697   6.176 -0.2973  0.4494  0.0077
 3254SOL    HW121221   4.254   3.638   6.175 -0.8160  1.1601 -2.5723
 3254SOL    HW221222   4.399   3.632   6.188  0.2415  1.0773  0.2817
 3255SOL     OW21223   3.844   2.725   9.544  0.6435 -0.1938  0.0812
 3255SOL    HW121224   3.914   2.702   9.484  1.0680 -1.6058  1.1343
 3255SOL    HW221225   3.875   2.674   9.618 -0.3529 -1.0556 -0.0944
 3256SOL     OW21226   1.315   1.783   8.270 -0.6422  0.0732  0.7391
 3256SOL    HW121227   1.289   1.761   8.360  2.4980  0.4660  1.7228
 3256SOL    HW221228   1.232   1.796   8.223 -0.3433  1.0844  0.5060
 3257SOL     OW21229   0.197   0.067  14.865 -0.6135 -0.0853 -0.0098
 3257SOL    HW121230   0.292   0.056  14.857 -0.5622  0.6846 -0.5237
 3257SOL    HW221231   0.169   0.020  14.787 -1.3438  1.0694 -0.4452
 3258SOL     OW21232   2.806   0.479   8.086  0.0908  0.1731 -0.2119
 3258SOL    HW121233   2.886   0.429   8.103 -0.3107  0.3133  2.1682
 3258SOL    HW221234   2.777   0.479   8.178  2.3257  2.4043  0.4893
 3259SOL     OW21235   2.666   0.739   6.681  0.0800 -0.0187 -0.2578
 3259SOL    HW121236   2.762   0.732   6.678  0.0308 -0.9597  0.6534
 3259SOL    HW221237   2.659   0.710   6.590  1.3048  0.7765 -0.6197
 3260SOL     OW21238   3.572   0.176   4.427  0.5676  0.4586  0.5180
 3260SOL    HW121239   3.524   0.168   4.509  0.8564 -0.5642  0.5853
 3260SOL    HW221240   3.636   0.246   4.444  1.4812 -0.3621  0.4347
 3261SOL     OW21241   1.937   2.343   5.753 -0.1231 -0.3419 -0.5076
 3261SOL    HW121242   2.010   2.372   5.699  3.3531 -4.6088  1.8734
 3261SOL    HW221243   1.941   2.248   5.739 -0.2605 -0.3498 -0.4927
 3262SOL     OW21244   3.024   3.679  10.734  0.9529  0.5092 -0.2180
 3262SOL    HW121245   3.101   3.700  10.681  1.1427  0.6515  0.1117
 3262SOL    HW221246   3.057   3.623  10.804  0.3756 -0.1238 -0.4561
 3263SOL     OW21247   2.255   0.287  12.786 -0.0105  0.2028 -0.3673
 3263SOL    HW121248   2.344   0.290  12.749  0.0847 -1.2582 -0.2510
 3263SOL    HW221249   2.224   0.209  12.740 -0.4992  0.0032  0.3016
 3264SOL     OW21250   2.319   0.957  11.577 -0.1779  0.8379  0.3122
 3264SOL    HW121251   2.388   0.988  11.635  0.6655 -0.0277 -0.2245
 3264SOL    HW221252   2.317   1.031  11.517  2.1370  0.2288 -0.5358
 3265SOL     OW21253   0.254   1.143  17.204 -0.1615  0.3771 -0.2636
 3265SOL    HW121254   0.168   1.102  17.206  0.0654 -0.2502 -3.7118
 3265SOL    HW221255   0.232   1.236  17.204  1.2887  0.7231  0.2993
 3266SOL     OW21256   3.134   0.407   9.234 -0.3278 -0.3175 -0.6793
 3266SOL    HW121257   3.207   0.398   9.296 -0.6697  0.2508 -0.1948
 3266SOL    HW221258   3.091   0.489   9.257 -1.2599 -0.3187 -2.4901
 3267SOL     OW21259   3.019   1.573   1.986  0.0535 -0.4386  0.3048
 3267SOL    HW121260   3.066   1.648   1.950 -1.4120  0.6558  0.6720
 3267SOL    HW221261   3.079   1.498   1.984  0.5709 -0.0036 -0.1815
 3268SOL     OW21262   2.606   3.758   6.721  0.4115  0.3615 -0.5663
 3268SOL    HW121263   2.517   3.720   6.724  1.0304 -1.0257  0.2037
 3268SOL    HW221264   2.661   3.680   6.729  2.5035  2.1002  1.7422
 3269SOL     OW21265   2.595   1.144   8.056 -0.4529 -0.2501  0.1767
 3269SOL    HW121266   2.654   1.196   8.001 -3.0627  2.9201  0.3462
 3269SOL    HW221267   2.546   1.219   8.090 -0.1335 -0.6077  1.4155
 3270SOL     OW21268   3.001   3.478   6.974  0.2771  0.3410  0.1718
 3270SOL    HW121269   3.066   3.497   7.042  0.9095  0.8224 -0.5717
 3270SOL    HW221270   3.066   3.445   6.912 -0.3287 -1.2892  0.3839
 3271SOL     OW21271   0.439   3.366   2.575 -0.1977 -0.1467 -0.0855
 3271SOL    HW121272   0.472   3.434   2.633  0.0557  0.0585 -0.4732
 3271SOL    HW221273   0.396   3.305   2.635 -0.9585 -1.5851 -2.0742
 3272SOL     OW21274   3.415   1.722   6.115  0.6434  0.6194 -0.4239
 3272SOL    HW121275   3.497   1.771   6.101  0.0338  1.6044 -0.6005
 3272SOL    HW221276   3.365   1.752   6.039 -0.9349 -0.8591  0.0359
 3273SOL     OW21277   0.212   0.641   4.104 -0.1143  0.4189  0.1738
 3273SOL    HW121278   0.284   0.651   4.166  1.2455 -1.3207 -1.1090
 3273SOL    HW221279   0.254   0.650   4.018  1.4574 -0.3507  0.8585
 3274SOL     OW21280   3.145   0.285   8.720  0.1658  0.5807 -0.7889
 3274SOL    HW121281   3.073   0.228   8.691  0.3162 -0.5735  1.0711
 3274SOL    HW221282   3.116   0.307   8.809  1.7598 -2.5831  0.5357
 3275SOL     OW21283   3.898   1.742  17.585  0.3964  0.5847  0.1459
 3275SOL    HW121284   3.885   1.828  17.626 -1.9647 -0.3949  1.4520
 3275SOL    HW221285   3.987   1.741  17.552  0.0248  1.0552 -0.8676
 3276SOL     OW21286   2.709   2.796  12.500  0.0652  0.1838  0.1967
 3276SOL    HW121287   2.749   2.753  12.576  0.3156 -0.7669 -0.4607
 3276SOL    HW221288   2.645   2.849  12.546  0.5791  0.1321  0.9791
 3277SOL     OW21289   4.206   3.587   1.292 -0.4691 -0.2344 -0.7791
 3277SOL    HW121290   4.221   3.565   1.384  1.3823 -1.9402 -1.4949
 3277SOL    HW221291   4.264   3.524   1.249  0.4746 -1.1500  1.8254
 3278SOL     OW21292   3.190   0.575  13.345 -0.2494  0.4101  0.0391
 3278SOL    HW121293   3.263   0.571  13.406  0.6691  2.8294 -0.9233
 3278SOL    HW221294   3.205   0.657  13.298  0.6207  0.5896  0.6260
 3279SOL     OW21295   0.899   4.238   3.985  0.0385 -0.4927  0.2763
 3279SOL    HW121296   0.900   4.333   3.999 -1.1755 -0.2678 -1.1315
 3279SOL    HW221297   0.986   4.224   3.947  0.4120 -0.7226  1.2204
 3280SOL     OW21298   1.591   1.871   3.435  0.7227  0.1648  0.0618
 3280SOL    HW121299   1.568   1.798   3.377  0.6251  0.4802 -0.3007
 3280SOL    HW221300   1.657   1.818   3.478  1.2063 -0.7825 -1.8251
 3281SOL     OW21301   2.203   0.744   4.876 -0.6329 -0.1375 -0.1311
 3281SOL    HW121302   2.136   0.678   4.859  0.4126 -1.0333 -0.7695
 3281SOL    HW221303   2.169   0.797   4.948  0.6209  2.2519 -1.3027
 3282SOL     OW21304   4.328   2.353  14.696 -0.0647  1.0902  0.0572
 3282SOL    HW121305   4.402   2.308  14.738 -0.2206  2.6794  2.0333
 3282SOL    HW221306   4.361   2.352  14.606 -1.2980 -0.7762 -0.3551
 3283SOL     OW21307   4.526   4.077   2.191 -0.5342  0.0147  0.4041
 3283SOL    HW121308   4.486   3.993   2.213 -0.9967 -0.4053 -2.0349
 3283SOL    HW221309   4.607   4.051   2.147 -1.2201  0.9074 -1.3424
 3284SOL     OW21310   2.308   3.776  13.356  0.3220  0.1000  0.0163
 3284SOL    HW121311   2.289   3.777  13.262 -2.0686  0.9451  0.5145
 3284SOL    HW221312   2.273   3.860  13.385  0.7370  1.2362 -2.8015
 3285SOL     OW21313   1.320   4.184  15.509  0.0749  0.1362  0.0721
 3285SOL    HW121314   1.343   4.112  15.569 -0.9004  0.5026  0.8941
 3285SOL    HW221315   1.239   4.211  15.552  0.7315 -1.0037  2.0342
 3286SOL     OW21316   2.861   0.151   2.667 -0.0811 -0.3649  0.4752
 3286SOL    HW121317   2.787   0.202   2.635  1.6136  1.4446 -0.5046
 3286SOL    HW221318   2.914   0.219   2.708  0.6337 -1.3835  1.2354
 3287SOL     OW21319   3.910   3.008  15.781  0.1934  0.1634 -0.3668
 3287SOL    HW121320   3.896   2.958  15.701 -1.6739  2.5128 -1.4908
 3287SOL    HW221321   3.821   3.011  15.816 -0.3060 -1.5589 -1.5284
 3288SOL     OW21322   0.666   4.029   3.455  0.0421 -0.0413  0.6689
 3288SOL    HW121323   0.643   4.088   3.384  1.6070  0.4444  0.5681
 3288SOL    HW221324   0.741   4.069   3.500  0.5254  1.8526 -1.7993
 3289SOL     OW21325   1.877   4.419  16.398  0.4962  0.3274  0.5852
 3289SOL    HW121326   1.873   4.458  16.311  2.5580 -0.9908 -0.0990
 3289SOL    HW221327   1.849   4.480  16.466 -1.8875  0.2685 -0.3501
 3290SOL     OW21328   0.644   1.961  15.800 -0.1165 -0.0295 -0.1520
 3290SOL    HW121329   0.575   1.947  15.864 -0.4380  1.1242 -0.2460
 3290SOL    HW221330   0.595   2.017  15.740  0.3730 -1.0087 -1.4633
 3291SOL     OW21331   3.406   3.044  15.956  0.3305  0.5146 -0.6707
 3291SOL    HW121332   3.339   3.007  16.013  1.7919  2.3201  2.2211
 3291SOL    HW221333   3.420   3.127  16.001 -0.8648  1.0709 -1.3332
 3292SOL     OW21334   4.036   1.075   6.000 -0.3803 -0.4302 -0.3165
 3292SOL    HW121335   4.003   1.125   6.075  1.9884 -0.1520  0.5420
 3292SOL    HW221336   4.007   1.129   5.927  0.0657  0.9884  0.5476
 3293SOL     OW21337   0.071   0.665   3.333 -0.5473  0.3822  0.2664
 3293SOL    HW121338   0.073   0.754   3.367  0.6691  1.8756 -3.6090
 3293SOL    HW221339   0.164   0.645   3.343 -0.8222 -0.6922  0.6357
 3294SOL     OW21340   4.618   0.601   5.012  0.4148  0.0237  0.2248
 3294SOL    HW121341   4.541   0.543   5.006 -0.0911  0.6615  0.5983
 3294SOL    HW221342   4.592   0.673   4.954 -2.3755  0.5449  2.1332
 3295SOL     OW21343   1.196   3.769  10.222  0.3515 -0.1715  0.2311
 3295SOL    HW121344   1.171   3.721  10.143  0.5005 -2.1595  1.3825
 3295SOL    HW221345   1.292   3.762  10.220  0.3268 -1.0111  1.7153
 3296SOL     OW21346   3.887   2.752   8.079  0.3417 -0.1421  0.0736
 3296SOL    HW121347   3.862   2.712   7.995  0.0536 -1.7701  0.9413
 3296SOL    HW221348   3.893   2.674   8.134 -1.1795 -1.1883 -1.2517
 3297SOL     OW21349   3.462   0.936   2.541 -0.2361 -0.2967  0.0565
 3297SOL    HW121350   3.411   0.959   2.464 -3.2245  1.8128  2.6728
 3297SOL    HW221351   3.514   1.015   2.553  0.5999 -0.7572 -0.5374
 3298SOL     OW21352   3.331   3.585   3.649  0.2788 -0.4080 -0.2459
 3298SOL    HW121353   3.348   3.647   3.578 -1.7871 -0.9285 -1.1955
 3298SOL    HW221354   3.410   3.596   3.702  2.1441 -0.6293 -2.9774
 3299SOL     OW21355   0.244   4.643   5.943 -0.0398 -1.0110 -0.1079
 3299SOL    HW121356   0.202   4.717   5.987 -1.4637 -1.1147 -1.2869
 3299SOL    HW221357   0.313   4.624   6.007 -0.3063 -4.4960 -0.8432
 3300SOL     OW21358   0.222   3.677   3.021  0.2709 -0.0122 -0.8304
 3300SOL    HW121359   0.160   3.637   3.083  0.7694  0.2469 -0.1725
 3300SOL    HW221360   0.215   3.771   3.034 -1.0101 -0.4895  1.8756
 3301SOL     OW21361   1.666   2.409  16.709  0.4706  0.7440  0.4803
 3301SOL    HW121362   1.751   2.366  16.702 -0.2076 -0.4490 -0.5637
 3301SOL    HW221363   1.605   2.336  16.698 -2.0589  2.8929  0.2556
 3302SOL     OW21364   2.418   4.026   7.184 -0.0531  0.1180 -0.1359
 3302SOL    HW121365   2.360   3.972   7.239 -1.3451  2.1712  0.4962
 3302SOL    HW221366   2.441   4.098   7.242 -0.7645  0.5341 -0.3823
 3303SOL     OW21367   3.994   0.474   5.120 -0.2202 -0.0380 -0.5298
 3303SOL    HW121368   4.003   0.564   5.152 -2.7961  0.2843 -0.6954
 3303SOL    HW221369   3.990   0.481   5.025 -2.9338 -2.1472 -0.5565
 3304SOL     OW21370   1.011   0.223   5.280  0.3481 -0.3437 -0.0566
 3304SOL    HW121371   1.098   0.230   5.319  0.4796  1.0239 -0.5890
 3304SOL    HW221372   0.964   0.164   5.339  3.0497 -1.2511  1.1853
 3305SOL     OW21373   1.943   4.619   2.398  0.3147 -0.1362 -0.4503
 3305SOL    HW121374   1.938   4.711   2.370  1.0498 -0.4143 -1.5040
 3305SOL    HW221375   1.869   4.591   2.344 -1.3648  0.7892  1.3594
 3306SOL     OW21376   2.321   2.990  13.386  0.0622  0.2576  0.0057
 3306SOL    HW121377   2.348   3.001  13.295  1.0524 -1.2158  0.1201
 3306SOL    HW221378   2.374   2.915  13.413  1.1960  0.5979 -1.3237
 3307SOL     OW21379   2.675   4.642   6.470  0.1552  0.3047 -0.6970
 3307SOL    HW121380   2.733   4.585   6.522  0.5324  3.3408  2.2207
 3307SOL    HW221381   2.660   4.589   6.392 -2.3308  1.0094 -0.6788
 3308SOL     OW21382   2.599   2.520   7.114  0.1238 -0.1601  0.3618
 3308SOL    HW121383   2.559   2.508   7.201 -0.9173 -0.0124 -0.0965
 3308SOL    HW221384   2.549   2.457   7.062  0.6665 -0.8431  0.6716
 3309SOL     OW21385   2.254   1.968   7.789  0.5261 -0.2537  0.2903
 3309SOL    HW121386   2.249   2.039   7.725 -1.9108  0.5111  1.3204
 3309SOL    HW221387   2.300   2.018   7.857  0.7597 -0.7386  0.4948
 3310SOL     OW21388   1.059   3.878   4.424 -0.1361 -0.8214 -0.3674
 3310SOL    HW121389   1.090   3.788   4.425 -0.1876 -0.8455 -2.0464
 3310SOL    HW221390   1.001   3.869   4.349  0.3690  2.1115 -1.1068
 3311SOL     OW21391   3.304   2.190  10.342  0.1778  0.3039 -0.3346
 3311SOL    HW121392   3.384   2.234  10.313 -0.2711  0.8398 -0.7509
 3311SOL    HW221393   3.324   2.185  10.436  1.0639  1.4625 -0.4593
 3312SOL     OW21394   2.603   1.442   5.777  0.2641 -0.0598  0.4015
 3312SOL    HW121395   2.692   1.454   5.745  1.0535 -0.0593  2.5712
 3312SOL    HW221396   2.614   1.407   5.865 -0.3854 -1.7227 -0.1820
 3313SOL     OW21397   2.738   3.281   8.284 -0.6346  0.1429 -0.4285
 3313SOL    HW121398   2.811   3.227   8.314 -1.3432 -0.7353 -0.3075
 3313SOL    HW221399   2.734   3.239   8.198  1.0546 -0.6770 -0.1092
 3314SOL     OW21400   1.869   2.097   7.901 -0.5941 -0.0847  0.3857
 3314SOL    HW121401   1.850   2.047   7.822  1.5529  1.8800 -1.3908
 3314SOL    HW221402   1.886   2.179   7.854  0.8182 -1.2577 -1.1809
 3315SOL     OW21403   0.737   2.531   9.530  0.1724 -0.0478  0.5965
 3315SOL    HW121404   0.735   2.443   9.492  2.3807 -0.0300  0.4097
 3315SOL    HW221405   0.832   2.543   9.526  0.3329 -1.2372  0.6823
 3316SOL     OW21406   2.617   2.529   8.446 -0.1417 -0.3510 -0.6883
 3316SOL    HW121407   2.654   2.451   8.403 -0.3703  0.4276 -2.3240
 3316SOL    HW221408   2.669   2.530   8.526 -2.7080  2.2015  0.9507
 3317SOL     OW21409   3.168   3.427  17.127 -0.1015  0.2544 -0.4743
 3317SOL    HW121410   3.089   3.461  17.083 -1.0478 -0.4943  0.6305
 3317SOL    HW221411   3.207   3.375  17.057 -1.1257 -1.2975  0.1164
 3318SOL     OW21412   2.109   0.086  12.686 -0.3502 -0.7047  0.1475
 3318SOL    HW121413   2.153   0.012  12.644 -0.5671 -2.1026  2.3801
 3318SOL    HW221414   2.028   0.044  12.714  0.5188 -1.4811  1.4494
 3319SOL     OW21415   3.245   2.922   9.453  0.3664  0.3860  0.2200
 3319SOL    HW121416   3.307   2.913   9.381 -1.7315 -0.1763 -1.5084
 3319SOL    HW221417   3.281   2.874   9.528 -0.2871 -0.8330 -0.2336
 3320SOL     OW21418   0.651   3.837  14.616 -0.4485  0.1407 -0.1815
 3320SOL    HW121419   0.588   3.835  14.688 -1.0759 -0.5739 -0.7418
 3320SOL    HW221420   0.634   3.922  14.577 -1.6433  0.6504  1.4912
 3321SOL     OW21421   3.313   2.007   5.707  0.2630 -0.2138  0.5976
 3321SOL    HW121422   3.285   2.093   5.676  0.6252 -0.6209 -0.8310
 3321SOL    HW221423   3.407   2.000   5.690 -0.0351  1.3436 -1.6134
 3322SOL     OW21424   1.165   3.014   0.312 -0.1111  0.5222  0.1453
 3322SOL    HW121425   1.157   3.001   0.407  1.1205 -0.9536  0.0390
 3322SOL    HW221426   1.239   2.954   0.299  0.4742  1.4636 -0.8233
 3323SOL     OW21427   3.771   2.007   4.311  0.2459  0.0332 -0.0677
 3323SOL    HW121428   3.778   1.924   4.358 -1.5357  0.1823  0.4847
 3323SOL    HW221429   3.703   1.981   4.248 -1.8327 -0.6337  2.4464
 3324SOL     OW21430   1.344   2.475   6.326  0.1366  0.1960 -0.6793
 3324SOL    HW121431   1.349   2.492   6.232  0.3777  0.8666 -0.5387
 3324SOL    HW221432   1.432   2.437   6.331 -0.4460 -0.6726  2.6984
 3325SOL     OW21433   2.833   0.386   9.229  0.2236 -0.4958  0.1031
 3325SOL    HW121434   2.929   0.379   9.226  0.3508  1.4441 -0.4430
 3325SOL    HW221435   2.816   0.409   9.320 -2.0791  0.3072 -0.5563
 3326SOL     OW21436   4.234   3.286  13.509 -0.5296 -0.0020  0.1609
 3326SOL    HW121437   4.280   3.206  13.533  0.4231  0.0718 -1.4561
 3326SOL    HW221438   4.183   3.255  13.433  0.6868  0.3770 -0.8029
 3327SOL     OW21439   4.719   3.593   5.525  0.0692 -0.0825  0.6290
 3327SOL    HW121440   4.700   3.593   5.618 -1.8903 -0.5503  0.2365
 3327SOL    HW221441   0.089   3.614   5.527  0.0458 -0.0043  0.8446
 3328SOL     OW21442   2.350   0.795  15.724 -0.1342 -0.7189  0.2389
 3328SOL    HW121443   2.284   0.833  15.782 -1.4429  0.2964 -1.9023
 3328SOL    HW221444   2.345   0.706  15.759  0.6453 -1.0724 -0.5739
 3329SOL     OW21445   3.252   4.099   4.909  0.2995 -0.1644  0.1330
 3329SOL    HW121446   3.195   4.060   4.976  1.7785 -0.4825  1.1866
 3329SOL    HW221447   3.188   4.125   4.842  1.9952 -0.1128 -1.4367
 3330SOL     OW21448   0.426   0.252   0.970  0.5047 -0.3794 -0.3117
 3330SOL    HW121449   0.520   0.234   0.967  1.2212  3.1932  0.2178
 3330SOL    HW221450   0.390   0.194   0.904 -2.3757  0.6648  0.3221
 3331SOL     OW21451   0.122   2.319   7.490  0.4243  0.0648 -0.1150
 3331SOL    HW121452   0.039   2.333   7.535 -0.3439 -1.9630 -0.8865
 3331SOL    HW221453   0.098   2.315   7.397  0.1564  1.1520 -0.0962
 3332SOL     OW21454   2.979   2.767   7.058 -0.5281  0.2854 -0.0532
 3332SOL    HW121455   2.993   2.730   6.970 -2.8497 -1.8437  0.4761
 3332SOL    HW221456   3.051   2.829   7.072  1.5448 -1.5664 -2.4295
 3333SOL     OW21457   0.586   3.318   4.167 -0.1153  0.6252  0.0294
 3333SOL    HW121458   0.520   3.256   4.134 -0.3368  1.3293 -0.8460
 3333SOL    HW221459   0.572   3.382   4.097  1.1292  2.4932  1.5168
 3334SOL     OW21460   4.513   4.092  12.165  0.6832  0.2777  0.2616
 3334SOL    HW121461   4.431   4.051  12.136  0.3299  2.2840 -1.6034
 3334SOL    HW221462   4.489   4.108  12.256  0.9202 -0.8198  0.5085
 3335SOL     OW21463   3.888   4.652   6.621  0.5553  0.0986  0.2199
 3335SOL    HW121464   3.891   4.592   6.696  1.6524  0.7656  0.6973
 3335SOL    HW221465   3.814   4.610   6.577 -1.3045  1.8464  1.6790
 3336SOL     OW21466   0.340   1.904   6.232 -0.2532 -0.3649 -0.0708
 3336SOL    HW121467   0.321   1.962   6.306  0.1456  1.0250 -1.0587
 3336SOL    HW221468   0.429   1.928   6.205 -1.1546  3.2667  0.2143
 3337SOL     OW21469   2.931   0.339   4.069 -0.1467  0.6172  0.3739
 3337SOL    HW121470   2.909   0.343   4.162 -0.5699 -1.0239  0.3413
 3337SOL    HW221471   2.991   0.265   4.066  1.1751  1.6690  0.8769
 3338SOL     OW21472   3.740   1.278   2.091  0.0490  0.0811 -0.0462
 3338SOL    HW121473   3.745   1.193   2.134 -1.1441  0.5269  0.9823
 3338SOL    HW221474   3.826   1.280   2.049 -0.1247 -0.2070 -0.4178
 3339SOL     OW21475   0.711   0.988   5.985  0.3663  0.2279 -0.2953
 3339SOL    HW121476   0.716   0.995   5.890 -1.8791  0.0067 -0.4397
 3339SOL    HW221477   0.620   1.016   5.995 -0.4557 -2.0750 -1.5023
 3340SOL     OW21478   2.396   2.817   0.729  0.5360  0.0728 -0.2061
 3340SOL    HW121479   2.388   2.761   0.806 -2.3484  0.7590 -0.0207
 3340SOL    HW221480   2.315   2.796   0.683 -0.5169 -0.9113  2.0974
 3341SOL     OW21481   2.183   1.415   0.629  0.1179  0.7696 -0.2821
 3341SOL    HW121482   2.231   1.497   0.630 -1.1778  1.5278 -0.3241
 3341SOL    HW221483   2.146   1.410   0.541 -0.9809  1.3712  0.1485
 3342SOL     OW21484   0.797   1.384   1.829 -0.0197 -0.4041  0.3399
 3342SOL    HW121485   0.811   1.466   1.782  0.1878 -0.1375  0.8698
 3342SOL    HW221486   0.887   1.370   1.857 -1.0881  1.2517  4.7084
 3343SOL     OW21487   2.621   4.247   2.893 -0.2317 -0.0112 -0.2359
 3343SOL    HW121488   2.590   4.275   2.807 -0.7375 -2.6087 -0.8891
 3343SOL    HW221489   2.671   4.168   2.874 -0.2341  0.0603 -0.5385
 3344SOL     OW21490   3.716   0.341   2.028 -0.4117 -0.0248  0.2180
 3344SOL    HW121491   3.793   0.393   2.052 -0.7390  0.6516 -0.1972
 3344SOL    HW221492   3.686   0.325   2.117 -1.1365 -0.4629 -0.1070
 3345SOL     OW21493   1.219   3.959   2.944  0.0500  0.1428 -0.1351
 3345SOL    HW121494   1.232   3.864   2.955  1.6992  0.4944  0.9425
 3345SOL    HW221495   1.268   3.991   3.020 -1.6117 -0.3484  1.1454
 3346SOL     OW21496   0.658   3.998  12.493  0.7744 -0.0870 -0.2702
 3346SOL    HW121497   0.594   4.059  12.528  1.5823 -1.0109  2.7983
 3346SOL    HW221498   0.597   3.940  12.447  1.0152 -0.3747 -0.2277
 3347SOL     OW21499   3.080   1.812  11.827 -0.5369 -0.4007 -0.0682
 3347SOL    HW121500   3.136   1.844  11.898 -0.7340  1.1144 -0.5925
 3347SOL    HW221501   3.093   1.887  11.768 -0.7599  0.9909  1.6533
 3348SOL     OW21502   3.219   0.943   1.725  0.0502 -0.3157 -0.0029
 3348SOL    HW121503   3.180   0.893   1.653 -1.1938 -1.2830  1.3273
 3348SOL    HW221504   3.170   0.915   1.803 -0.7238  2.8847  0.6747
 3349SOL     OW21505   2.748   0.036   6.772  0.0913  0.0139  0.2320
 3349SOL    HW121506   2.760   0.007   6.681  0.0786 -0.9451  0.5445
 3349SOL    HW221507   2.769   4.675   6.809 -0.2878 -0.2458 -0.1406
 3350SOL     OW21508   0.735   0.795  16.296  0.7200  0.0768 -0.2011
 3350SOL    HW121509   0.699   0.799  16.208  4.0677 -1.1652 -1.6305
 3350SOL    HW221510   0.728   0.701  16.315 -1.8653  0.4891  0.8313
 3351SOL     OW21511   1.622   1.631   4.491  0.0525  0.0695 -0.2970
 3351SOL    HW121512   1.620   1.708   4.433 -0.3116 -0.5750 -1.1526
 3351SOL    HW221513   1.571   1.568   4.439 -1.5901  2.2633 -1.3372
 3352SOL     OW21514   1.887   0.836   0.545 -0.0994  0.0224 -0.1135
 3352SOL    HW121515   1.818   0.835   0.612  0.9547  0.5615  0.9832
 3352SOL    HW221516   1.961   0.882   0.586 -1.2117  0.0453  1.8598
 3353SOL     OW21517   1.733   1.747   3.666  0.2526 -0.0328  0.3636
 3353SOL    HW121518   1.819   1.704   3.663 -1.3883 -3.3942  1.0687
 3353SOL    HW221519   1.756   1.828   3.711  1.3762  0.2031 -0.6183
 3354SOL     OW21520   3.778   0.211   4.081  0.6288 -0.0089 -0.1139
 3354SOL    HW121521   3.815   0.149   4.144  2.1903  0.7503 -0.2829
 3354SOL    HW221522   3.688   0.180   4.082  0.5998  0.0656 -0.4170
 3355SOL     OW21523   3.939   2.063   0.708  0.7116 -0.2019  0.5244
 3355SOL    HW121524   3.917   2.001   0.638  0.9273  0.2158  0.0895
 3355SOL    HW221525   3.983   2.004   0.769 -0.5737 -1.4966  0.2096
 3356SOL     OW21526   2.464   2.694   5.153  0.0088 -0.0622  0.5836
 3356SOL    HW121527   2.514   2.696   5.072 -0.1426 -0.3404  0.4855
 3356SOL    HW221528   2.429   2.605   5.153 -0.7530  0.2408 -0.2474
 3357SOL     OW21529   4.553   1.670   0.936 -0.2698 -0.3031 -0.0169
 3357SOL    HW121530   4.575   1.719   1.015 -1.2001 -2.2220  1.4399
 3357SOL    HW221531   4.539   1.580   0.967  1.2409 -1.0630 -1.5712
 3358SOL     OW21532   2.010   3.821   5.966  0.0495  0.3262  0.7290
 3358SOL    HW121533   1.927   3.820   6.014  0.9909  0.1957  2.3543
 3358SOL    HW221534   2.001   3.901   5.914 -3.5232 -2.0050 -2.2733
 3359SOL     OW21535   2.112   4.125   0.796  0.0934  0.5571 -0.3857
 3359SOL    HW121536   2.158   4.045   0.819 -2.6808 -0.8369  0.3752
 3359SOL    HW221537   2.166   4.168   0.730  0.7978  0.1438 -0.0815
 3360SOL     OW21538   2.403   0.417   3.494  0.1845 -0.2865 -0.2738
 3360SOL    HW121539   2.369   0.500   3.460  1.2592  0.5463  0.6854
 3360SOL    HW221540   2.332   0.356   3.472 -0.3573  0.6297 -1.0695
 3361SOL     OW21541   0.780   4.116   7.672  1.0568 -0.2870  0.6337
 3361SOL    HW121542   0.712   4.065   7.628  1.0657 -0.1238  0.4314
 3361SOL    HW221543   0.859   4.074   7.639  1.7227  1.2891  0.2785
 3362SOL     OW21544   4.614   4.202   1.871  0.3640 -0.0671  0.0112
 3362SOL    HW121545   4.615   4.118   1.918  0.1241 -0.5372 -0.8365
 3362SOL    HW221546   4.593   4.172   1.783 -0.4129 -0.8496  0.4562
 3363SOL     OW21547   4.274   1.921   6.513  0.2502  0.2241  0.0167
 3363SOL    HW121548   4.259   1.860   6.585 -0.9177 -0.2065 -0.5893
 3363SOL    HW221549   4.265   1.863   6.438  1.4857  0.1306 -0.0629
 3364SOL     OW21550   0.058   0.435   3.658 -0.9065  0.0531  0.1048
 3364SOL    HW121551   4.704   0.383   3.635 -1.6637  1.5356 -0.6957
 3364SOL    HW221552   0.053   0.440   3.753 -0.2501  0.8638  0.0973
 3365SOL     OW21553   1.771   1.522  17.457  0.5380 -0.6826  0.8161
 3365SOL    HW121554   1.842   1.524  17.521  0.7466 -0.1671  0.5628
 3365SOL    HW221555   1.794   1.441  17.412  1.1172  0.1401 -0.3498
 3366SOL     OW21556   1.949   2.117  14.273  0.0054 -0.2279  0.0775
 3366SOL    HW121557   1.896   2.096  14.196  0.6446 -0.2070 -0.3730
 3366SOL    HW221558   1.885   2.149  14.336 -1.0828 -0.5822 -0.8551
 3367SOL     OW21559   3.010   4.230   9.273 -0.0138  0.1269 -0.3561
 3367SOL    HW121560   3.105   4.244   9.276 -0.1612  0.9311  0.4029
 3367SOL    HW221561   2.989   4.209   9.364 -1.3821  0.5689 -0.5719
 3368SOL     OW21562   2.635   4.240   7.455 -0.5277 -0.3192  0.0562
 3368SOL    HW121563   2.665   4.270   7.541 -0.0515  0.1843 -0.2839
 3368SOL    HW221564   2.652   4.146   7.462  0.7377 -0.0758  0.3195
 3369SOL     OW21565   2.508   2.084   1.402 -0.0314 -0.3481  0.6100
 3369SOL    HW121566   2.468   2.158   1.447  1.8015  0.6519  0.6115
 3369SOL    HW221567   2.509   2.100   1.308  1.3565 -2.4335  0.2776
 3370SOL     OW21568   3.044   4.416   8.490 -0.5709  0.1640 -0.2467
 3370SOL    HW121569   3.039   4.472   8.413  1.4868  1.4617  0.5866
 3370SOL    HW221570   2.986   4.466   8.548  0.2226 -1.3532  1.8626
 3371SOL     OW21571   0.202   1.766  12.859  0.7932 -0.0341  0.2176
 3371SOL    HW121572   0.226   1.763  12.951  0.4988 -0.5455  0.2750
 3371SOL    HW221573   0.237   1.854  12.841 -0.6390  0.1039 -1.9000
 3372SOL     OW21574   3.510   1.339   2.382  0.4632  0.4671  0.0340
 3372SOL    HW121575   3.493   1.316   2.290  0.1531 -2.9615  0.9455
 3372SOL    HW221576   3.426   1.378   2.407 -0.0365 -0.9990  0.6301
 3373SOL     OW21577   3.584   1.537   4.349  0.6424 -0.0635  0.3283
 3373SOL    HW121578   3.545   1.604   4.292 -0.0627 -0.4918  0.3097
 3373SOL    HW221579   3.630   1.482   4.285 -1.3238 -1.6891  0.3364
 3374SOL     OW21580   3.519   2.022   9.065  0.5133 -0.0368 -0.3233
 3374SOL    HW121581   3.532   2.069   9.147  0.0017 -2.6421  1.2710
 3374SOL    HW221582   3.472   2.083   9.009 -1.5409 -0.5272  0.8426
 3375SOL     OW21583   2.080   1.635  16.011 -0.1508  0.2104 -0.2438
 3375SOL    HW121584   2.080   1.695  16.085 -4.0719 -1.4754  1.0941
 3375SOL    HW221585   2.021   1.678  15.949  0.5734  2.3535  0.5608
 3376SOL     OW21586   0.640   4.627   4.597  0.0039  0.3182  0.2423
 3376SOL    HW121587   0.719   4.583   4.629 -0.1551 -0.1131  0.0324
 3376SOL    HW221588   0.600   4.557   4.546  1.7100  0.0462 -0.7373
 3377SOL     OW21589   3.531   0.112   8.621 -0.2709  0.4345 -0.2721
 3377SOL    HW121590   3.615   0.150   8.594  0.1822 -0.2846  0.1454
 3377SOL    HW221591   3.466   0.154   8.565 -0.8755 -3.0445 -2.1528
 3378SOL     OW21592   0.831   2.613   9.082 -0.0813  0.5926 -0.6727
 3378SOL    HW121593   0.805   2.699   9.048  2.3616  0.8526 -1.8995
 3378SOL    HW221594   0.862   2.629   9.171 -0.3675 -1.0713 -0.2798
 3379SOL     OW21595   3.565   0.674   2.560 -0.2215  0.1450  0.2136
 3379SOL    HW121596   3.538   0.764   2.576 -0.6473  0.2573 -1.1412
 3379SOL    HW221597   3.528   0.668   2.471  1.0497  2.6874 -0.4701
 3380SOL     OW21598   4.088   2.018   2.914  0.0129  0.1233  0.2243
 3380SOL    HW121599   4.103   1.961   2.989 -0.3021  3.3696  2.7798
 3380SOL    HW221600   4.174   2.060   2.915 -0.1475  0.4743 -1.6999
 3381SOL     OW21601   3.059   1.649  12.730 -0.6385  0.0298  0.1506
 3381SOL    HW121602   3.068   1.599  12.811 -3.2964  0.0565  0.4647
 3381SOL    HW221603   3.152   1.672  12.720 -0.2957 -0.4393  2.2412
 3382SOL     OW21604   4.584   1.729  10.846  0.1671 -0.1702  0.5599
 3382SOL    HW121605   4.647   1.727  10.918  0.2710  1.4179  0.5029
 3382SOL    HW221606   4.579   1.641  10.807 -2.0484  0.2654 -0.1028
 3383SOL     OW21607   3.553   3.063   5.650 -0.2609 -0.3846 -0.3086
 3383SOL    HW121608   3.633   3.104   5.683 -0.3825  0.4559 -1.0838
 3383SOL    HW221609   3.514   3.024   5.728 -0.8026  1.5525  0.3879
 3384SOL     OW21610   2.165   0.835   9.579  0.4811 -0.3098  0.1479
 3384SOL    HW121611   2.218   0.846   9.500  0.4443 -1.5082 -0.0404
 3384SOL    HW221612   2.212   0.878   9.651 -0.2984  0.1614  0.3648
 3385SOL     OW21613   1.491   3.850   5.156  0.6312  0.1444  0.1953
 3385SOL    HW121614   1.519   3.782   5.218 -1.0766 -0.4636  0.2992
 3385SOL    HW221615   1.573   3.876   5.115 -0.6912  1.3948 -1.6501
 3386SOL     OW21616   4.281   1.399   6.100  0.7935 -0.2586 -0.2201
 3386SOL    HW121617   4.296   1.440   6.015  1.7706 -1.4795 -0.6402
 3386SOL    HW221618   4.344   1.327   6.108 -0.0718 -0.6241  3.0872
 3387SOL     OW21619   3.313   4.256   9.216  0.6410 -0.3137 -0.4894
 3387SOL    HW121620   3.297   4.180   9.160  0.7853  1.5869 -3.1049
 3387SOL    HW221621   3.337   4.210   9.297 -1.6245  1.0836  0.9459
 3388SOL     OW21622   1.970   3.158   1.641 -0.7577 -0.6097  0.6359
 3388SOL    HW121623   2.004   3.083   1.690  1.3863  1.4850  2.3847
 3388SOL    HW221624   1.884   3.139   1.605 -0.2580  2.2241 -2.0320
 3389SOL     OW21625   3.587   4.583   7.880 -0.7376 -0.3583 -0.4715
 3389SOL    HW121626   3.597   4.678   7.873 -0.5351 -0.3613 -0.2137
 3389SOL    HW221627   3.672   4.564   7.842  0.3895  2.6514  0.5520
 3390SOL     OW21628   0.751   1.648   3.133  0.0832  0.1392  0.4228
 3390SOL    HW121629   0.682   1.584   3.117  0.5627  0.0779 -1.4078
 3390SOL    HW221630   0.833   1.603   3.110 -0.8093 -1.0864 -0.3100
 3391SOL     OW21631   3.581   2.162  10.443 -0.1538  0.4615 -0.0923
 3391SOL    HW121632   3.653   2.099  10.433 -0.8521 -0.3099 -0.3164
 3391SOL    HW221633   3.564   2.186  10.352  0.0355 -0.5585 -0.4036
 3392SOL     OW21634   2.641   0.568  12.030  0.1061  0.2782 -0.3948
 3392SOL    HW121635   2.734   0.566  12.004  0.5480  2.7602  0.9955
 3392SOL    HW221636   2.646   0.508  12.104  0.2934  0.3361 -0.3602
 3393SOL     OW21637   4.375   0.438   1.759 -0.2566  0.5483  0.2587
 3393SOL    HW121638   4.426   0.366   1.798  2.3160  1.3107 -1.7205
 3393SOL    HW221639   4.441   0.489   1.712  0.3190 -0.3832  0.0648
 3394SOL     OW21640   1.328   2.884   4.942 -0.1068  0.0669 -0.3464
 3394SOL    HW121641   1.314   2.791   4.956  1.0808  0.2331  1.8854
 3394SOL    HW221642   1.326   2.887   4.846 -1.1744 -1.1387 -0.3566
 3395SOL     OW21643   4.377   4.415   5.492  0.2833  0.1430  0.2541
 3395SOL    HW121644   4.408   4.402   5.402 -1.6960 -0.3591 -0.3557
 3395SOL    HW221645   4.421   4.340   5.532  1.7946 -0.2580 -2.1261
 3396SOL     OW21646   1.926   3.462   7.685 -0.8067 -0.1540  0.5357
 3396SOL    HW121647   1.894   3.514   7.759  2.3882  0.6294  1.3313
 3396SOL    HW221648   2.018   3.460   7.710 -0.4422  0.9271 -0.7253
 3397SOL     OW21649   4.023   0.632   7.416  0.4011  0.5394  0.1853
 3397SOL    HW121650   4.113   0.607   7.438 -0.0424 -1.6033 -0.4358
 3397SOL    HW221651   4.032   0.717   7.373  1.2755  1.7154  2.6913
 3398SOL     OW21652   0.310   4.673  13.473  0.3277 -0.5123  0.3810
 3398SOL    HW121653   0.380   0.005  13.509  1.2113  0.6484 -3.0582
 3398SOL    HW221654   0.278   4.632  13.553 -0.2346 -0.1523  0.3332
 3399SOL     OW21655   4.333   2.885  17.636 -0.1575 -0.6352  0.0101
 3399SOL    HW121656   4.303   2.975  17.629  0.4152 -0.5772 -1.6551
 3399SOL    HW221657   4.253   2.848  17.674 -1.2619  0.6571 -1.0709
 3400SOL     OW21658   3.314   0.333   9.483  0.3976  0.1757 -0.3156
 3400SOL    HW121659   3.410   0.337   9.485  0.3643  1.3791 -1.1035
 3400SOL    HW221660   3.307   0.237   9.478  1.0684  0.0355  1.5963
 3401SOL     OW21661   3.680   2.185   8.801  0.4738  0.7865 -0.1446
 3401SOL    HW121662   3.684   2.120   8.730 -0.7769 -0.2281  0.7047
 3401SOL    HW221663   3.586   2.188   8.821  0.2824  0.9237 -1.0539
 3402SOL     OW21664   1.165   3.027   7.069  0.4085  0.3768 -0.2362
 3402SOL    HW121665   1.172   3.107   7.122 -1.2639 -0.6392  1.5146
 3402SOL    HW221666   1.179   2.960   7.136  1.1212  0.2351 -0.5251
 3403SOL     OW21667   3.950   3.245   8.351  0.0146 -0.4165 -0.1503
 3403SOL    HW121668   3.968   3.267   8.260  0.3161 -0.2578 -0.0534
 3403SOL    HW221669   3.975   3.328   8.393 -1.8163  0.0602  0.0135
 3404SOL     OW21670   1.949   2.033   3.523  0.0200  0.2511 -0.1858
 3404SOL    HW121671   1.985   1.965   3.467 -0.4694  2.0121 -2.6867
 3404SOL    HW221672   2.009   2.105   3.504 -1.2114  1.2999 -0.1954
 3405SOL     OW21673   3.819   4.590   5.984 -0.0308  0.8295  0.3016
 3405SOL    HW121674   3.810   4.648   5.908  1.5673  1.0406  0.2711
 3405SOL    HW221675   3.867   4.522   5.937  0.1336  0.1571  1.4311
 3406SOL     OW21676   1.758   1.418   6.843 -0.1091  0.1634 -0.0493
 3406SOL    HW121677   1.788   1.456   6.926 -0.5916  0.4692 -0.0111
 3406SOL    HW221678   1.724   1.497   6.801  0.3749  0.5025  0.2009
 3407SOL     OW21679   4.598   2.541   8.795 -0.0778 -0.6948 -0.3437
 3407SOL    HW121680   4.567   2.548   8.886 -3.5465  0.9196 -1.6509
 3407SOL    HW221681   4.686   2.577   8.796 -0.1315 -0.5970  1.4349
 3408SOL     OW21682   0.078   4.541  12.052  0.0303 -0.0504 -0.4698
 3408SOL    HW121683   0.018   4.466  12.055  0.5076 -0.5069 -1.9721
 3408SOL    HW221684   0.118   4.523  11.967 -4.6557 -1.7767 -2.3424
 3409SOL     OW21685   2.373   2.322  12.472  0.1898 -0.2268  0.2132
 3409SOL    HW121686   2.375   2.303  12.378 -0.9274 -1.6692  0.4870
 3409SOL    HW221687   2.411   2.248  12.518  1.0199 -0.1032 -0.2716
 3410SOL     OW21688   2.591   0.965  13.336 -0.4637  0.2094  0.2229
 3410SOL    HW121689   2.528   1.032  13.363  1.3893  1.1758  2.1312
 3410SOL    HW221690   2.532   0.890  13.349 -1.3083  0.5908 -1.4900
 3411SOL     OW21691   3.133   3.498   4.488 -0.3341  0.6772  0.0011
 3411SOL    HW121692   3.069   3.481   4.557  1.1178  0.7970  1.3758
 3411SOL    HW221693   3.167   3.410   4.469 -1.3245  0.5073 -1.0264
 3412SOL     OW21694   2.353   2.429   9.123 -0.2495  0.2104 -0.6433
 3412SOL    HW121695   2.441   2.460   9.102  0.0256 -0.8863 -1.1257
 3412SOL    HW221696   2.337   2.488   9.197  2.4869  1.1577 -0.7910
 3413SOL     OW21697   4.192   0.927  17.295 -0.5710  0.4391 -0.6805
 3413SOL    HW121698   4.243   0.872  17.355 -2.9053  0.3610  1.2434
 3413SOL    HW221699   4.183   0.870  17.219 -2.1422  1.2730 -1.1156
 3414SOL     OW21700   4.394   3.066   5.471 -0.0445 -0.2507 -0.0796
 3414SOL    HW121701   4.397   2.999   5.403 -2.0410  0.3282 -0.7208
 3414SOL    HW221702   4.329   3.022   5.527 -0.4609  2.3544  1.4985
 3415SOL     OW21703   1.419   2.087   7.579 -0.3873 -0.1947  0.0036
 3415SOL    HW121704   1.490   2.150   7.579 -1.4932  1.0540  0.1845
 3415SOL    HW221705   1.393   2.098   7.670  0.0673  2.2162 -0.1760
 3416SOL     OW21706   1.164   3.549   0.280  0.5513 -0.0289 -0.4123
 3416SOL    HW121707   1.168   3.462   0.319  1.1201  0.5134  0.7535
 3416SOL    HW221708   1.075   3.541   0.246 -0.3030  0.6867  1.6503
 3417SOL     OW21709   3.177   2.298   6.058 -0.1281  0.1338 -0.2812
 3417SOL    HW121710   3.245   2.230   6.055 -0.3878 -0.2056  1.5671
 3417SOL    HW221711   3.223   2.372   6.098 -1.2802  0.3641  0.6042
 3418SOL     OW21712   0.699   0.266   5.260 -0.2065  0.3275 -0.4933
 3418SOL    HW121713   0.694   0.361   5.270  0.2613  0.2762  0.2847
 3418SOL    HW221714   0.781   0.247   5.215 -0.4062  2.7252 -1.8923
 3419SOL     OW21715   2.969   4.656  14.146 -0.2948  0.3528 -0.0218
 3419SOL    HW121716   2.991   4.643  14.238 -0.2909 -0.1307 -0.0885
 3419SOL    HW221717   2.940   4.569  14.118  1.8848 -1.2266  2.6731
 3420SOL     OW21718   1.466   4.441   8.819  0.7771 -0.3108 -0.1321
 3420SOL    HW121719   1.428   4.389   8.890 -0.2766  0.9487  0.2385
 3420SOL    HW221720   1.458   4.528   8.858  0.6735 -0.2479 -0.2924
 3421SOL     OW21721   0.795   0.152   5.498 -0.6809  0.4073 -0.3715
 3421SOL    HW121722   0.725   0.175   5.437  0.2413  0.5911 -1.3479
 3421SOL    HW221723   0.775   0.058   5.498  1.0900  0.0397 -0.5778
 3422SOL     OW21724   3.656   0.944  17.438 -0.2558 -0.3741  0.1944
 3422SOL    HW121725   3.708   0.942  17.357 -2.0710  1.4210 -1.0222
 3422SOL    HW221726   3.702   1.016  17.483  0.9701 -1.0717  0.0448
 3423SOL     OW21727   3.116   1.219   1.736  0.2304 -0.1033  0.0716
 3423SOL    HW121728   3.021   1.218   1.750  0.2281 -2.5594 -0.2319
 3423SOL    HW221729   3.133   1.127   1.754 -0.5643 -0.5662 -1.5696
 3424SOL     OW21730   1.447   1.463   6.365  0.5710  0.2386 -0.0324
 3424SOL    HW121731   1.396   1.509   6.431 -1.7975  2.8821 -3.7060
 3424SOL    HW221732   1.538   1.488   6.382  0.8249  1.3795 -2.9913
 3425SOL     OW21733   1.266   2.070   7.358  0.0786 -0.4626  0.5482
 3425SOL    HW121734   1.300   2.153   7.325  0.3208 -0.5195  0.6573
 3425SOL    HW221735   1.318   2.061   7.438 -1.3014  0.2460  1.5161
 3426SOL     OW21736   0.640   1.442   4.407 -0.2533  0.0581  0.0682
 3426SOL    HW121737   0.677   1.468   4.491  0.8887  1.9620 -1.0140
 3426SOL    HW221738   0.635   1.517   4.348 -0.4417  0.9826  1.2512
 3427SOL     OW21739   4.476   3.357   4.321  0.2721  0.1588 -0.0528
 3427SOL    HW121740   4.400   3.403   4.355  0.9873  1.9447 -0.8817
 3427SOL    HW221741   4.539   3.396   4.382 -1.9397  1.2731  1.4974
 3428SOL     OW21742   3.598   0.333   2.293  0.1432  0.2447 -0.5316
 3428SOL    HW121743   3.615   0.409   2.349  0.5191  0.1144 -0.4723
 3428SOL    HW221744   3.504   0.315   2.299  0.2734 -0.2449  0.0548
 3429SOL     OW21745   3.903   1.992   8.690  0.0739 -0.2270  0.2559
 3429SOL    HW121746   3.847   1.981   8.613  1.7214  1.5851 -1.2386
 3429SOL    HW221747   3.863   1.926   8.745 -2.5032  0.8603 -0.3131
 3430SOL     OW21748   1.611   4.585   4.215 -0.4028  0.6231  0.6542
 3430SOL    HW121749   1.667   4.662   4.206  0.0026  0.2669  0.1383
 3430SOL    HW221750   1.532   4.636   4.231 -0.2585  1.2881 -0.7307
 3431SOL     OW21751   0.160   1.043   8.618  0.3259 -0.1017 -0.5135
 3431SOL    HW121752   0.143   0.951   8.639 -0.0454  0.4252  1.5580
 3431SOL    HW221753   0.069   1.069   8.633  0.7489  0.8993  0.3311
 3432SOL     OW21754   1.646   2.816  13.887 -0.2052 -0.0359 -0.5569
 3432SOL    HW121755   1.741   2.808  13.881  0.0402  2.0269  0.7840
 3432SOL    HW221756   1.625   2.801  13.979 -0.5974  0.3159 -0.5895
 3433SOL     OW21757   4.296   3.995   1.954  0.9664  0.2433  0.0038
 3433SOL    HW121758   4.220   3.971   2.007 -0.5372 -0.1108 -2.3210
 3433SOL    HW221759   4.370   3.942   1.984  1.5072 -0.0092 -1.7804
 3434SOL     OW21760   2.083   3.347  13.705  0.3462  0.4554  1.2553
 3434SOL    HW121761   2.132   3.265  13.713  0.5139  0.4752  0.4113
 3434SOL    HW221762   2.159   3.395  13.671 -0.3367 -1.0408 -2.3657
 3435SOL     OW21763   3.205   0.422   3.291 -0.6987  0.1390 -0.4571
 3435SOL    HW121764   3.122   0.471   3.294 -0.6823  0.1679 -0.4772
 3435SOL    HW221765   3.270   0.487   3.266  2.0201 -1.8273  1.5276
 3436SOL     OW21766   2.081   0.901   8.500 -0.1497  0.8534 -0.1666
 3436SOL    HW121767   2.052   0.888   8.409 -1.1244  0.2573  0.2243
 3436SOL    HW221768   2.168   0.940   8.496  0.3601 -0.2871 -0.3728
 3437SOL     OW21769   2.807   3.594   9.068 -0.0094 -0.4758  0.1973
 3437SOL    HW121770   2.841   3.574   8.981 -1.7759 -2.6444 -0.0024
 3437SOL    HW221771   2.750   3.517   9.071 -0.2237 -0.3446 -0.4780
 3438SOL     OW21772   0.370   0.899  15.806  0.0194  0.6627 -0.3859
 3438SOL    HW121773   0.363   0.962  15.877  0.6672  1.7315 -1.2818
 3438SOL    HW221774   0.311   0.936  15.740 -2.1804 -1.7680  0.2194
 3439SOL     OW21775   3.824   3.225   3.427 -0.1107 -0.3748  0.1292
 3439SOL    HW121776   3.771   3.221   3.347  0.7720  1.2609 -0.5312
 3439SOL    HW221777   3.883   3.155   3.400 -0.2448  0.1260 -1.4910
 3440SOL     OW21778   0.278   2.022   1.742  0.4080  0.4618  0.1446
 3440SOL    HW121779   0.260   2.055   1.654 -1.3926  0.1160  0.3850
 3440SOL    HW221780   0.344   2.088   1.763  0.6539  0.9720 -2.2345
 3441SOL     OW21781   3.877   2.941   2.289 -0.1305 -0.3985 -0.7557
 3441SOL    HW121782   3.892   2.853   2.256  2.5163 -0.1590 -0.1591
 3441SOL    HW221783   3.808   2.971   2.228 -1.0127 -0.7734  0.0635
 3442SOL     OW21784   3.816   2.289   8.162  0.5384  0.2916 -0.7743
 3442SOL    HW121785   3.799   2.362   8.222 -2.4380 -0.1882 -0.9965
 3442SOL    HW221786   3.776   2.214   8.207  0.4598  0.4856 -0.5247
 3443SOL     OW21787   1.256   4.348   7.322  1.0868 -0.1873  0.5386
 3443SOL    HW121788   1.346   4.382   7.329  1.2581 -0.7855  1.2589
 3443SOL    HW221789   1.246   4.334   7.228  2.1117 -1.0160  0.5575
 3444SOL     OW21790   1.688   2.260   7.607  0.0662 -0.6430  0.3966
 3444SOL    HW121791   1.670   2.342   7.654  0.4955  1.8924 -3.8018
 3444SOL    HW221792   1.767   2.233   7.655  0.1547 -1.7318 -0.3677
 3445SOL     OW21793   4.350   2.104   2.875 -0.0425  0.0342  0.2619
 3445SOL    HW121794   4.353   2.178   2.815  1.2369  2.5483  3.4209
 3445SOL    HW221795   4.434   2.070   2.845 -0.9149  0.5147 -2.6711
 3446SOL     OW21796   3.328   4.420   3.859  0.0516  0.0727 -0.1325
 3446SOL    HW121797   3.402   4.373   3.819 -0.6561 -0.5139 -0.7495
 3446SOL    HW221798   3.260   4.369   3.815 -1.2469  3.2948 -1.7802
 3447SOL     OW21799   3.438   3.077  12.441  0.5331 -0.2993 -0.3161
 3447SOL    HW121800   3.383   3.065  12.518  0.2217 -1.4375 -0.7118
 3447SOL    HW221801   3.427   3.170  12.421  1.1293 -0.3720 -0.9844
 3448SOL     OW21802   1.951   3.861   7.256 -0.3288  0.0801  0.0624
 3448SOL    HW121803   1.916   3.937   7.301  0.8016  1.0859 -0.7563
 3448SOL    HW221804   1.894   3.788   7.283 -1.2300  0.8846  0.3190
 3449SOL     OW21805   3.332   3.403   8.884  0.0802 -0.2774 -0.7261
 3449SOL    HW121806   3.285   3.444   8.956 -0.5604  0.1068 -1.3677
 3449SOL    HW221807   3.356   3.321   8.928  0.3210  0.4855  0.5705
 3450SOL     OW21808   2.853   0.431   1.176  0.0417 -0.2521 -0.1558
 3450SOL    HW121809   2.902   0.443   1.095 -0.2913 -0.2039 -0.3483
 3450SOL    HW221810   2.859   0.339   1.203 -1.9957 -1.6972 -4.5726
 3451SOL     OW21811   0.894   2.567   7.371 -0.0860 -0.1616 -0.0495
 3451SOL    HW121812   0.827   2.619   7.416 -1.6914 -1.2167 -1.1818
 3451SOL    HW221813   0.911   2.630   7.300 -1.7138  1.7086  1.2230
 3452SOL     OW21814   4.435   2.738   3.602  0.4173 -0.1311 -0.1497
 3452SOL    HW121815   4.364   2.802   3.605  0.2114 -0.3861  0.6700
 3452SOL    HW221816   4.430   2.703   3.513  2.0082  0.0388 -0.3097
 3453SOL     OW21817   3.694   4.598   1.012  0.1451 -0.1042  0.0068
 3453SOL    HW121818   3.729   4.572   1.098 -0.4797 -2.6302 -0.5079
 3453SOL    HW221819   3.725   4.689   1.004 -0.0196 -0.2899 -2.5936
 3454SOL     OW21820   4.368   1.066  11.569  0.0151 -0.0985 -1.0499
 3454SOL    HW121821   4.289   1.121  11.568 -1.2284 -1.8948 -2.6111
 3454SOL    HW221822   4.343   1.003  11.637  1.5599 -2.0786 -2.3343
 3455SOL     OW21823   3.343   1.761   8.311 -0.0713  0.7719  0.1478
 3455SOL    HW121824   3.273   1.809   8.266 -1.1608 -0.9518  0.0003
 3455SOL    HW221825   3.384   1.825   8.370  1.3159 -0.6153  0.6919
 3456SOL     OW21826   4.316   3.686  15.588 -0.4306 -0.7950  0.5653
 3456SOL    HW121827   4.287   3.597  15.608 -0.3531 -0.3969  2.3977
 3456SOL    HW221828   4.408   3.672  15.565 -0.6986 -1.6056  0.0082
 3457SOL     OW21829   3.246   1.841   5.913  0.4108  0.3341 -0.2107
 3457SOL    HW121830   3.258   1.888   5.830 -1.5675 -1.2965 -1.4088
 3457SOL    HW221831   3.153   1.824   5.901  0.6304 -0.0612 -1.4114
 3458SOL     OW21832   1.022   1.735   4.534 -0.0083  0.3708 -0.5108
 3458SOL    HW121833   1.080   1.668   4.497 -0.1870 -0.1649  0.1732
 3458SOL    HW221834   1.066   1.770   4.611 -1.2777  0.8107  0.0241
 3459SOL     OW21835   1.351   4.004   8.941  0.4330  0.2185 -0.0125
 3459SOL    HW121836   1.406   3.928   8.960  0.1217  0.1492  0.5981
 3459SOL    HW221837   1.424   4.061   8.914  0.1802 -0.9418 -3.1106
 3460SOL     OW21838   3.726   3.000  15.298 -0.4533 -0.6745 -0.8177
 3460SOL    HW121839   3.731   3.093  15.277  2.3314 -0.2972  1.5378
 3460SOL    HW221840   3.799   2.960  15.250 -0.2304 -1.6164  0.3040
 3461SOL     OW21841   3.438   2.768   3.911 -0.1587 -0.0011  0.0837
 3461SOL    HW121842   3.394   2.826   3.973 -0.3802  1.4330 -1.4314
 3461SOL    HW221843   3.531   2.775   3.932  0.1122  2.4108 -1.8952
 3462SOL     OW21844   3.445   2.345   1.528  0.0650  0.0934 -0.0257
 3462SOL    HW121845   3.406   2.259   1.544  0.1070 -0.0868 -0.9187
 3462SOL    HW221846   3.430   2.383   1.615  0.4719 -1.2391  0.6222
 3463SOL     OW21847   3.148   1.224   2.590 -0.2419  0.3206 -0.3027
 3463SOL    HW121848   3.151   1.221   2.495  1.8937 -0.6814 -0.1882
 3463SOL    HW221849   3.084   1.159   2.620  1.7688 -2.0683 -1.2768
 3464SOL     OW21850   4.161   0.767  10.683 -0.0459  0.0140  0.7307
 3464SOL    HW121851   4.084   0.763  10.739 -1.7306 -2.9750 -1.7575
 3464SOL    HW221852   4.131   0.805  10.600  1.8458  0.0474  0.0598
 3465SOL     OW21853   1.487   1.241   8.188  0.4525 -0.3490  0.2742
 3465SOL    HW121854   1.488   1.156   8.231 -2.3810  0.0962  1.2253
 3465SOL    HW221855   1.443   1.286   8.259 -1.0133 -1.6396  0.1855
 3466SOL     OW21856   0.165   4.663  10.405  0.5057 -0.2046  0.1943
 3466SOL    HW121857   0.258   4.640  10.406  0.3323 -0.9858 -1.3193
 3466SOL    HW221858   0.158   0.026  10.445 -1.9981  0.5201 -1.8004
 3467SOL     OW21859   4.529   0.577   5.490 -0.9240 -0.5938 -0.0572
 3467SOL    HW121860   4.550   0.552   5.400  0.0703 -0.5280  0.1535
 3467SOL    HW221861   4.508   0.493   5.530  1.7981 -0.6712  1.1849
 3468SOL     OW21862   3.279   4.105   9.448  0.4246 -0.3690  0.1869
 3468SOL    HW121863   3.256   4.015   9.424  1.3267 -0.7513  0.7656
 3468SOL    HW221864   3.339   4.086   9.520  0.1625 -1.0858  0.2143
 3469SOL     OW21865   0.855   4.088   8.198 -0.4856  0.2835  0.5517
 3469SOL    HW121866   0.861   4.151   8.126  0.2656  1.1242  1.3588
 3469SOL    HW221867   0.763   4.072   8.178 -0.0651 -1.4842  0.0080
 3470SOL     OW21868   0.254   3.436   9.543 -0.0434  0.0968  0.0111
 3470SOL    HW121869   0.299   3.387   9.611  0.6436  0.2534 -0.3333
 3470SOL    HW221870   0.185   3.375   9.515  1.0284 -0.8779 -0.5015
 3471SOL     OW21871   4.076   0.293   1.162  0.0137  0.4243 -0.4058
 3471SOL    HW121872   4.056   0.233   1.233  2.8658 -0.3148 -0.2556
 3471SOL    HW221873   4.073   0.237   1.084  2.2002  0.1282 -0.2520
 3472SOL     OW21874   1.583   3.472   5.019 -0.1263  0.0762  0.1911
 3472SOL    HW121875   1.583   3.442   4.928  0.1503 -1.3822  0.6702
 3472SOL    HW221876   1.677   3.477   5.035 -0.1538 -1.8852  0.8715
 3473SOL     OW21877   0.675   3.477   5.839  0.0914  0.0865 -0.0666
 3473SOL    HW121878   0.620   3.553   5.856 -1.5880 -1.8928  3.3616
 3473SOL    HW221879   0.680   3.442   5.928 -1.8055 -2.3393 -0.9185
 3474SOL     OW21880   0.663   1.036   2.154  0.2361  0.2399 -0.1368
 3474SOL    HW121881   0.616   1.116   2.177 -0.6731 -1.0007  2.3216
 3474SOL    HW221882   0.600   0.999   2.093  0.9164 -0.0959 -0.6382
 3475SOL     OW21883   0.308   0.870   4.809  0.2495 -0.3323 -0.0067
 3475SOL    HW121884   0.305   0.914   4.894  0.0574 -0.4781  0.0606
 3475SOL    HW221885   0.391   0.822   4.812  0.6758  0.4554  1.2072
 3476SOL     OW21886   2.618   4.470  10.946 -0.0073 -0.2775  0.5017
 3476SOL    HW121887   2.592   4.498  10.858  1.2314  0.8106  0.4737
 3476SOL    HW221888   2.602   4.547  11.000  0.3826  0.8431 -0.9512
 3477SOL     OW21889   1.911   0.957   4.075 -0.4007 -0.3683 -0.1469
 3477SOL    HW121890   1.937   1.007   3.998  1.8255 -1.0954  0.1474
 3477SOL    HW221891   1.828   1.002   4.091  0.7416  1.7148 -0.1755
 3478SOL     OW21892   4.279   2.808   7.194  0.7860 -0.3097  0.3565
 3478SOL    HW121893   4.205   2.808   7.134  1.3147 -2.1969 -0.2837
 3478SOL    HW221894   4.241   2.777   7.276  2.0224 -3.5834 -0.2960
 3479SOL     OW21895   2.464   1.995   2.156 -0.8135 -0.6110 -0.2163
 3479SOL    HW121896   2.429   1.919   2.202  0.1826 -0.3562  0.9601
 3479SOL    HW221897   2.392   2.008   2.095  0.1517 -1.5326 -1.5666
 3480SOL     OW21898   1.553   3.221   6.992 -0.5799  0.4968 -0.2185
 3480SOL    HW121899   1.646   3.205   6.974 -0.3187  0.8762  0.8018
 3480SOL    HW221900   1.563   3.248   7.083  2.2135  0.5916 -0.5401
 3481SOL     OW21901   0.401   0.897   3.720  0.5893  0.0465 -0.2207
 3481SOL    HW121902   0.480   0.947   3.703  0.7932  0.0139  0.6353
 3481SOL    HW221903   0.336   0.958   3.686 -0.3411 -1.5193 -1.2300
 3482SOL     OW21904   1.651   3.523   3.798 -0.1874 -0.3382 -0.1253
 3482SOL    HW121905   1.574   3.466   3.805 -1.3529  1.3983  1.0878
 3482SOL    HW221906   1.713   3.454   3.821 -0.7201 -0.5544  0.6695
 3483SOL     OW21907   0.234   3.439   4.859 -0.4109 -0.0913 -0.4575
 3483SOL    HW121908   0.182   3.500   4.808 -1.5257 -0.2401  0.5152
 3483SOL    HW221909   0.265   3.509   4.917 -2.1689  0.0495  0.3075
 3484SOL     OW21910   3.322   2.420   9.840 -0.1723  0.3920 -0.3812
 3484SOL    HW121911   3.365   2.362   9.777 -2.2393  0.0087 -1.4050
 3484SOL    HW221912   3.261   2.354   9.873  1.1770 -0.6307  0.1064
 3485SOL     OW21913   1.570   3.103   5.177 -0.0916 -0.0289 -0.6888
 3485SOL    HW121914   1.627   3.180   5.172 -0.0554 -0.0514 -0.6127
 3485SOL    HW221915   1.569   3.077   5.085  0.0783 -0.0354 -0.6894
 3486SOL     OW21916   2.855   0.281   6.773 -0.3587  0.5806 -0.0851
 3486SOL    HW121917   2.839   0.322   6.688 -0.1754  0.2184 -0.2963
 3486SOL    HW221918   2.816   0.195   6.759 -0.9362  0.4808  2.2570
 3487SOL     OW21919   0.376   1.267  12.574  0.4600  0.7247  0.3624
 3487SOL    HW121920   0.376   1.185  12.525  1.2045 -0.1352  1.8246
 3487SOL    HW221921   0.454   1.314  12.544  1.3883 -1.6461 -0.8838
 3488SOL     OW21922   4.367   3.006   6.722  0.4338 -0.0734 -1.1606
 3488SOL    HW121923   4.331   3.094   6.734  0.6981 -0.1619  0.2989
 3488SOL    HW221924   4.406   2.988   6.808  0.1839 -3.0474 -1.6820
 3489SOL     OW21925   3.120   4.327   7.855 -0.1534 -0.2744 -0.4930
 3489SOL    HW121926   3.213   4.322   7.831  0.2910  0.6352  0.9874
 3489SOL    HW221927   3.117   4.249   7.911 -0.2265  0.1714  0.1260
 3490SOL     OW21928   2.848   0.538   0.597  0.2460  0.1289 -0.2235
 3490SOL    HW121929   2.916   0.472   0.604 -1.6758 -1.6805  1.2891
 3490SOL    HW221930   2.837   0.553   0.503  0.6605 -0.3871 -0.3510
 3491SOL     OW21931   2.512   1.693   5.652 -0.3002 -0.3333 -0.1096
 3491SOL    HW121932   2.530   1.606   5.688  0.4621 -0.5763 -1.1030
 3491SOL    HW221933   2.447   1.661   5.589 -2.4246 -1.4145  2.6019
 3492SOL     OW21934   1.070   2.970   7.702 -0.2872  0.0937 -0.0874
 3492SOL    HW121935   1.091   3.023   7.779 -1.0201 -0.9433  0.8290
 3492SOL    HW221936   1.014   2.903   7.740 -1.1724  1.3416  0.8098
 3493SOL     OW21937   2.544   1.541   2.431  0.2304 -0.0725 -0.3755
 3493SOL    HW121938   2.569   1.579   2.515 -0.2732 -0.0541 -0.2397
 3493SOL    HW221939   2.626   1.541   2.381 -0.9361 -0.7905 -2.2995
 3494SOL     OW21940   0.314   1.976   5.704  0.4516  0.0634 -0.9682
 3494SOL    HW121941   0.332   2.058   5.657 -1.6111  0.1529 -1.6163
 3494SOL    HW221942   0.220   1.986   5.720  0.3607  0.9085 -2.0159
 3495SOL     OW21943   4.205   0.481   2.015 -0.4920  0.7871 -0.3069
 3495SOL    HW121944   4.253   0.500   1.934  0.6983  0.8741  0.4069
 3495SOL    HW221945   4.226   0.388   2.029  0.5422  1.0372 -0.1438
 3496SOL     OW21946   3.621   4.291   5.573 -0.5640 -0.2953 -0.0104
 3496SOL    HW121947   3.627   4.329   5.661  2.3131 -1.0785  0.1062
 3496SOL    HW221948   3.663   4.357   5.517 -1.1786  0.4283  0.3748
 3497SOL     OW21949   2.504   0.937   0.904  0.0124  0.5137  0.4294
 3497SOL    HW121950   2.581   0.930   0.847  0.8066  1.2847  1.4008
 3497SOL    HW221951   2.529   0.864   0.962 -1.3610 -0.9830 -0.8954
 3498SOL     OW21952   0.655   0.618   3.692 -0.2226 -0.4128 -0.1172
 3498SOL    HW121953   0.695   0.702   3.712  0.7890 -0.9694  0.1903
 3498SOL    HW221954   0.616   0.584   3.773 -0.4521 -1.4993 -0.6793
 3499SOL     OW21955   4.571   0.005  17.317  0.0067  0.1319  0.3659
 3499SOL    HW121956   4.567   0.084  17.264  2.7871  2.3067  3.4322
 3499SOL    HW221957   4.662   4.703  17.306 -0.1170  0.0480 -0.5094
 3500SOL     OW21958   4.700   1.626  17.299 -0.7901  0.2064  0.0347
 3500SOL    HW121959   4.608   1.601  17.299 -0.9881  0.9156 -1.9729
 3500SOL    HW221960   4.710   1.685  17.224 -0.3898  0.4483  0.2792
 3501SOL     OW21961   0.671   2.429   6.578  0.1530 -0.3866  0.6010
 3501SOL    HW121962   0.597   2.371   6.596  1.1702 -1.2248  2.1257
 3501SOL    HW221963   0.735   2.358   6.579 -0.3746 -0.8714  0.3825
 3502SOL     OW21964   0.411   1.347   1.245 -0.1184 -0.0645 -0.1256
 3502SOL    HW121965   0.349   1.363   1.174  0.1645  1.7094  0.0038
 3502SOL    HW221966   0.393   1.421   1.304  2.4799  0.1545  0.3933
 3503SOL     OW21967   0.027   4.039  15.243 -0.1998  0.2079  0.0415
 3503SOL    HW121968   0.023   4.086  15.326 -0.1779 -0.2750  0.3167
 3503SOL    HW221969   0.043   3.947  15.263  0.1899 -0.1624 -1.9937
 3504SOL     OW21970   2.209   3.046   0.591  0.3748 -0.2782  0.3541
 3504SOL    HW121971   2.129   3.099   0.591  0.3784 -0.2757 -0.7948
 3504SOL    HW221972   2.182   2.954   0.591  0.6458 -0.3548 -2.5763
 3505SOL     OW21973   3.125   1.015   3.688 -0.4556 -0.0831  0.4486
 3505SOL    HW121974   3.131   1.099   3.643  0.5824  0.4254  1.5272
 3505SOL    HW221975   3.188   0.957   3.644 -2.2719 -1.5401 -0.2283
 3506SOL     OW21976   4.512   2.979   6.459  0.2684 -0.3768 -0.4739
 3506SOL    HW121977   4.445   3.028   6.507  0.8247  0.0482 -0.1271
 3506SOL    HW221978   4.588   3.035   6.475 -0.3811  0.0139  1.3260
 3507SOL     OW21979   0.225   2.134   1.492 -0.4512  0.1322  0.7132
 3507SOL    HW121980   0.136   2.115   1.464 -0.5470  1.0891  0.3788
 3507SOL    HW221981   0.270   2.176   1.418 -2.9680  0.4529 -0.6101
 3508SOL     OW21982   1.404   1.798  16.349  0.1246  0.5278 -0.1377
 3508SOL    HW121983   1.364   1.796  16.436  1.4807 -0.2387  0.4672
 3508SOL    HW221984   1.330   1.845  16.311  0.7597  3.1022  1.8240
 3509SOL     OW21985   2.004   0.619   3.247  0.7707  0.0321  0.8587
 3509SOL    HW121986   1.960   0.693   3.204  1.2337 -0.1325  0.0974
 3509SOL    HW221987   1.932   0.557   3.243  0.6527  0.2638 -0.8159
 3510SOL     OW21988   4.709   4.573   2.430 -0.4202 -0.1936 -0.3690
 3510SOL    HW121989   4.665   4.594   2.512  0.9556 -0.9967  0.5709
 3510SOL    HW221990   4.709   4.653   2.378 -0.6066  0.5785  0.8269
 3511SOL     OW21991   0.244   3.530  16.834 -0.2088  0.0944 -0.0658
 3511SOL    HW121992   0.206   3.568  16.913 -0.2753 -1.6822  0.7720
 3511SOL    HW221993   0.333   3.565  16.841 -0.4080  0.9248 -1.6755
 3512SOL     OW21994   1.738   1.100  15.314 -0.0216  0.5093 -0.4112
 3512SOL    HW121995   1.786   1.146  15.245  0.9807 -0.9472 -0.6892
 3512SOL    HW221996   1.653   1.143  15.312 -0.6204 -0.5795  1.5990
 3513SOL     OW21997   3.875   0.709   2.084  0.5323 -0.3962  0.6056
 3513SOL    HW121998   3.871   0.756   2.167 -1.0064  0.7449 -0.0914
 3513SOL    HW221999   3.789   0.739   2.053  0.4697 -1.0834  0.1032
 3514SOL     OW22000   1.180   0.636   4.062 -0.0523 -0.4047  0.3519
 3514SOL    HW122001   1.102   0.587   4.089 -1.0607  1.8021  1.3879
 3514SOL    HW222002   1.169   0.622   3.968  0.6597  1.3922  0.0038
 3515SOL     OW22003   1.201   3.631  13.619  0.1866  0.2383 -0.3607
 3515SOL    HW122004   1.195   3.619  13.714  0.8784 -2.6012 -0.6930
 3515SOL    HW222005   1.116   3.674  13.609  0.0823  0.1070 -0.0427
 3516SOL     OW22006   3.902   1.546  11.744 -0.5770 -0.0064 -0.2532
 3516SOL    HW122007   3.950   1.550  11.661  1.6185  1.0729  1.0406
 3516SOL    HW222008   3.821   1.503  11.718 -1.0234  1.3166 -1.0433
 3517SOL     OW22009   0.185   1.341   6.356 -0.4881  0.0608  0.2847
 3517SOL    HW122010   0.122   1.405   6.390 -0.6253  0.2314 -0.2943
 3517SOL    HW222011   0.267   1.388   6.372  0.2859 -1.5041  0.8946
 3518SOL     OW22012   3.512   0.222   5.612  0.3977 -0.2920 -0.0139
 3518SOL    HW122013   3.511   0.210   5.707 -2.8278  0.9316  0.1317
 3518SOL    HW222014   3.479   0.312   5.603 -0.9718 -1.0537 -2.5515
 3519SOL     OW22015   1.857   3.086   5.374  0.4214  0.3644  0.0608
 3519SOL    HW122016   1.934   3.125   5.415  0.7235 -0.0167 -0.1511
 3519SOL    HW222017   1.880   3.083   5.281 -0.4759  2.3894 -0.2277
 3520SOL     OW22018   0.200   2.277   1.002 -0.7492  0.0024  0.1586
 3520SOL    HW122019   0.121   2.223   1.000  0.2199 -1.4560  0.9348
 3520SOL    HW222020   0.175   2.359   1.043  0.3771 -0.2593  1.3454
 3521SOL     OW22021   3.002   2.510   5.207 -0.4108 -0.1977 -0.0366
 3521SOL    HW122022   2.934   2.445   5.225 -1.4304  1.0358  0.5348
 3521SOL    HW222023   2.970   2.586   5.254 -0.2044 -0.0779 -0.0873
 3522SOL     OW22024   4.679   1.262   2.119  0.1153 -0.3194  0.0342
 3522SOL    HW122025   0.010   1.209   2.061 -1.7626 -0.5249 -1.5681
 3522SOL    HW222026   4.612   1.301   2.062  0.9155  1.3320  0.2101
 3523SOL     OW22027   2.780   1.824  15.339  0.8705  0.2464  0.0488
 3523SOL    HW122028   2.700   1.781  15.308  1.6751 -0.4337 -1.0610
 3523SOL    HW222029   2.837   1.818  15.263  1.2663 -0.2211  0.3794
 3524SOL     OW22030   4.109   1.773   6.294 -0.0613  0.7627  0.7172
 3524SOL    HW122031   4.021   1.746   6.269 -0.1856  2.4769 -0.7724
 3524SOL    HW222032   4.114   1.833   6.219 -0.8989 -0.0798 -0.0156
 3525SOL     OW22033   2.812   0.803   9.256 -0.1686 -0.1938 -0.1485
 3525SOL    HW122034   2.729   0.772   9.219  0.0680 -0.5882 -0.3478
 3525SOL    HW222035   2.784   0.895   9.253 -0.8992 -0.4474 -1.0351
 3526SOL     OW22036   3.185   2.174   9.864  0.2947 -0.3121 -0.2573
 3526SOL    HW122037   3.201   2.097   9.809 -0.0589 -1.0694  0.6984
 3526SOL    HW222038   3.216   2.143   9.949  1.2836 -0.0453 -0.5261
 3527SOL     OW22039   3.518   2.964  13.607 -0.4995 -0.1488  0.5036
 3527SOL    HW122040   3.593   2.904  13.610 -0.4544 -0.1100  0.0574
 3527SOL    HW222041   3.552   3.047  13.639 -0.4466 -0.4363  1.2050
 3528SOL     OW22042   2.160   3.617  10.013 -0.4123  0.2272  0.2873
 3528SOL    HW122043   2.212   3.540   9.988 -0.1764  0.2998  0.5492
 3528SOL    HW222044   2.222   3.689   9.996  2.2082 -2.5671 -2.0120
 3529SOL     OW22045   4.481   1.374   5.768  0.0229 -0.1178 -0.3022
 3529SOL    HW122046   4.543   1.447   5.772  0.4185 -0.4967  0.4714
 3529SOL    HW222047   4.530   1.310   5.717 -0.6444 -0.3342 -0.6730
 3530SOL     OW22048   0.481   3.207   8.202 -0.4338  0.1466  0.0517
 3530SOL    HW122049   0.421   3.194   8.276  0.4195  0.0627  0.7354
 3530SOL    HW222050   0.495   3.121   8.162 -0.4270  0.2837 -0.2401
 3531SOL     OW22051   4.253   1.511   1.393 -0.3116 -0.3038  0.1648
 3531SOL    HW122052   4.247   1.488   1.485  0.3970 -1.1704 -0.0007
 3531SOL    HW222053   4.348   1.507   1.384 -0.1833  1.4050  0.7425
 3532SOL     OW22054   3.239   2.267  14.787  0.8987  0.1148  0.3805
 3532SOL    HW122055   3.265   2.209  14.715 -1.1833 -1.1695  0.6669
 3532SOL    HW222056   3.313   2.326  14.801  2.2881 -0.8774 -2.6865
 3533SOL     OW22057   4.582   2.941   3.331 -0.4472  0.2170  0.1038
 3533SOL    HW122058   4.581   2.864   3.388  0.0355 -0.0483 -0.2463
 3533SOL    HW222059   4.488   2.937   3.314 -0.5349 -1.5901  1.0632
 3534SOL     OW22060   2.397   2.845  12.994  0.0037 -0.3212  0.5466
 3534SOL    HW122061   2.400   2.841  12.898  0.4955  1.5170  0.5018
 3534SOL    HW222062   2.353   2.929  13.004  1.3127  0.3013  0.9679
 3535SOL     OW22063   1.479   1.599   1.011 -0.2687 -0.3550 -0.1453
 3535SOL    HW122064   1.435   1.665   1.065 -0.8009 -0.8771  0.0509
 3535SOL    HW222065   1.561   1.648   1.004  0.6383 -1.3399  3.4213
 3536SOL     OW22066   0.071   3.291   3.045 -0.0373 -0.1227  0.5511
 3536SOL    HW122067   0.055   3.207   3.088 -0.3932  0.7484  2.1381
 3536SOL    HW222068   0.090   3.342   3.124  2.8209  1.6849 -1.3069
 3537SOL     OW22069   1.698   1.113   5.163  0.4349  0.6503  0.0599
 3537SOL    HW122070   1.748   1.088   5.241  0.2373  0.6385  0.1831
 3537SOL    HW222071   1.708   1.207   5.180 -0.5576  0.1519  3.5573
 3538SOL     OW22072   3.120   2.383   9.048 -0.2517 -0.6058  0.5246
 3538SOL    HW122073   3.082   2.355   8.965 -1.6272  0.7121  0.7169
 3538SOL    HW222074   3.150   2.298   9.080 -0.7768 -0.7841  0.5305
 3539SOL     OW22075   1.970   1.782  15.094  0.1969  0.1201 -0.0355
 3539SOL    HW122076   2.005   1.772  15.005  2.6150  0.7302  0.8448
 3539SOL    HW222077   2.018   1.709  15.135 -0.5529  1.1199  2.5879
 3540SOL     OW22078   1.775   4.170   7.457  0.3121 -0.5502 -0.5663
 3540SOL    HW122079   1.727   4.096   7.495 -1.4866  1.0612  0.3023
 3540SOL    HW222080   1.716   4.242   7.482 -0.7235 -1.6802  0.2365
 3541SOL     OW22081   0.043   1.419   5.358  0.0717 -0.0894 -0.1216
 3541SOL    HW122082   0.021   1.494   5.304 -1.7588 -2.0743 -2.1278
 3541SOL    HW222083   4.712   1.348   5.323  0.7519 -1.1811  1.0305
 3542SOL     OW22084   1.156   3.257  12.012  0.1829  0.0246 -0.2069
 3542SOL    HW122085   1.156   3.243  12.107 -0.4450  0.2564 -0.1705
 3542SOL    HW222086   1.200   3.342  12.015  0.6675 -0.1847 -1.6783
 3543SOL     OW22087   0.540   3.434   1.730  0.3755  0.6588  0.1379
 3543SOL    HW122088   0.614   3.492   1.715 -1.1116  2.5061 -0.0975
 3543SOL    HW222089   0.595   3.356   1.727 -0.2808  0.2799 -1.8597
 3544SOL     OW22090   4.674   3.441   2.825  0.2164 -0.4412 -0.3344
 3544SOL    HW122091   4.694   3.383   2.899  1.9432 -1.5924 -1.7039
 3544SOL    HW222092   4.632   3.516   2.866  1.8637  0.7314 -0.7890
 3545SOL     OW22093   4.584   0.858  15.635  0.6340 -0.5473 -0.5250
 3545SOL    HW122094   4.640   0.789  15.600  0.1728 -0.5256 -1.3000
 3545SOL    HW222095   4.609   0.927  15.574 -2.2896 -0.1986 -1.3530
 3546SOL     OW22096   2.009   2.828   7.373  0.2236  0.2475 -0.4272
 3546SOL    HW122097   2.089   2.779   7.395 -0.5285 -0.6926  0.2443
 3546SOL    HW222098   1.980   2.794   7.289  1.0638 -1.1661 -0.1498
 3547SOL     OW22099   1.104   4.052  15.855  0.3834 -0.0266 -0.1777
 3547SOL    HW122100   1.132   3.962  15.836  1.5175  0.0445  1.2554
 3547SOL    HW222101   1.089   4.078  15.764  0.6623  0.9699  0.0665
 3548SOL     OW22102   2.136   0.685  14.735  0.0302 -0.2683  0.1743
 3548SOL    HW122103   2.091   0.602  14.726  0.8486 -0.5012 -1.8287
 3548SOL    HW222104   2.127   0.716  14.645 -3.2207 -0.1081  0.5496
 3549SOL     OW22105   3.672   0.384   1.734 -0.2859 -0.0671 -0.7448
 3549SOL    HW122106   3.724   0.442   1.790 -1.8245  0.2511  0.3406
 3549SOL    HW222107   3.685   0.303   1.782 -0.1869 -1.5683 -3.2910
 3550SOL     OW22108   2.567   2.810   5.372 -0.8397 -0.4186 -0.8410
 3550SOL    HW122109   2.534   2.744   5.433 -1.5274  1.3913  0.7398
 3550SOL    HW222110   2.545   2.764   5.291  0.4868 -3.0896  0.3034
 3551SOL     OW22111   0.582   0.446  12.613  0.4943 -0.3454 -0.0630
 3551SOL    HW122112   0.602   0.385  12.543  0.5362  1.5037 -1.6756
 3551SOL    HW222113   0.497   0.471  12.578 -0.1421 -1.7266  0.5166
 3552SOL     OW22114   4.299   2.367   5.854  0.1407  0.0462 -0.1247
 3552SOL    HW122115   4.385   2.327   5.838 -1.0628 -2.5180 -0.2317
 3552SOL    HW222116   4.242   2.314   5.799  0.9387 -0.8545 -0.0993
 3553SOL     OW22117   0.200   3.869   6.189 -0.6006 -0.0454  0.0909
 3553SOL    HW122118   0.148   3.805   6.140  0.3181 -0.4175 -0.3861
 3553SOL    HW222119   0.277   3.816   6.212  1.0705  1.0442 -3.0637
 3554SOL     OW22120   2.447   2.181   8.298 -0.1663 -0.4986 -0.3267
 3554SOL    HW122121   2.436   2.093   8.261 -2.1427  0.0403 -1.0012
 3554SOL    HW222122   2.398   2.157   8.377 -0.1920  0.8600  0.0667
 3555SOL     OW22123   1.894   4.668   1.427 -0.5196 -0.5649  0.4367
 3555SOL    HW122124   1.891   4.688   1.333 -3.2084 -3.1273 -0.0384
 3555SOL    HW222125   1.950   4.591   1.433 -0.2211 -0.4316 -0.5649
 3556SOL     OW22126   3.831   1.793  11.553  0.0111  0.3627  0.2522
 3556SOL    HW122127   3.887   1.717  11.566 -1.7545 -1.2233 -1.4220
 3556SOL    HW222128   3.754   1.750  11.590 -1.0407  3.2701  1.4367
 3557SOL     OW22129   4.197   1.545   1.897  0.0734 -0.0387 -0.1812
 3557SOL    HW122130   4.206   1.481   1.827 -1.5723  1.1759 -1.4895
 3557SOL    HW222131   4.260   1.612   1.870  0.7333 -0.2679  0.7752
 3558SOL     OW22132   1.597   1.243  12.657 -0.4492  0.1879  0.3459
 3558SOL    HW122133   1.503   1.226  12.665 -0.8070  1.5888 -0.9527
 3558SOL    HW222134   1.627   1.211  12.741  1.9748  1.0768 -0.1907
 3559SOL     OW22135   0.825   0.640  15.422  0.0567  0.6975  0.0311
 3559SOL    HW122136   0.916   0.668  15.433  0.1699  0.4943 -0.3919
 3559SOL    HW222137   0.825   0.603  15.334  2.5419 -1.0892  0.7746
 3560SOL     OW22138   1.784   3.137   3.085  0.1538 -0.4914  0.0789
 3560SOL    HW122139   1.870   3.094   3.087  0.3235 -0.1095  0.9466
 3560SOL    HW222140   1.749   3.089   3.010  1.0833 -3.0918  1.3090
 3561SOL     OW22141   0.350   3.910   9.017 -0.3996  0.0734  0.6261
 3561SOL    HW122142   0.313   3.824   8.998  0.2252 -0.5548  2.2427
 3561SOL    HW222143   0.307   3.956   8.945  0.3061 -0.5781 -0.2184
 3562SOL     OW22144   1.160   3.322   1.261 -0.1465  0.3832 -0.0119
 3562SOL    HW122145   1.142   3.415   1.259 -2.7068 -0.1217  0.3258
 3562SOL    HW222146   1.090   3.291   1.203  1.5329 -2.6965 -0.4046
 3563SOL     OW22147   3.750   4.478  14.274 -0.0845 -0.4897  0.2122
 3563SOL    HW122148   3.775   4.491  14.183 -1.4731 -3.3305 -0.5702
 3563SOL    HW222149   3.655   4.485  14.269 -0.1249 -0.9381  0.4034
 3564SOL     OW22150   3.142   3.426   8.290 -0.5626 -0.1567 -0.6338
 3564SOL    HW122151   3.124   3.489   8.220  1.9396  0.1845 -0.9632
 3564SOL    HW222152   3.231   3.407   8.260 -0.0896 -0.0913  0.7666
 3565SOL     OW22153   3.031   4.109  17.535 -0.3519 -0.7594  0.0089
 3565SOL    HW122154   3.079   4.070  17.608  1.4485  1.5445  0.0611
 3565SOL    HW222155   3.104   4.100  17.473  1.0525  0.5553  1.4702
 3566SOL     OW22156   3.330   3.195   7.002 -0.0501 -0.4088 -0.0936
 3566SOL    HW122157   3.317   3.288   7.019  1.9566 -0.5823  2.4130
 3566SOL    HW222158   3.422   3.200   6.975  0.6016 -0.0148  2.1939
 3567SOL     OW22159   3.326   2.504   6.215  0.0537 -0.1271  0.3223
 3567SOL    HW122160   3.372   2.473   6.293 -0.5406  1.3822  1.2614
 3567SOL    HW222161   3.326   2.597   6.237 -1.0495  0.0554 -0.4535
 3568SOL     OW22162   4.246   1.320   8.669  0.1270  0.0691 -0.3363
 3568SOL    HW122163   4.336   1.352   8.673  0.5366 -1.2563  1.4397
 3568SOL    HW222164   4.274   1.231   8.691  1.6696  0.3792 -0.9932
 3569SOL     OW22165   0.079   0.318   2.853  0.3712 -0.2764 -1.0657
 3569SOL    HW122166   0.003   0.263   2.836  0.5793 -0.7838 -0.3290
 3569SOL    HW222167   0.047   0.380   2.918 -1.4284 -0.9792 -1.2951
 3570SOL     OW22168   3.016   0.108   1.745  0.3295 -0.0645  0.9349
 3570SOL    HW122169   3.052   0.152   1.668  0.0865 -1.1578  0.1993
 3570SOL    HW222170   2.976   0.031   1.705  0.5439  1.5054 -2.2963
 3571SOL     OW22171   3.813   2.863   3.958 -0.4514 -0.2387  0.0546
 3571SOL    HW122172   3.770   2.842   3.875 -2.4288  0.9138  0.7915
 3571SOL    HW222173   3.765   2.943   3.982 -0.6012 -1.1152  2.6446
 3572SOL     OW22174   3.540   2.519   2.885  0.3718 -0.0342  0.5899
 3572SOL    HW122175   3.602   2.548   2.818  0.1700 -1.1259 -0.0605
 3572SOL    HW222176   3.492   2.447   2.844 -0.9069  1.7474 -1.1043
 3573SOL     OW22177   3.891   1.547   7.375 -0.0911  0.3689 -0.2504
 3573SOL    HW122178   3.975   1.591   7.388  1.1120 -2.4882  1.4866
 3573SOL    HW222179   3.910   1.509   7.290  0.1233 -0.3738  0.1354
 3574SOL     OW22180   0.059   3.261  17.016  0.6779  0.0990  0.2106
 3574SOL    HW122181   0.058   3.323  17.089 -1.2750 -2.5438  2.3888
 3574SOL    HW222182   0.021   3.181  17.051  0.1563  0.3610  0.2390
 3575SOL     OW22183   0.484   0.356   1.242 -0.1893  0.3848 -0.1340
 3575SOL    HW122184   0.542   0.433   1.246 -1.4277  1.1554  2.5704
 3575SOL    HW222185   0.481   0.335   1.149  0.8255  2.1612 -0.5672
 3576SOL     OW22186   1.835   1.698   4.691 -0.8164 -0.0066  0.3955
 3576SOL    HW122187   1.771   1.699   4.620 -0.4899 -0.9713  0.0942
 3576SOL    HW222188   1.896   1.768   4.669  0.5120 -1.5325 -0.7254
 3577SOL     OW22189   0.517   2.410  15.845  0.4192  0.1328  0.0309
 3577SOL    HW122190   0.536   2.353  15.918 -0.1711 -1.4386 -1.0369
 3577SOL    HW222191   0.588   2.388  15.785 -0.6358 -3.5605  0.1191
 3578SOL     OW22192   0.773   3.106   4.535 -0.7339 -0.3545  0.3600
 3578SOL    HW122193   0.691   3.144   4.502 -0.1455  0.1038 -0.5510
 3578SOL    HW222194   0.755   3.018   4.568 -2.3047 -0.1200  0.1288
 3579SOL     OW22195   1.657   0.049  11.603 -0.7389 -0.5924 -0.0085
 3579SOL    HW122196   1.578   0.067  11.552 -0.7867 -2.6221 -0.6417
 3579SOL    HW222197   1.717   0.116  11.569 -2.3749  1.8636  1.9954
 3580SOL     OW22198   2.554   3.637   5.592 -0.2949  0.4012 -0.5989
 3580SOL    HW122199   2.493   3.669   5.659  0.5037 -0.1471  0.3922
 3580SOL    HW222200   2.623   3.611   5.653 -2.7913 -4.6684  0.0572
 3581SOL     OW22201   2.854   2.337   4.939  0.7738 -0.4025 -0.1113
 3581SOL    HW122202   2.849   2.303   5.029 -0.3542 -0.0554 -0.0412
 3581SOL    HW222203   2.798   2.415   4.940  3.3360  1.4239 -1.1095
 3582SOL     OW22204   2.248   4.020   7.601  0.3900 -0.4087  0.1879
 3582SOL    HW122205   2.256   3.961   7.526 -0.7814 -0.4554  0.1060
 3582SOL    HW222206   2.185   4.084   7.567 -0.3619 -1.5132 -0.4897
 3583SOL     OW22207   2.582   4.268   5.910  0.5127 -0.2148  0.4088
 3583SOL    HW122208   2.509   4.206   5.909 -1.2616  1.8489  2.8245
 3583SOL    HW222209   2.657   4.208   5.916  0.2290 -0.6632 -0.5885
 3584SOL     OW22210   1.341   2.926   7.658 -0.1574  0.3543 -0.2653
 3584SOL    HW122211   1.247   2.944   7.665 -0.5009 -1.4275 -0.2923
 3584SOL    HW222212   1.380   2.997   7.710 -2.0686  0.1003  1.5454
 3585SOL     OW22213   4.198   0.993   4.226  0.1385 -0.1852  0.8364
 3585SOL    HW122214   4.184   0.904   4.258  1.5080  0.2572  2.6636
 3585SOL    HW222215   4.249   1.039   4.292  0.6292  1.2327 -0.5153
 3586SOL     OW22216   3.566   4.323   6.604  0.3153  0.0061  1.0670
 3586SOL    HW122217   3.619   4.389   6.559  0.0980 -0.7629 -0.3366
 3586SOL    HW222218   3.498   4.376   6.644  0.6840  0.4649  1.0931
 3587SOL     OW22219   1.649   0.837   5.474  0.1325  0.0446 -0.2431
 3587SOL    HW122220   1.690   0.893   5.407 -0.5612 -0.0297 -0.7253
 3587SOL    HW222221   1.587   0.902   5.507 -0.1393 -0.9578  1.1870
 3588SOL     OW22222   4.552   1.166   3.513  0.5151  0.8552 -0.6806
 3588SOL    HW122223   4.581   1.148   3.602 -0.6443 -2.1869 -0.9120
 3588SOL    HW222224   4.582   1.252   3.483  0.7620  0.9035 -0.2851
 3589SOL     OW22225   2.922   4.472   8.216  0.4234 -0.4092  0.2935
 3589SOL    HW122226   2.901   4.390   8.170 -0.5783  0.5155 -0.9051
 3589SOL    HW222227   3.011   4.497   8.192  1.3141 -2.3221  1.6056
 3590SOL     OW22228   1.933   4.150   3.888  0.1241  0.3188  0.6244
 3590SOL    HW122229   2.008   4.091   3.888 -0.2675 -0.1703 -0.4020
 3590SOL    HW222230   1.977   4.232   3.867  1.7171 -0.5991  0.3593
 3591SOL     OW22231   0.942   0.894   0.698 -0.0802  0.3404 -0.3289
 3591SOL    HW122232   0.941   0.876   0.604 -0.4526 -1.4289  0.0028
 3591SOL    HW222233   1.020   0.845   0.724 -0.9145 -0.6565  0.3183
 3592SOL     OW22234   3.967   4.293   1.261 -0.6572  0.1204 -0.2114
 3592SOL    HW122235   3.926   4.238   1.195 -1.0117 -0.0916  0.1813
 3592SOL    HW222236   3.982   4.227   1.329  2.2075  1.7463  0.7355
 3593SOL     OW22237   2.123   4.453   5.224  0.2462  0.0154  0.0115
 3593SOL    HW122238   2.042   4.449   5.172 -0.1728 -1.6658  0.8125
 3593SOL    HW222239   2.167   4.522   5.174  1.5106 -0.1610  0.8863
 3594SOL     OW22240   4.582   4.411   1.610 -0.8540 -0.1056 -0.0337
 3594SOL    HW122241   4.583   4.315   1.615  0.3286 -0.2237 -2.3797
 3594SOL    HW222242   4.677   4.427   1.605 -0.9904  0.8278  0.4456
 3595SOL     OW22243   2.211   1.365   3.324 -0.4603 -0.4805 -0.1148
 3595SOL    HW122244   2.156   1.436   3.356  0.3825  0.3384 -0.4869
 3595SOL    HW222245   2.170   1.291   3.369  1.0501 -1.0202  0.3581
 3596SOL     OW22246   0.035   3.976   4.744 -0.1504  0.4610  0.2403
 3596SOL    HW122247   0.043   4.010   4.655  4.4547 -0.8415  0.1875
 3596SOL    HW222248   4.722   4.050   4.794  0.9255  0.6719  0.7182
 3597SOL     OW22249   0.617   0.552   5.286 -0.7816 -0.3823  0.0171
 3597SOL    HW122250   0.681   0.609   5.329 -2.3864  1.1228  0.3870
 3597SOL    HW222251   0.597   0.618   5.220 -3.0006 -1.6573 -0.5860
 3598SOL     OW22252   1.895   3.339  13.902  0.4045 -0.3391 -0.1686
 3598SOL    HW122253   1.846   3.309  13.825  1.0909 -1.2063 -0.2580
 3598SOL    HW222254   1.986   3.336  13.873  1.4565 -0.9298  3.2814
 3599SOL     OW22255   1.740   3.949  15.868 -0.4953 -0.1881  0.6289
 3599SOL    HW122256   1.814   3.924  15.813 -0.4020 -0.1230  0.7260
 3599SOL    HW222257   1.767   3.905  15.948  0.0524  0.5788  0.8691
 3600SOL     OW22258   4.073   0.078   2.232  0.1319 -0.6360 -0.6475
 3600SOL    HW122259   4.123   4.720   2.237  2.6088  0.8819 -0.7730
 3600SOL    HW222260   3.995   0.046   2.187  0.4600 -1.7941 -0.4018
 3601SOL     OW22261   0.626   3.275   7.973 -0.4978  0.1128 -0.2933
 3601SOL    HW122262   0.567   3.210   8.010  0.9462  0.1044  1.9619
 3601SOL    HW222263   0.702   3.273   8.031 -0.3565  0.7820 -0.4573
 3602SOL     OW22264   1.772   4.463   4.028 -0.7329 -0.4181  0.1562
 3602SOL    HW122265   1.708   4.512   4.080 -0.7335 -0.4740  0.2083
 3602SOL    HW222266   1.843   4.450   4.091 -0.8852  2.1569  0.8626
 3603SOL     OW22267   3.715   3.172   1.565  0.2507 -0.0385 -0.4832
 3603SOL    HW122268   3.733   3.256   1.607 -1.3700  0.6036 -1.0969
 3603SOL    HW222269   3.675   3.210   1.487  0.3904  1.1220  0.0054
 3604SOL     OW22270   1.953   0.155   8.143 -0.6725 -0.4690 -0.5919
 3604SOL    HW122271   1.968   0.113   8.227  0.5549 -1.5454 -1.3371
 3604SOL    HW222272   1.929   0.244   8.169 -2.2753 -0.7050 -1.2741
 3605SOL     OW22273   3.332   2.150   3.715 -0.2644  0.3080  0.1245
 3605SOL    HW122274   3.317   2.244   3.708  2.0679  0.6983  0.5242
 3605SOL    HW222275   3.417   2.142   3.673 -0.7772  0.7179 -0.9862
 3606SOL     OW22276   4.117   4.169   7.636 -0.5690 -0.1637  0.1179
 3606SOL    HW122277   4.138   4.214   7.554 -0.2322  2.1242  1.4680
 3606SOL    HW222278   4.156   4.084   7.617 -0.9906 -0.4150  0.3963
 3607SOL     OW22279   3.655   3.228   2.331 -0.3554 -0.2487 -0.3085
 3607SOL    HW122280   3.630   3.290   2.262  0.4029  1.3552  0.8339
 3607SOL    HW222281   3.704   3.166   2.277 -0.4666 -1.0704  0.5267
 3608SOL     OW22282   0.285   4.688   8.436 -0.0196 -0.1351  0.0765
 3608SOL    HW122283   0.290   0.050   8.392 -0.1529 -0.6523 -0.9594
 3608SOL    HW222284   0.201   4.660   8.401  0.2857 -0.2245 -0.5948
 3609SOL     OW22285   3.363   1.959   8.491  0.0017 -0.1701 -0.0326
 3609SOL    HW122286   3.452   1.985   8.516 -0.5705 -0.3093  2.1633
 3609SOL    HW222287   3.316   2.037   8.521  1.6737  2.1752 -3.5508
 3610SOL     OW22288   3.603   3.747   7.430 -0.0533 -0.5744  0.3136
 3610SOL    HW122289   3.563   3.811   7.489  0.9324 -0.1353  0.5205
 3610SOL    HW222290   3.681   3.717   7.477 -0.7254  0.3664  1.9884
 3611SOL     OW22291   3.765   4.080   3.339  0.0618  0.0894 -0.8811
 3611SOL    HW122292   3.784   3.986   3.328  0.0937 -0.0637  0.5226
 3611SOL    HW222293   3.673   4.096   3.317  0.3352  1.4174 -1.0682
 3612SOL     OW22294   0.969   0.979   6.091  0.1819 -0.2292  0.3235
 3612SOL    HW122295   0.930   0.912   6.147 -1.6919 -1.7077 -2.7666
 3612SOL    HW222296   0.896   0.994   6.030 -1.4576 -1.0029  2.1197
 3613SOL     OW22297   1.891   1.982   6.203 -0.1575 -0.5371  0.3445
 3613SOL    HW122298   1.813   1.972   6.148  1.6094  0.4666 -2.3644
 3613SOL    HW222299   1.910   2.074   6.186 -1.0656 -0.3222  0.5088
 3614SOL     OW22300   0.454   4.496   8.315 -0.1684  0.1782 -0.6423
 3614SOL    HW122301   0.420   4.419   8.359 -0.6368  0.7879  0.0597
 3614SOL    HW222302   0.391   4.560   8.349 -1.6976 -2.0523  0.6535
 3615SOL     OW22303   1.912   3.258   5.836  0.2599  0.1711  0.4054
 3615SOL    HW122304   1.889   3.249   5.928  0.0380 -1.4376  0.1877
 3615SOL    HW222305   1.868   3.340   5.813  0.3073  0.3030  0.7839
 3616SOL     OW22306   1.041   0.635   2.603  0.5687  0.7003  0.3426
 3616SOL    HW122307   1.106   0.619   2.671 -1.0139 -1.6291  1.3193
 3616SOL    HW222308   1.094   0.629   2.524  0.6289  2.2312  0.2704
 3617SOL     OW22309   2.754   2.139   2.671 -0.2356  0.1566 -0.0670
 3617SOL    HW122310   2.804   2.121   2.592 -1.0982 -0.5937 -0.4304
 3617SOL    HW222311   2.819   2.197   2.713 -0.5251 -0.6050  1.4276
 3618SOL     OW22312   1.905   1.523  11.871 -0.0026 -0.0922 -0.0962
 3618SOL    HW122313   1.988   1.519  11.825 -0.0563 -0.7714 -0.1349
 3618SOL    HW222314   1.936   1.485  11.953  2.0718  1.7772 -0.0299
 3619SOL     OW22315   1.004   1.101   6.883  0.1834  0.6843  0.3120
 3619SOL    HW122316   0.973   1.171   6.826 -1.7412 -0.6457 -0.2673
 3619SOL    HW222317   1.049   1.043   6.821 -0.8274 -1.0751  1.2513
 3620SOL     OW22318   1.675   1.670   5.996 -0.0305 -0.4993  0.0525
 3620SOL    HW122319   1.749   1.681   5.936 -1.8480 -0.8235 -2.2627
 3620SOL    HW222320   1.714   1.636   6.076 -0.7759  0.3243  0.7724
 3621SOL     OW22321   3.801   0.228   8.592  0.1439  0.1009  0.0072
 3621SOL    HW122322   3.737   0.297   8.573  0.6137  0.1196 -1.5394
 3621SOL    HW222323   3.873   0.281   8.626 -2.3640  2.9019  0.8732
 3622SOL     OW22324   4.076   2.623   5.991  0.8728  0.0514 -0.4254
 3622SOL    HW122325   4.163   2.648   5.960  1.3757  1.0324  1.7835
 3622SOL    HW222326   4.091   2.575   6.073 -0.3819  1.2225  0.4963
 3623SOL     OW22327   4.033   1.934   0.114  0.4004  0.2692 -0.4399
 3623SOL    HW122328   4.016   2.027   0.097 -0.0193  0.4506  0.9641
 3623SOL    HW222329   4.072   1.948   0.200 -1.3095  3.6251 -0.2233
 3624SOL     OW22330   2.360   2.493   2.572  0.1398 -0.0439  0.4876
 3624SOL    HW122331   2.417   2.518   2.644 -1.5456  0.1031  1.7811
 3624SOL    HW222332   2.299   2.567   2.584 -1.8415 -1.0962 -3.0940
 3625SOL     OW22333   0.397   1.852   5.922 -0.4917  0.2166  0.6993
 3625SOL    HW122334   0.485   1.890   5.927  0.1596 -1.5833  3.2043
 3625SOL    HW222335   0.350   1.897   5.853  0.4614  0.7151  0.3704
 3626SOL     OW22336   1.323   0.169   6.553  0.1024  0.1267 -0.4239
 3626SOL    HW122337   1.382   0.095   6.568 -0.8416 -0.8487 -1.5909
 3626SOL    HW222338   1.381   0.242   6.573  0.5782  0.3133 -2.4877
 3627SOL     OW22339   4.217   2.881   2.988  0.6109 -0.1984  0.1250
 3627SOL    HW122340   4.206   2.892   2.893  1.3364 -0.2956  0.0327
 3627SOL    HW222341   4.269   2.801   2.993 -2.7661 -2.3464  1.4043
 3628SOL     OW22342   3.571   2.574   6.000  0.3054 -0.3232 -0.6611
 3628SOL    HW122343   3.549   2.492   5.956  1.1948  0.2066 -2.0905
 3628SOL    HW222344   3.489   2.602   6.040 -0.3305 -1.8747 -0.8895
 3629SOL     OW22345   2.723   3.862   1.105 -0.1068 -0.5864 -0.7064
 3629SOL    HW122346   2.732   3.867   1.200  0.3280 -1.5349 -0.6983
 3629SOL    HW222347   2.747   3.774   1.075  2.5853  0.2795 -1.1330
 3630SOL     OW22348   2.529   3.761  13.504  0.5459 -0.1911 -0.0804
 3630SOL    HW122349   2.472   3.776  13.579 -1.0806 -1.4433 -1.0808
 3630SOL    HW222350   2.464   3.774  13.435 -2.0485 -0.1402  2.3838
 3631SOL     OW22351   0.224   1.742  15.844 -0.2525  0.5482  0.0701
 3631SOL    HW122352   0.214   1.650  15.823  2.4356 -0.0116  1.1829
 3631SOL    HW222353   0.178   1.734  15.928  1.4435  1.3850  1.1077
 3632SOL     OW22354   2.877   4.052   1.663  0.2191 -0.2737 -0.7362
 3632SOL    HW122355   2.828   4.133   1.681  0.9160  0.5013 -2.3105
 3632SOL    HW222356   2.812   3.983   1.678  0.7447 -1.0246 -1.9802
 3633SOL     OW22357   2.058   1.088  11.629 -0.0041  0.2053  0.4323
 3633SOL    HW122358   2.131   1.052  11.578 -1.0825  1.5474 -2.0795
 3633SOL    HW222359   2.106   1.108  11.709  0.2099  2.1021 -0.1880
 3634SOL     OW22360   2.522   2.255   1.140 -0.5786 -0.6226 -0.2486
 3634SOL    HW122361   2.605   2.303   1.139 -0.3497 -1.0248 -0.5848
 3634SOL    HW222362   2.564   2.170   1.128 -0.8342 -0.9965  1.4341
 3635SOL     OW22363   1.005   4.129   3.081 -0.2592 -0.6811 -0.0574
 3635SOL    HW122364   0.990   4.077   3.160 -3.6180  1.5057  0.7485
 3635SOL    HW222365   1.089   4.100   3.044 -0.1938 -0.6427  0.0596
 3636SOL     OW22366   2.885   0.498  15.479  0.1893 -0.3598  0.2855
 3636SOL    HW122367   2.834   0.505  15.398 -2.5006 -1.3904  1.8742
 3636SOL    HW222368   2.931   0.582  15.476 -2.4290  1.1076  0.6328
 3637SOL     OW22369   4.425   4.060   2.534  0.0232  0.1457 -0.1600
 3637SOL    HW122370   4.464   3.973   2.526  0.2284  0.2425 -0.1893
 3637SOL    HW222371   4.333   4.038   2.554  0.7214 -2.5786  0.1719
 3638SOL     OW22372   1.394   1.580   6.867 -0.2215 -0.1379  0.8379
 3638SOL    HW122373   1.373   1.639   6.940 -0.7429  2.6329 -1.5665
 3638SOL    HW222374   1.361   1.495   6.896  0.8227 -0.1255  2.0745
 3639SOL     OW22375   4.218   1.125  13.423  0.1783  0.2769 -0.7283
 3639SOL    HW122376   4.229   1.154  13.513 -0.7503  2.1702 -1.2181
 3639SOL    HW222377   4.136   1.170  13.401 -0.0008 -0.0284 -0.6731
 3640SOL     OW22378   4.371   2.394  11.650  0.4294  0.1871  0.3419
 3640SOL    HW122379   4.279   2.377  11.628 -0.0351 -0.2119  2.5801
 3640SOL    HW222380   4.403   2.420  11.564  2.8913 -0.2272  1.1226
 3641SOL     OW22381   1.613   0.270   6.195  0.1325 -0.0290  0.1707
 3641SOL    HW122382   1.523   0.297   6.209  0.1718 -0.2053  0.7705
 3641SOL    HW222383   1.599   0.181   6.228 -1.0937 -0.5097 -1.6796
 3642SOL     OW22384   1.510   3.457   1.104 -0.1292  0.3232 -0.6281
 3642SOL    HW122385   1.558   3.539   1.090  0.3908 -0.1933 -1.8249
 3642SOL    HW222386   1.477   3.462   1.194  1.2241  1.7363 -0.2157
 3643SOL     OW22387   2.035   1.130   7.602  0.0849 -0.8961  0.5314
 3643SOL    HW122388   2.025   1.072   7.527 -2.0140  1.1016 -0.7353
 3643SOL    HW222389   1.996   1.077   7.672  0.1919 -2.5934 -0.7076
 3644SOL     OW22390   1.081   4.590   8.630 -0.3626 -0.3343  0.2169
 3644SOL    HW122391   1.124   4.510   8.661 -0.7806 -0.3574  0.7361
 3644SOL    HW222392   1.156   4.650   8.629 -1.1393  0.6422  1.5155
 3645SOL     OW22393   3.238   2.280   1.273  0.5262  0.2051 -0.0765
 3645SOL    HW122394   3.259   2.371   1.289 -0.5578 -0.2008  3.5300
 3645SOL    HW222395   3.319   2.236   1.299  0.4023 -0.1679 -0.3199
 3646SOL     OW22396   4.314   0.010   7.429 -0.1868 -0.4279 -0.2479
 3646SOL    HW122397   4.317   0.078   7.362  0.3116  0.3611  0.5812
 3646SOL    HW222398   4.360   4.658   7.393 -0.4970 -0.8044  0.1446
 3647SOL     OW22399   0.134   4.424   0.229 -0.1269  0.1166  0.8038
 3647SOL    HW122400   0.049   4.433   0.272 -0.1682  0.7854  0.5749
 3647SOL    HW222401   0.113   4.385   0.144  2.0906 -0.6918  0.6383
 3648SOL     OW22402   3.351   1.363  10.584  0.7427 -0.0530 -0.6422
 3648SOL    HW122403   3.357   1.438  10.643  0.6643 -0.8866  0.4183
 3648SOL    HW222404   3.354   1.415  10.503  3.7047 -0.0187 -0.5054
 3649SOL     OW22405   3.738   1.646   4.107 -0.2947 -0.3327 -0.0250
 3649SOL    HW122406   3.691   1.727   4.124 -0.9710 -0.4761 -1.1817
 3649SOL    HW222407   3.675   1.603   4.050 -0.6712  1.8085 -1.2362
 3650SOL     OW22408   4.529   0.522   4.056  0.0727  0.4431 -0.2519
 3650SOL    HW122409   4.481   0.449   4.095  1.3957  0.8861  2.1760
 3650SOL    HW222410   4.534   0.584   4.129 -0.8035  0.4539 -0.2040
 3651SOL     OW22411   2.430   4.715   1.111  0.7664 -0.3394 -0.0855
 3651SOL    HW122412   2.502   0.008   1.050  1.7318 -4.4121 -0.0692
 3651SOL    HW222413   2.474   4.672   1.185  0.6651 -1.5441 -0.7133
 3652SOL     OW22414   3.273   2.795  12.479 -0.3561 -0.4408 -0.2024
 3652SOL    HW122415   3.190   2.836  12.455  0.0752  0.7839  0.4188
 3652SOL    HW222416   3.256   2.703  12.457  0.0183 -0.7030  0.6298
 3653SOL     OW22417   1.531   1.081   4.529  0.0449  0.0312  0.6267
 3653SOL    HW122418   1.510   1.006   4.584 -2.1466 -0.0617 -0.3229
 3653SOL    HW222419   1.492   1.154   4.577 -0.3809  0.5814 -0.5647
 3654SOL     OW22420   1.528   2.672  16.976  0.1126 -0.1431 -0.5535
 3654SOL    HW122421   1.574   2.756  16.971 -0.8462  0.4149 -0.2017
 3654SOL    HW222422   1.463   2.679  16.905 -0.0456  1.3329 -0.2681
 3655SOL     OW22423   1.836   2.638   0.701  0.0995 -0.4884 -0.7580
 3655SOL    HW122424   1.888   2.561   0.722 -1.8427 -1.9599 -1.2892
 3655SOL    HW222425   1.798   2.600   0.621 -1.1256  1.9088 -1.3211
 3656SOL     OW22426   2.506   0.525   2.452  0.5923  0.8997 -0.0357
 3656SOL    HW122427   2.474   0.517   2.362  1.4738 -1.7506 -0.1071
 3656SOL    HW222428   2.506   0.619   2.472  0.5148  0.8968 -0.0180
 3657SOL     OW22429   4.299   0.391  10.277 -0.2413 -0.1418 -0.2379
 3657SOL    HW122430   4.312   0.333  10.352  0.2680  1.2346  0.7473
 3657SOL    HW222431   4.282   0.335  10.202  0.6886  1.5046 -1.6755
 3658SOL     OW22432   2.853   4.629   4.680 -0.2432  0.3407  0.5136
 3658SOL    HW122433   2.856   4.617   4.774 -2.1224 -0.8337  0.4133
 3658SOL    HW222434   2.831   4.538   4.660 -0.6339  0.5264  0.0678
 3659SOL     OW22435   1.129   0.662   7.331  0.6928 -0.6556  0.6687
 3659SOL    HW122436   1.221   0.636   7.333  0.8303 -0.1294  1.0709
 3659SOL    HW222437   1.131   0.753   7.358  1.4773 -0.4683 -0.0316
 3660SOL     OW22438   4.015   0.198   5.617  0.2041 -0.2028  0.6121
 3660SOL    HW122439   3.971   0.200   5.532  0.5666 -3.9275  0.3320
 3660SOL    HW222440   4.020   0.293   5.625  1.1194 -0.2213  0.3411
 3661SOL     OW22441   3.330   2.564   4.260  0.3912  0.0718 -0.4598
 3661SOL    HW122442   3.339   2.502   4.332  0.7633  0.3851 -0.2365
 3661SOL    HW222443   3.316   2.645   4.309 -0.4727 -1.4655  1.8364
 3662SOL     OW22444   3.063   3.779  12.582 -0.1159  0.0143  0.3350
 3662SOL    HW122445   3.095   3.866  12.606  0.4381  0.0592 -0.5664
 3662SOL    HW222446   3.039   3.743  12.668  0.4437  0.9521  0.8818
 3663SOL     OW22447   4.458   3.911   7.505 -0.0439  0.5602 -0.0534
 3663SOL    HW122448   4.424   3.904   7.594 -0.1284 -1.8780 -0.2783
 3663SOL    HW222449   4.483   3.824   7.475 -1.0719 -0.0093  0.7196
 3664SOL     OW22450   0.496   2.065  11.232  0.2068  0.6473  0.4265
 3664SOL    HW122451   0.588   2.044  11.216 -0.5228 -1.0220 -1.7036
 3664SOL    HW222452   0.467   1.974  11.244 -0.2779  0.6562 -0.6767
 3665SOL     OW22453   3.208   2.902  17.023 -0.7763  0.0221 -1.1060
 3665SOL    HW122454   3.241   2.813  17.012  1.6343  0.7450  0.3936
 3665SOL    HW222455   3.151   2.901  17.100  0.0364  1.0832 -0.4955
 3666SOL     OW22456   3.678   0.452   2.640 -0.1265 -0.6989  0.4750
 3666SOL    HW122457   3.634   0.534   2.616  0.6996 -0.7934 -1.3819
 3666SOL    HW222458   3.738   0.458   2.566 -0.5757  2.6588  0.3637
 3667SOL     OW22459   3.885   0.818   0.526  0.2134 -0.3921  0.4604
 3667SOL    HW122460   3.815   0.816   0.461  1.1045 -2.6239 -0.4647
 3667SOL    HW222461   3.898   0.910   0.548 -2.7073 -0.0032  0.5265
 3668SOL     OW22462   3.450   4.661  13.982  0.3974  0.1026  0.1157
 3668SOL    HW122463   3.363   4.668  14.021  0.5181  1.5410  0.1242
 3668SOL    HW222464   3.492   4.605  14.047  0.5939 -0.9461 -0.9222
 3669SOL     OW22465   1.142   4.383  16.062  0.0859 -0.6214  0.2435
 3669SOL    HW122466   1.136   4.441  15.986  1.0065  0.9384  1.3811
 3669SOL    HW222467   1.183   4.442  16.125 -0.6225  0.1928 -0.0584
 3670SOL     OW22468   2.432   2.246   6.498  0.2655  0.3676  0.3283
 3670SOL    HW122469   2.360   2.277   6.442 -0.7137 -1.8634  0.3426
 3670SOL    HW222470   2.429   2.305   6.573  0.0207  0.6404  0.1044
 3671SOL     OW22471   1.085   3.699   8.699 -0.0567 -0.8255 -0.1433
 3671SOL    HW122472   1.079   3.719   8.793 -1.9418 -0.4912 -0.3243
 3671SOL    HW222473   1.141   3.772   8.672 -0.6801 -0.4005 -0.2796
 3672SOL     OW22474   2.779   2.560  15.994 -0.0565  0.6824 -0.4258
 3672SOL    HW122475   2.861   2.510  15.992  0.0559  0.9335 -1.6734
 3672SOL    HW222476   2.803   2.652  15.985 -0.3265  0.5965 -2.0741
 3673SOL     OW22477   4.519   0.640   4.319 -0.1560  0.0453  0.6163
 3673SOL    HW122478   4.456   0.590   4.371  0.5016  0.2262  1.5863
 3673SOL    HW222479   4.590   0.654   4.381  1.2393 -1.2753 -0.6431
 3674SOL     OW22480   0.691   4.171   4.327 -0.5528 -0.1764 -0.6198
 3674SOL    HW122481   0.690   4.163   4.423 -2.5050  3.7002 -0.3524
 3674SOL    HW222482   0.636   4.247   4.309  2.5311  1.7882 -1.5885
 3675SOL     OW22483   0.851   3.122   7.292 -0.0095 -0.3301 -0.1391
 3675SOL    HW122484   0.760   3.101   7.314 -0.6870  1.7444 -1.0064
 3675SOL    HW222485   0.902   3.118   7.373  0.9774 -2.1847 -0.8483
 3676SOL     OW22486   0.273   2.752  11.505  0.3030  0.0506 -0.2876
 3676SOL    HW122487   0.210   2.807  11.458 -2.1183 -2.5438 -0.1031
 3676SOL    HW222488   0.303   2.696  11.434  0.2466 -2.4596  1.6556
 3677SOL     OW22489   3.025   1.918   6.089  0.4480 -0.1345 -0.2529
 3677SOL    HW122490   3.020   1.931   5.994 -2.3195  0.9147  0.0362
 3677SOL    HW222491   2.945   1.956   6.124  0.0459  2.0915 -3.5047
 3678SOL     OW22492   4.359   2.685  17.091  0.3102  0.7648  0.2150
 3678SOL    HW122493   4.394   2.601  17.120 -0.6206 -0.1046 -1.1513
 3678SOL    HW222494   4.398   2.670  17.005  1.4935  0.3721  0.8326
 3679SOL     OW22495   1.035   2.729   5.110 -0.2781 -0.6387  0.2615
 3679SOL    HW122496   1.088   2.707   5.033  1.6949  5.2194 -0.0301
 3679SOL    HW222497   1.089   2.681   5.172  0.3132 -1.0806 -0.5823
 3680SOL     OW22498   2.854   2.081   4.207 -0.1617  0.4288  0.1972
 3680SOL    HW122499   2.944   2.087   4.177 -0.3001 -0.2602 -0.3424
 3680SOL    HW222500   2.862   2.039   4.293  1.1815 -1.4648 -0.8810
 3681SOL     OW22501   4.408   2.327   3.452 -0.1663 -0.1330  0.3648
 3681SOL    HW122502   4.373   2.368   3.373 -0.0750 -0.6567  0.0516
 3681SOL    HW222503   4.399   2.232   3.438  2.7744 -0.1849 -1.0557
 3682SOL     OW22504   2.553   4.404   4.637 -0.2692 -0.1302 -0.2002
 3682SOL    HW122505   2.564   4.343   4.710 -3.1884  0.8098  1.0395
 3682SOL    HW222506   2.637   4.450   4.638 -1.4755  2.0448 -0.0249
 3683SOL     OW22507   1.509   1.725  15.841 -0.3517 -0.7035  0.3200
 3683SOL    HW122508   1.492   1.646  15.892  1.6781 -1.6268 -0.4051
 3683SOL    HW222509   1.604   1.714  15.842 -0.2105  0.7090  1.8695
 3684SOL     OW22510   0.787   1.620   4.141 -0.4477 -0.0440  0.7343
 3684SOL    HW122511   0.779   1.596   4.049 -0.3077  2.6811  0.0103
 3684SOL    HW222512   0.696   1.605   4.167 -1.3132  2.8965 -0.5617
 3685SOL     OW22513   3.583   0.814  13.419  0.1942 -0.2960  0.0403
 3685SOL    HW122514   3.531   0.817  13.500 -0.5020 -1.8600 -0.3516
 3685SOL    HW222515   3.674   0.795  13.442  0.2476 -0.3867 -0.2428
 3686SOL     OW22516   1.990   1.729   4.298  0.4455 -0.2494 -0.0073
 3686SOL    HW122517   1.966   1.744   4.207  2.7862 -2.6474 -1.0212
 3686SOL    HW222518   1.957   1.639   4.293  1.3037 -0.3791 -2.9204
 3687SOL     OW22519   4.181   3.337   3.629  0.2475  0.3526 -0.1112
 3687SOL    HW122520   4.216   3.398   3.564  0.5636  0.3105  0.0173
 3687SOL    HW222521   4.159   3.399   3.699 -0.2423  1.1055 -0.9464
 3688SOL     OW22522   1.370   4.377  12.830  0.0220 -0.1360 -0.4786
 3688SOL    HW122523   1.421   4.338  12.760  1.0506 -0.3467  0.3910
 3688SOL    HW222524   1.299   4.312  12.825  0.5538 -0.6766 -0.9187
 3689SOL     OW22525   2.224   2.230   1.481  0.2411  0.6497  0.1199
 3689SOL    HW122526   2.217   2.145   1.524 -0.1440 -1.2409 -3.7252
 3689SOL    HW222527   2.187   2.209   1.395  0.8433 -1.2515  0.3130
 3690SOL     OW22528   1.144   2.702   8.740  0.3348 -0.0076 -0.5810
 3690SOL    HW122529   1.083   2.748   8.682  2.6114  2.5021 -0.9507
 3690SOL    HW222530   1.081   2.651   8.790 -1.3695  1.8586 -0.8204
 3691SOL     OW22531   3.226   0.635   4.745 -0.1278  0.6763 -0.2978
 3691SOL    HW122532   3.271   0.719   4.756  0.5137  0.0928  1.5205
 3691SOL    HW222533   3.146   0.656   4.792 -0.0731  0.0913  0.0519
 3692SOL     OW22534   2.586   3.853  11.810  0.3964  0.1629  0.0862
 3692SOL    HW122535   2.602   3.899  11.728  0.8308 -0.2133 -0.0440
 3692SOL    HW222536   2.670   3.818  11.842  0.6871 -0.2819 -1.1811
 3693SOL     OW22537   3.144   1.234   2.321 -0.1984 -0.4646  0.0310
 3693SOL    HW122538   3.231   1.204   2.295 -0.4185  0.6354 -1.9185
 3693SOL    HW222539   3.091   1.234   2.242  0.0147 -2.7931 -0.0996
 3694SOL     OW22540   0.023   1.081   5.384 -0.0031  0.2352  0.2244
 3694SOL    HW122541   0.044   1.131   5.306  0.2119  1.2841  0.9603
 3694SOL    HW222542   4.706   1.002   5.349 -2.1091  0.3502  2.3251
 3695SOL     OW22543   4.283   2.302   6.150 -0.6891 -0.3225 -0.1167
 3695SOL    HW122544   4.279   2.211   6.120 -1.7834 -0.3602  0.1481
 3695SOL    HW222545   4.312   2.331   6.064 -1.0464 -0.7877 -0.3964
 3696SOL     OW22546   3.396   0.854   6.640 -0.3081  0.1971 -0.1624
 3696SOL    HW122547   3.323   0.807   6.681 -3.3190  3.6170 -1.6077
 3696SOL    HW222548   3.457   0.780   6.651 -2.1189 -1.0227  1.8139
 3697SOL     OW22549   1.887   0.631   7.101 -0.2687  0.2509 -0.1164
 3697SOL    HW122550   1.855   0.721   7.093 -0.1287  0.3704  0.6767
 3697SOL    HW222551   1.914   0.608   7.012  0.0679  2.6256 -0.6261
 3698SOL     OW22552   0.776   1.615   2.392 -0.0168  0.2150 -0.1777
 3698SOL    HW122553   0.693   1.630   2.436 -1.0635 -2.1425 -1.3559
 3698SOL    HW222554   0.771   1.523   2.365  0.2923  0.1472 -0.0002
 3699SOL     OW22555   4.188   3.384  16.384  0.1492 -0.1150 -0.0780
 3699SOL    HW122556   4.106   3.355  16.344  0.7028  0.0139 -1.3100
 3699SOL    HW222557   4.171   3.357  16.474 -1.2346 -0.9340 -0.5725
 3700SOL     OW22558   1.385   3.691   5.788 -0.1942 -0.1601  0.1033
 3700SOL    HW122559   1.371   3.750   5.863 -1.6644 -0.2818 -0.0701
 3700SOL    HW222560   1.382   3.604   5.828  0.8693 -0.6702 -0.9383
 3701SOL     OW22561   0.415   4.051   9.873 -0.7615  0.8236  0.1139
 3701SOL    HW122562   0.509   4.038   9.885 -0.3798  1.3572 -2.2386
 3701SOL    HW222563   0.407   4.140   9.837  0.2062  1.2348  0.9273
 3702SOL     OW22564   4.509   1.467   6.697 -0.4872  0.1595 -0.2757
 3702SOL    HW122565   4.504   1.515   6.779 -2.0108  1.1945 -0.9722
 3702SOL    HW222566   4.429   1.416   6.699  0.1629 -0.7955  1.1333
 3703SOL     OW22567   2.970   0.103   5.304  0.4820  0.6349  0.4334
 3703SOL    HW122568   2.957   0.196   5.320  0.5407  0.9415 -1.2976
 3703SOL    HW222569   2.880   0.069   5.304 -0.1752  2.3647 -0.7657
 3704SOL     OW22570   0.605   3.636   2.218  0.0909  0.1896  0.0404
 3704SOL    HW122571   0.529   3.589   2.253  1.4953 -0.9555  1.5974
 3704SOL    HW222572   0.600   3.616   2.125 -1.0831  1.8717 -0.2633
 3705SOL     OW22573   3.757   2.482  14.586 -0.2316 -0.2848  0.3695
 3705SOL    HW122574   3.706   2.563  14.578  0.2529  0.2479  2.5942
 3705SOL    HW222575   3.843   2.519  14.610 -0.2946  0.9651 -1.3537
 3706SOL     OW22576   1.818   3.640  10.994  0.3869 -0.0536  0.0041
 3706SOL    HW122577   1.910   3.645  11.023  0.0485  0.5111  0.9932
 3706SOL    HW222578   1.807   3.697  10.918  1.7999  1.1319  0.6682
 3707SOL     OW22579   3.984   1.701   4.759 -0.2387 -0.1895  0.6537
 3707SOL    HW122580   4.060   1.756   4.779 -1.5799  1.8588  0.1978
 3707SOL    HW222581   3.997   1.635   4.826  0.0479 -0.6110  0.1777
 3708SOL     OW22582   2.211   2.886   1.734 -0.5837  0.7044  0.2989
 3708SOL    HW122583   2.243   2.798   1.751 -1.2301  0.2735 -0.7323
 3708SOL    HW222584   2.241   2.894   1.644  1.1488 -0.1539  0.8092
 3709SOL     OW22585   3.964   2.642   4.102  1.1089  0.1187 -0.1907
 3709SOL    HW122586   3.872   2.615   4.104  0.9917  0.5931  1.1414
 3709SOL    HW222587   3.956   2.735   4.081  1.5259  0.4617  1.1609
 3710SOL     OW22588   4.572   1.418   1.569  0.1641 -0.3175  0.0663
 3710SOL    HW122589   4.668   1.412   1.571  0.1571 -0.0687  1.3695
 3710SOL    HW222590   4.558   1.457   1.483  0.4178 -1.1654 -0.3593
 3711SOL     OW22591   4.679   1.567   7.635  0.1670 -0.2837 -0.4046
 3711SOL    HW122592   4.670   1.622   7.557 -1.0978  0.7115  0.4387
 3711SOL    HW222593   4.678   1.643   7.693 -0.2120  0.0290 -0.8216
 3712SOL     OW22594   3.921   0.210  11.504  0.9125 -0.6270  0.2024
 3712SOL    HW122595   3.896   0.282  11.562  0.2810 -1.8391  1.4367
 3712SOL    HW222596   3.988   0.255  11.453 -0.2961  0.3890 -0.5031
 3713SOL     OW22597   1.919   3.530  15.938  0.2243 -0.0615 -0.7555
 3713SOL    HW122598   1.988   3.584  15.975 -0.6039  1.5137 -1.4761
 3713SOL    HW222599   1.983   3.482  15.885  0.1674  0.6711 -1.5022
 3714SOL     OW22600   0.091   2.827   2.391  0.2343  0.7430 -0.6661
 3714SOL    HW122601   0.004   2.833   2.352  0.0374 -0.2876 -0.3811
 3714SOL    HW222602   0.140   2.789   2.318  0.1187 -1.8027  0.5969
 3715SOL     OW22603   3.239   4.432   5.520 -0.3782 -0.1168  0.4290
 3715SOL    HW122604   3.181   4.504   5.494 -0.7834 -0.8608 -0.7523
 3715SOL    HW222605   3.241   4.380   5.440 -1.8510  0.3376  0.0886
 3716SOL     OW22606   2.801   0.990   8.335 -0.1453  0.4833  0.9965
 3716SOL    HW122607   2.896   0.979   8.335 -0.3122 -1.0613 -2.4392
 3716SOL    HW222608   2.765   0.946   8.258 -2.2618 -0.4177  2.5104
 3717SOL     OW22609   0.143   2.379   8.755  0.7002  0.1705 -0.4658
 3717SOL    HW122610   0.195   2.298   8.752  1.0862  0.3224  2.4608
 3717SOL    HW222611   0.170   2.405   8.843  2.3624 -0.6867 -0.7019
 3718SOL     OW22612   1.401   0.800   4.028 -0.0514  0.2691  0.3630
 3718SOL    HW122613   1.331   0.740   4.055  0.7461 -0.9475 -0.2829
 3718SOL    HW222614   1.384   0.881   4.077  2.3394  1.9394 -1.5779
 3719SOL     OW22615   4.299   4.485   2.861  0.0232 -0.2056 -0.3069
 3719SOL    HW122616   4.229   4.525   2.913  0.4290  0.7565 -0.5056
 3719SOL    HW222617   4.273   4.535   2.784  3.6043  0.7954 -0.8628
 3720SOL     OW22618   4.291   2.098  11.982  0.3400  0.3093  0.0918
 3720SOL    HW122619   4.285   2.088  12.077 -2.1227  0.8846 -0.0056
 3720SOL    HW222620   4.318   2.011  11.952  2.2581  1.5680 -1.9007
 3721SOL     OW22621   2.680   2.940  15.784  0.5454  0.2901 -0.2562
 3721SOL    HW122622   2.738   2.880  15.736  1.1562  0.3797  0.3638
 3721SOL    HW222623   2.725   3.024  15.784 -2.1388  1.7177 -1.2765
 3722SOL     OW22624   0.449   0.416   9.754 -0.4971  0.3388  0.1465
 3722SOL    HW122625   0.361   0.427   9.788 -0.7215  1.8297 -0.9057
 3722SOL    HW222626   0.450   0.424   9.658 -1.8533  1.0449  0.2068
 3723SOL     OW22627   3.980   4.308  11.992  0.3536 -0.3953 -0.2363
 3723SOL    HW122628   3.927   4.322  11.914 -0.4708  1.9049  0.7437
 3723SOL    HW222629   3.922   4.257  12.048 -0.7110  1.0840  0.0265
 3724SOL     OW22630   0.660   2.829   8.643 -0.0730 -0.4304 -0.2403
 3724SOL    HW122631   0.641   2.845   8.736 -1.7111  0.6793 -0.7610
 3724SOL    HW222632   0.752   2.853   8.643  0.0394 -0.7936  2.0669
 3725SOL     OW22633   3.353   0.113   7.912 -0.0806  0.3097  0.0043
 3725SOL    HW122634   3.368   0.186   7.852  0.9976  0.3720  0.3526
 3725SOL    HW222635   3.422   0.118   7.978  0.4977 -0.8980 -0.4954
 3726SOL     OW22636   1.743   2.612   6.444 -0.5064  0.3747  0.7746
 3726SOL    HW122637   1.686   2.545   6.407  0.2311  0.2023 -0.0422
 3726SOL    HW222638   1.806   2.627   6.374 -2.4121  3.1676 -0.3923
 3727SOL     OW22639   2.360   1.360   8.118  0.2964 -0.1401  0.4855
 3727SOL    HW122640   2.293   1.408   8.168  1.3878 -0.4080  2.2336
 3727SOL    HW222641   2.336   1.374   8.027  1.0091  0.5223  0.4006
 3728SOL     OW22642   3.216   1.760   1.963  0.3261  0.2870 -0.4529
 3728SOL    HW122643   3.232   1.796   1.876  0.3074 -0.0265 -0.5869
 3728SOL    HW222644   3.171   1.831   2.009 -2.8741 -2.9185  1.4205
 3729SOL     OW22645   3.707   4.694   9.737 -0.9322  0.3159 -0.4727
 3729SOL    HW122646   3.686   0.061   9.761 -0.1456  0.1570  0.8511
 3729SOL    HW222647   3.789   4.678   9.785 -0.7895  3.2858  0.2618
 3730SOL     OW22648   3.945   1.246  13.359  0.1179  0.0440 -0.0151
 3730SOL    HW122649   3.911   1.181  13.297 -0.7796 -1.0981  1.7083
 3730SOL    HW222650   3.885   1.321  13.358  0.5642  0.4043 -0.0043
 3731SOL     OW22651   2.062   0.244   7.517 -0.4846 -0.1083  0.0269
 3731SOL    HW122652   2.119   0.321   7.521  1.2266 -1.3631  0.2218
 3731SOL    HW222653   2.046   0.230   7.423 -2.0597 -1.0687  0.4488
 3732SOL     OW22654   0.052   1.724   3.862  0.0252  0.0256  0.2118
 3732SOL    HW122655   0.051   1.769   3.947 -1.7708  2.1655 -0.9478
 3732SOL    HW222656   0.139   1.740   3.826  0.8406  0.9513  2.5397
 3733SOL     OW22657   3.879   0.440   4.850  0.0215  0.0488  0.0057
 3733SOL    HW122658   3.898   0.355   4.810 -0.2014  0.7591 -1.6379
 3733SOL    HW222659   3.784   0.437   4.841  0.2093  0.8111 -2.3167
 3734SOL     OW22660   0.038   4.193  15.467  0.6389 -0.2973  0.3961
 3734SOL    HW122661   0.090   4.258  15.420 -1.2781  0.7627 -0.2601
 3734SOL    HW222662   0.002   4.245  15.538 -1.8656  0.4924 -1.4380
 3735SOL     OW22663   0.788   1.501   6.633 -0.0059 -0.6631 -0.3345
 3735SOL    HW122664   0.754   1.566   6.695 -0.1278  0.7892 -1.9504
 3735SOL    HW222665   0.877   1.534   6.622 -1.2655  2.6581 -0.5835
 3736SOL     OW22666   0.624   3.012   8.401  0.1100  0.5934  0.1150
 3736SOL    HW122667   0.540   3.019   8.357 -0.1787  0.0964  0.5929
 3736SOL    HW222668   0.607   2.941   8.462 -1.5931  1.2216  0.3731
 3737SOL     OW22669   2.693   0.034   7.201 -0.1170  0.9328  0.8296
 3737SOL    HW122670   2.655   4.709   7.127  2.1428  0.2046  0.1447
 3737SOL    HW222671   2.681   4.696   7.273 -0.2589 -0.1355 -0.1082
 3738SOL     OW22672   1.425   3.824   5.524  0.7154  0.2518  0.4247
 3738SOL    HW122673   1.487   3.768   5.477 -0.4793 -0.6033 -0.1087
 3738SOL    HW222674   1.444   3.776   5.605  0.3520  0.3483  0.5690
 3739SOL     OW22675   0.315   1.057   0.695  0.3906 -0.4545  0.4183
 3739SOL    HW122676   0.342   1.135   0.743  0.5298  0.0282 -0.4683
 3739SOL    HW222677   0.361   0.992   0.750 -1.7393 -1.9589  0.4463
 3740SOL     OW22678   0.260   3.211   2.848 -0.2620  0.1253  0.2679
 3740SOL    HW122679   0.299   3.298   2.853 -0.9687  0.6047 -2.5362
 3740SOL    HW222680   0.195   3.227   2.917 -0.6237  2.6629 -0.6828
 3741SOL     OW22681   0.233   3.019   5.893 -0.0665  0.5822 -0.4977
 3741SOL    HW122682   0.165   3.046   5.954 -1.1951 -2.6634 -0.3022
 3741SOL    HW222683   0.184   2.947   5.853  1.1195  1.3055 -3.2882
 3742SOL     OW22684   0.666   3.953   9.686  0.1185  0.2993  0.1628
 3742SOL    HW122685   0.687   4.010   9.760 -3.5003  1.4902  0.2986
 3742SOL    HW222686   0.609   3.884   9.720 -0.6355 -0.1023 -1.9707
 3743SOL     OW22687   3.898   2.152   1.298 -0.5307  0.6276  0.0118
 3743SOL    HW122688   3.814   2.195   1.315 -2.1353 -2.6653  0.3943
 3743SOL    HW222689   3.884   2.117   1.210 -1.2668  2.7655 -0.7151
 3744SOL     OW22690   3.273   3.811  10.171 -0.7366 -0.1265  0.1769
 3744SOL    HW122691   3.366   3.831  10.178 -1.4057  3.9825 -3.2022
 3744SOL    HW222692   3.243   3.893  10.133  1.1436 -0.3485 -1.7289
 3745SOL     OW22693   2.469   3.985   6.653 -0.1009 -0.0398 -0.3084
 3745SOL    HW122694   2.498   4.023   6.570  0.0278  1.6598  0.5168
 3745SOL    HW222695   2.536   3.918   6.666  0.8878  0.4976 -2.5078
 3746SOL     OW22696   4.108   2.044   8.513 -0.4686 -0.4793 -0.4157
 3746SOL    HW122697   4.041   2.029   8.581  1.5475 -1.0549  1.4342
 3746SOL    HW222698   4.142   2.130   8.540 -2.0463 -1.1421  3.7377
 3747SOL     OW22699   1.998   3.260   4.396 -0.2850 -0.0932 -0.1692
 3747SOL    HW122700   1.936   3.289   4.463 -1.2978  0.6189 -1.3865
 3747SOL    HW222701   2.006   3.166   4.407 -0.8873 -0.4650 -2.8285
 3748SOL     OW22702   1.222   1.788  13.158  0.4387  0.2841  0.0240
 3748SOL    HW122703   1.256   1.798  13.247  2.0072  0.1031 -0.5499
 3748SOL    HW222704   1.197   1.879  13.144  0.4748  0.1755 -0.7160
 3749SOL     OW22705   0.283   1.201   7.411 -0.4985 -0.1057 -0.8113
 3749SOL    HW122706   0.315   1.184   7.323  1.6704 -3.5346  0.6238
 3749SOL    HW222707   0.191   1.225   7.399 -0.6466 -0.5297 -0.5261
 3750SOL     OW22708   1.117   1.890   6.606 -0.0839  0.1870 -0.1414
 3750SOL    HW122709   1.210   1.893   6.586  0.2235 -0.8298  1.0825
 3750SOL    HW222710   1.100   1.979   6.638 -0.1268 -0.0384  0.4685
 3751SOL     OW22711   2.708   0.604   3.735  0.0353  0.0149 -0.1596
 3751SOL    HW122712   2.707   0.682   3.791  0.0638 -0.4074  0.4298
 3751SOL    HW222713   2.669   0.643   3.657  0.4114 -0.4528 -0.5828
 3752SOL     OW22714   4.364   4.307   4.918 -0.5049  0.6271  0.6129
 3752SOL    HW122715   4.405   4.383   4.876 -0.5665  0.7679  0.8125
 3752SOL    HW222716   4.345   4.336   5.007 -1.3481  1.5833  0.1097
 3753SOL     OW22717   2.568   1.872   5.844 -0.0267 -0.4559 -0.3887
 3753SOL    HW122718   2.523   1.831   5.918  0.6654 -1.7418 -0.6770
 3753SOL    HW222719   2.522   1.822   5.777 -1.6100  1.8592 -1.0459
 3754SOL     OW22720   3.432   1.637  14.372 -0.1591 -0.1564  0.2888
 3754SOL    HW122721   3.377   1.707  14.406  0.0290  0.3872 -0.5323
 3754SOL    HW222722   3.387   1.637  14.288 -2.6088 -2.5675  1.5711
 3755SOL     OW22723   3.121   0.001   8.609 -0.4214 -0.2424  0.5061
 3755SOL    HW122724   3.065   4.651   8.631 -1.6734  0.5439 -0.0350
 3755SOL    HW222725   3.162   0.012   8.695  1.9839  0.5148 -0.7350
 3756SOL     OW22726   0.796   2.980   7.041  0.0569  0.1253  0.3495
 3756SOL    HW122727   0.877   3.013   7.079 -0.4010  0.5016  0.9981
 3756SOL    HW222728   0.761   2.927   7.114 -2.0331  0.0823 -0.6794
 3757SOL     OW22729   2.906   2.079   3.375  0.1130 -0.0136 -0.0396
 3757SOL    HW122730   2.943   2.099   3.289  2.5532  2.6218  1.6151
 3757SOL    HW222731   2.819   2.042   3.360 -0.6736  2.3736 -1.3495
 3758SOL     OW22732   0.890   1.636   8.118 -0.0884 -0.2116  0.3375
 3758SOL    HW122733   0.855   1.558   8.075 -2.9511  1.0201  0.4369
 3758SOL    HW222734   0.889   1.608   8.209 -0.9576 -1.1629  0.0328
 3759SOL     OW22735   0.012   3.043   3.120  0.2719  0.0604  0.0878
 3759SOL    HW122736   4.695   3.015   3.202 -1.1649  1.5248 -0.1148
 3759SOL    HW222737   4.716   2.965   3.069  1.0484 -0.1461  0.1064
 3760SOL     OW22738   1.382   2.906   9.450  0.1032  0.1903  0.2912
 3760SOL    HW122739   1.318   2.977   9.450  1.7163  1.6368 -1.7609
 3760SOL    HW222740   1.384   2.875   9.541  2.8794  1.8329  0.7841
 3761SOL     OW22741   0.556   1.968   6.752  0.4634  0.6956 -0.4645
 3761SOL    HW122742   0.534   2.028   6.822  0.8500 -0.6094  0.7757
 3761SOL    HW222743   0.649   1.957   6.772  0.4778  1.7007 -0.0165
 3762SOL     OW22744   4.473   0.540   7.696 -0.0987  0.0711 -0.0419
 3762SOL    HW122745   4.425   0.457   7.686  0.4629 -0.2089 -0.4239
 3762SOL    HW222746   4.494   0.555   7.604  2.1118 -2.6435  0.0120
 3763SOL     OW22747   2.392   3.495   1.302 -0.2619  0.5684  0.5214
 3763SOL    HW122748   2.455   3.557   1.263  1.6345 -1.8152 -0.2296
 3763SOL    HW222749   2.432   3.414   1.272 -1.0867  0.4895 -0.3506
 3764SOL     OW22750   3.899   2.188   5.111  0.2518 -0.1084  0.0923
 3764SOL    HW122751   3.979   2.241   5.115 -1.2590  2.1147  0.6156
 3764SOL    HW222752   3.838   2.231   5.170 -0.4907  1.2408 -1.6817
 3765SOL     OW22753   0.916   3.789  13.572  0.7500 -0.7098 -0.1092
 3765SOL    HW122754   0.877   3.703  13.587  0.6608 -0.7425 -0.5429
 3765SOL    HW222755   0.851   3.843  13.617 -0.5933 -2.2599 -0.1839
 3766SOL     OW22756   0.842   3.262  12.627 -0.0339  0.0372  0.0162
 3766SOL    HW122757   0.856   3.274  12.721  1.0860 -0.1795 -0.1284
 3766SOL    HW222758   0.746   3.271  12.624  0.0527  0.9744 -0.0746
 3767SOL     OW22759   1.817   1.760   8.736 -0.6204  0.4524 -0.5676
 3767SOL    HW122760   1.862   1.838   8.703  0.6911 -1.1678 -2.5754
 3767SOL    HW222761   1.827   1.782   8.829  0.4992 -1.6013 -0.2078
 3768SOL     OW22762   2.725   3.834   2.029  0.0011 -0.1031  0.1975
 3768SOL    HW122763   2.781   3.910   2.014 -0.5174  0.0728 -0.8933
 3768SOL    HW222764   2.671   3.864   2.102  0.2482 -0.9769  0.7380
 3769SOL     OW22765   3.426   2.032   3.961 -0.2970 -0.5602 -0.2046
 3769SOL    HW122766   3.445   2.105   4.021  1.1479 -0.8714 -0.2765
 3769SOL    HW222767   3.384   2.080   3.889  1.9772 -0.2020 -1.3076
 3770SOL     OW22768   0.135   0.171  12.106  0.5875 -0.2724  0.0721
 3770SOL    HW122769   0.189   0.222  12.045  0.3111 -0.0181  0.0434
 3770SOL    HW222770   0.122   0.233  12.179 -0.8669 -0.8830  0.3220
 3771SOL     OW22771   2.319   1.589   5.497 -0.4198 -0.6265 -0.1236
 3771SOL    HW122772   2.247   1.649   5.477  0.0250  0.0032  0.1380
 3771SOL    HW222773   2.293   1.505   5.534 -0.5529 -0.6875 -0.3611
 3772SOL     OW22774   4.110   0.458   0.918  0.0322 -0.0350 -0.2528
 3772SOL    HW122775   4.063   0.495   0.993  1.0774 -0.0294  0.3860
 3772SOL    HW222776   4.105   0.532   0.858  2.8685 -1.3358 -2.0846
 3773SOL     OW22777   2.924   2.572   6.069 -0.0763  0.5543 -0.1532
 3773SOL    HW122778   2.853   2.609   6.016 -0.1826 -0.4225 -0.6795
 3773SOL    HW222779   2.930   2.484   6.032  1.1933 -0.2259  1.9120
 3774SOL     OW22780   3.370   4.401   4.156 -0.1816 -0.3947  0.0627
 3774SOL    HW122781   3.310   4.425   4.086  0.2499 -1.9521 -0.8489
 3774SOL    HW222782   3.326   4.410   4.241 -1.4929 -1.3941 -0.4976
 3775SOL     OW22783   3.763   4.134   1.952  0.0435  0.0206  0.3464
 3775SOL    HW122784   3.839   4.152   1.897 -0.9179  0.0396 -1.0049
 3775SOL    HW222785   3.768   4.203   2.018 -1.2748 -1.6268  2.1827
 3776SOL     OW22786   3.857   0.833   3.601 -0.2683 -0.2347 -0.7728
 3776SOL    HW122787   3.832   0.776   3.528 -2.1712 -1.5021  0.8679
 3776SOL    HW222788   3.947   0.803   3.617  0.0707  1.3992  0.3772
 3777SOL     OW22789   2.386   2.169  16.291  0.0042 -0.0080  0.2425
 3777SOL    HW122790   2.462   2.113  16.299  0.1489  0.2272  0.5085
 3777SOL    HW222791   2.360   2.155  16.200 -1.6650 -2.0154  1.0450
 3778SOL     OW22792   2.255   0.607  15.034 -0.3076  0.3729 -0.2791
 3778SOL    HW122793   2.202   0.682  15.008 -1.8776  0.4071  2.9651
 3778SOL    HW222794   2.323   0.616  14.967 -0.8082 -0.7132 -0.9314
 3779SOL     OW22795   3.313   4.401   6.157  0.5652 -0.1845 -0.5446
 3779SOL    HW122796   3.301   4.395   6.062 -1.4252  0.8414 -0.3588
 3779SOL    HW222797   3.230   4.374   6.195  0.9687 -1.2408 -0.4280
 3780SOL     OW22798   2.432   2.563  12.584 -0.4543  0.8365  0.0817
 3780SOL    HW122799   2.432   2.473  12.552  0.0753  1.4330 -1.5390
 3780SOL    HW222800   2.453   2.613  12.506  2.3714 -0.2596  0.1448
 3781SOL     OW22801   3.341   0.077   9.762 -0.0459  1.0988  0.1013
 3781SOL    HW122802   3.300   0.096   9.846 -0.9460  2.1066 -0.5587
 3781SOL    HW222803   3.417   0.135   9.756 -1.1696  2.5099 -0.3482
 3782SOL     OW22804   0.553   2.717   9.508 -0.5193 -0.1899  0.0616
 3782SOL    HW122805   0.489   2.646   9.501 -0.3198 -0.5390  1.7871
 3782SOL    HW222806   0.616   2.645   9.518  0.1664  0.4717  0.4874
 3783SOL     OW22807   3.885   0.312   0.809 -0.2725 -0.7386 -0.1213
 3783SOL    HW122808   3.976   0.306   0.838 -0.0543  0.7733 -0.5140
 3783SOL    HW222809   3.837   0.367   0.872  0.9450  1.0167 -0.7437
 3784SOL     OW22810   4.173   3.899  13.753  0.0137 -0.0333  0.2631
 3784SOL    HW122811   4.227   3.837  13.802 -0.9904 -1.0786  0.0316
 3784SOL    HW222812   4.178   3.976  13.810 -1.4624 -0.5806  1.1312
 3785SOL     OW22813   1.025   1.175   3.982  0.3232  0.0121 -0.0928
 3785SOL    HW122814   0.970   1.229   4.039  0.2139 -0.1527 -0.0427
 3785SOL    HW222815   1.037   1.241   3.913  0.3442 -1.3470 -1.3924
 3786SOL     OW22816   0.685   0.659  13.697  0.3707 -0.2906  1.0495
 3786SOL    HW122817   0.742   0.727  13.732  0.3034 -0.2856  1.1501
 3786SOL    HW222818   0.750   0.631  13.633 -1.1497  0.7821 -0.9681
 3787SOL     OW22819   4.217   3.789   2.777  0.6901  0.4988 -0.1516
 3787SOL    HW122820   4.210   3.847   2.701 -0.7189  1.3287  0.6082
 3787SOL    HW222821   4.128   3.756   2.793  0.9279  1.0152  2.2693
 3788SOL     OW22822   3.081   0.093   2.295 -0.1717  0.5011 -0.0031
 3788SOL    HW122823   3.017   0.026   2.274 -0.5119  0.3747  1.4351
 3788SOL    HW222824   3.078   0.079   2.389 -0.1240  0.6200  0.0169
 3789SOL     OW22825   3.976   4.637   0.721 -0.5785  0.1567  0.3449
 3789SOL    HW122826   4.041   4.679   0.666 -2.6090  0.3279 -1.9343
 3789SOL    HW222827   3.908   4.604   0.663 -2.1004  2.5473  0.7564
 3790SOL     OW22828   2.625   2.920  16.465  0.0294  0.3128  0.5375
 3790SOL    HW122829   2.599   2.857  16.398  0.1186 -0.7767  1.5229
 3790SOL    HW222830   2.721   2.921  16.463 -0.0267 -0.6441 -1.8099
 3791SOL     OW22831   3.781   4.692   7.551  0.0376  0.5169 -0.0571
 3791SOL    HW122832   3.783   4.634   7.627 -1.2613 -0.9539 -1.1300
 3791SOL    HW222833   3.876   4.698   7.537  0.2189 -0.8139  0.5699
 3792SOL     OW22834   4.424   1.474   7.096  0.2957 -0.3741  0.3451
 3792SOL    HW122835   4.444   1.396   7.044  0.1851  0.8411 -1.4975
 3792SOL    HW222836   4.401   1.537   7.028  2.0581 -0.4499 -0.3104
 3793SOL     OW22837   0.947   4.267   6.791  0.1610  0.6796 -0.2260
 3793SOL    HW122838   0.955   4.209   6.715  0.8530  0.5089 -0.0215
 3793SOL    HW222839   0.853   4.280   6.807 -0.7011 -2.7926 -2.4527
 3794SOL     OW22840   1.107   0.180   0.369 -0.2697 -0.5115 -0.0896
 3794SOL    HW122841   1.137   0.243   0.434 -2.9135  0.1464  0.5146
 3794SOL    HW222842   1.186   0.128   0.360  0.2499  0.6066 -1.9511
 3795SOL     OW22843   3.433   2.240   6.809  0.0932  0.4480  0.5037
 3795SOL    HW122844   3.506   2.245   6.748 -0.1332  1.0373  0.2904
 3795SOL    HW222845   3.430   2.327   6.847  1.9918  1.5165 -1.8103
 3796SOL     OW22846   1.285   2.774   9.195 -0.5976 -0.0888 -0.5074
 3796SOL    HW122847   1.314   2.852   9.148 -0.7853  1.7835  2.4700
 3796SOL    HW222848   1.317   2.793   9.283  0.7835 -2.0158 -0.5991
 3797SOL     OW22849   3.646   3.158   6.944  0.1925 -0.5333 -0.2892
 3797SOL    HW122850   3.736   3.130   6.960  0.7478  0.1891 -2.1217
 3797SOL    HW222851   3.598   3.077   6.933  0.0360 -0.2853 -1.4138
 3798SOL     OW22852   0.583   1.114  17.471  0.1635  0.0348 -0.1602
 3798SOL    HW122853   0.506   1.140  17.521  0.2036 -0.0797 -0.0396
 3798SOL    HW222854   0.644   1.182  17.499  2.1269 -1.6987 -0.2074
 3799SOL     OW22855   4.021   0.177   9.194  0.4537  0.2971  0.0481
 3799SOL    HW122856   3.926   0.184   9.196  0.3408 -1.6983  1.5400
 3799SOL    HW222857   4.044   0.241   9.127 -0.5328 -0.0052 -0.5717
 3800SOL     OW22858   3.582   4.330  16.249 -0.5050 -0.4815  0.1694
 3800SOL    HW122859   3.572   4.259  16.312  0.1640  0.6037  1.4851
 3800SOL    HW222860   3.566   4.288  16.164 -1.3427 -1.4550  0.8229
 3801SOL     OW22861   3.397   3.904   2.681  0.2483  0.3095 -0.7325
 3801SOL    HW122862   3.403   3.996   2.706  0.7768  0.1547 -0.2910
 3801SOL    HW222863   3.410   3.862   2.766  1.0889  0.2458 -0.8972
 3802SOL     OW22864   2.008   2.397  11.446  0.4566 -0.0412 -0.4560
 3802SOL    HW122865   1.941   2.432  11.387 -1.9234 -2.0562  1.0729
 3802SOL    HW222866   1.985   2.305  11.461 -0.7159  0.1674 -0.9750
 3803SOL     OW22867   4.017   3.858  14.521 -0.2298  0.3053  0.2267
 3803SOL    HW122868   4.059   3.829  14.440 -2.9307 -0.4235 -0.9224
 3803SOL    HW222869   4.089   3.899  14.568  0.0461  1.3222 -1.0611
 3804SOL     OW22870   1.965   1.175   5.576  0.2501  0.4857 -0.0794
 3804SOL    HW122871   1.872   1.170   5.597 -0.2221 -0.6207 -2.4919
 3804SOL    HW222872   1.985   1.091   5.617  0.3503  0.1563 -0.8016
 3805SOL     OW22873   1.528   2.446   8.640  0.1048  0.6257  0.4236
 3805SOL    HW122874   1.465   2.375   8.652  0.1155  1.0772  3.1360
 3805SOL    HW222875   1.466   2.510   8.608 -0.7132  0.2629  1.2884
 3806SOL     OW22876   1.713   0.854   8.291 -0.2002  0.1278 -0.0646
 3806SOL    HW122877   1.632   0.878   8.246  0.7634  1.1803 -1.2442
 3806SOL    HW222878   1.675   0.796   8.357  0.9034  0.2833  0.7134
 3807SOL     OW22879   1.317   3.333   3.396  0.3258 -0.3945 -0.2014
 3807SOL    HW122880   1.255   3.399   3.366  1.5738  1.9072  2.3066
 3807SOL    HW222881   1.312   3.266   3.328  0.8445  0.0877 -0.7098
 3808SOL     OW22882   1.986   3.933   9.626  0.2494  0.6137  0.3151
 3808SOL    HW122883   2.008   4.025   9.617  3.7208 -0.1276  1.4836
 3808SOL    HW222884   2.025   3.889   9.551 -1.8012  0.3136 -0.5715
 3809SOL     OW22885   1.326   1.763   4.505 -0.0087  0.3613  0.3455
 3809SOL    HW122886   1.365   1.829   4.448 -1.2436 -0.4996 -1.4834
 3809SOL    HW222887   1.354   1.681   4.464  0.3988  1.5684 -1.7565
 3810SOL     OW22888   3.773   3.195   7.585  0.1435  0.1130  0.0534
 3810SOL    HW122889   3.821   3.113   7.579 -2.3918 -1.4343  1.1858
 3810SOL    HW222890   3.841   3.261   7.600 -0.8414  1.6634 -2.2958
 3811SOL     OW22891   3.788   1.403   8.410  0.4347 -0.1590  0.5046
 3811SOL    HW122892   3.881   1.383   8.419  0.6777  0.7336 -0.0766
 3811SOL    HW222893   3.770   1.345   8.336  2.5004  0.6296 -0.6107
 3812SOL     OW22894   0.921   2.410   3.843  0.1654  0.0641  0.0997
 3812SOL    HW122895   0.919   2.400   3.748 -1.4981 -2.3874  0.3920
 3812SOL    HW222896   0.836   2.453   3.848 -0.5791 -1.2835 -0.6983
 3813SOL     OW22897   1.431   4.039  15.894  0.7626  0.2346  0.2675
 3813SOL    HW122898   1.474   4.121  15.919  0.5737  0.0310  1.2572
 3813SOL    HW222899   1.506   3.982  15.906  1.4337  0.3454 -3.1466
 3814SOL     OW22900   4.713   0.913  10.489 -0.0556 -0.1401 -0.3021
 3814SOL    HW122901   4.703   0.976  10.561  1.4232  0.5908 -0.7252
 3814SOL    HW222902   0.002   0.977  10.420 -0.8091 -0.6784 -0.9331
 3815SOL     OW22903   2.430   1.588  12.061  0.3028 -0.1578  0.1527
 3815SOL    HW122904   2.484   1.511  12.079 -2.3383 -2.2138 -0.6266
 3815SOL    HW222905   2.472   1.615  11.980  0.2503 -1.7241 -0.4018
 3816SOL     OW22906   0.973   0.663   0.962  0.3925  0.0732  0.0750
 3816SOL    HW122907   1.048   0.633   0.910 -0.5565 -0.0913 -1.2102
 3816SOL    HW222908   0.940   0.581   1.000  0.4234  1.5816  3.3172
 3817SOL     OW22909   0.426   0.179   3.747 -0.1856 -0.0358  0.4076
 3817SOL    HW122910   0.481   0.228   3.686  1.0711  0.3104  1.8244
 3817SOL    HW222911   0.399   0.246   3.810  0.2406 -0.9016  1.5229
 3818SOL     OW22912   1.230   2.613   4.925  0.4929 -0.4002  0.1700
 3818SOL    HW122913   1.213   2.578   4.837  1.7660 -1.3211  0.2894
 3818SOL    HW222914   1.197   2.539   4.976  2.6133 -1.7533 -0.4064
 3819SOL     OW22915   0.684   4.276   7.466 -0.1758  0.1263 -0.3549
 3819SOL    HW122916   0.725   4.237   7.389  0.1360  1.2859 -0.7862
 3819SOL    HW222917   0.727   4.239   7.543 -1.4855 -1.0739 -0.2028
 3820SOL     OW22918   3.318   4.051  11.455 -0.4490 -0.2380 -0.1771
 3820SOL    HW122919   3.339   4.106  11.379 -2.6150  0.1662 -0.4583
 3820SOL    HW222920   3.350   3.961  11.439  1.5368  0.2899  0.7604
 3821SOL     OW22921   2.718   0.648   8.929 -0.3942 -0.3644  0.2227
 3821SOL    HW122922   2.723   0.707   8.854 -0.5326 -0.1570  0.3732
 3821SOL    HW222923   2.666   0.703   8.988  0.8078 -0.0372  0.9679
 3822SOL     OW22924   0.198   4.702  17.662 -0.1603  0.5074 -0.4897
 3822SOL    HW122925   0.288   4.671  17.668  0.1070  1.4907  0.4939
 3822SOL    HW222926   0.196   0.016  17.574 -0.0863 -1.6268 -1.3978
 3823SOL     OW22927   1.145   2.566   5.902 -0.2544 -0.2934  0.1660
 3823SOL    HW122928   1.176   2.499   5.964 -1.9419 -0.6308  0.6707
 3823SOL    HW222929   1.162   2.642   5.957 -3.0219  1.2255 -1.0977
 3824SOL     OW22930   4.271   1.437   5.569  1.1354 -0.0369  0.7243
 3824SOL    HW122931   4.257   1.375   5.497 -0.9283  1.1344  0.1342
 3824SOL    HW222932   4.320   1.381   5.630 -1.4766 -2.9523  0.1919
 3825SOL     OW22933   3.170   0.733   2.202  0.2358 -0.4042 -0.0639
 3825SOL    HW122934   3.218   0.651   2.189 -0.8576 -1.2711  1.3757
 3825SOL    HW222935   3.084   0.694   2.215 -0.0836 -0.4162 -2.1049
 3826SOL     OW22936   0.404   1.410   6.088 -0.0292 -0.2824 -0.4855
 3826SOL    HW122937   0.351   1.488   6.104 -0.6665 -1.0042  0.9378
 3826SOL    HW222938   0.364   1.377   6.007 -1.0541  0.2342 -0.1922
 3827SOL     OW22939   1.845   1.308  12.461  0.5278  0.2725 -0.1218
 3827SOL    HW122940   1.864   1.222  12.423  0.1274  0.4256 -0.6804
 3827SOL    HW222941   1.768   1.280  12.511  0.2134  1.6642  0.1561
 3828SOL     OW22942   2.831   2.806   2.531 -0.5128  0.1562 -0.0534
 3828SOL    HW122943   2.858   2.813   2.623 -0.3539 -0.9762 -0.0126
 3828SOL    HW222944   2.754   2.862   2.529 -1.1999 -0.7758  0.4132
 3829SOL     OW22945   2.739   2.978   5.911 -0.0479 -0.1154  0.4399
 3829SOL    HW122946   2.736   3.013   6.000 -1.3608  2.3412 -0.5754
 3829SOL    HW222947   2.826   3.003   5.879 -0.5783  1.9390  0.6214
 3830SOL     OW22948   4.126   4.161   4.926 -0.5020 -0.3780 -0.1484
 3830SOL    HW122949   4.209   4.197   4.895 -0.3802 -0.2236  0.3575
 3830SOL    HW222950   4.060   4.156   4.856 -1.1382 -1.9496  0.5545
 3831SOL     OW22951   1.448   1.292   5.447  0.0737  0.4654 -0.4325
 3831SOL    HW122952   1.453   1.375   5.400 -3.7337  0.5846 -0.6205
 3831SOL    HW222953   1.379   1.310   5.511 -0.0738  3.1017 -1.3441
 3832SOL     OW22954   0.562   4.307   4.022  0.5189  0.0425 -0.0516
 3832SOL    HW122955   0.623   4.243   3.985  2.1753  2.1717 -0.9494
 3832SOL    HW222956   0.542   4.361   3.946  0.1271 -1.5721 -1.1030
 3833SOL     OW22957   3.921   2.268   4.699 -0.6226  0.4165 -0.2140
 3833SOL    HW122958   3.971   2.269   4.617  0.6279 -1.0982  0.5218
 3833SOL    HW222959   3.922   2.172   4.706 -0.4809  0.3683 -0.8678
 3834SOL     OW22960   2.809   1.007   8.012 -0.3112  0.2541  0.1795
 3834SOL    HW122961   2.844   1.042   8.095  0.6821  0.0664 -0.1560
 3834SOL    HW222962   2.715   1.010   8.026 -0.7811 -0.8149 -2.7882
 3835SOL     OW22963   0.964   0.209   8.805 -0.3590 -0.0680  0.4400
 3835SOL    HW122964   0.956   0.277   8.738 -2.5723 -0.4043  0.3816
 3835SOL    HW222965   1.058   0.205   8.826 -0.9895 -3.1838  2.6233
 3836SOL     OW22966   1.941   4.024   5.440  0.0585 -0.2879 -0.4929
 3836SOL    HW122967   2.002   4.029   5.367  0.9274 -2.7076  0.0631
 3836SOL    HW222968   1.988   3.960   5.494 -0.3983  0.7731  1.1631
 3837SOL     OW22969   1.138   1.528   2.654  0.4105  0.8711 -0.1722
 3837SOL    HW122970   1.209   1.515   2.716  0.5157 -0.9846 -0.6778
 3837SOL    HW222971   1.070   1.472   2.693 -0.7092  1.4821 -1.2268
 3838SOL     OW22972   0.642   3.454  10.546 -0.0560  0.0004 -0.4310
 3838SOL    HW122973   0.610   3.522  10.605  1.3268  0.9663 -0.8126
 3838SOL    HW222974   0.564   3.398  10.539  0.9278 -1.6118  1.3934
 3839SOL     OW22975   2.374   0.605  17.617 -0.3017 -0.2897  0.2689
 3839SOL    HW122976   2.431   0.566  17.551 -0.8543 -1.9922  0.8209
 3839SOL    HW222977   2.386   0.698  17.595 -1.2681 -0.2092  0.0927
 3840SOL     OW22978   0.944   3.353   6.458 -0.3221  0.7335 -0.6335
 3840SOL    HW122979   0.936   3.294   6.533  2.0926 -0.6157 -1.4429
 3840SOL    HW222980   0.978   3.295   6.390  3.4733  2.7573 -0.4914
 3841SOL     OW22981   1.145   2.874   4.440 -0.3313  0.6038  0.2687
 3841SOL    HW122982   1.209   2.839   4.377  0.8158  3.3338 -0.0623
 3841SOL    HW222983   1.065   2.844   4.397  0.7529  0.1971 -1.4905
 3842SOL     OW22984   1.858   0.378   4.260  0.0034 -0.5338 -0.3862
 3842SOL    HW122985   1.769   0.357   4.288 -0.4203  2.2864  0.3794
 3842SOL    HW222986   1.866   0.333   4.176 -2.1756 -1.5096 -0.0563
 3843SOL     OW22987   3.405   4.589   8.533  0.3705 -0.2943  0.7295
 3843SOL    HW122988   3.459   4.649   8.584 -1.0794 -0.2590  2.2101
 3843SOL    HW222989   3.382   4.630   8.449  0.2708  2.1020  1.9292
 3844SOL     OW22990   1.486   0.071   0.015 -0.1435  0.6595 -0.4548
 3844SOL    HW122991   1.577   0.053  17.688 -0.5118 -1.0868 -0.5023
 3844SOL    HW222992   1.456   0.148  17.662  0.7792  1.6440  0.5139
 3845SOL     OW22993   1.352   1.973   6.453  0.3420 -0.2342 -0.1267
 3845SOL    HW122994   1.333   2.054   6.499  2.7230  1.3359 -1.9138
 3845SOL    HW222995   1.445   1.982   6.431 -0.3622  0.3623 -2.8452
 3846SOL     OW22996   3.471   2.335   3.409  0.3504  0.3655  0.1805
 3846SOL    HW122997   3.392   2.387   3.400  0.5075  0.5341 -0.2441
 3846SOL    HW222998   3.522   2.380   3.476 -2.9272  1.6810  1.7182
 3847SOL     OW22999   1.640   4.607  17.198 -0.4504  0.0507 -0.7169
 3847SOL    HW123000   1.607   4.694  17.178 -0.5139  0.3785  0.8268
 3847SOL    HW223001   1.599   4.580  17.280  1.8155 -1.9684 -0.2412
 3848SOL     OW23002   4.436   4.474   8.248  0.1693  0.5843 -0.8443
 3848SOL    HW123003   4.342   4.486   8.263  0.2828  0.3105  0.0980
 3848SOL    HW223004   4.463   4.438   8.332 -1.0335  0.9831 -0.2891
 3849SOL     OW23005   2.942   3.297   8.627  0.1941  0.2330  0.0846
 3849SOL    HW123006   3.024   3.311   8.580  1.3346 -1.2577  1.5893
 3849SOL    HW223007   2.899   3.227   8.578  0.2447 -0.5068  1.0858
 3850SOL     OW23008   0.491   3.743   4.269  0.2556 -0.1119 -0.2401
 3850SOL    HW123009   0.507   3.806   4.199  0.7139 -2.4443 -2.2785
 3850SOL    HW223010   0.551   3.672   4.246  0.1942  0.0811 -0.9984
 3851SOL     OW23011   2.768   2.447   2.217  0.2433 -0.0021 -0.1283
 3851SOL    HW123012   2.765   2.362   2.172  1.5139  0.3676 -0.8846
 3851SOL    HW223013   2.689   2.448   2.272  1.0296  1.8958  0.9690
 3852SOL     OW23014   0.718   2.376  17.468  0.3752 -0.1289  1.0041
 3852SOL    HW123015   0.785   2.311  17.447  0.3332  0.4675 -1.0542
 3852SOL    HW223016   0.707   2.361  17.561 -2.6562 -1.0241  0.5035
 3853SOL     OW23017   4.581   2.899   2.895 -0.4873  0.4179 -0.1919
 3853SOL    HW123018   4.500   2.849   2.904 -0.5198  0.5825  0.4696
 3853SOL    HW223019   4.555   2.972   2.839  3.2121  1.3782 -0.6044
 3854SOL     OW23020   0.512   3.667   6.469  0.0676 -0.2029  0.0837
 3854SOL    HW123021   0.468   3.720   6.402  0.1681  0.9641  0.9475
 3854SOL    HW223022   0.575   3.616   6.420 -1.4106 -1.6570 -0.3132
 3855SOL     OW23023   2.459   0.233  14.076  0.6716  0.1873 -0.5129
 3855SOL    HW123024   2.371   0.221  14.041  0.7132  0.6938 -0.7911
 3855SOL    HW223025   2.486   0.310  14.026 -1.2127  1.6396  0.7408
 3856SOL     OW23026   4.395   1.745   7.455 -0.1833 -0.4980 -0.2405
 3856SOL    HW123027   4.399   1.660   7.499 -0.1819  0.0559  0.8336
 3856SOL    HW223028   4.448   1.793   7.518  1.1780 -1.7093 -0.4767
 3857SOL     OW23029   2.081   3.412   3.144  0.2079 -0.1418  0.8393
 3857SOL    HW123030   2.155   3.404   3.083 -0.1185 -1.3261  0.6114
 3857SOL    HW223031   2.065   3.505   3.131 -2.1184 -0.6686  0.0559
 3858SOL     OW23032   2.136   1.592   3.934 -0.0408  0.2786  0.5471
 3858SOL    HW123033   2.154   1.498   3.926 -0.2378  0.2201  0.8034
 3858SOL    HW223034   2.058   1.580   3.988  0.7410 -0.6406  1.4733
 3859SOL     OW23035   2.630   1.182   3.083  0.2393  0.1549  0.2445
 3859SOL    HW123036   2.536   1.201   3.088  0.4639  1.2896  0.1743
 3859SOL    HW223037   2.671   1.265   3.109 -0.6579  0.2438  1.4011
 3860SOL     OW23038   2.716   2.011   2.058 -0.2616  0.3458  0.1414
 3860SOL    HW123039   2.626   1.988   2.084 -0.3835  0.4546 -0.1816
 3860SOL    HW223040   2.694   2.078   1.993 -0.3280  0.3068  0.1238
 3861SOL     OW23041   0.432   0.786  13.631 -0.2313 -0.0482  0.3005
 3861SOL    HW123042   0.453   0.788  13.537  0.6899  1.0515  0.5233
 3861SOL    HW223043   0.511   0.734  13.649 -1.8452 -1.9284  1.9155
 3862SOL     OW23044   1.303   1.959   4.942  0.1942  0.3025  0.1472
 3862SOL    HW123045   1.389   1.965   4.900  0.1872 -3.2568 -0.3846
 3862SOL    HW223046   1.269   2.048   4.943  1.7584  0.9009 -1.2246
 3863SOL     OW23047   2.324   3.626  17.576  0.4324  0.2098  0.8392
 3863SOL    HW123048   2.278   3.665  17.649  2.0387  2.3880  0.6869
 3863SOL    HW223049   2.391   3.693  17.562  1.1097 -0.6532 -0.0904
 3864SOL     OW23050   3.044   1.636   5.927 -0.2475 -0.2363 -0.0979
 3864SOL    HW123051   2.951   1.634   5.950 -0.2165  3.0084  0.3467
 3864SOL    HW223052   3.081   1.638   6.015 -1.4378 -1.2927  0.4250
 3865SOL     OW23053   0.698   4.596   2.661  0.0304  0.0803  0.2274
 3865SOL    HW123054   0.712   4.627   2.750  2.2119  2.3394 -0.8858
 3865SOL    HW223055   0.760   4.526   2.641  1.6901  1.1030  1.9161
 3866SOL     OW23056   4.226   0.976   3.304  0.3662  0.8723 -0.0983
 3866SOL    HW123057   4.160   1.035   3.340 -0.6507  0.2920 -1.0258
 3866SOL    HW223058   4.225   1.014   3.216 -0.8961  1.5220  0.2006
 3867SOL     OW23059   2.446   2.745   0.432  0.1839 -0.2669  0.5483
 3867SOL    HW123060   2.492   2.661   0.429  0.9704  0.2159 -1.1133
 3867SOL    HW223061   2.424   2.745   0.525  3.4236 -0.0082  1.3123
 3868SOL     OW23062   4.609   1.244   0.486  0.2741  0.4895  0.3118
 3868SOL    HW123063   4.638   1.237   0.395 -0.4137  0.6805  0.0786
 3868SOL    HW223064   4.535   1.184   0.494  0.2761  1.0725  4.5464
 3869SOL     OW23065   0.461   4.409   4.450 -0.2859 -0.3291  0.3062
 3869SOL    HW123066   0.440   4.474   4.383 -1.7848  0.1991  1.2911
 3869SOL    HW223067   0.418   4.457   4.521  0.5846  1.0769 -0.1157
 3870SOL     OW23068   2.419   1.209   0.545  0.0594  0.0775 -0.1378
 3870SOL    HW123069   2.454   1.206   0.634 -0.9001  0.2669  0.2531
 3870SOL    HW223070   2.355   1.280   0.544  1.4261  1.2772 -0.6181
 3871SOL     OW23071   3.235   2.568  12.334  0.3586 -0.2984 -0.0513
 3871SOL    HW123072   3.205   2.492  12.285 -1.7821  0.5052  0.0292
 3871SOL    HW223073   3.323   2.587  12.300  0.6631 -1.8299 -0.0871
 3872SOL     OW23074   0.450   0.283  10.012 -0.2879  0.1046 -0.5400
 3872SOL    HW123075   0.472   0.337   9.936  2.5777 -1.8007 -1.0743
 3872SOL    HW223076   0.400   0.210   9.975 -5.6858  1.3899  4.3261
 3873SOL     OW23077   1.088   3.056   3.585 -0.0174  0.1191 -0.1548
 3873SOL    HW123078   1.040   3.025   3.662 -1.3915  3.2964  0.2644
 3873SOL    HW223079   1.159   2.992   3.598 -1.5097 -1.2771  1.1276
 3874SOL     OW23080   1.232   0.318   8.650 -0.5113 -0.6292 -0.2338
 3874SOL    HW123081   1.147   0.348   8.620  0.1386  1.1798 -0.2604
 3874SOL    HW223082   1.211   0.260   8.723 -1.4375 -1.3934 -1.1127
 3875SOL     OW23083   3.436   4.708  12.785  0.0962  0.0615 -0.4113
 3875SOL    HW123084   3.342   0.001  12.796  0.1168  0.9559 -1.6019
 3875SOL    HW223085   3.467   0.067  12.748  3.2058 -0.9514 -0.0486
 3876SOL     OW23086   3.196   2.641  15.646  0.0506  0.0534  0.1049
 3876SOL    HW123087   3.221   2.694  15.722 -2.2123 -0.4855  1.2218
 3876SOL    HW223088   3.131   2.583  15.686  0.2919 -0.7097 -0.6151
 3877SOL     OW23089   1.406   2.144   7.870 -0.3136  0.2281 -0.3315
 3877SOL    HW123090   1.316   2.157   7.899 -0.3943 -0.9086 -0.0602
 3877SOL    HW223091   1.425   2.060   7.913 -2.7416  1.0957  2.3807
 3878SOL     OW23092   3.181   2.012   3.525  0.3555  0.5158  0.0593
 3878SOL    HW123093   3.231   2.041   3.601  0.0890  1.3606 -0.0860
 3878SOL    HW223094   3.251   2.025   3.461  2.2040 -1.1380  1.7534
 3879SOL     OW23095   3.426   2.111   4.975 -0.0722 -0.3161 -0.5061
 3879SOL    HW123096   3.350   2.143   4.927  0.1774 -1.6426 -1.7608
 3879SOL    HW223097   3.495   2.177   4.971 -1.1891  0.8477 -0.7421
 3880SOL     OW23098   4.464   2.406   6.800  0.3242 -0.1419 -0.4149
 3880SOL    HW123099   4.383   2.457   6.792  0.3246 -0.3177 -1.4929
 3880SOL    HW223100   4.523   2.480   6.783  0.1323  0.6926  2.4774
 3881SOL     OW23101   1.434   3.809  14.408 -0.0686 -0.2116 -0.4216
 3881SOL    HW123102   1.343   3.820  14.437 -0.9269 -3.9499 -1.6987
 3881SOL    HW223103   1.482   3.838  14.486 -0.3331 -0.6536 -0.0941
 3882SOL     OW23104   2.391   2.492   8.184  0.2849 -0.1761 -0.0160
 3882SOL    HW123105   2.405   2.401   8.210 -0.6391 -0.0987  0.7291
 3882SOL    HW223106   2.380   2.548   8.261  1.3991  0.3699 -0.2510
 3883SOL     OW23107   2.893   1.738   9.763 -0.1998  0.2196  0.1643
 3883SOL    HW123108   2.919   1.753   9.672 -1.1937 -1.1503 -0.3605
 3883SOL    HW223109   2.848   1.820   9.782  0.8817  1.0679 -0.9700
 3884SOL     OW23110   0.494   0.267   4.057 -0.2005 -0.2985 -0.1876
 3884SOL    HW123111   0.414   0.228   4.021 -0.0456 -1.3882  0.6759
 3884SOL    HW223112   0.495   0.243   4.149  0.4373 -0.8782 -0.3433
 3885SOL     OW23113   0.902   3.832   7.516  0.8632  0.3518  0.2629
 3885SOL    HW123114   0.825   3.777   7.504  0.0510  1.0754  2.1593
 3885SOL    HW223115   0.865   3.902   7.463 -0.7631 -2.0488 -1.7547
 3886SOL     OW23116   1.589   3.425   5.993  0.8453  0.0559  0.2961
 3886SOL    HW123117   1.494   3.424   5.983  0.8902 -0.3247 -0.0870
 3886SOL    HW223118   1.620   3.442   5.904 -0.2590 -0.7025 -0.2322
 3887SOL     OW23119   0.336   1.579   5.739 -0.0558  0.1389  0.4051
 3887SOL    HW123120   0.373   1.637   5.805 -2.4028  1.3385  0.6632
 3887SOL    HW223121   0.401   1.510   5.727 -2.2182 -2.0088  1.2038
 3888SOL     OW23122   1.338   1.541   6.620 -0.2440  0.5093  0.6654
 3888SOL    HW123123   1.372   1.596   6.690 -0.6616  0.5669  0.8239
 3888SOL    HW223124   1.303   1.470   6.674 -2.3905  0.9322 -0.1452
 3889SOL     OW23125   4.411   4.490   7.330  0.5785  0.4098 -0.0395
 3889SOL    HW123126   4.499   4.458   7.309  0.6268 -1.1767  2.5745
 3889SOL    HW223127   4.373   4.496   7.242  0.8296  1.3192 -0.0816
 3890SOL     OW23128   4.389   1.491   7.586 -0.2921 -0.8086  0.2788
 3890SOL    HW123129   4.473   1.514   7.625  1.0441 -2.2611 -1.7274
 3890SOL    HW223130   4.392   1.397   7.604  0.3604 -1.2065 -1.8714
 3891SOL     OW23131   0.102   1.704   3.420  0.4827 -0.0182  0.2137
 3891SOL    HW123132   0.023   1.677   3.372  0.3471 -0.7044  0.8154
 3891SOL    HW223133   0.069   1.761   3.489 -0.3408  1.0167 -1.0238
 3892SOL     OW23134   2.376   0.730   6.957 -0.1016 -0.3017 -0.5202
 3892SOL    HW123135   2.451   0.700   7.008  0.9658  2.7145 -0.2826
 3892SOL    HW223136   2.419   0.807   6.919  1.2007 -1.0181 -0.5031
 3893SOL     OW23137   2.577   2.810  13.222 -0.1594 -0.0343  0.2752
 3893SOL    HW123138   2.527   2.818  13.140  0.9384 -0.9387 -0.4720
 3893SOL    HW223139   2.614   2.724  13.206  0.3590  0.0019  1.2881
 3894SOL     OW23140   1.015   1.051  17.221  0.1923  0.0803  0.3158
 3894SOL    HW123141   0.991   1.103  17.298  2.2636 -0.3399  1.2369
 3894SOL    HW223142   1.017   1.123  17.158 -0.7907 -0.2952 -0.1468
 3895SOL     OW23143   3.295   2.204  10.627  0.0777  0.3211 -0.1618
 3895SOL    HW123144   3.366   2.232  10.685  1.1829  1.2606 -1.9820
 3895SOL    HW223145   3.224   2.245  10.677  0.1530 -1.3966  1.3835
 3896SOL     OW23146   4.170   0.730  17.117 -0.0174  0.4228 -0.4351
 3896SOL    HW123147   4.138   0.782  17.044  1.2029 -1.0248 -2.0010
 3896SOL    HW223148   4.238   0.675  17.077  2.3851  2.2485  1.1267
 3897SOL     OW23149   1.538   0.408   1.125 -0.3631 -0.3271 -0.1845
 3897SOL    HW123150   1.521   0.314   1.118  1.0415 -0.5607 -0.4868
 3897SOL    HW223151   1.602   0.417   1.055  0.0227 -1.7307 -0.0111
 3898SOL     OW23152   0.276   1.162   5.532  0.2658  0.2995  0.0251
 3898SOL    HW123153   0.218   1.101   5.486  1.9115 -0.8020 -0.5946
 3898SOL    HW223154   0.218   1.226   5.572 -0.3040 -1.0737  1.3809
 3899SOL     OW23155   2.651   3.125   3.570  0.1550  0.4429 -0.0897
 3899SOL    HW123156   2.717   3.169   3.624  1.4915  0.4361 -1.6806
 3899SOL    HW223157   2.667   3.033   3.587  1.4249  0.5740 -0.5816
 3900SOL     OW23158   0.725   3.202   2.602 -0.3774 -0.0573 -0.0242
 3900SOL    HW123159   0.668   3.247   2.541 -1.3616  0.2642  1.1195
 3900SOL    HW223160   0.814   3.215   2.568 -0.3019  0.5224  0.3949
 3901SOL     OW23161   0.049   2.482   1.465  0.2177 -0.4474 -0.1336
 3901SOL    HW123162   0.073   2.574   1.448  1.0447 -0.9119 -1.4240
 3901SOL    HW223163   0.056   2.452   1.375  2.6829 -0.7273  0.1345
 3902SOL     OW23164   3.624   1.034   4.253  0.2122 -0.4201  0.2027
 3902SOL    HW123165   3.589   1.010   4.167 -0.0107  0.4361  0.0492
 3902SOL    HW223166   3.582   0.977   4.317  1.3511 -1.1284  0.3186
 3903SOL     OW23167   2.506   4.100   9.371  0.0287 -0.4232  0.3552
 3903SOL    HW123168   2.542   4.143   9.293  1.5952 -0.6091  0.9845
 3903SOL    HW223169   2.477   4.015   9.338  0.1375  0.5617 -2.2533
 3904SOL     OW23170   1.850   4.037   9.018 -0.2585 -0.0622  0.7740
 3904SOL    HW123171   1.902   4.114   8.999 -0.9124  0.5713  1.5633
 3904SOL    HW223172   1.784   4.067   9.081 -1.3637  1.0290 -0.9109
 3905SOL     OW23173   0.661   1.604   5.842  0.5987 -0.3923  0.3107
 3905SOL    HW123174   0.655   1.576   5.934 -0.5625 -0.4880  0.2140
 3905SOL    HW223175   0.756   1.608   5.841  0.5768 -0.1714 -0.4070
 3906SOL     OW23176   0.507   3.354   3.343  0.1010  0.4369 -0.0041
 3906SOL    HW123177   0.521   3.388   3.254  1.3317 -0.4593 -0.1603
 3906SOL    HW223178   0.532   3.265   3.318 -0.6181  0.2608 -0.0799
 3907SOL     OW23179   0.395   2.306   6.216  0.0521 -0.7474 -0.5772
 3907SOL    HW123180   0.462   2.239   6.231 -0.7122 -1.5145 -0.6388
 3907SOL    HW223181   0.348   2.256   6.150 -0.9599 -1.7711  0.9202
 3908SOL     OW23182   4.320   0.076   7.691 -0.2277 -0.3008 -0.1420
 3908SOL    HW123183   4.313   0.058   7.597  0.3145 -0.1266 -0.2199
 3908SOL    HW223184   4.325   0.171   7.697  1.5378 -0.5297  2.2097
 3909SOL     OW23185   1.469   2.641   3.881 -0.2655  0.5602  0.3094
 3909SOL    HW123186   1.537   2.658   3.816  0.1654  0.2007  0.6626
 3909SOL    HW223187   1.519   2.591   3.945  0.4522 -2.9706 -3.0530
 3910SOL     OW23188   0.544   2.764   7.091 -0.1952 -0.8086  0.2761
 3910SOL    HW123189   0.561   2.757   6.997 -1.7222  0.2093 -0.0679
 3910SOL    HW223190   0.607   2.702   7.129 -1.2700 -1.0400  1.6848
 3911SOL     OW23191   0.583   0.651   0.592  0.2219  0.1213 -0.1343
 3911SOL    HW123192   0.515   0.626   0.654  0.9826 -1.2113  0.1516
 3911SOL    HW223193   0.654   0.684   0.647  0.2079  0.9193 -0.5924
 3912SOL     OW23194   2.312   3.133   0.125 -0.1527 -0.5070  0.3383
 3912SOL    HW123195   2.355   3.066   0.178 -1.1592 -0.7895  0.7965
 3912SOL    HW223196   2.292   3.210   0.178  2.1410  0.1544  0.2518
 3913SOL     OW23197   0.994   1.608   3.777 -0.2140 -0.4735 -0.6428
 3913SOL    HW123198   0.975   1.630   3.685 -0.7590  1.4266 -0.0677
 3913SOL    HW223199   0.904   1.610   3.809 -0.4890 -0.1515 -1.4314
 3914SOL     OW23200   3.031   1.195   2.066 -0.3479  0.0806 -0.1205
 3914SOL    HW123201   2.976   1.179   1.989  0.4277  0.0573 -0.6696
 3914SOL    HW223202   3.076   1.111   2.063  1.5085  1.0189  1.6524
 3915SOL     OW23203   3.059   1.387   4.274 -0.4801 -0.1922 -0.2409
 3915SOL    HW123204   2.971   1.356   4.250 -0.6659  1.0093 -1.1504
 3915SOL    HW223205   3.115   1.311   4.259 -1.1372 -0.3732 -1.8093
 3916SOL     OW23206   1.478   3.023   8.471 -0.6691  0.8230  0.0028
 3916SOL    HW123207   1.441   3.016   8.384  2.1122  2.0553 -1.2966
 3916SOL    HW223208   1.519   2.937   8.481 -0.6924  0.5717 -2.2187
 3917SOL     OW23209   1.878   1.463   8.026 -0.3046 -0.2091  0.1338
 3917SOL    HW123210   1.846   1.417   7.949  0.4843  1.3449 -1.1274
 3917SOL    HW223211   1.900   1.392   8.087  0.4919 -0.8532 -0.9054
 3918SOL     OW23212   0.446   0.550   1.912  0.5276  0.0293 -0.6238
 3918SOL    HW123213   0.439   0.532   1.818  1.7827  1.4863 -1.0084
 3918SOL    HW223214   0.420   0.642   1.906 -0.4919 -0.4139 -3.2770
 3919SOL     OW23215   4.193   1.226   8.225  0.4308  0.0425  0.6373
 3919SOL    HW123216   4.245   1.146   8.236  0.4014  0.3811  3.3590
 3919SOL    HW223217   4.115   1.198   8.274 -2.0468 -0.3587 -3.5514
 3920SOL     OW23218   3.963   0.056  14.538  0.2619  0.4673  0.2086
 3920SOL    HW123219   3.985   0.144  14.505  0.9023  0.5932  0.9687
 3920SOL    HW223220   4.041   0.039  14.590  0.6200 -0.6077 -0.6730
 3921SOL     OW23221   0.627   0.525   2.509 -0.5646 -0.3325  0.2258
 3921SOL    HW123222   0.665   0.512   2.423  0.9945 -0.8298  0.9817
 3921SOL    HW223223   0.607   0.618   2.513 -0.8763 -0.4336  1.1501
 3922SOL     OW23224   1.803   0.172   1.013 -0.2593  0.4002  0.2826
 3922SOL    HW123225   1.843   0.139   1.093 -0.5919  1.9787  1.0834
 3922SOL    HW223226   1.882   0.166   0.959  0.6613 -0.9960  1.7810
 3923SOL     OW23227   3.425   1.207   7.288 -0.1386 -0.1634 -0.2180
 3923SOL    HW123228   3.474   1.255   7.221  0.9874  2.5989  2.5923
 3923SOL    HW223229   3.355   1.271   7.298  1.0911  0.8596  1.8083
 3924SOL     OW23230   0.727   4.577   8.557  0.3482  0.2184 -0.3275
 3924SOL    HW123231   0.791   4.599   8.489 -0.5115 -0.1106 -1.2399
 3924SOL    HW223232   0.751   4.628   8.634 -1.5398  2.3726 -1.1802
 3925SOL     OW23233   4.236   2.306  11.342  0.7817  0.2305 -0.3584
 3925SOL    HW123234   4.290   2.230  11.362 -1.8929 -1.2879  1.1571
 3925SOL    HW223235   4.165   2.271  11.289  1.6606  0.4440 -1.6735
 3926SOL     OW23236   3.541   2.844  17.035  0.1472 -0.1783 -0.2011
 3926SOL    HW123237   3.531   2.852  16.940 -1.4098  1.1578  0.0835
 3926SOL    HW223238   3.460   2.798  17.056  0.5236 -1.2315 -1.0334
 3927SOL     OW23239   3.432   2.000   2.853 -0.1023  0.0651 -0.0922
 3927SOL    HW123240   3.506   2.061   2.855  1.1328 -1.4137  0.2879
 3927SOL    HW223241   3.375   2.049   2.912  0.4316 -1.4194  1.7001
 3928SOL     OW23242   0.943   0.809   7.163 -0.3349 -0.1987 -0.2000
 3928SOL    HW123243   1.015   0.871   7.161  0.4574 -1.0589  1.4922
 3928SOL    HW223244   0.928   0.793   7.069 -2.0586 -0.8656  0.1806
 3929SOL     OW23245   0.663   1.010   3.787 -0.0802  0.9251 -0.3934
 3929SOL    HW123246   0.745   0.973   3.755 -0.5093 -0.2126 -0.1863
 3929SOL    HW223247   0.645   1.074   3.718  0.7814 -0.8730 -2.2869
 3930SOL     OW23248   1.877   2.651   3.317  0.3636  0.3519  0.4965
 3930SOL    HW123249   1.850   2.604   3.396 -0.6004 -0.1149 -0.1013
 3930SOL    HW223250   1.867   2.579   3.255  0.4093  1.1501 -0.4488
 3931SOL     OW23251   0.492   4.148   9.543  0.1219 -0.3460  0.2948
 3931SOL    HW123252   0.424   4.087   9.517  0.3508 -1.2764  1.8714
 3931SOL    HW223253   0.566   4.088   9.553 -0.3809 -0.4904  3.0984
 3932SOL     OW23254   3.486   0.669   8.981  0.0266  0.0752  0.4838
 3932SOL    HW123255   3.453   0.626   9.061  0.1151 -0.6415  0.1396
 3932SOL    HW223256   3.556   0.721   9.020  1.4081 -0.5132 -1.2234
 3933SOL     OW23257   1.317   1.966   2.684 -0.2029  0.3396 -0.2880
 3933SOL    HW123258   1.227   1.990   2.665  0.2605  0.7530 -1.9566
 3933SOL    HW223259   1.310   1.873   2.663  0.7963  0.0066  0.8132
 3934SOL     OW23260   3.712   3.538   5.512 -0.3498 -0.5808  0.1038
 3934SOL    HW123261   3.753   3.453   5.527 -1.1739 -0.7895  1.1948
 3934SOL    HW223262   3.743   3.561   5.425 -1.8518 -2.3238 -0.8988
 3935SOL     OW23263   2.662   4.643   4.142  0.0325  0.0060  0.1834
 3935SOL    HW123264   2.584   4.602   4.179 -1.2939  1.0053 -1.4845
 3935SOL    HW223265   2.639   4.687   4.060 -0.6330  2.5599  1.7390
 3936SOL     OW23266   0.577   4.298   5.443 -0.0017  0.0136 -0.0753
 3936SOL    HW123267   0.508   4.272   5.504  0.4780  0.2459  0.5779
 3936SOL    HW223268   0.627   4.216   5.442  3.0775  1.8746  0.7853
 3937SOL     OW23269   2.425   1.546   7.114 -0.1909  0.4221 -0.1167
 3937SOL    HW123270   2.456   1.557   7.024 -2.3551 -0.4579 -0.9648
 3937SOL    HW223271   2.337   1.582   7.114 -0.1673  0.4879 -1.1088
 3938SOL     OW23272   1.144   2.101   8.775  0.3323 -0.3237 -0.4952
 3938SOL    HW123273   1.181   2.044   8.843 -0.6403  0.0051  0.3240
 3938SOL    HW223274   1.066   2.053   8.748 -0.3938  0.0514  0.9493
 3939SOL     OW23275   0.943   0.504   6.078  0.0469  0.1208  0.0020
 3939SOL    HW123276   0.967   0.508   6.171 -1.1331 -0.9952  0.3583
 3939SOL    HW223277   0.858   0.460   6.078 -0.6552  1.4480  1.2319
 3940SOL     OW23278   2.731   3.920  13.392  0.3855  0.0180  0.3019
 3940SOL    HW123279   2.676   3.847  13.421 -1.2239  0.5536 -1.3801
 3940SOL    HW223280   2.673   3.988  13.426  0.5453  0.0111  0.5898
 3941SOL     OW23281   4.427   0.423   3.202 -0.7626  0.0291  0.1357
 3941SOL    HW123282   4.427   0.447   3.295 -2.5451 -0.7690  0.3444
 3941SOL    HW223283   4.514   0.450   3.173  0.2542 -1.3477  1.8573
 3942SOL     OW23284   0.932   3.558   9.670 -0.0538 -0.0457 -0.1372
 3942SOL    HW123285   0.849   3.510   9.663  0.6162 -1.4024  1.3232
 3942SOL    HW223286   0.979   3.498   9.728  1.0652  1.0557  0.0954
 3943SOL     OW23287   3.057   4.364   4.218 -0.1422  0.4635 -0.2089
 3943SOL    HW123288   3.051   4.453   4.253  1.7343 -0.2976  2.0699
 3943SOL    HW223289   2.973   4.366   4.171  0.6459  2.2851 -1.5138
 3944SOL     OW23290   1.438   0.116   3.835  0.2521  0.0258  0.2381
 3944SOL    HW123291   1.431   0.052   3.764 -0.9813 -0.3134  0.6796
 3944SOL    HW223292   1.475   0.190   3.786  1.6232  0.9402  2.6111
 3945SOL     OW23293   1.191   1.972  14.980  0.4533  0.3649 -0.2770
 3945SOL    HW123294   1.205   1.894  15.034 -1.9324  0.6104  0.7059
 3945SOL    HW223295   1.226   2.044  15.032 -1.1629  1.6746 -0.9866
 3946SOL     OW23296   4.355   4.279  17.554  0.2902  0.3076  0.5014
 3946SOL    HW123297   4.411   4.204  17.533 -0.8951 -1.4714  3.6137
 3946SOL    HW223298   4.420   4.341  17.586  1.9438 -0.6993 -0.8923
 3947SOL     OW23299   0.128   2.065   2.343  0.0245  0.4966  0.7891
 3947SOL    HW123300   0.202   2.122   2.364 -0.3711  2.2564 -2.5851
 3947SOL    HW223301   0.076   2.111   2.278  0.4252  0.8656  0.7289
 3948SOL     OW23302   1.556   4.076   4.263 -0.2316 -0.1580  0.4096
 3948SOL    HW123303   1.472   4.038   4.291 -0.9306  0.8055 -0.3996
 3948SOL    HW223304   1.537   4.165   4.236  3.0241  0.8947  1.6501
 3949SOL     OW23305   3.066   2.965  12.359  0.6516 -0.0110 -0.2017
 3949SOL    HW123306   3.110   3.013  12.290  2.7733  1.4614  2.2057
 3949SOL    HW223307   3.089   3.019  12.434 -3.2858  0.6233  0.5450
 3950SOL     OW23308   1.840   1.935   3.090  0.5239 -0.1770 -0.0980
 3950SOL    HW123309   1.891   1.935   3.170  0.3944 -0.3997 -0.0133
 3950SOL    HW223310   1.756   1.949   3.133  0.3712  1.6315 -0.9891
 3951SOL     OW23311   2.558   0.663  12.965 -0.3896 -0.0494  0.5064
 3951SOL    HW123312   2.623   0.721  13.003 -0.0665 -0.3289  0.3778
 3951SOL    HW223313   2.578   0.582  13.013  1.8739  1.2478  1.7251
 3952SOL     OW23314   3.971   1.558   1.698 -0.0599 -0.3433  0.1871
 3952SOL    HW123315   3.930   1.534   1.780  0.9900 -0.8130  0.5785
 3952SOL    HW223316   4.030   1.631   1.718  1.2449 -1.1613 -0.6150
 3953SOL     OW23317   3.424   3.164   1.383  0.2488 -0.1327 -0.2450
 3953SOL    HW123318   3.378   3.094   1.337  1.0887 -0.0647 -1.1931
 3953SOL    HW223319   3.506   3.166   1.334  0.8253  2.4197  0.8280
 3954SOL     OW23320   0.871   4.107  12.374  0.1429  0.1780 -0.2050
 3954SOL    HW123321   0.791   4.086  12.422  0.1737  1.1271  0.2476
 3954SOL    HW223322   0.874   4.202  12.380  1.9218 -0.0189  1.7996
 3955SOL     OW23323   2.882   4.182   8.577  0.1412  0.6007 -0.3016
 3955SOL    HW123324   2.928   4.249   8.525  0.9423  0.7593  0.6133
 3955SOL    HW223325   2.791   4.210   8.582 -0.0541 -0.3870  1.7303
 3956SOL     OW23326   1.163   0.220   6.328  0.1783  0.4711  0.5807
 3956SOL    HW123327   1.201   0.171   6.401  0.7418 -0.6796 -0.4897
 3956SOL    HW223328   1.078   0.228   6.371 -0.7297  1.7073 -1.4379
 3957SOL     OW23329   3.057   0.786   4.512  0.3616  0.0606 -0.0156
 3957SOL    HW123330   2.965   0.773   4.486  1.0217  2.5593 -3.5561
 3957SOL    HW223331   3.065   0.723   4.583 -0.7555 -0.1491 -0.0726
 3958SOL     OW23332   1.917   3.163   4.871 -0.4974 -0.3803  0.9164
 3958SOL    HW123333   1.965   3.094   4.825 -0.1535 -2.1680  3.9426
 3958SOL    HW223334   1.865   3.198   4.799 -1.9742 -2.4302  0.9885
 3959SOL     OW23335   2.351   2.620  15.728 -0.4143  0.3147 -0.8090
 3959SOL    HW123336   2.353   2.674  15.807  0.4420  0.9502 -1.2696
 3959SOL    HW223337   2.436   2.579  15.742 -1.6912 -2.1227 -0.2416
 3960SOL     OW23338   3.118   0.306  14.233 -0.0867 -0.2578 -0.3535
 3960SOL    HW123339   3.125   0.362  14.310 -1.8514  0.6460 -0.8780
 3960SOL    HW223340   3.125   0.220  14.275 -1.2833 -0.4478 -0.5615
 3961SOL     OW23341   4.109   0.399  17.417  0.1364  0.1192 -0.5750
 3961SOL    HW123342   4.045   0.327  17.419  2.7496 -2.1283  2.3878
 3961SOL    HW223343   4.095   0.440  17.332 -0.4734  0.1974 -0.4379
 3962SOL     OW23344   1.366   0.155  11.229 -0.0561 -1.0171 -0.5144
 3962SOL    HW123345   1.293   0.180  11.172 -1.6036 -2.6084  0.7686
 3962SOL    HW223346   1.429   0.226  11.217 -1.0752  0.0939  0.8745
 3963SOL     OW23347   4.136   2.239   7.177 -0.2057 -0.1896  0.2235
 3963SOL    HW123348   4.084   2.257   7.098  0.9662 -1.8767 -0.9520
 3963SOL    HW223349   4.173   2.325   7.197 -0.4250 -0.1820  0.5962
 3964SOL     OW23350   0.922   1.698  14.919 -0.3365  0.0049  0.2680
 3964SOL    HW123351   0.833   1.666  14.909 -0.9392  1.4569  1.0406
 3964SOL    HW223352   0.940   1.759  14.847  1.4722 -0.6699  0.1346
 3965SOL     OW23353   3.185   0.219   4.037  0.0666  0.3950  0.1459
 3965SOL    HW123354   3.244   0.258   3.973 -0.7311 -0.5618 -1.1604
 3965SOL    HW223355   3.185   0.280   4.111  0.9753  2.6128 -1.7032
 3966SOL     OW23356   3.939   0.816  16.391  0.3712  0.3528  0.2962
 3966SOL    HW123357   3.936   0.873  16.314  0.3217  0.2544  0.2257
 3966SOL    HW223358   3.849   0.811  16.423  0.8186 -0.0089  1.5129
 3967SOL     OW23359   3.125   0.440   4.316  0.1378 -0.4519 -0.0101
 3967SOL    HW123360   3.219   0.431   4.331  0.4533  0.8380 -1.2159
 3967SOL    HW223361   3.123   0.498   4.240 -2.4793  1.2150  1.3098
 3968SOL     OW23362   2.940   4.220  17.281  0.7596  0.0663  0.3234
 3968SOL    HW123363   2.909   4.305  17.312 -1.1598 -0.7037  0.5373
 3968SOL    HW223364   2.966   4.181  17.364  1.2409 -0.9314 -0.2869
 3969SOL     OW23365   4.437   3.374   8.206 -0.0123  0.2233  0.0662
 3969SOL    HW123366   4.419   3.337   8.119  0.2638  0.0118  0.1031
 3969SOL    HW223367   4.521   3.416   8.190  0.6340 -1.0422  0.1979
 3970SOL     OW23368   3.482   3.812   8.962  0.3411  0.3048  0.9326
 3970SOL    HW123369   3.394   3.821   8.999  1.7940 -0.7597  4.6732
 3970SOL    HW223370   3.547   3.828   9.030  1.5131  0.4312 -0.2324
 3971SOL     OW23371   4.574   3.045   8.557 -0.3228 -0.3405 -0.5149
 3971SOL    HW123372   4.511   2.986   8.598 -1.0346  0.1450 -0.9026
 3971SOL    HW223373   4.652   3.021   8.606 -0.2029  2.2624  0.5295
 3972SOL     OW23374   0.234   1.639   5.032 -0.7221 -0.2553  0.1627
 3972SOL    HW123375   0.269   1.727   5.013 -0.1077 -0.4744  0.2834
 3972SOL    HW223376   0.241   1.585   4.953  0.5513 -2.2415  1.6580
 3973SOL     OW23377   2.043   4.486  14.585 -0.2011  0.7407  0.4039
 3973SOL    HW123378   2.073   4.472  14.495  0.3205  2.5995  0.2963
 3973SOL    HW223379   2.006   4.400  14.605 -1.4634  1.1712 -0.0427
 3974SOL     OW23380   0.791   0.070   6.750  0.1281  0.0926  0.1317
 3974SOL    HW123381   0.831   4.709   6.729 -1.8005 -0.4931 -1.1631
 3974SOL    HW223382   0.822   0.072   6.841  1.0387  0.3653 -0.1832
 3975SOL     OW23383   2.634   4.504  14.617 -0.4971 -0.2315 -0.6324
 3975SOL    HW123384   2.570   4.538  14.680 -1.5566 -1.1901 -1.1779
 3975SOL    HW223385   2.631   4.559  14.539  2.8001 -0.1864 -0.6880
 3976SOL     OW23386   1.165   2.386   0.924  0.4014  0.1684 -0.5367
 3976SOL    HW123387   1.157   2.380   0.829 -0.9666 -0.3513 -0.3928
 3976SOL    HW223388   1.251   2.421   0.947  0.4602 -1.4883  1.7277
 3977SOL     OW23389   4.056   3.348   4.284  0.0615 -0.8172  0.3130
 3977SOL    HW123390   4.077   3.320   4.195 -1.6724  0.7573 -0.5858
 3977SOL    HW223391   4.137   3.382   4.323  1.1031 -1.2715 -1.3976
 3978SOL     OW23392   3.436   3.465   1.320 -0.4408 -0.0204  0.3241
 3978SOL    HW123393   3.508   3.465   1.257 -0.5070  2.7537  0.2717
 3978SOL    HW223394   3.436   3.374   1.349 -2.4344  0.0474  0.5948
 3979SOL     OW23395   3.953   3.729   5.047 -0.4392  0.4657  0.3775
 3979SOL    HW123396   3.857   3.722   5.041 -0.2555  0.2756 -2.0228
 3979SOL    HW223397   3.977   3.639   5.026 -1.7111  0.4709 -1.0706
 3980SOL     OW23398   4.453   3.340   3.802 -0.2448  0.4508 -0.3059
 3980SOL    HW123399   4.447   3.374   3.892 -2.2677 -0.8270  0.0615
 3980SOL    HW223400   4.465   3.424   3.758 -1.0278  1.1302  0.7724
 3981SOL     OW23401   0.462   0.873   0.850 -0.0891  0.6379 -0.0319
 3981SOL    HW123402   0.447   0.860   0.943 -2.6590  2.3534 -0.1939
 3981SOL    HW223403   0.432   0.790   0.813  1.5675  1.0423 -2.2597
 3982SOL     OW23404   3.229   3.758   1.466  0.2058  0.0178  0.0344
 3982SOL    HW123405   3.141   3.775   1.499  0.0092  0.3895 -0.6755
 3982SOL    HW223406   3.201   3.702   1.394  0.1929 -0.0889  0.1221
 3983SOL     OW23407   0.874   1.254  15.639  0.2214 -0.2152 -0.3255
 3983SOL    HW123408   0.786   1.233  15.670  0.0366 -0.1110 -0.7790
 3983SOL    HW223409   0.886   1.182  15.577  3.1265 -0.1994  0.2466
 3984SOL     OW23410   0.410   2.505   3.971  0.2794 -0.2817  0.3420
 3984SOL    HW123411   0.319   2.520   3.946 -0.2101 -2.1157  1.0073
 3984SOL    HW223412   0.413   2.556   4.052  1.3751  1.4060 -0.7955
 3985SOL     OW23413   0.870   0.659   6.616  0.5548  0.3480 -0.3592
 3985SOL    HW123414   0.782   0.623   6.602  0.4140 -0.8217  3.6094
 3985SOL    HW223415   0.897   0.670   6.525  1.5549  0.3451 -0.0542
 3986SOL     OW23416   4.189   1.350  13.168 -0.0092  0.0835  0.4823
 3986SOL    HW123417   4.157   1.277  13.115  0.6802  0.1788 -0.0650
 3986SOL    HW223418   4.147   1.425  13.125 -1.8374 -0.5821  1.1283
 3987SOL     OW23419   4.640   2.496   1.700  0.0303  0.5379  0.2879
 3987SOL    HW123420   4.691   2.474   1.622 -1.0881  0.1293 -0.3283
 3987SOL    HW223421   4.700   2.455   1.763 -0.0813  0.6669  0.4772
 3988SOL     OW23422   2.533   4.689  11.092 -0.3909 -0.2080 -0.9118
 3988SOL    HW123423   2.493   0.013  11.019 -1.4319 -0.2121 -0.3466
 3988SOL    HW223424   2.469   4.708  11.160 -0.2280 -0.1179 -0.7822
 3989SOL     OW23425   2.239   0.728  11.453  0.3059  0.4037 -0.6396
 3989SOL    HW123426   2.260   0.811  11.493 -2.1097  1.1124 -0.8023
 3989SOL    HW223427   2.284   0.660  11.504 -0.2843  0.4542 -0.0539
 3990SOL     OW23428   1.173   0.708   2.376 -0.4849  0.6717  0.4104
 3990SOL    HW123429   1.122   0.636   2.341 -1.1364  0.6678  1.3864
 3990SOL    HW223430   1.260   0.670   2.363 -0.2050  1.4148  0.1176
 3991SOL     OW23431   2.671   0.539   8.336 -0.1210  0.2528 -0.1184
 3991SOL    HW123432   2.744   0.504   8.388 -0.1230  1.1289  0.4854
 3991SOL    HW223433   2.614   0.464   8.345  1.5211 -1.0121 -0.1743
 3992SOL     OW23434   0.377   1.620   6.931 -0.2707  0.3190 -0.2153
 3992SOL    HW123435   0.397   1.658   6.846  0.9515  0.7058  0.2569
 3992SOL    HW223436   0.349   1.695   6.983 -0.5036  0.5529 -0.6772
 3993SOL     OW23437   4.042   2.688   9.371 -0.2012  0.1315 -0.1140
 3993SOL    HW123438   4.029   2.780   9.349  0.5693  0.1283 -0.5613
 3993SOL    HW223439   4.116   2.694   9.431  0.7099  1.5913 -1.3899
 3994SOL     OW23440   1.148   3.686   1.694  0.2605  0.0024 -0.6023
 3994SOL    HW123441   1.143   3.748   1.621 -0.1411  0.4550 -0.1989
 3994SOL    HW223442   1.226   3.712   1.744  0.3698 -0.9253 -0.2936
 3995SOL     OW23443   2.468   0.866  16.546  0.2406  0.8938 -0.2380
 3995SOL    HW123444   2.489   0.921  16.470 -2.1642 -0.2837 -1.7403
 3995SOL    HW223445   2.457   0.931  16.616 -1.5152  0.9215 -0.5424
 3996SOL     OW23446   4.019   0.343   6.256 -0.3834 -0.0175 -0.0303
 3996SOL    HW123447   3.970   0.347   6.338 -1.9451 -0.2649 -0.9494
 3996SOL    HW223448   4.004   0.433   6.230 -1.4058 -0.2346 -0.1862
 3997SOL     OW23449   0.626   2.999   2.902  0.2210 -0.2422  0.2757
 3997SOL    HW123450   0.637   2.946   2.823  0.5166 -0.3346  0.3776
 3997SOL    HW223451   0.688   3.070   2.888 -0.0773 -0.5532 -2.6065
 3998SOL     OW23452   2.111   0.213   9.466  0.0921  0.3701  0.6167
 3998SOL    HW123453   2.098   0.296   9.511 -1.8620  0.3084  0.1473
 3998SOL    HW223454   2.040   0.159   9.500 -1.3770  1.1869 -1.1764
 3999SOL     OW23455   3.959   0.198  13.277  0.4671  0.3714  0.0986
 3999SOL    HW123456   3.910   0.192  13.195  0.8884  2.9146 -0.3495
 3999SOL    HW223457   4.017   0.121  13.278  0.9958  0.7532 -0.7836
 4000SOL     OW23458   3.821   0.617   6.614  0.1362  0.1613  0.1046
 4000SOL    HW123459   3.906   0.596   6.653  0.7216  0.4749 -0.9922
 4000SOL    HW223460   3.831   0.583   6.525  1.6683 -0.4110  0.4890
 4001SOL     OW23461   2.250   3.384  15.060  0.1422 -0.0064 -0.3168
 4001SOL    HW123462   2.232   3.468  15.018 -0.5535  0.4254  0.8542
 4001SOL    HW223463   2.326   3.403  15.115  1.8522 -0.9579 -2.3296
 4002SOL     OW23464   3.738   4.412   4.282 -0.6319 -0.2484 -0.3787
 4002SOL    HW123465   3.706   4.474   4.347  3.4072  1.2852  0.1352
 4002SOL    HW223466   3.768   4.347   4.345 -0.9303  0.7107  0.7453
 4003SOL     OW23467   0.479   0.453   4.610  0.0835 -0.0753 -0.1276
 4003SOL    HW123468   0.490   0.359   4.623  1.1584  0.0122 -0.4019
 4003SOL    HW223469   0.461   0.481   4.699  2.9121  1.1038  0.0787
 4004SOL     OW23470   1.450   1.800   6.103 -0.1188  0.1340 -0.0673
 4004SOL    HW123471   1.477   1.851   6.179 -1.6351 -0.7212  1.0453
 4004SOL    HW223472   1.529   1.754   6.075  1.6299  1.6320  2.4853
 4005SOL     OW23473   0.144   3.423  13.905  0.5676 -0.1900 -0.5456
 4005SOL    HW123474   0.063   3.372  13.901 -0.0889  0.7793  0.5898
 4005SOL    HW223475   0.208   3.367  13.860  1.0361  1.5976 -2.1191
 4006SOL     OW23476   3.787   4.581   1.934  0.7675  0.0638 -0.0003
 4006SOL    HW123477   3.739   4.561   1.854 -0.0695  1.9468  0.0418
 4006SOL    HW223478   3.877   4.593   1.903  0.8780  0.2265  0.3884
 4007SOL     OW23479   4.441   4.693   5.427  0.0402  0.2513 -0.9699
 4007SOL    HW123480   4.476   4.609   5.398  1.3597 -0.2578  2.2106
 4007SOL    HW223481   4.519   0.018   5.453 -0.3987 -1.4510  3.4090
 4008SOL     OW23482   4.105   2.764   3.400  0.8022  0.4712  0.3144
 4008SOL    HW123483   4.079   2.681   3.361  0.5885  1.4545 -1.6808
 4008SOL    HW223484   4.070   2.759   3.488  0.4363  3.0730  0.3327
 4009SOL     OW23485   2.297   4.091   5.586 -0.0501 -0.7136 -0.7289
 4009SOL    HW123486   2.392   4.085   5.596  0.0508  1.1213 -0.5449
 4009SOL    HW223487   2.284   4.170   5.532  0.1459  0.1432  0.4760
 4010SOL     OW23488   2.683   1.245   3.974  0.6259 -0.0455 -0.1333
 4010SOL    HW123489   2.608   1.303   3.990 -1.1195 -2.4214  0.2091
 4010SOL    HW223490   2.690   1.251   3.879  0.4038  1.6478 -0.0517
 4011SOL     OW23491   3.963   1.200   5.761  0.2824 -0.1599  0.4319
 4011SOL    HW123492   4.020   1.154   5.700 -1.4945 -2.5214  0.5562
 4011SOL    HW223493   3.904   1.245   5.700 -0.1888 -0.6388  0.5391
 4012SOL     OW23494   3.817   4.207   0.674 -0.0269  0.0142  0.5614
 4012SOL    HW123495   3.795   4.249   0.591  0.5590 -0.7429  0.0146
 4012SOL    HW223496   3.912   4.206   0.666 -0.0264 -2.0385  0.8603
 4013SOL     OW23497   3.804   0.797   1.529 -0.5926  0.0310 -0.2054
 4013SOL    HW123498   3.770   0.723   1.479  1.3369 -2.4941  2.2128
 4013SOL    HW223499   3.899   0.787   1.525 -0.6743 -0.7125 -0.2248
 4014SOL     OW23500   2.993   0.157   5.679 -0.1778 -0.3597 -0.1210
 4014SOL    HW123501   3.030   0.127   5.762  1.1932 -1.8860 -1.2982
 4014SOL    HW223502   2.901   0.156   5.708 -0.1171 -0.2394  0.0781
 4015SOL     OW23503   2.033   0.997   1.671  0.9008  0.3192  0.4189
 4015SOL    HW123504   2.119   0.956   1.681  0.7406  0.4542  2.3785
 4015SOL    HW223505   2.063   1.086   1.651 -0.5154  0.2781 -1.9119
 4016SOL     OW23506   3.160   2.649   9.143  0.4109 -0.2947 -0.1677
 4016SOL    HW123507   3.204   2.632   9.226  0.7722  0.7046 -0.1558
 4016SOL    HW223508   3.164   2.558   9.113 -1.7002  0.2421 -2.0546
 4017SOL     OW23509   1.799   1.093  11.644 -0.6439 -0.1900 -0.2267
 4017SOL    HW123510   1.891   1.108  11.624 -1.0336  0.7654 -1.3063
 4017SOL    HW223511   1.780   1.180  11.677  0.1901  0.5512 -1.7191
 4018SOL     OW23512   3.441   3.062   2.419 -0.8216  0.3947  0.2838
 4018SOL    HW123513   3.480   3.143   2.385  0.7452 -0.6120 -0.3201
 4018SOL    HW223514   3.420   3.092   2.508 -0.3964  0.9995  0.1805
 4019SOL     OW23515   1.627   0.027   8.237 -0.2891 -0.4435  0.0359
 4019SOL    HW123516   1.670   0.112   8.230  0.2150 -0.7750 -0.8314
 4019SOL    HW223517   1.561   0.034   8.168  1.6591 -1.0257 -1.8890
 4020SOL     OW23518   3.331   1.742  12.978 -0.0733 -0.0990  0.2921
 4020SOL    HW123519   3.375   1.826  12.971  1.2993 -0.8240  0.3439
 4020SOL    HW223520   3.334   1.713  12.887 -0.5000 -0.2302  0.3195
 4021SOL     OW23521   0.725   3.796   8.361  0.1571  0.4138  0.6465
 4021SOL    HW123522   0.636   3.821   8.337 -0.2217  0.2142  1.8600
 4021SOL    HW223523   0.769   3.779   8.278  2.6905  0.5364  1.9494
 4022SOL     OW23524   1.953   2.091   4.917 -0.6315  0.2868  0.3844
 4022SOL    HW123525   2.024   2.032   4.894 -0.9556  0.8681 -2.0662
 4022SOL    HW223526   1.903   2.074   4.837 -0.1785 -1.8919  0.5874
 4023SOL     OW23527   4.074   1.231  10.441  0.0473  0.0583 -0.4992
 4023SOL    HW123528   4.147   1.288  10.464 -0.2750  0.9140 -1.5891
 4023SOL    HW223529   4.037   1.208  10.526 -0.6396 -1.6664 -1.2538
 4024SOL     OW23530   0.503   4.187  12.368 -0.4763 -0.3733  0.2217
 4024SOL    HW123531   0.491   4.220  12.457  1.3160 -2.3522  1.2043
 4024SOL    HW223532   0.421   4.213  12.328 -0.3558  0.1002  0.2739
 4025SOL     OW23533   0.095   2.319   4.698  0.3437 -0.3076 -0.0074
 4025SOL    HW123534   0.160   2.322   4.628 -0.0176 -0.5085 -0.3511
 4025SOL    HW223535   0.146   2.323   4.779  0.6848 -4.0548 -0.0489
 4026SOL     OW23536   2.601   2.549  15.782 -0.0529  0.2224  0.0673
 4026SOL    HW123537   2.640   2.573  15.866  3.1527 -1.6761 -0.9104
 4026SOL    HW223538   2.646   2.610  15.724  2.1216 -0.4640  1.0658
 4027SOL     OW23539   0.795   0.918   6.648  0.0758 -0.1961 -0.2388
 4027SOL    HW123540   0.781   0.908   6.742  2.5435 -0.1986  0.1156
 4027SOL    HW223541   0.812   0.826   6.626  1.0298 -0.2669  0.8031
 4028SOL     OW23542   1.926   3.457   2.823 -0.2901  0.4267  0.4640
 4028SOL    HW123543   2.017   3.436   2.845 -0.7245 -1.4101  0.4881
 4028SOL    HW223544   1.872   3.428   2.897 -0.3679  1.9165  1.0003
 4029SOL     OW23545   3.140   4.174   1.638  0.4614  0.4975 -0.0827
 4029SOL    HW123546   3.054   4.138   1.659  1.0528 -0.4806  0.7182
 4029SOL    HW223547   3.176   4.178   1.727 -3.4227  1.4038  1.4735
 4030SOL     OW23548   3.168   1.129   7.634 -0.0292 -0.2371  0.2509
 4030SOL    HW123549   3.102   1.075   7.676 -1.2940  2.8303  2.2302
 4030SOL    HW223550   3.248   1.082   7.657  0.6565 -0.1331 -1.9374
 4031SOL     OW23551   3.645   0.769   2.933  0.7095 -0.3440  0.2639
 4031SOL    HW123552   3.570   0.711   2.919  1.3238 -1.7587  2.9960
 4031SOL    HW223553   3.611   0.848   2.889  3.6825  1.2510  0.8853
 4032SOL     OW23554   2.768   4.152  16.645  0.0448  0.4426 -0.0764
 4032SOL    HW123555   2.703   4.120  16.707 -0.3509 -0.5122 -0.9690
 4032SOL    HW223556   2.847   4.141  16.699 -1.7565 -1.1735  2.2250
 4033SOL     OW23557   1.306   2.529  15.719  0.1966  0.1606  0.4054
 4033SOL    HW123558   1.275   2.581  15.645 -0.6092  1.3069  1.5765
 4033SOL    HW223559   1.345   2.596  15.774  0.6876  1.6242 -1.7432
 4034SOL     OW23560   3.734   2.434   1.767 -0.1851  0.3325  0.7419
 4034SOL    HW123561   3.815   2.398   1.730 -0.3027 -0.4379  1.2364
 4034SOL    HW223562   3.751   2.527   1.754  0.4693  0.1641  0.3950
 4035SOL     OW23563   4.524   1.286   7.685  0.0621 -0.2706 -0.2237
 4035SOL    HW123564   4.509   1.251   7.773  1.4988  0.7744  0.4321
 4035SOL    HW223565   4.582   1.216   7.655  1.4044  0.1769  1.3542
 4036SOL     OW23566   2.748   2.243   5.815 -0.3396 -0.3117  0.1796
 4036SOL    HW123567   2.822   2.183   5.802  0.0530  0.6997 -2.2380
 4036SOL    HW223568   2.768   2.267   5.905  0.3336  0.3840 -0.1579
 4037SOL     OW23569   3.196   0.142   0.646  0.3928  0.1767 -0.2085
 4037SOL    HW123570   3.186   0.073   0.581  2.5196 -0.0317 -0.3111
 4037SOL    HW223571   3.239   0.104   0.723 -0.7701 -0.4553  0.1370
 4038SOL     OW23572   1.282   2.551   8.544 -0.0062 -0.1272 -0.5205
 4038SOL    HW123573   1.248   2.599   8.620  0.0907 -0.8681 -0.0042
 4038SOL    HW223574   1.261   2.615   8.476 -0.6061  0.4523  0.2060
 4039SOL     OW23575   1.820   4.673   1.811 -0.0704  0.4164  0.3710
 4039SOL    HW123576   1.778   4.593   1.781 -0.6264  0.9976 -0.4052
 4039SOL    HW223577   1.832   0.004   1.733 -1.7054 -0.1267 -0.2498
 4040SOL     OW23578   1.821   0.848   2.770  0.0588  0.1880 -0.6673
 4040SOL    HW123579   1.789   0.762   2.797 -0.8366  1.1043  1.1843
 4040SOL    HW223580   1.915   0.830   2.761  0.2211  0.8528 -0.3341
 4041SOL     OW23581   4.720   1.582   5.759 -0.4603 -0.5013  0.4041
 4041SOL    HW123582   4.675   1.658   5.798 -0.4702  0.2829 -1.1447
 4041SOL    HW223583   0.072   1.579   5.817 -0.2746  1.9849  0.2910
 4042SOL     OW23584   0.681   0.193   0.796 -0.3989  0.1800 -0.1249
 4042SOL    HW123585   0.747   0.176   0.864 -2.0114 -0.5183  1.2688
 4042SOL    HW223586   0.708   0.282   0.770 -2.0666  0.4847 -0.7749
 4043SOL     OW23587   1.459   2.146  11.317 -0.2707 -0.4929  0.1873
 4043SOL    HW123588   1.386   2.120  11.261  0.6257 -0.9284 -0.7790
 4043SOL    HW223589   1.414   2.176  11.396 -3.1948 -0.4592 -1.4649
 4044SOL     OW23590   1.920   0.173  11.331  0.4071  0.2222  0.5018
 4044SOL    HW123591   1.839   0.192  11.378  0.9826 -1.5061  2.1870
 4044SOL    HW223592   1.902   0.182  11.237 -0.7450 -0.9272  0.6177
 4045SOL     OW23593   0.369   3.433  10.396  0.2798 -0.2275 -0.1230
 4045SOL    HW123594   0.433   3.401  10.333  1.4920  3.7805 -0.9556
 4045SOL    HW223595   0.373   3.365  10.464 -0.3735 -2.1191 -2.0131
 4046SOL     OW23596   0.713   3.400  14.648 -0.0708  0.2397 -0.2746
 4046SOL    HW123597   0.806   3.385  14.630 -0.5215 -0.6606 -1.8837
 4046SOL    HW223598   0.720   3.444  14.732  1.5156  0.5354 -0.5683
 4047SOL     OW23599   3.572   3.324   4.834  0.4298  0.0360  0.2707
 4047SOL    HW123600   3.508   3.279   4.889  0.8843 -3.6047 -2.1952
 4047SOL    HW223601   3.573   3.281   4.749 -1.2261  2.5545 -1.0107
 4048SOL     OW23602   4.687   3.781  16.858 -0.0781 -0.0506 -0.0643
 4048SOL    HW123603   4.641   3.855  16.898  0.0173 -0.4043  0.7005
 4048SOL    HW223604   0.052   3.813  16.843 -0.4520  0.9422 -0.1639
 4049SOL     OW23605   0.332   4.471   0.399  0.4113 -0.1422  0.3408
 4049SOL    HW123606   0.369   4.555   0.373  1.6517 -1.2159 -1.3890
 4049SOL    HW223607   0.270   4.459   0.328  0.1623  1.4667  0.3003
 4050SOL     OW23608   2.662   0.324  15.714 -0.0870  0.0917  0.1100
 4050SOL    HW123609   2.599   0.338  15.643 -0.6267 -1.0630  0.3618
 4050SOL    HW223610   2.637   0.397  15.771 -2.3458  0.1663 -0.9816
 4051SOL     OW23611   0.089   2.865   8.729  0.0477  0.4676  0.2784
 4051SOL    HW123612   0.032   2.915   8.788 -0.8442 -0.9861  0.6556
 4051SOL    HW223613   0.040   2.783   8.723  0.5927  0.3179 -2.1184
 4052SOL     OW23614   2.861   2.309   6.667 -0.0651  0.3318  0.0361
 4052SOL    HW123615   2.825   2.295   6.579 -1.8903  0.3109  0.7844
 4052SOL    HW223616   2.877   2.218   6.693  0.0201  0.0227 -1.0711
 4053SOL     OW23617   1.540   3.574  14.292 -0.0612 -0.9005 -0.5391
 4053SOL    HW123618   1.447   3.553  14.293  0.4436 -3.0392  0.2629
 4053SOL    HW223619   1.533   3.663  14.327  1.1370 -1.0693  0.1449
 4054SOL     OW23620   2.761   2.341   3.625  0.0002  0.3879 -0.7878
 4054SOL    HW123621   2.733   2.259   3.666 -0.2205  1.1963  0.6695
 4054SOL    HW223622   2.705   2.404   3.670  1.0230  0.1961  0.7481
 4055SOL     OW23623   2.804   1.846  15.618  0.3070  0.3822  0.0334
 4055SOL    HW123624   2.815   1.848  15.523  1.0176 -0.6607  0.0881
 4055SOL    HW223625   2.710   1.837  15.627  0.1067  3.4360  1.1310
 4056SOL     OW23626   4.433   0.471   6.713  0.6769  0.1942  0.5274
 4056SOL    HW123627   4.405   0.380   6.707  2.1322 -0.1173 -1.4941
 4056SOL    HW223628   4.355   0.514   6.677  0.7875  0.3298  0.4480
 4057SOL     OW23629   2.260   0.602   6.745  0.7141 -0.1682  0.0680
 4057SOL    HW123630   2.264   0.660   6.821 -0.2460 -0.7527  0.5628
 4057SOL    HW223631   2.321   0.534   6.774  3.4597  1.1726 -2.4629
 4058SOL     OW23632   3.284   1.076   8.333 -0.4469  0.1353  0.4440
 4058SOL    HW123633   3.269   1.147   8.270  1.8547  0.9272  0.8057
 4058SOL    HW223634   3.320   1.123   8.408 -0.1541  1.0203 -0.2605
 4059SOL     OW23635   0.185   2.482   3.197 -0.6795  0.1288  0.2731
 4059SOL    HW123636   0.245   2.457   3.127 -3.3394 -3.5353 -0.6635
 4059SOL    HW223637   0.130   2.404   3.191 -1.4231  0.5655  1.3699
 4060SOL     OW23638   4.050   3.165   1.357  0.3425 -0.6779 -0.0411
 4060SOL    HW123639   4.085   3.209   1.279 -0.6991  0.0989 -0.0656
 4060SOL    HW223640   3.975   3.118   1.322 -1.1787  3.0601 -1.6977
 4061SOL     OW23641   0.424   0.776   8.842 -0.2676 -0.5884  0.1686
 4061SOL    HW123642   0.481   0.755   8.768 -0.7787 -1.7355  0.1047
 4061SOL    HW223643   0.458   0.717   8.909  3.4770  2.3797  0.8884
 4062SOL     OW23644   3.463   2.612   9.982 -0.5998 -0.8429 -0.3692
 4062SOL    HW123645   3.405   2.548   9.940  0.0350 -1.5437 -0.1728
 4062SOL    HW223646   3.402   2.658  10.041  0.1868  0.0323 -0.2473
 4063SOL     OW23647   0.069   4.539  15.433 -0.5094 -0.3341  0.3601
 4063SOL    HW123648   0.048   4.607  15.368 -2.3079 -0.9507  0.2769
 4063SOL    HW223649   0.155   4.517  15.396 -1.1407 -0.5527 -1.0032
 4064SOL     OW23650   3.697   0.107   9.326  0.3936 -1.1529  0.6717
 4064SOL    HW123651   3.663   0.088   9.239  0.7074  1.6103 -0.0545
 4064SOL    HW223652   3.691   0.021   9.366  0.4951 -1.2904  0.3881
 4065SOL     OW23653   1.753   0.693   4.558  0.6307  0.0685  0.2534
 4065SOL    HW123654   1.672   0.732   4.590 -0.0600 -1.5211  0.4648
 4065SOL    HW223655   1.771   0.622   4.621  1.2558 -0.4283 -0.4836
 4066SOL     OW23656   4.550   4.642   6.280  0.0687 -0.1543 -0.5552
 4066SOL    HW123657   4.623   4.611   6.333  0.1357  0.9901  0.0207
 4066SOL    HW223658   4.593   4.663   6.198  1.2143 -1.3270 -0.2415
 4067SOL     OW23659   1.633   2.380   6.339  0.6633  0.0670  0.0995
 4067SOL    HW123660   1.614   2.289   6.315  0.6020  0.4930 -1.4606
 4067SOL    HW223661   1.701   2.371   6.405 -0.0084  1.9503  1.0308
 4068SOL     OW23662   1.361   2.518   9.351 -0.2901  0.1117  0.0935
 4068SOL    HW123663   1.400   2.533   9.265 -0.4301  1.4506  0.2650
 4068SOL    HW223664   1.277   2.485   9.317  1.8464 -2.4841 -2.6728
 4069SOL     OW23665   3.703   2.510   5.720  0.1804  0.5284  0.4376
 4069SOL    HW123666   3.677   2.527   5.629  1.2853 -1.2539 -0.1973
 4069SOL    HW223667   3.730   2.599   5.744 -0.8977  0.9944 -0.0662
 4070SOL     OW23668   0.338   4.258   4.173 -0.1940 -0.1466  0.3529
 4070SOL    HW123669   0.284   4.338   4.181 -0.5691 -0.3027 -0.6231
 4070SOL    HW223670   0.425   4.291   4.152 -0.1302  0.5731  1.7437
 4071SOL     OW23671   1.263   4.160  16.148  0.4795 -0.2370  0.4519
 4071SOL    HW123672   1.301   4.135  16.064 -0.3144 -0.6068  0.2057
 4071SOL    HW223673   1.236   4.247  16.119 -1.1435 -0.3804  1.5519
 4072SOL     OW23674   2.886   3.314   4.303 -0.5686 -0.2704  0.3058
 4072SOL    HW123675   2.873   3.403   4.334  0.4207  0.4727 -1.3935
 4072SOL    HW223676   2.936   3.315   4.221 -0.1684  1.1568  0.5717
 4073SOL     OW23677   0.584   0.814   2.513  0.2477  0.2830  0.3169
 4073SOL    HW123678   0.626   0.847   2.592 -0.4680 -2.0490  1.6719
 4073SOL    HW223679   0.637   0.857   2.446 -0.2468 -0.7757 -0.7564
 4074SOL     OW23680   4.054   4.209   8.311  0.2706  0.3339  0.2828
 4074SOL    HW123681   4.127   4.171   8.360 -0.4185  0.3980  1.3548
 4074SOL    HW223682   3.992   4.215   8.384  0.3593 -0.3632  0.4125
 4075SOL     OW23683   2.163   1.735   0.323  0.4249  0.0501 -0.4167
 4075SOL    HW123684   2.141   1.821   0.360 -1.8658 -0.3280 -0.8573
 4075SOL    HW223685   2.123   1.677   0.388 -0.2560  2.7218  1.5851
 4076SOL     OW23686   0.680   0.416   0.430 -0.2152 -0.5353  0.3440
 4076SOL    HW123687   0.747   0.374   0.483  0.0135 -2.4940 -1.5294
 4076SOL    HW223688   0.650   0.481   0.494  1.4072  1.5385 -1.0115
 4077SOL     OW23689   1.289   4.144   7.563 -0.4874 -0.4532  0.4532
 4077SOL    HW123690   1.314   4.070   7.507 -0.6700 -0.1452 -0.0344
 4077SOL    HW223691   1.264   4.215   7.504 -0.7559 -2.4331 -1.8035
 4078SOL     OW23692   3.008   2.649   1.798 -0.1432 -0.0339  0.0774
 4078SOL    HW123693   2.933   2.647   1.738  0.1355  0.7973 -0.2957
 4078SOL    HW223694   3.080   2.669   1.739  1.3688 -1.4979  1.4002
 4079SOL     OW23695   2.445   0.382  11.459 -0.6548  0.8395 -0.0210
 4079SOL    HW123696   2.374   0.321  11.438  1.4028 -1.3260 -0.7031
 4079SOL    HW223697   2.516   0.325  11.429 -0.1590  2.3347 -1.6704
 4080SOL     OW23698   0.097   1.990  10.297  0.2971  0.4053 -0.1268
 4080SOL    HW123699   0.077   2.056  10.364  1.0892 -0.0343  0.5533
 4080SOL    HW223700   0.186   1.980  10.332  0.5403  1.3184 -0.4862
 4081SOL     OW23701   4.078   3.449   8.517 -0.4582  0.5445  0.1970
 4081SOL    HW123702   4.028   3.523   8.552 -0.2620  0.1762  1.2308
 4081SOL    HW223703   4.135   3.505   8.464  1.5204 -4.0559 -2.4729
 4082SOL     OW23704   1.940   0.106   5.325  0.3653 -0.6189 -0.3966
 4082SOL    HW123705   1.984   0.036   5.373 -0.0086 -0.5504  0.0587
 4082SOL    HW223706   1.914   0.164   5.397  0.0861 -1.5576  0.2583
 4083SOL     OW23707   1.456   0.369   6.705 -0.0131 -0.2793 -0.0168
 4083SOL    HW123708   1.520   0.439   6.710 -0.7976  0.3200  1.7699
 4083SOL    HW223709   1.370   0.412   6.701 -0.6443 -1.5503 -0.1505
 4084SOL     OW23710   3.887   0.681   4.621 -0.4790 -0.1483 -0.0804
 4084SOL    HW123711   3.977   0.695   4.592  0.5110 -2.4482  1.8803
 4084SOL    HW223712   3.907   0.606   4.678 -1.0466 -0.4508 -0.2877
 4085SOL     OW23713   4.030   2.248  11.001  0.0368 -0.5628  0.1841
 4085SOL    HW123714   4.056   2.199  11.078  3.1031 -2.0860 -1.8155
 4085SOL    HW223715   3.934   2.255  11.004  0.0718 -0.9308  1.8048
 4086SOL     OW23716   3.681   1.402   6.842 -0.3159  0.1224 -0.0622
 4086SOL    HW123717   3.681   1.463   6.769  1.6204  0.6624  0.3737
 4086SOL    HW223718   3.667   1.459   6.918 -0.2490  0.0572 -0.0008
 4087SOL     OW23719   3.631   0.430   8.567 -0.4739  0.3960  0.0634
 4087SOL    HW123720   3.644   0.504   8.508 -1.2937 -1.6713 -2.7090
 4087SOL    HW223721   3.634   0.474   8.653  0.2329  1.0388 -0.2916
 4088SOL     OW23722   1.575   4.304  10.986 -0.9528  0.1399 -0.1447
 4088SOL    HW123723   1.573   4.249  10.907 -0.2013 -4.0088  2.7190
 4088SOL    HW223724   1.649   4.268  11.035  1.2994  1.1906 -2.7768
 4089SOL     OW23725   4.613   4.210  13.192 -0.8773 -0.5676  0.1687
 4089SOL    HW123726   4.542   4.174  13.245 -0.9447  0.0346  0.4932
 4089SOL    HW223727   4.684   4.161  13.233 -0.9009  0.2602  1.2043
 4090SOL     OW23728   4.671   3.794   7.002  0.0274  0.1659 -0.0440
 4090SOL    HW123729   4.721   3.736   6.943  0.0102 -4.3098  4.3728
 4090SOL    HW223730   4.692   3.738   7.076  1.9971 -0.8214 -1.3185
 4091SOL     OW23731   2.894   4.274   4.953  0.5778  0.6201 -0.3630
 4091SOL    HW123732   2.804   4.285   4.924  0.4960 -1.1133 -0.7588
 4091SOL    HW223733   2.937   4.209   4.897 -0.9360 -0.3338 -0.4003
 4092SOL     OW23734   1.476   0.104  14.901 -0.5100 -0.2328  0.2958
 4092SOL    HW123735   1.399   0.092  14.846 -1.6368 -2.0023  2.2536
 4092SOL    HW223736   1.527   0.028  14.873  1.0182  0.9261 -0.1124
 4093SOL     OW23737   3.333   3.759   2.101  0.0128  0.4546 -0.1605
 4093SOL    HW123738   3.392   3.797   2.036 -0.2338 -0.2281 -0.7698
 4093SOL    HW223739   3.253   3.808   2.082  1.4001  2.4170 -0.9430
 4094SOL     OW23740   1.717   0.574   8.187  0.5320 -0.3580  0.1880
 4094SOL    HW123741   1.738   0.666   8.172 -0.1730 -0.3190 -0.5947
 4094SOL    HW223742   1.697   0.549   8.096 -2.3423 -0.4456  0.8272
 4095SOL     OW23743   3.961   1.941   8.043  0.4999 -0.3983  0.6647
 4095SOL    HW123744   3.999   1.877   7.982 -0.8246 -0.0838 -0.4950
 4095SOL    HW223745   4.000   1.915   8.126 -2.5850 -1.6106  1.7070
 4096SOL     OW23746   3.916   0.409  10.975  0.7840 -0.7617 -0.0952
 4096SOL    HW123747   3.893   0.481  11.033  0.2631  0.2863 -1.5849
 4096SOL    HW223748   3.898   0.453  10.892 -0.2799 -2.8305 -0.9570
 4097SOL     OW23749   3.679   1.003   5.792  0.9647 -0.0285  0.0949
 4097SOL    HW123750   3.669   1.092   5.826 -0.9434 -0.0633 -0.3533
 4097SOL    HW223751   3.590   0.967   5.794  1.4018 -1.3517 -3.5137
 4098SOL     OW23752   3.548   3.044   8.689  0.0182  0.0069 -0.1765
 4098SOL    HW123753   3.466   3.057   8.641  0.5112 -0.1848 -1.0707
 4098SOL    HW223754   3.584   2.973   8.636  0.7611  0.6155 -0.4764
 4099SOL     OW23755   2.608   3.612   8.664 -0.4489  0.3542 -0.0579
 4099SOL    HW123756   2.610   3.684   8.601 -0.6690 -1.9150 -2.6408
 4099SOL    HW223757   2.694   3.571   8.661  0.2086  1.7104  0.0540
 4100SOL     OW23758   0.106   4.674  14.622  0.1654  0.2740  0.2441
 4100SOL    HW123759   0.153   4.655  14.541  1.6641  0.1034  1.1601
 4100SOL    HW223760   0.042   0.015  14.590  2.6281  2.6744  0.2175
 4101SOL     OW23761   4.584   3.660  13.791 -0.2439 -0.1110  0.0553
 4101SOL    HW123762   4.534   3.687  13.868 -0.2931  1.3795 -0.4946
 4101SOL    HW223763   4.541   3.578  13.771 -1.6533  0.7675 -0.5317
 4102SOL     OW23764   2.384   4.189   6.416 -0.0753 -0.0801  0.0431
 4102SOL    HW123765   2.316   4.145   6.365 -1.7778  0.5211  1.7925
 4102SOL    HW223766   2.454   4.178   6.351  0.3745  1.3586  0.2997
 4103SOL     OW23767   4.282   2.385   9.430 -0.1171 -0.3351 -0.2259
 4103SOL    HW123768   4.247   2.437   9.503 -0.9998  1.6129 -2.0676
 4103SOL    HW223769   4.342   2.448   9.390 -0.0071 -0.3325 -0.0599
 4104SOL     OW23770   2.682   2.771   8.707  0.8126  0.1340 -0.2465
 4104SOL    HW123771   2.739   2.792   8.781  0.3045 -1.1580  0.5167
 4104SOL    HW223772   2.661   2.679   8.727  2.1283  0.0288  0.6400
 4105SOL     OW23773   2.444   2.079   8.698  0.1774 -0.0509  0.0130
 4105SOL    HW123774   2.391   2.020   8.752  1.0138 -0.2349  0.6244
 4105SOL    HW223775   2.397   2.103   8.618 -0.8029  0.7999  0.8371
 4106SOL     OW23776   4.074   2.238   4.470  0.1661 -0.1652  0.2887
 4106SOL    HW123777   4.050   2.241   4.378 -1.7109  2.3122  0.8689
 4106SOL    HW223778   4.149   2.297   4.468  0.5308 -0.5922  1.3240
 4107SOL     OW23779   3.605   0.323   9.494 -0.4021 -0.8175 -0.1717
 4107SOL    HW123780   3.632   0.237   9.463  1.7252  0.2923 -1.4265
 4107SOL    HW223781   3.672   0.387   9.471 -0.7638 -0.8185 -1.2082
 4108SOL     OW23782   4.216   3.557  13.584 -0.2180 -0.4655 -0.3491
 4108SOL    HW123783   4.178   3.469  13.576 -0.1714 -0.3272 -2.0313
 4108SOL    HW223784   4.257   3.564  13.498 -0.3633  1.6397 -0.2484
 4109SOL     OW23785   0.363   3.503  14.083 -0.5507  0.4879 -1.0169
 4109SOL    HW123786   0.406   3.457  14.010  0.5970 -0.0543  0.0141
 4109SOL    HW223787   0.274   3.518  14.052 -0.9313  0.7141  0.2054
 4110SOL     OW23788   1.948   1.225  15.187 -0.9806 -0.1386 -0.2284
 4110SOL    HW123789   1.923   1.183  15.105 -2.0778 -2.0369  1.0857
 4110SOL    HW223790   2.028   1.179  15.210  0.7344  1.5050 -2.9217
 4111SOL     OW23791   0.315   2.556   7.753  0.5208 -0.0708 -1.0469
 4111SOL    HW123792   0.240   2.568   7.812  0.4828  0.1118 -1.1328
 4111SOL    HW223793   0.319   2.462   7.768 -0.5275 -0.1779 -1.4479
 4112SOL     OW23794   1.543   3.568   9.313  0.0389  0.5771  0.2874
 4112SOL    HW123795   1.534   3.482   9.355 -0.0799  1.5012  2.1623
 4112SOL    HW223796   1.496   3.540   9.235 -1.7133 -1.0154  1.8937
 4113SOL     OW23797   4.436   4.139   7.785  0.1261  0.1689 -0.2551
 4113SOL    HW123798   4.500   4.068   7.790 -0.7187 -0.6236 -0.7970
 4113SOL    HW223799   4.451   4.184   7.868 -0.2384  0.7065 -0.4769
 4114SOL     OW23800   3.778   1.897   1.991  0.2589 -0.6514  0.4745
 4114SOL    HW123801   3.820   1.963   1.935 -0.5120 -1.3902 -0.9873
 4114SOL    HW223802   3.830   1.821   1.964  2.1352  1.1238 -0.9164
 4115SOL     OW23803   2.313   0.170   4.698 -0.4008 -0.1896 -0.0758
 4115SOL    HW123804   2.323   0.257   4.736  1.6249 -0.3352 -0.2950
 4115SOL    HW223805   2.232   0.137   4.737 -1.2558  1.0350 -0.8312
 4116SOL     OW23806   1.559   0.115   8.573 -0.4442 -0.0307 -0.1430
 4116SOL    HW123807   1.579   0.122   8.666  1.8290  0.8185 -0.7031
 4116SOL    HW223808   1.645   0.093   8.538  0.1359 -1.1164  1.9550
 4117SOL     OW23809   2.908   2.286   6.030  0.0565  0.4533 -0.4049
 4117SOL    HW123810   3.003   2.285   6.019  0.1297  0.3926  0.2406
 4117SOL    HW223811   2.902   2.222   6.101  0.2189 -0.9089 -1.6294
 4118SOL     OW23812   1.858   0.214  11.059  0.1099 -0.1285 -0.8632
 4118SOL    HW123813   1.903   0.230  10.976  0.6941  0.4402 -0.4379
 4118SOL    HW223814   1.766   0.225  11.037  0.1719 -0.2476 -1.1727
 4119SOL     OW23815   2.569   4.365   3.604 -0.4819 -0.2378 -0.0550
 4119SOL    HW123816   2.541   4.385   3.693 -1.1892  1.1027 -0.5779
 4119SOL    HW223817   2.628   4.439   3.588 -0.8730  0.7521  3.0040
 4120SOL     OW23818   3.540   3.245   2.614  0.1947 -0.2149 -0.1098
 4120SOL    HW123819   3.550   3.298   2.534  3.5907  0.3765  0.6969
 4120SOL    HW223820   3.502   3.313   2.670  0.0097 -0.4627  0.0637
 4121SOL     OW23821   2.085   0.492  12.841  0.9016 -0.1722 -0.1704
 4121SOL    HW123822   2.144   0.420  12.817  1.0945 -0.9652  2.6220
 4121SOL    HW223823   2.153   0.555  12.865 -0.2542  0.1793  2.1299
 4122SOL     OW23824   4.723   1.751   7.461 -0.5564  0.0856  0.1911
 4122SOL    HW123825   4.684   1.773   7.377  0.3264  1.4911  0.1475
 4122SOL    HW223826   0.032   1.836   7.491 -0.2320 -0.0840  0.3124
 4123SOL     OW23827   3.698   0.986   3.144  0.2777  0.9405  0.1540
 4123SOL    HW123828   3.686   0.960   3.052  4.3070 -0.8857  0.1398
 4123SOL    HW223829   3.611   0.985   3.184  0.9086 -0.5590  1.4840
 4124SOL     OW23830   2.642   1.032   9.472  0.1940 -0.2055 -0.6213
 4124SOL    HW123831   2.667   1.124   9.484 -1.8270  0.3705 -0.8908
 4124SOL    HW223832   2.648   1.018   9.378  2.8799  0.6189 -0.5962
 4125SOL     OW23833   1.258   2.828   3.579  0.1233  0.2334 -0.1742
 4125SOL    HW123834   1.297   2.876   3.506  0.1886  0.1198 -0.2139
 4125SOL    HW223835   1.316   2.753   3.568  0.1818  0.1836  0.4849
 4126SOL     OW23836   0.410   4.637   5.709  0.4303  0.7096 -0.0636
 4126SOL    HW123837   0.332   4.643   5.764  0.9835  1.6009  0.6307
 4126SOL    HW223838   0.410   4.723   5.667  0.1180  0.5793 -0.3310
 4127SOL     OW23839   0.392   1.123  15.975  0.1592 -0.1061 -0.1014
 4127SOL    HW123840   0.484   1.144  15.992 -0.0198 -2.0425  3.2442
 4127SOL    HW223841   0.340   1.202  15.991 -2.8832 -1.9870 -0.7824
 4128SOL     OW23842   1.629   3.502   1.874  0.3386 -0.3440  0.7159
 4128SOL    HW123843   1.626   3.546   1.789  0.4518  0.2858  1.0416
 4128SOL    HW223844   1.591   3.573   1.926  1.0615 -0.1344  0.9575
 4129SOL     OW23845   3.600   3.143  15.603  0.0572  0.2688 -0.0510
 4129SOL    HW123846   3.653   3.210  15.558  3.1668 -1.4115  1.1608
 4129SOL    HW223847   3.557   3.099  15.530  0.3101 -0.2814  0.1330
 4130SOL     OW23848   3.734   1.706   2.913 -0.2537  0.6106 -0.1016
 4130SOL    HW123849   3.661   1.694   2.974  0.5755 -3.2694  0.1336
 4130SOL    HW223850   3.758   1.615   2.895  2.1690  0.7119  2.5657
 4131SOL     OW23851   3.951   3.110   1.703 -0.4210  0.0776 -0.1624
 4131SOL    HW123852   3.918   3.160   1.778  0.7927 -0.4945  0.7464
 4131SOL    HW223853   3.879   3.132   1.643  0.4843 -1.6922 -1.9023
 4132SOL     OW23854   4.203   2.697   4.986 -0.3517 -0.2980 -0.2267
 4132SOL    HW123855   4.285   2.669   4.946  1.0951  3.4656  0.0854
 4132SOL    HW223856   4.152   2.720   4.908 -0.1108 -0.5210 -0.4502
 4133SOL     OW23857   4.103   1.142   7.125  0.4970  0.1048  0.4426
 4133SOL    HW123858   4.062   1.071   7.075  0.2292  0.7103 -0.2000
 4133SOL    HW223859   4.189   1.142   7.083  0.3879  1.2493  0.2149
 4134SOL     OW23860   1.608   4.234   9.161 -0.6755 -0.4370  0.1554
 4134SOL    HW123861   1.579   4.199   9.077  1.5414  0.3162 -0.9338
 4134SOL    HW223862   1.605   4.328   9.147  0.6980 -0.0053  2.7714
 4135SOL     OW23863   0.352   1.417   3.657  0.5219 -0.2699  0.0988
 4135SOL    HW123864   0.302   1.381   3.584 -0.9397 -0.9906  1.4356
 4135SOL    HW223865   0.288   1.437   3.725  1.1872  1.9514  0.0712
 4136SOL     OW23866   3.993   4.112   2.257  0.0135 -0.1048  0.3195
 4136SOL    HW123867   3.924   4.179   2.256 -1.0440 -1.2336 -1.9162
 4136SOL    HW223868   3.948   4.055   2.319 -0.0316 -0.6726 -0.2398
 4137SOL     OW23869   1.823   3.554  11.405 -0.2823 -0.8136 -0.1386
 4137SOL    HW123870   1.883   3.628  11.392 -0.6607 -0.6391 -0.9715
 4137SOL    HW223871   1.768   3.589  11.476 -0.2671 -1.0777 -0.0003
 4138SOL     OW23872   0.246   1.340   5.875 -0.3258  0.1040  0.7568
 4138SOL    HW123873   0.336   1.343   5.843 -0.6167 -0.1332 -0.0931
 4138SOL    HW223874   0.196   1.343   5.793  0.9838 -1.1571 -0.0717
 4139SOL     OW23875   4.692   1.345  14.350  0.0307  0.4597 -0.3263
 4139SOL    HW123876   0.042   1.401  14.329  0.8241 -0.4268  0.1077
 4139SOL    HW223877   0.005   1.291  14.420  2.2318  0.1685 -1.7093
 4140SOL     OW23878   4.556   2.072   6.056  0.6443 -0.4498 -0.1031
 4140SOL    HW123879   4.595   2.109   5.976  0.3047  1.0434  0.4214
 4140SOL    HW223880   4.466   2.104   6.056  1.1961  1.1113 -1.3222
 4141SOL     OW23881   3.725   0.459  10.191  0.0618 -0.6386 -0.6071
 4141SOL    HW123882   3.657   0.516  10.228  1.6077  0.2009  0.9565
 4141SOL    HW223883   3.786   0.527  10.164 -1.2965  1.3406  1.2905
 4142SOL     OW23884   0.474   2.674   8.898 -0.3572 -0.3303  0.7750
 4142SOL    HW123885   0.539   2.742   8.917  0.3885 -0.7884 -0.1554
 4142SOL    HW223886   0.535   2.607   8.868 -2.6574 -1.3190 -1.6800
 4143SOL     OW23887   0.785   2.306   8.960 -0.6108 -0.2591 -0.0020
 4143SOL    HW123888   0.846   2.369   8.999 -2.0135  1.3279 -0.3619
 4143SOL    HW223889   0.708   2.356   8.934  2.3206  4.8253  0.8498
 4144SOL     OW23890   0.533   1.807  16.017 -0.1492  0.0179  0.2805
 4144SOL    HW123891   0.517   1.747  16.091  1.2179 -0.0994  0.4836
 4144SOL    HW223892   0.443   1.819  15.987 -0.4907 -0.9357  0.9175
 4145SOL     OW23893   0.082   1.621  13.772 -0.3086  0.6536 -0.1042
 4145SOL    HW123894   0.161   1.574  13.747  0.4096  1.2823  0.9496
 4145SOL    HW223895   0.092   1.708  13.733 -0.3386  1.8410  2.4684
 4146SOL     OW23896   3.087   0.946   1.974 -0.6484 -0.4125  0.1471
 4146SOL    HW123897   3.069   0.874   2.034  0.1694  0.3377  1.2852
 4146SOL    HW223898   3.000   0.969   1.941 -0.9182 -0.9795  0.4515
 4147SOL     OW23899   0.479   2.179   7.676  0.1716  0.7029  0.6583
 4147SOL    HW123900   0.507   2.222   7.596 -1.1519 -0.2015 -0.3001
 4147SOL    HW223901   0.410   2.237   7.710 -0.0111  0.3037  0.9801
 4148SOL     OW23902   1.043   1.921  14.744  0.3949  0.3544 -0.1553
 4148SOL    HW123903   1.100   1.936  14.819  2.4998  0.3728 -1.7572
 4148SOL    HW223904   1.042   2.008  14.705 -0.0348 -0.0250 -0.9988
 4149SOL     OW23905   0.183   1.201   5.171 -0.1921 -0.1377  0.1448
 4149SOL    HW123906   0.248   1.260   5.210 -1.2454 -0.4947  2.4773
 4149SOL    HW223907   0.108   1.259   5.157 -0.1122 -0.1219 -0.2064
 4150SOL     OW23908   2.217   1.244   5.856  0.0075 -0.2773  0.2483
 4150SOL    HW123909   2.182   1.211   5.939  0.1024  1.0225  0.8111
 4150SOL    HW223910   2.258   1.160   5.839 -1.9226 -1.1029 -0.3695
 4151SOL     OW23911   3.098   3.512   9.039  0.1498  0.0793 -0.1871
 4151SOL    HW123912   3.044   3.546   8.968 -1.4487 -0.3716  0.8023
 4151SOL    HW223913   3.029   3.477   9.096 -0.8261 -0.6938 -1.8341
 4152SOL     OW23914   2.586   4.215   9.114  0.1135  0.0966  0.3165
 4152SOL    HW123915   2.541   4.158   9.051  1.3657 -1.6517  1.0168
 4152SOL    HW223916   2.673   4.184   9.089 -0.4686 -0.9779 -0.4269
 4153SOL     OW23917   1.787   3.192   9.079  0.7396  0.3595 -0.1453
 4153SOL    HW123918   1.828   3.131   9.141  1.6260  1.1256  0.0315
 4153SOL    HW223919   1.716   3.143   9.038  0.4361  1.1068 -0.4941
 4154SOL     OW23920   2.174   3.038   7.628  0.3471  0.1468 -0.2786
 4154SOL    HW123921   2.117   3.104   7.590 -1.2077 -1.4857 -0.8217
 4154SOL    HW223922   2.148   3.043   7.720 -0.6081  0.0980 -0.5449
 4155SOL     OW23923   2.723   0.378  14.098 -0.1753  0.0980  0.1434
 4155SOL    HW123924   2.712   0.371  14.003 -2.3277  0.0407  0.3986
 4155SOL    HW223925   2.807   0.335  14.116 -1.0323 -0.8483  1.9361
 4156SOL     OW23926   2.033   1.913  16.086  0.0759  0.1926 -0.2292
 4156SOL    HW123927   2.083   1.992  16.067  1.0348 -0.6639 -1.2609
 4156SOL    HW223928   1.991   1.899  16.002 -2.3288  1.8333  0.6983
 4157SOL     OW23929   2.524   4.375   1.878  0.0667 -0.3137 -0.6880
 4157SOL    HW123930   2.448   4.433   1.873  0.3510  0.1994  0.7652
 4157SOL    HW223931   2.539   4.361   1.785 -0.7055  1.4320 -1.0711
 4158SOL     OW23932   1.472   2.387   6.923 -0.7338  0.3288 -0.4223
 4158SOL    HW123933   1.381   2.380   6.893 -0.3767 -0.0536 -1.4039
 4158SOL    HW223934   1.511   2.375   6.836  0.4989 -0.2785  0.2141
 4159SOL     OW23935   3.835   3.109   3.079  0.5929 -0.0903 -0.5208
 4159SOL    HW123936   3.929   3.124   3.086 -0.2030  3.8602  1.5347
 4159SOL    HW223937   3.835   3.017   3.052  1.6241 -0.2218 -0.0951
 4160SOL     OW23938   4.434   3.293   6.444 -0.2294  0.1173 -0.1028
 4160SOL    HW123939   4.520   3.287   6.486 -1.1265 -3.2699  1.1838
 4160SOL    HW223940   4.445   3.379   6.403  0.2576  0.2967  0.3937
 4161SOL     OW23941   3.159   2.304   4.028 -0.5551  0.9245 -0.3869
 4161SOL    HW123942   3.247   2.338   4.009 -0.1704 -0.3758 -0.9020
 4161SOL    HW223943   3.106   2.382   4.010 -0.8928  0.9852  0.8675
 4162SOL     OW23944   2.400   2.626   4.133 -0.0668 -0.5556  0.1181
 4162SOL    HW123945   2.361   2.539   4.127 -2.0548  0.6121 -3.7722
 4162SOL    HW223946   2.374   2.674   4.055  0.0370  1.0811  1.0838
 4163SOL     OW23947   0.033   1.447   0.589 -0.1011  0.4677 -0.0673
 4163SOL    HW123948   0.099   1.424   0.655 -0.6483  0.7312  0.5686
 4163SOL    HW223949   4.703   1.371   0.569 -0.8096  1.0446 -0.3558
 4164SOL     OW23950   2.221   3.848   7.394 -0.5365 -0.2106  0.3165
 4164SOL    HW123951   2.254   3.770   7.351  0.5705  0.4671 -0.0427
 4164SOL    HW223952   2.135   3.875   7.361  0.2854  0.6141 -1.1230
 4165SOL     OW23953   3.889   0.455   2.906 -0.5094  0.3390  0.4551
 4165SOL    HW123954   3.857   0.540   2.874  2.0560  0.6763 -1.1701
 4165SOL    HW223955   3.894   0.483   2.997 -3.2431  2.7454 -0.1410
 4166SOL     OW23956   2.738   3.647  14.381 -0.2826  0.1428 -0.8472
 4166SOL    HW123957   2.721   3.553  14.375 -0.8183  0.1499  0.6285
 4166SOL    HW223958   2.663   3.678  14.330 -1.7604  1.2004  2.0112
 4167SOL     OW23959   1.071   3.325   6.981 -0.3284 -0.9085 -0.5141
 4167SOL    HW123960   1.162   3.303   6.960 -0.6407 -1.3390 -1.4024
 4167SOL    HW223961   1.039   3.244   6.942  0.5383 -2.1147  1.2602
 4168SOL     OW23962   3.790   1.964   9.034  0.8256 -0.1132 -0.0600
 4168SOL    HW123963   3.695   1.978   9.042  0.3935 -0.7133 -4.1229
 4168SOL    HW223964   3.778   1.895   8.968  0.0937  1.2808 -1.3939
 4169SOL     OW23965   3.430   3.550  16.057  0.5415 -0.2121 -0.2319
 4169SOL    HW123966   3.396   3.599  16.132 -0.0228 -0.8905 -0.0454
 4169SOL    HW223967   3.517   3.588  16.046 -0.0264  0.5241 -2.2886
 4170SOL     OW23968   0.942   0.254   5.012  0.0189  0.8919 -0.1262
 4170SOL    HW123969   0.996   0.251   5.092  0.5948  2.1808 -0.4599
 4170SOL    HW223970   0.949   0.345   4.984  2.2100  0.8663  0.2681
 4171SOL     OW23971   0.684   2.599  16.044  0.1335  0.0710 -0.4143
 4171SOL    HW123972   0.683   2.514  16.000  1.4591 -0.6274  0.9001
 4171SOL    HW223973   0.688   2.555  16.129  0.5022  0.6665 -0.1224
 4172SOL     OW23974   3.890   0.457   1.441 -0.7946  1.0887  0.5295
 4172SOL    HW123975   3.934   0.389   1.390 -2.3216 -0.5264  1.3761
 4172SOL    HW223976   3.937   0.448   1.524  0.6137  0.9912 -0.2808
 4173SOL     OW23977   2.890   2.196   5.549 -1.1135 -0.7997 -0.4179
 4173SOL    HW123978   2.816   2.236   5.502 -1.9761 -2.2641 -0.3025
 4173SOL    HW223979   2.868   2.105   5.571 -1.2275 -0.4652  0.8570
 4174SOL     OW23980   4.481   0.848  12.649 -0.0366  0.4077  0.1917
 4174SOL    HW123981   4.544   0.796  12.700 -0.4122  0.0487  0.2928
 4174SOL    HW223982   4.424   0.884  12.717  0.9281  0.7391  0.8133
 4175SOL     OW23983   3.247   3.442   1.722  0.1273  0.0557  0.7518
 4175SOL    HW123984   3.156   3.473   1.718  0.8124  1.5835 -2.9740
 4175SOL    HW223985   3.239   3.347   1.710  1.5944 -0.0306  0.4538
 4176SOL     OW23986   1.964   4.582   4.874 -0.3026 -0.2467 -0.1030
 4176SOL    HW123987   1.924   4.554   4.956  1.3462  0.3434  0.9022
 4176SOL    HW223988   1.901   4.541   4.815 -0.8260 -1.5955  1.3867
 4177SOL     OW23989   1.425   0.690   7.692 -0.3640  0.5596  0.5480
 4177SOL    HW123990   1.381   0.775   7.696 -0.3121  0.6487 -0.7545
 4177SOL    HW223991   1.353   0.638   7.729 -0.5739  0.2577 -0.2746
 4178SOL     OW23992   4.349   3.995   4.779 -0.6273  0.2435 -0.1487
 4178SOL    HW123993   4.277   4.043   4.740 -0.5938 -0.3078 -0.8942
 4178SOL    HW223994   4.392   3.967   4.698 -1.2222 -0.3098 -0.2680
 4179SOL     OW23995   3.414   1.650   4.538  0.4883 -0.4335 -0.4312
 4179SOL    HW123996   3.338   1.594   4.551  0.6474  0.1013  2.8298
 4179SOL    HW223997   3.471   1.595   4.484  0.0922 -1.6539  0.3940
 4180SOL     OW23998   3.481   0.295  12.768  0.1388  0.4658 -0.4418
 4180SOL    HW123999   3.567   0.277  12.806  0.7018  1.5076 -1.2158
 4180SOL    HW224000   3.437   0.342  12.838  0.0709  0.5857 -0.5651
 4181SOL     OW24001   1.158   3.755   7.646  0.1240  0.4208  0.3600
 4181SOL    HW124002   1.069   3.779   7.621  1.1658 -0.1810 -3.7989
 4181SOL    HW224003   1.211   3.826   7.609  1.2564  1.0279  3.1471
 4182SOL     OW24004   0.788   2.665   6.680 -0.7136  0.1251  0.0328
 4182SOL    HW124005   0.728   2.671   6.754 -0.3790 -2.0982  0.4957
 4182SOL    HW224006   0.757   2.581   6.645 -4.3232  1.3715  0.2603
 4183SOL     OW24007   3.135   3.656   2.558  0.0278  0.2605  0.2079
 4183SOL    HW124008   3.193   3.716   2.511  0.4630 -0.6091 -0.3540
 4183SOL    HW224009   3.114   3.604   2.480 -0.9474 -0.1224  0.7246
 4184SOL     OW24010   1.983   0.716   1.613 -0.0238  0.2189 -0.4400
 4184SOL    HW124011   1.911   0.712   1.549  1.3087 -1.5015 -1.8549
 4184SOL    HW224012   1.987   0.810   1.630  1.6883  0.0621 -0.0263
 4185SOL     OW24013   1.474   4.424   8.523 -0.8586  0.8286 -0.4950
 4185SOL    HW124014   1.529   4.345   8.520 -0.0736  1.2547  2.1892
 4185SOL    HW224015   1.483   4.448   8.616  1.3095  1.9132 -0.9789
 4186SOL     OW24016   2.789   4.472   0.855 -0.0242  0.0568 -0.0778
 4186SOL    HW124017   2.865   4.438   0.808  0.0690  0.9942 -0.6022
 4186SOL    HW224018   2.720   4.424   0.808  1.8988  0.1831 -3.0173
 4187SOL     OW24019   3.072   0.548   5.939 -0.2178 -0.4248 -0.3141
 4187SOL    HW124020   2.977   0.536   5.942 -0.3402  0.5061 -0.3015
 4187SOL    HW224021   3.084   0.643   5.937 -2.0764 -0.1980 -0.9487
 4188SOL     OW24022   1.151   3.199  11.260  0.2835  0.4090  0.0452
 4188SOL    HW124023   1.159   3.146  11.180  3.2358  1.2306 -0.2029
 4188SOL    HW224024   1.100   3.272  11.224  2.5723  1.5049 -0.9885
 4189SOL     OW24025   1.242   1.028   2.228  0.3135 -0.2434  0.4507
 4189SOL    HW124026   1.169   1.077   2.192  0.5718  1.4868  2.3061
 4189SOL    HW224027   1.215   0.995   2.314  1.6367 -1.8521  0.2566
 4190SOL     OW24028   1.428   4.159   8.290  0.6467 -0.5701 -0.2518
 4190SOL    HW124029   1.505   4.151   8.234 -0.0151  2.5991 -1.5847
 4190SOL    HW224030   1.482   4.178   8.367  0.1427 -1.9309  0.4517
 4191SOL     OW24031   3.152   3.638  15.489  0.0995  0.0327 -0.7119
 4191SOL    HW124032   3.084   3.676  15.544  0.7362 -0.8062  0.6452
 4191SOL    HW224033   3.114   3.551  15.477 -0.1770 -0.3411  2.9642
 4192SOL     OW24034   2.342   3.223  12.801  0.2384  0.1351 -0.0651
 4192SOL    HW124035   2.429   3.234  12.763  0.6935 -0.3803  0.8150
 4192SOL    HW224036   2.357   3.208  12.895  1.4875  1.2580 -0.0871
 4193SOL     OW24037   0.953   2.737   3.886 -0.3077  0.4037  0.2898
 4193SOL    HW124038   0.957   2.701   3.797  0.0628  0.3931  0.3074
 4193SOL    HW224039   0.858   2.737   3.892 -0.2591  1.4413  1.1001
 4194SOL     OW24040   3.911   1.487   6.459  0.5613 -0.7543  0.5087
 4194SOL    HW124041   3.926   1.508   6.367 -2.6540 -0.3986  0.0595
 4194SOL    HW224042   4.000   1.474   6.490 -0.0558 -0.6112  2.3515
 4195SOL     OW24043   3.662   2.608   8.277 -0.1156  0.1131 -0.3628
 4195SOL    HW124044   3.576   2.565   8.282 -0.5299  1.0905  1.0144
 4195SOL    HW224045   3.642   2.671   8.208  0.9569  0.7232 -0.1127
 4196SOL     OW24046   3.500   0.133   4.173  0.1264  0.1916 -0.4475
 4196SOL    HW124047   3.530   0.042   4.178  1.8989  0.9498  2.8096
 4196SOL    HW224048   3.514   0.164   4.263  2.0746  0.5439 -0.8651
 4197SOL     OW24049   3.556   3.982   8.469 -0.0939  0.4169  0.4634
 4197SOL    HW124050   3.503   3.955   8.544  0.0229 -0.6066  0.1778
 4197SOL    HW224051   3.499   4.038   8.417  3.3421  3.2485 -0.2286
 4198SOL     OW24052   1.297   0.150   7.022  0.1796  0.7831  0.6831
 4198SOL    HW124053   1.323   0.242   7.022  0.6329  0.6533  1.8009
 4198SOL    HW224054   1.312   0.129   7.114  2.5254 -0.1957  0.0840
 4199SOL     OW24055   1.101   3.431   3.934  0.0236  0.2837 -0.5429
 4199SOL    HW124056   1.104   3.381   3.853  2.9316 -0.1905 -0.1350
 4199SOL    HW224057   1.006   3.439   3.945 -0.1622 -0.6889 -1.4751
 4200SOL     OW24058   1.620   0.195  15.224 -0.7734  0.0385  0.1831
 4200SOL    HW124059   1.708   0.231  15.235 -0.9639  0.8295 -0.8616
 4200SOL    HW224060   1.616   0.132  15.296 -0.9426  1.4880  1.4641
 4201SOL     OW24061   0.418   2.260  16.680 -0.1354 -0.1443  0.2473
 4201SOL    HW124062   0.451   2.173  16.659 -1.1504 -0.9091  1.8699
 4201SOL    HW224063   0.326   2.235  16.691  0.2986  0.1548  4.3799
 4202SOL     OW24064   4.678   3.922   3.020  0.0150 -0.0077 -0.7556
 4202SOL    HW124065   4.670   4.016   3.000  1.4537  0.4635  0.7944
 4202SOL    HW224066   0.020   3.927   3.090 -1.1621 -0.7879  0.3988
 4203SOL     OW24067   1.149   0.785   2.088  0.1332 -0.6478 -0.2477
 4203SOL    HW124068   1.129   0.802   2.180  1.3849  0.0836 -0.1039
 4203SOL    HW224069   1.224   0.844   2.089 -0.8602  0.6124 -1.7889
 4204SOL     OW24070   3.883   3.454   0.672  0.3504 -0.2892  0.0338
 4204SOL    HW124071   3.893   3.506   0.592  1.1484 -0.5348 -0.0250
 4204SOL    HW224072   3.919   3.512   0.739 -0.2854 -1.4053  1.3481
 4205SOL     OW24073   2.163   3.681   5.815 -0.4065 -0.1699 -0.1316
 4205SOL    HW124074   2.149   3.739   5.740  1.6777  0.1475 -0.2789
 4205SOL    HW224075   2.098   3.721   5.873  0.2218  0.0138  0.4361
 4206SOL     OW24076   3.909   4.425   6.804  0.3201 -0.0137 -0.1272
 4206SOL    HW124077   3.978   4.441   6.869  1.5027  1.4107 -1.7251
 4206SOL    HW224078   3.932   4.335   6.782 -0.8294  0.2891 -2.5591
 4207SOL     OW24079   1.055   3.914   9.832  0.1397 -0.4657 -0.5963
 4207SOL    HW124080   0.997   3.888   9.761 -1.7378  1.7518  0.1263
 4207SOL    HW224081   1.044   4.009   9.828  1.4228 -0.3648 -1.6755
 4208SOL     OW24082   4.066   0.274   4.007  0.3598  0.3558 -0.1421
 4208SOL    HW124083   4.093   0.183   3.998  0.5144  0.3398  0.4472
 4208SOL    HW224084   3.975   0.266   4.036  0.5344 -0.2291  0.2347
 4209SOL     OW24085   1.467   3.772  10.217  0.0213  0.4167 -0.4022
 4209SOL    HW124086   1.488   3.796  10.127 -3.7575 -0.2931 -1.4973
 4209SOL    HW224087   1.553   3.733  10.230  1.0718  1.5274 -3.9068
 4210SOL     OW24088   3.078   2.888   5.095  0.1572  0.3024 -0.2120
 4210SOL    HW124089   3.118   2.855   5.015 -0.0706 -1.8681  0.5596
 4210SOL    HW224090   3.124   2.843   5.165  1.3456  1.7494 -0.0935
 4211SOL     OW24091   4.709   0.631   9.855 -0.3357  0.3892 -0.2154
 4211SOL    HW124092   0.062   0.684   9.878  0.4763 -1.1506  0.6074
 4211SOL    HW224093   0.022   0.543   9.859 -1.4813  0.0420  2.8043
 4212SOL     OW24094   2.583   2.508  13.432 -0.3273  0.9071  0.6932
 4212SOL    HW124095   2.665   2.479  13.394 -1.2326 -1.3412  0.4929
 4212SOL    HW224096   2.551   2.440  13.491  2.5405 -1.2489 -0.2361
 4213SOL     OW24097   4.593   0.243   7.633  0.0471  0.1475 -0.0447
 4213SOL    HW124098   4.617   0.157   7.598 -0.5337 -1.0062  2.4482
 4213SOL    HW224099   4.555   0.288   7.557 -0.5099  0.3159  0.3421
 4214SOL     OW24100   3.365   0.199   7.456 -0.3030 -0.7560  0.1652
 4214SOL    HW124101   3.386   0.235   7.542  0.5789  0.5953 -0.6106
 4214SOL    HW224102   3.278   0.161   7.472 -0.7003  0.8363  1.7459
 4215SOL     OW24103   0.964   2.116   4.890 -0.2072  0.5296 -0.7990
 4215SOL    HW124104   0.904   2.191   4.891 -0.7956  0.0339  1.2740
 4215SOL    HW224105   1.044   2.145   4.933 -2.4006  2.0614  2.2617
 4216SOL     OW24106   2.085   0.499  15.244 -0.1528 -0.3566 -0.2632
 4216SOL    HW124107   2.064   0.589  15.266 -2.1872 -0.7888 -0.4124
 4216SOL    HW224108   2.157   0.517  15.184  0.1656 -2.1711 -0.4289
 4217SOL     OW24109   0.379   0.812   1.979  0.1573 -0.3193 -0.6695
 4217SOL    HW124110   0.385   0.846   1.890  1.1678 -2.2829 -1.3611
 4217SOL    HW224111   0.372   0.894   2.028  0.7758 -0.4177 -0.4203
 4218SOL     OW24112   0.928   3.388   7.225  0.5752 -0.4433  0.1184
 4218SOL    HW124113   0.978   3.367   7.146  1.7821 -0.6328  0.9251
 4218SOL    HW224114   0.865   3.317   7.237 -0.5030  0.4197 -0.4943
 4219SOL     OW24115   1.789   1.264   6.396 -0.2386 -0.1531 -0.1915
 4219SOL    HW124116   1.823   1.238   6.482 -0.7530  1.5803  0.5477
 4219SOL    HW224117   1.702   1.225   6.396 -0.7252  0.9216 -0.8735
 4220SOL     OW24118   0.814   2.584   5.519  0.3262  0.2500 -0.1200
 4220SOL    HW124119   0.890   2.640   5.503 -0.7787  1.9588  0.6224
 4220SOL    HW224120   0.857   2.521   5.577  0.8273 -1.4470 -2.3403
 4221SOL     OW24121   4.069   1.667   5.952 -0.6730 -0.6296 -0.0448
 4221SOL    HW124122   4.157   1.703   5.939 -1.0071  0.9348  2.0069
 4221SOL    HW224123   4.067   1.592   5.892 -0.6002 -1.7576  1.3434
 4222SOL     OW24124   3.383   3.623   5.049 -0.4121  0.0349  0.4053
 4222SOL    HW124125   3.447   3.693   5.039 -0.2638 -0.2486 -0.5956
 4222SOL    HW224126   3.298   3.659   5.023 -0.2628 -1.5087 -2.1369
 4223SOL     OW24127   4.319   3.056  16.116  0.1411  0.7779 -0.3360
 4223SOL    HW124128   4.388   3.094  16.171  0.5459 -1.5569  0.7437
 4223SOL    HW224129   4.249   3.064  16.181  0.3307 -2.8127  0.2610
 4224SOL     OW24130   3.666   1.021   3.586  0.5843  0.0805  0.0626
 4224SOL    HW124131   3.697   1.088   3.525 -0.9338  1.5715  0.9241
 4224SOL    HW224132   3.735   0.955   3.585  0.6442  0.1518 -0.6769
 4225SOL     OW24133   0.898   3.386   9.212 -0.0946  0.3666 -0.7310
 4225SOL    HW124134   0.844   3.465   9.221 -0.5212 -0.4014  3.6485
 4225SOL    HW224135   0.940   3.409   9.130  2.9590 -0.2497  0.6461
 4226SOL     OW24136   3.922   2.232  12.517 -0.0964  0.2859 -0.3196
 4226SOL    HW124137   3.920   2.327  12.504 -0.9819  0.6880  2.6525
 4226SOL    HW224138   3.895   2.225  12.609  0.8727  0.6438 -0.0150
 4227SOL     OW24139   1.797   2.161   0.118  0.6024 -0.3240 -0.2350
 4227SOL    HW124140   1.774   2.172   0.026 -1.4798 -0.2581  0.3031
 4227SOL    HW224141   1.892   2.153   0.111  0.6279 -0.2952  0.0759
 4228SOL     OW24142   3.551   3.104  16.334 -0.3574 -0.4050  0.3033
 4228SOL    HW124143   3.625   3.050  16.303  0.1341 -0.8165  2.2175
 4228SOL    HW224144   3.563   3.182  16.279 -1.5352  0.4438  1.2608
 4229SOL     OW24145   4.369   4.435   1.830 -0.2088 -0.0250  0.2620
 4229SOL    HW124146   4.351   4.411   1.921 -0.7958  1.4690  0.5383
 4229SOL    HW224147   4.352   4.355   1.781 -1.3093  0.4685 -0.1842
 4230SOL     OW24148   1.653   3.142   6.537 -0.3566  0.0126  0.6704
 4230SOL    HW124149   1.639   3.196   6.459 -0.0102 -0.4904  0.2661
 4230SOL    HW224150   1.666   3.051   6.511 -1.8664  0.5245 -1.8945
 4231SOL     OW24151   0.602   0.434   8.856 -0.3692  0.6408 -0.1318
 4231SOL    HW124152   0.621   0.423   8.763  1.0261 -0.2263  0.2542
 4231SOL    HW224153   0.691   0.435   8.892 -1.5185  0.2477  2.6875
 4232SOL     OW24154   3.410   0.388  11.315  0.5808 -0.0208 -0.7582
 4232SOL    HW124155   3.329   0.433  11.292 -0.3316 -1.6751 -0.8348
 4232SOL    HW224156   3.467   0.460  11.340  0.8014 -0.0464 -1.1853
 4233SOL     OW24157   2.872   3.105   6.923  0.3884  1.0341 -0.4955
 4233SOL    HW124158   2.894   3.085   7.014 -2.6490  0.9033  0.2011
 4233SOL    HW224159   2.805   3.173   6.930  2.3247  2.9915 -0.8003
 4234SOL     OW24160   4.519   4.711  14.939 -0.2241  0.6962  0.4435
 4234SOL    HW124161   4.544   4.662  14.861  0.5120  1.8554 -0.0449
 4234SOL    HW224162   4.559   4.655  15.005  0.6805  0.6029 -0.1962
 4235SOL     OW24163   4.026   2.401   1.785  0.3691 -0.2516  0.0052
 4235SOL    HW124164   4.086   2.434   1.717 -1.5323  0.8292 -1.1453
 4235SOL    HW224165   4.040   2.457   1.861 -0.3958 -0.9111  0.6286
 4236SOL     OW24166   0.118   4.486   8.606  0.0296  0.1189 -0.5772
 4236SOL    HW124167   0.082   4.519   8.524  0.6369 -0.2706 -0.9998
 4236SOL    HW224168   0.188   4.429   8.574 -0.3575 -0.7446  0.1119
 4237SOL     OW24169   4.572   0.292   3.582 -0.3492  0.3669  0.1508
 4237SOL    HW124170   4.550   0.208   3.623  1.3051  0.7049  1.7732
 4237SOL    HW224171   4.487   0.335   3.586 -0.4244  0.1644  0.7712
 4238SOL     OW24172   3.458   3.955   6.796  0.2060  0.0077 -0.3871
 4238SOL    HW124173   3.460   4.048   6.822 -0.4979  0.4008 -1.7690
 4238SOL    HW224174   3.529   3.965   6.733  0.9524  0.5683  0.5367
 4239SOL     OW24175   1.209   1.652   3.175 -0.6771 -0.0625 -0.3303
 4239SOL    HW124176   1.224   1.668   3.082  2.7985 -0.7198  0.1347
 4239SOL    HW224177   1.281   1.702   3.212 -1.5560  1.4914 -0.7567
 4240SOL     OW24178   0.901   3.508  10.647 -0.3044 -0.2711  0.3411
 4240SOL    HW124179   0.817   3.473  10.618  0.1522 -0.7640 -0.3903
 4240SOL    HW224180   0.953   3.518  10.567 -0.8709 -0.7325 -0.0781
 4241SOL     OW24181   0.780   1.363   2.304  0.5457  0.3284 -0.4587
 4241SOL    HW124182   0.811   1.307   2.375 -2.2321 -2.5651 -1.5467
 4241SOL    HW224183   0.706   1.313   2.270  2.3168 -2.2100 -0.5709
 4242SOL     OW24184   1.622   3.482   7.712 -0.1326  0.1615  0.7224
 4242SOL    HW124185   1.597   3.390   7.706  2.1635 -0.4546  0.9675
 4242SOL    HW224186   1.717   3.478   7.701  0.0577  3.1255  1.3454
 4243SOL     OW24187   1.547   4.259  15.982  0.0916 -0.6429  0.2546
 4243SOL    HW124188   1.600   4.327  15.941 -0.7148 -0.5975 -0.7109
 4243SOL    HW224189   1.520   4.301  16.064  2.5120 -0.2102  0.8123
 4244SOL     OW24190   1.832   2.233   3.675  0.2969 -1.1431 -0.7893
 4244SOL    HW124191   1.841   2.139   3.656  0.1528 -0.5891 -3.5954
 4244SOL    HW224192   1.898   2.278   3.621  0.8730 -2.5684 -1.2840
 4245SOL     OW24193   0.358   3.360   7.603  0.0056  0.4462  0.4639
 4245SOL    HW124194   0.433   3.381   7.659  0.0199  0.6534  0.3660
 4245SOL    HW224195   0.402   3.319   7.529  0.5029 -0.9804  1.5542
 4246SOL     OW24196   3.113   3.194   9.049  0.0817  0.2071  0.0149
 4246SOL    HW124197   3.066   3.241   9.119  0.6014 -0.0184  0.5196
 4246SOL    HW224198   3.039   3.146   9.012 -0.7465 -0.8659  3.0064
 4247SOL     OW24199   4.561   0.159   2.812 -0.2897 -0.2084 -0.1141
 4247SOL    HW124200   4.508   0.206   2.749  0.9871  1.0921 -0.2233
 4247SOL    HW224201   4.489   0.139   2.871 -0.1951  2.4499  0.9171
 4248SOL     OW24202   3.110   1.009   4.078 -0.3230 -0.0505 -0.7851
 4248SOL    HW124203   3.147   1.040   4.161  2.1465  0.0704 -1.9228
 4248SOL    HW224204   3.145   1.074   4.018 -3.4399  1.9982 -0.3542
 4249SOL     OW24205   1.142   3.096   1.397  0.7108  0.0834 -0.4406
 4249SOL    HW124206   1.168   3.180   1.359  0.3345  0.2259 -0.3826
 4249SOL    HW224207   1.210   3.089   1.465  0.3466 -3.2775 -0.4148
 4250SOL     OW24208   1.188   3.743   5.184 -0.3948 -0.0094  0.0399
 4250SOL    HW124209   1.150   3.664   5.147 -1.5238 -0.0715  1.3551
 4250SOL    HW224210   1.210   3.794   5.106  1.4879 -0.0096  0.5753
 4251SOL     OW24211   2.096   3.845   4.129 -0.3126 -0.6963 -0.1516
 4251SOL    HW124212   2.134   3.851   4.042  1.0816 -1.0393  0.4202
 4251SOL    HW224213   2.179   3.813   4.164 -0.6946  0.6928  2.0654
 4252SOL     OW24214   0.000   0.206   6.797 -0.5366 -0.1408  0.1457
 4252SOL    HW124215   0.006   0.218   6.702  1.1802  1.0865  0.3924
 4252SOL    HW224216   4.663   0.133   6.799 -0.0549 -0.5396  0.0832
 4253SOL     OW24217   4.220   1.761  16.279 -0.2223  0.4495 -0.7126
 4253SOL    HW124218   4.255   1.711  16.205  2.2447 -1.3456  1.6756
 4253SOL    HW224219   4.275   1.838  16.292  0.2463  0.1397 -0.8705
 4254SOL     OW24220   2.512   0.431   4.121 -0.6065  0.0558 -0.5319
 4254SOL    HW124221   2.570   0.407   4.049 -0.4177  0.1748 -0.4201
 4254SOL    HW224222   2.571   0.393   4.186 -0.8058 -0.9532 -0.9367
 4255SOL     OW24223   1.854   2.981   4.509 -0.0532  0.1698 -0.3303
 4255SOL    HW124224   1.771   2.968   4.556  0.3304  0.7639  0.5138
 4255SOL    HW224225   1.837   2.972   4.415  0.1734  1.2059 -0.4714
 4256SOL     OW24226   0.647   3.678   1.908 -0.1140  0.8847  0.7104
 4256SOL    HW124227   0.673   3.697   1.817 -0.2728  1.6167  0.8206
 4256SOL    HW224228   0.651   3.583   1.917 -3.8718  0.8309  1.7453
 4257SOL     OW24229   2.804   0.717   2.728 -0.4467 -0.1082 -0.2073
 4257SOL    HW124230   2.811   0.710   2.633 -1.0355  0.9298 -0.3179
 4257SOL    HW224231   2.886   0.674   2.752 -0.5944  1.9409  4.0015
 4258SOL     OW24232   3.408   4.529   2.838  0.1683  0.0275 -0.2440
 4258SOL    HW124233   3.493   4.552   2.876  0.1744 -1.3761  0.5641
 4258SOL    HW224234   3.420   4.576   2.755  2.3916 -0.3437 -0.1334
 4259SOL     OW24235   3.790   3.709   6.894  0.0427 -0.2495 -0.1234
 4259SOL    HW124236   3.740   3.728   6.973 -1.4979 -0.5407 -1.0231
 4259SOL    HW224237   3.793   3.613   6.889  0.4381 -0.1121 -2.4397
 4260SOL     OW24238   4.060   1.695   8.695 -0.2573  0.3322  0.0472
 4260SOL    HW124239   3.984   1.638   8.699  0.1006 -0.2115 -0.9420
 4260SOL    HW224240   4.072   1.687   8.600 -0.7570 -2.0736  0.1861
 4261SOL     OW24241   1.769   2.073   4.666 -0.0262 -0.5344 -0.9402
 4261SOL    HW124242   1.733   2.135   4.603 -0.1580  0.3091 -0.0349
 4261SOL    HW224243   1.812   2.011   4.607  1.8161 -2.8270  2.7644
 4262SOL     OW24244   0.416   2.115   3.126  0.1278  0.6992 -0.7535
 4262SOL    HW124245   0.420   2.049   3.057 -1.9669 -0.8476  0.5787
 4262SOL    HW224246   0.497   2.101   3.175 -0.0086  1.7027 -0.2542
 4263SOL     OW24247   2.755   3.649  12.414  0.1800 -0.0366 -0.5256
 4263SOL    HW124248   2.835   3.635  12.363 -0.5086  0.8483 -1.8314
 4263SOL    HW224249   2.771   3.580  12.479 -1.4622 -0.1244 -0.2292
 4264SOL     OW24250   2.622   3.562  17.463  0.3761 -0.3973 -0.3612
 4264SOL    HW124251   2.700   3.535  17.512 -0.7250 -2.5783  0.1852
 4264SOL    HW224252   2.641   3.654  17.441  3.1561 -0.6930  0.8540
 4265SOL     OW24253   0.184   3.272   6.635  0.3787 -0.0880 -0.2655
 4265SOL    HW124254   0.261   3.232   6.676  0.7898 -1.6280 -2.5205
 4265SOL    HW224255   0.158   3.339   6.697 -0.4705 -2.9810  2.4607
 4266SOL     OW24256   0.078   2.693   2.927 -0.4355 -0.6339 -0.3998
 4266SOL    HW124257   0.162   2.725   2.893 -0.7738  1.0766  0.3908
 4266SOL    HW224258   0.014   2.764   2.925 -1.2014 -1.3322 -0.6528
 4267SOL     OW24259   3.903   1.942  12.526 -0.2933  0.1874 -0.0580
 4267SOL    HW124260   3.886   2.036  12.534 -0.9464  0.0935 -0.2602
 4267SOL    HW224261   3.971   1.936  12.459  0.1599  1.5035  0.2890
 4268SOL     OW24262   3.391   4.380   2.479  0.1855 -0.1256  0.1879
 4268SOL    HW124263   3.342   4.443   2.531  0.1730 -0.4359  0.5508
 4268SOL    HW224264   3.454   4.435   2.431 -1.2673 -0.2201 -1.7967
 4269SOL     OW24265   2.245   4.302   5.435 -0.0520 -0.0342  0.0732
 4269SOL    HW124266   2.219   4.358   5.361 -1.1785  0.5894  0.9334
 4269SOL    HW224267   2.278   4.370   5.493 -2.4061 -0.8184  2.3211
 4270SOL     OW24268   3.167   2.247   5.645 -0.8938 -0.0894 -0.1855
 4270SOL    HW124269   3.080   2.222   5.614 -1.3098  1.0833  0.0390
 4270SOL    HW224270   3.152   2.341   5.654  1.9813  0.3135  0.1618
 4271SOL     OW24271   1.680   0.468   8.908 -0.0213  0.4845  0.0156
 4271SOL    HW124272   1.698   0.552   8.866  0.0244  0.5592  0.1837
 4271SOL    HW224273   1.755   0.464   8.967 -2.0289  0.1859  2.5681
 4272SOL     OW24274   4.174   4.183  12.305 -0.8890 -0.3949 -0.5312
 4272SOL    HW124275   4.143   4.269  12.277  1.2508  0.7500  0.5641
 4272SOL    HW224276   4.179   4.197  12.399 -0.4633  0.6325 -0.7030
 4273SOL     OW24277   3.299   0.292  13.660 -0.4973  0.2146 -0.0586
 4273SOL    HW124278   3.300   0.284  13.565 -0.1819  0.5235 -0.0833
 4273SOL    HW224279   3.392   0.292  13.682 -0.6900 -1.8543  0.7093
 4274SOL     OW24280   0.968   1.635   5.854  0.2806 -0.2330  0.4232
 4274SOL    HW124281   1.009   1.714   5.889 -0.3164 -0.1395  0.9117
 4274SOL    HW224282   1.047   1.581   5.853 -0.1663 -0.8565 -1.6021
 4275SOL     OW24283   0.989   3.363  14.606  0.6719 -0.0624 -0.2473
 4275SOL    HW124284   1.060   3.302  14.623  0.2562 -0.0826  1.4736
 4275SOL    HW224285   1.044   3.438  14.584 -0.2730  0.6424 -0.2169
 4276SOL     OW24286   1.107   2.999   1.131 -0.5508  0.1289 -0.0408
 4276SOL    HW124287   1.069   3.083   1.105 -0.5479 -0.2199 -1.1552
 4276SOL    HW224288   1.114   3.000   1.226  1.6015  0.8883 -0.2250
 4277SOL     OW24289   1.014   3.393   9.905 -0.2683  0.0758  0.2600
 4277SOL    HW124290   1.027   3.327   9.973 -0.1163 -1.7991 -1.5831
 4277SOL    HW224291   1.030   3.475   9.951 -0.1700  1.2557 -1.8404
 4278SOL     OW24292   3.705   2.606  10.105 -0.1375 -0.1914 -0.0303
 4278SOL    HW124293   3.736   2.516  10.092  1.2168  0.2172  0.4058
 4278SOL    HW224294   3.617   2.600  10.069  0.2832 -1.9703 -0.7630
 4279SOL     OW24295   2.713   3.031   8.128 -0.5646 -0.0829 -0.0987
 4279SOL    HW124296   2.688   3.025   8.036  0.7794  1.0244 -0.5506
 4279SOL    HW224297   2.683   2.949   8.167  1.4468 -0.9031 -0.2905
 4280SOL     OW24298   2.422   3.415   7.459 -0.5506 -0.6966  0.4045
 4280SOL    HW124299   2.473   3.441   7.536 -1.7129  0.8052  0.6713
 4280SOL    HW224300   2.358   3.486   7.449 -0.2335 -0.3489  0.8378
 4281SOL     OW24301   0.388   1.263  16.783 -0.8279  0.0775  0.3622
 4281SOL    HW124302   0.468   1.235  16.738 -0.8258  0.2184  0.2749
 4281SOL    HW224303   0.331   1.225  16.716  2.8897 -2.4794 -1.3732
 4282SOL     OW24304   3.205   3.146  12.593 -0.7319 -0.0667  0.0727
 4282SOL    HW124305   3.170   3.079  12.652 -1.2239 -0.0624 -0.2085
 4282SOL    HW224306   3.248   3.201  12.659  0.1322 -1.1935  0.4390
 4283SOL     OW24307   2.692   1.035   6.447 -0.1821  0.3320  0.0858
 4283SOL    HW124308   2.620   0.987   6.487  0.8767 -1.6034 -0.3581
 4283SOL    HW224309   2.649   1.078   6.373  2.3056  0.4700 -1.2838
 4284SOL     OW24310   3.176   0.485   7.673 -0.4380  0.2818 -0.2561
 4284SOL    HW124311   3.111   0.457   7.609  0.8420 -2.6152 -0.2973
 4284SOL    HW224312   3.172   0.580   7.664  0.7098  0.8001  4.7048
 4285SOL     OW24313   2.091   0.032   5.576  0.6671  0.0829 -0.1357
 4285SOL    HW124314   2.158   0.027   5.645  2.0830 -1.2068 -1.5956
 4285SOL    HW224315   2.063   4.665   5.560  1.2091  0.2047 -1.7494
 4286SOL     OW24316   0.469   4.248   0.458  0.1949  0.5554  0.4136
 4286SOL    HW124317   0.423   4.322   0.417  1.7719  1.4635  0.2770
 4286SOL    HW224318   0.418   4.234   0.538 -1.0917 -0.6531 -0.6289
 4287SOL     OW24319   0.890   3.842   5.284  0.3683  0.4810  0.4018
 4287SOL    HW124320   0.853   3.754   5.296 -0.4231  0.3753 -2.7868
 4287SOL    HW224321   0.918   3.841   5.192 -2.3307  0.1849 -0.4393
 4288SOL     OW24322   2.596   1.976   9.660 -0.1273 -0.6494  0.4137
 4288SOL    HW124323   2.515   2.016   9.692 -0.3489 -1.1120  0.4281
 4288SOL    HW224324   2.638   2.055   9.625 -1.7931  0.0825  0.0664
 4289SOL     OW24325   0.542   0.698   8.616 -0.2786 -0.6678  0.3168
 4289SOL    HW124326   0.638   0.700   8.618 -0.2748  1.5347 -2.0756
 4289SOL    HW224327   0.534   0.672   8.524  1.4831  3.9471 -1.1208
 4290SOL     OW24328   4.374   1.687  11.005  0.2347  0.3859 -0.1857
 4290SOL    HW124329   4.312   1.757  10.985  0.7191  0.9602  0.3104
 4290SOL    HW224330   4.428   1.687  10.926 -0.3261 -0.0517 -0.5642
 4291SOL     OW24331   3.123   1.648   9.104 -0.2440  0.0929  0.0642
 4291SOL    HW124332   3.213   1.679   9.089 -0.1612 -0.6254 -0.9042
 4291SOL    HW224333   3.114   1.573   9.046  1.2088  1.1403 -1.5311
 4292SOL     OW24334   4.656   1.445   4.073  0.1384  0.0864  0.3780
 4292SOL    HW124335   0.027   1.439   4.058  0.0814 -1.6662  0.7484
 4292SOL    HW224336   4.643   1.539   4.082  1.5569  0.2928  0.2876
 4293SOL     OW24337   3.026   0.220   6.993 -0.2070  0.3924  0.0656
 4293SOL    HW124338   3.063   0.307   6.979 -1.6558  0.9945 -0.0906
 4293SOL    HW224339   2.961   0.216   6.922 -1.3402  1.0835  1.0717
 4294SOL     OW24340   4.096   3.065   4.847 -0.6897 -0.0314  0.3155
 4294SOL    HW124341   4.021   3.057   4.788 -1.5293 -1.7498  1.6303
 4294SOL    HW224342   4.143   2.984   4.830  0.2147  0.5528  0.0224
 4295SOL     OW24343   2.798   1.931  10.281 -0.1624  0.3249  0.2165
 4295SOL    HW124344   2.763   2.016  10.255 -0.5317  0.3358  0.7502
 4295SOL    HW224345   2.754   1.911  10.364  0.6615  2.8226  1.2479
 4296SOL     OW24346   1.502   0.249   2.463 -0.1851  0.6023  0.3235
 4296SOL    HW124347   1.577   0.284   2.512 -0.8119  0.4942  1.3585
 4296SOL    HW224348   1.527   0.157   2.455 -0.4817  0.4633  0.9727
 4297SOL     OW24349   4.074   1.946   5.538  0.0652 -0.2618  0.1999
 4297SOL    HW124350   4.086   1.857   5.504 -0.8819 -0.2412 -0.1868
 4297SOL    HW224351   3.979   1.955   5.532 -0.1594 -1.4678  1.9079
 4298SOL     OW24352   0.503   3.915   4.983  0.3182 -0.2933  0.2621
 4298SOL    HW124353   0.446   3.906   4.907 -1.7167 -0.4798  1.8214
 4298SOL    HW224354   0.439   3.918   5.053 -2.3641  1.7574 -2.2924
 4299SOL     OW24355   1.358   0.508   7.438  0.2151 -0.1223 -0.1134
 4299SOL    HW124356   1.317   0.523   7.523  0.5312  3.6164 -0.6594
 4299SOL    HW224357   1.414   0.430   7.446  0.2023  0.3541  4.2051
 4300SOL     OW24358   0.572   1.529   4.942 -0.7390  0.2760  0.1428
 4300SOL    HW124359   0.489   1.497   4.906 -0.9359  0.6790  0.2319
 4300SOL    HW224360   0.597   1.455   4.997  0.2485 -0.2467 -1.0249
 4301SOL     OW24361   0.984   2.618   9.589  0.2622 -0.6843 -0.8344
 4301SOL    HW124362   1.026   2.646   9.671  2.2764  1.8841 -2.7249
 4301SOL    HW224363   1.005   2.524   9.587  0.7386 -0.5482 -2.2747
 4302SOL     OW24364   1.811   2.341   6.523 -0.3765  0.4338 -1.3403
 4302SOL    HW124365   1.869   2.414   6.543 -0.9164  0.4409  0.2404
 4302SOL    HW224366   1.883   2.279   6.510 -1.4643 -1.0430 -0.2916
 4303SOL     OW24367   0.390   1.969   8.098 -0.4103 -0.2403 -0.1113
 4303SOL    HW124368   0.311   2.004   8.056 -0.6950  0.0184  0.6382
 4303SOL    HW224369   0.460   2.015   8.051  0.7076 -1.3178  0.5003
 4304SOL     OW24370   1.024   3.994   5.830  0.3631  0.2919 -0.0830
 4304SOL    HW124371   0.957   3.931   5.855 -0.2151  0.2154 -1.7808
 4304SOL    HW224372   1.066   3.941   5.762 -2.9897 -1.2535 -0.9604
 4305SOL     OW24373   4.520   1.382   8.673 -0.7495 -0.4461 -0.1989
 4305SOL    HW124374   4.611   1.355   8.660 -0.2831  1.1369 -0.2795
 4305SOL    HW224375   4.523   1.462   8.620 -0.5159  0.9855  1.9966
 4306SOL     OW24376   1.728   2.335  12.329 -0.4289 -0.4532  0.2502
 4306SOL    HW124377   1.683   2.254  12.308  0.4154 -0.8338 -0.0698
 4306SOL    HW224378   1.710   2.358  12.420  0.0391 -0.8522  0.4468
 4307SOL     OW24379   0.344   2.642   5.709 -0.1726  0.2733 -0.1644
 4307SOL    HW124380   0.324   2.645   5.615  0.4664 -1.1974 -0.3470
 4307SOL    HW224381   0.436   2.666   5.715  0.0985 -1.0104  0.8452
 4308SOL     OW24382   4.246   0.065   3.434  0.0493  0.0864  0.2418
 4308SOL    HW124383   4.157   0.090   3.407 -0.7077 -4.2493 -1.2643
 4308SOL    HW224384   4.219   4.698   3.450  1.3500 -0.1855  0.8418
 4309SOL     OW24385   0.951   0.972  15.727  0.2650 -0.5197  0.2222
 4309SOL    HW124386   0.969   1.004  15.639  2.4247 -0.6877  0.6137
 4309SOL    HW224387   0.867   0.930  15.708 -1.1355  1.8616  1.0854
 4310SOL     OW24388   0.775   3.571   4.537 -0.1530 -0.2865  0.1283
 4310SOL    HW124389   0.800   3.483   4.563 -0.8834 -0.8352 -1.0335
 4310SOL    HW224390   0.788   3.565   4.442 -0.9633  0.1144 -0.0108
 4311SOL     OW24391   0.510   0.760  13.383  0.4851  0.7091  0.5994
 4311SOL    HW124392   0.440   0.807  13.337  1.7484  1.1040 -0.9349
 4311SOL    HW224393   0.580   0.762  13.317 -1.9559 -2.4600 -2.0554
 4312SOL     OW24394   2.387   1.253  15.457 -0.7593 -0.0172 -0.5607
 4312SOL    HW124395   2.463   1.292  15.499  0.3278 -2.1719 -0.5136
 4312SOL    HW224396   2.324   1.233  15.526 -0.1383  1.0777  0.3190
 4313SOL     OW24397   2.407   0.919  14.467  0.6649 -0.7917 -0.0086
 4313SOL    HW124398   2.454   0.997  14.495 -0.4786 -0.0563 -0.1160
 4313SOL    HW224399   2.480   0.857  14.468 -1.1048 -2.9056 -0.7736
 4314SOL     OW24400   2.690   1.080  10.662  0.1956 -0.5426 -0.1072
 4314SOL    HW124401   2.778   1.054  10.635  0.5400  0.9493 -0.4626
 4314SOL    HW224402   2.671   1.010  10.724  2.2645 -0.8016  0.2357
 4315SOL     OW24403   4.449   0.527   1.125  0.1678 -0.3105  0.5901
 4315SOL    HW124404   4.543   0.514   1.123  0.2196  0.1790 -0.1115
 4315SOL    HW224405   4.418   0.462   1.189 -1.1961 -0.0482  0.2090
 4316SOL     OW24406   2.761   1.726  12.862 -0.0645 -0.0181  0.6130
 4316SOL    HW124407   2.757   1.786  12.787 -2.4603 -1.8712 -0.7564
 4316SOL    HW224408   2.708   1.652  12.832 -0.1595  0.3347 -0.0860
 4317SOL     OW24409   4.001   3.179   2.434 -0.2560 -0.5269  0.0419
 4317SOL    HW124410   4.041   3.171   2.520 -1.3823 -0.7781  0.5453
 4317SOL    HW224411   3.977   3.088   2.419  0.7038 -0.6549 -0.6619
 4318SOL     OW24412   0.662   1.908   1.929 -0.5316  0.1521  0.4162
 4318SOL    HW124413   0.720   1.972   1.970  0.3876 -0.9856  0.9031
 4318SOL    HW224414   0.642   1.953   1.847 -0.1733 -0.0722  0.2057
 4319SOL     OW24415   3.128   1.370   6.161  0.3060  0.1480  0.6477
 4319SOL    HW124416   3.098   1.421   6.236  1.2075 -0.0101  1.1221
 4319SOL    HW224417   3.058   1.383   6.098  0.6814 -1.5358 -0.1189
 4320SOL     OW24418   2.990   1.885  12.631  0.2602  0.0132  0.1081
 4320SOL    HW124419   3.009   1.870  12.538  1.6767  3.6548 -0.1871
 4320SOL    HW224420   3.015   1.797  12.660 -1.1452 -0.2667  0.4563
 4321SOL     OW24421   4.038   1.287   2.063 -0.7251 -0.5179  0.4045
 4321SOL    HW124422   4.090   1.340   2.002 -0.0241 -0.4695  1.0408
 4321SOL    HW224423   4.047   1.199   2.029 -1.5910  0.3841 -2.1171
 4322SOL     OW24424   1.128   1.870   5.685 -0.3530 -0.3519 -0.4242
 4322SOL    HW124425   1.088   1.921   5.756  0.2144 -0.0091 -0.3480
 4322SOL    HW224426   1.148   1.944   5.627  1.5127 -0.7469 -0.2764
 4323SOL     OW24427   4.405   2.184   8.182  0.0890  0.0846  0.5083
 4323SOL    HW124428   4.343   2.205   8.112 -0.0488 -1.9823 -0.0088
 4323SOL    HW224429   4.367   2.235   8.254 -1.3989  3.7267 -2.8397
 4324SOL     OW24430   0.875   0.549  16.943  0.6709  0.2644 -0.0390
 4324SOL    HW124431   0.918   0.472  16.906  0.1154  0.3250 -0.8011
 4324SOL    HW224432   0.864   0.601  16.864  2.5907  1.1702  0.2795
 4325SOL     OW24433   2.113   0.513   7.372  0.2009 -0.3678  0.7736
 4325SOL    HW124434   2.034   0.518   7.318 -0.5486  0.2884  1.9198
 4325SOL    HW224435   2.183   0.493   7.311 -0.3090  1.4775 -0.4124
 4326SOL     OW24436   2.259   1.474   5.029  0.3305  0.8348 -0.3793
 4326SOL    HW124437   2.308   1.513   5.101  1.1543  0.6265 -0.8241
 4326SOL    HW224438   2.177   1.451   5.072 -0.0072 -0.0643 -1.4931
 4327SOL     OW24439   2.361   4.689   4.856  0.0197  0.3273  0.5035
 4327SOL    HW124440   2.386   4.616   4.800 -1.0627  0.3064  0.0472
 4327SOL    HW224441   2.379   0.045   4.806  2.2209 -0.0852  0.6338
 4328SOL     OW24442   0.816   1.375  13.946  0.3562 -0.0523 -0.2530
 4328SOL    HW124443   0.737   1.419  13.977  0.8825 -0.5211  1.7280
 4328SOL    HW224444   0.847   1.448  13.892 -2.7209  0.8365 -0.8210
 4329SOL     OW24445   3.124   3.232   7.216 -0.0319  0.6417  0.2351
 4329SOL    HW124446   3.177   3.223   7.137  1.2828  1.9397  0.9741
 4329SOL    HW224447   3.186   3.274   7.276 -0.6747  0.0084  1.3355
 4330SOL     OW24448   3.211   1.672   5.130  0.0594 -0.1146 -0.0251
 4330SOL    HW124449   3.132   1.662   5.183  0.0582 -0.3465 -0.0718
 4330SOL    HW224450   3.188   1.758   5.094  0.3028  0.2448  0.6697
 4331SOL     OW24451   1.799   2.564   3.540 -0.1003  0.5342  0.3021
 4331SOL    HW124452   1.726   2.510   3.573  0.9448 -0.9826  0.1506
 4331SOL    HW224453   1.793   2.638   3.600  0.7105  0.0776  0.9556
 4332SOL     OW24454   2.823   1.312   7.965  0.1618 -0.4572  0.3436
 4332SOL    HW124455   2.880   1.386   7.989 -1.1075  0.8486 -0.6867
 4332SOL    HW224456   2.892   1.247   7.977  1.1846  0.5297 -0.1522
 4333SOL     OW24457   0.358   0.743   7.388 -0.2204  0.6484  0.4356
 4333SOL    HW124458   0.356   0.757   7.293 -1.8259  2.1949  0.7046
 4333SOL    HW224459   0.284   0.682   7.385 -0.0701  0.4532  0.6664
 4334SOL     OW24460   3.879   3.338  11.304 -0.1732  0.3190  0.0627
 4334SOL    HW124461   3.864   3.433  11.295  2.3270  0.9734  2.8986
 4334SOL    HW224462   3.950   3.346  11.367 -0.1272  3.6453 -0.4053
 4335SOL     OW24463   1.349   1.245   8.902  0.2080  0.1648 -0.0086
 4335SOL    HW124464   1.329   1.156   8.934  0.7717  0.3257  0.8071
 4335SOL    HW224465   1.273   1.291   8.936  0.1145 -1.0225  1.4455
 4336SOL     OW24466   0.296   2.735   2.745  0.0269 -0.6996 -0.4294
 4336SOL    HW124467   0.323   2.819   2.781 -0.7628 -0.2464 -0.9065
 4336SOL    HW224468   0.300   2.759   2.652 -1.7161 -0.6075 -0.4862
 4337SOL     OW24469   4.554   0.902  10.853  0.4150  0.1433 -0.0881
 4337SOL    HW124470   4.599   0.986  10.857  2.0374 -0.8069  1.6561
 4337SOL    HW224471   4.627   0.841  10.844 -1.2520 -1.2227 -4.4945
 4338SOL     OW24472   3.160   3.567   1.269  0.4026  0.2563 -0.4448
 4338SOL    HW124473   3.251   3.540   1.280  0.4138 -0.3236 -2.0070
 4338SOL    HW224474   3.111   3.492   1.237  0.6668  0.2590 -0.8470
 4339SOL     OW24475   1.345   3.903   1.296  1.1254 -0.5002 -0.1651
 4339SOL    HW124476   1.374   3.993   1.286  0.9524 -0.3796  0.4385
 4339SOL    HW224477   1.349   3.878   1.203 -2.2169 -0.6441 -0.2827
 4340SOL     OW24478   2.991   0.550   2.870 -0.2798 -0.6114 -0.1466
 4340SOL    HW124479   3.079   0.577   2.897  0.0361  0.1720 -1.9612
 4340SOL    HW224480   3.009   0.457   2.853 -1.4096 -0.9491  0.4774
 4341SOL     OW24481   3.059   3.732   6.261 -0.2838  0.7671 -0.4442
 4341SOL    HW124482   3.153   3.751   6.252  0.2935 -1.6106  0.4578
 4341SOL    HW224483   3.077   3.678   6.339 -0.4808  0.6916 -0.4520
 4342SOL     OW24484   3.252   4.181   2.343 -0.2438 -0.2657  0.0362
 4342SOL    HW124485   3.284   4.157   2.429 -2.3557 -1.7493  0.4063
 4342SOL    HW224486   3.264   4.275   2.358  1.8777 -0.7204  1.1235
 4343SOL     OW24487   3.718   4.288   4.950  0.4474  0.7565 -0.4615
 4343SOL    HW124488   3.763   4.204   4.954 -2.1655 -0.6075  1.1302
 4343SOL    HW224489   3.684   4.295   5.040  0.7292 -2.1416 -0.1120
 4344SOL     OW24490   3.033   4.235   0.645 -0.0341 -0.4701 -0.2406
 4344SOL    HW124491   3.114   4.186   0.653 -1.3044 -2.6920 -1.0655
 4344SOL    HW224492   3.031   4.279   0.730  0.6926  0.4933 -0.7213
 4345SOL     OW24493   1.636   0.439   2.707 -0.1124 -0.2166 -0.1128
 4345SOL    HW124494   1.695   0.514   2.698 -0.2714  0.0529  1.0758
 4345SOL    HW224495   1.700   0.369   2.711  2.4840  2.0747 -1.9342
 4346SOL     OW24496   3.968   3.058   6.458 -0.0476 -0.4816 -0.3316
 4346SOL    HW124497   4.040   3.113   6.489 -0.2144 -1.3699  1.5986
 4346SOL    HW224498   4.000   3.021   6.375 -0.0788 -1.9055  0.2913
 4347SOL     OW24499   3.062   0.276   2.856 -0.3673  0.2099 -0.4121
 4347SOL    HW124500   3.150   0.236   2.859 -0.9594 -1.4280 -4.4138
 4347SOL    HW224501   3.018   0.248   2.936 -2.0997  2.1655 -0.6870
 4348SOL     OW24502   0.137   4.245  16.755 -0.4028 -0.5992  0.4313
 4348SOL    HW124503   0.123   4.202  16.670  0.0398 -1.1104  0.6159
 4348SOL    HW224504   0.081   4.321  16.741 -0.6352 -0.6224  1.2240
 4349SOL     OW24505   3.640   3.307  16.779  0.1848  0.2752 -0.8166
 4349SOL    HW124506   3.649   3.237  16.843 -0.0016  2.5929  1.7700
 4349SOL    HW224507   3.564   3.356  16.811  0.4292  0.0124  0.1721
 4350SOL     OW24508   0.882   3.730   4.739 -0.0821  0.0184 -0.3525
 4350SOL    HW124509   0.849   3.652   4.694  1.8059  0.9210 -3.2827
 4350SOL    HW224510   0.964   3.685   4.759  0.2232  1.9998  2.8241
 4351SOL     OW24511   2.925   3.162   0.863 -0.1835 -0.5400 -0.0999
 4351SOL    HW124512   2.878   3.115   0.932 -2.7541  0.9953 -0.7952
 4351SOL    HW224513   2.941   3.249   0.898  2.0211 -0.7680 -0.5646
 4352SOL     OW24514   2.807   1.304   4.191 -0.0851 -0.3613 -0.3458
 4352SOL    HW124515   2.776   1.275   4.105  1.7125  2.7769 -2.0389
 4352SOL    HW224516   2.753   1.382   4.209 -0.1632 -0.1294 -1.5684
 4353SOL     OW24517   4.346   4.258   2.048  0.1239  0.0606  0.4275
 4353SOL    HW124518   4.337   4.177   1.999  1.4139 -0.4747  1.0852
 4353SOL    HW224519   4.431   4.239   2.087  0.0596 -0.1581  0.4585
 4354SOL     OW24520   4.142   0.694   0.546 -0.0242  0.6524  0.2810
 4354SOL    HW124521   4.138   0.601   0.570  0.5913  0.7474  0.7549
 4354SOL    HW224522   4.055   0.724   0.572 -0.1128 -0.0711  0.8034
 4355SOL     OW24523   3.385   2.681   8.478  0.2297 -0.1616  0.4993
 4355SOL    HW124524   3.450   2.722   8.535 -0.2685  1.6497 -0.2342
 4355SOL    HW224525   3.355   2.612   8.536  2.1820 -0.9934  0.5115
 4356SOL     OW24526   0.514   3.058   0.573 -0.2635 -0.5187 -0.1222
 4356SOL    HW124527   0.536   3.137   0.623  0.3432  0.5213 -2.0226
 4356SOL    HW224528   0.589   3.060   0.513 -0.4076  1.0256 -0.2664
 4357SOL     OW24529   1.438   2.984   2.499 -0.0066  0.2417 -0.2412
 4357SOL    HW124530   1.384   2.931   2.440 -0.3730  0.3095  0.0276
 4357SOL    HW224531   1.514   2.927   2.510  0.3792  0.6808 -0.6945
 4358SOL     OW24532   3.959   1.912   6.950 -0.2922  0.4448 -0.3180
 4358SOL    HW124533   4.027   1.958   6.901 -0.0303  0.0107 -0.3646
 4358SOL    HW224534   3.885   1.973   6.947  0.6182  1.6318  1.3650
 4359SOL     OW24535   0.952   0.025   3.303  0.1815  0.7437  0.2003
 4359SOL    HW124536   0.994   0.093   3.356 -0.8929 -0.8280  3.1138
 4359SOL    HW224537   0.993   0.032   3.217  0.7547 -1.3278  0.2883
 4360SOL     OW24538   3.421   0.091   6.743 -0.0315  0.5116  0.4452
 4360SOL    HW124539   3.421   4.720   6.727  2.5486  1.1139 -2.9989
 4360SOL    HW224540   3.354   0.089   6.812  0.0431  1.5417  0.5462
 4361SOL     OW24541   0.849   2.754   1.967 -0.0345  0.4496 -0.4445
 4361SOL    HW124542   0.793   2.795   2.033  1.1883  1.3015  0.0470
 4361SOL    HW224543   0.800   2.760   1.884 -2.4192 -0.0729  0.9111
 4362SOL     OW24544   0.542   3.377   3.073 -0.6932 -0.0739  0.3867
 4362SOL    HW124545   0.466   3.391   3.016  0.8312  0.7377 -1.4575
 4362SOL    HW224546   0.601   3.335   3.009 -0.6423  0.4766  0.0704
 4363SOL     OW24547   3.509   4.342   8.426 -0.2985  0.9078 -0.4102
 4363SOL    HW124548   3.439   4.378   8.481 -0.8572 -0.1682 -0.4030
 4363SOL    HW224549   3.588   4.360   8.476 -0.7706 -0.8160  0.9586
 4364SOL     OW24550   3.310   4.130   8.725 -0.3852 -0.0430 -0.7613
 4364SOL    HW124551   3.326   4.210   8.676  0.6928  1.3184  1.8272
 4364SOL    HW224552   3.325   4.147   8.818  2.0847 -1.4926 -0.9004
 4365SOL     OW24553   2.221   1.147   8.274 -0.3100  0.2593  0.1618
 4365SOL    HW124554   2.280   1.144   8.349  1.5768  0.5824 -1.2956
 4365SOL    HW224555   2.289   1.110   8.218 -1.1230 -2.4420  0.9420
 4366SOL     OW24556   3.000   1.866   3.886  0.0191 -0.2987 -0.6030
 4366SOL    HW124557   2.978   1.783   3.927 -0.5300 -0.8620 -2.0074
 4366SOL    HW224558   3.095   1.853   3.887 -0.1682 -1.6391 -0.5566
 4367SOL     OW24559   4.349   3.300  12.319 -0.1401 -0.0066 -0.6732
 4367SOL    HW124560   4.336   3.257  12.234 -0.7121  0.5270 -0.8619
 4367SOL    HW224561   4.400   3.229  12.358  2.4325  2.0618 -0.2821
 4368SOL     OW24562   3.274   4.383   8.635  0.2954  0.2477  0.0396
 4368SOL    HW124563   3.209   4.374   8.565  1.5820  1.7649 -1.3647
 4368SOL    HW224564   3.319   4.463   8.610 -2.9091  1.7331 -0.9716
 4369SOL     OW24565   0.470   3.234   7.398  0.0300 -0.3646 -0.6490
 4369SOL    HW124566   0.449   3.275   7.314  0.2181  1.0001 -0.0331
 4369SOL    HW224567   0.563   3.213   7.404 -0.3269 -1.5300  0.9111
 4370SOL     OW24568   1.049   2.827   5.779 -0.1474 -0.5738  0.2948
 4370SOL    HW124569   1.100   2.765   5.831  0.8083  1.4737  1.7780
 4370SOL    HW224570   0.989   2.856   5.847  1.3963  1.5788  0.7236
 4371SOL     OW24571   2.105   2.217   0.886  0.5306  0.3158  0.1004
 4371SOL    HW124572   2.167   2.271   0.936 -0.8879  0.5227  1.6062
 4371SOL    HW224573   2.147   2.131   0.891  0.1570  0.1528  0.3606
 4372SOL     OW24574   1.334   1.456  17.009  0.1683 -0.1096  0.1203
 4372SOL    HW124575   1.419   1.429  17.044 -0.3649  1.3331  2.5182
 4372SOL    HW224576   1.339   1.551  17.005  0.0213 -0.1636 -1.3810
 4373SOL     OW24577   2.674   1.864   6.772  0.1251 -0.1776 -0.3611
 4373SOL    HW124578   2.742   1.901   6.716 -0.1362  1.6368  0.5451
 4373SOL    HW224579   2.722   1.792   6.812  1.4732 -0.2425 -2.1104
 4374SOL     OW24580   4.713   2.524   2.491  0.1448  0.4521 -0.0706
 4374SOL    HW124581   4.715   2.562   2.404 -1.4288 -3.5239 -1.8210
 4374SOL    HW224582   4.666   2.596   2.534  1.1061  1.6856 -1.0914
 4375SOL     OW24583   0.949   4.282   6.097  0.5699  0.2929  0.0218
 4375SOL    HW124584   0.901   4.335   6.033  2.1134  2.8004  0.9370
 4375SOL    HW224585   1.033   4.260   6.058 -0.4751 -2.0699 -0.8535
 4376SOL     OW24586   2.422   3.756   1.007  0.0042 -0.0568  0.5340
 4376SOL    HW124587   2.511   3.733   0.979  1.0468  1.4890  2.5441
 4376SOL    HW224588   2.440   3.846   1.032  2.7467 -0.3249 -0.4236
 4377SOL     OW24589   1.634   3.360  15.141  0.4645 -0.2479  0.1352
 4377SOL    HW124590   1.566   3.323  15.085 -0.2326  1.9139 -0.4757
 4377SOL    HW224591   1.591   3.442  15.163  0.3101  0.5526 -3.0537
 4378SOL     OW24592   0.301   4.577   3.393 -0.2649 -0.2179 -0.2282
 4378SOL    HW124593   0.262   4.657   3.358  1.1714  0.6157  0.0758
 4378SOL    HW224594   0.331   4.525   3.319  1.2713  1.7007 -0.9356
 4379SOL     OW24595   2.281   2.384   1.058 -0.3340 -0.3897 -0.2206
 4379SOL    HW124596   2.314   2.448   0.995  1.9669 -0.1355  1.2108
 4379SOL    HW224597   2.363   2.368   1.104  0.2501  0.5320 -0.9515
 4380SOL     OW24598   4.464   3.905   8.839  0.2335  0.2542  0.0826
 4380SOL    HW124599   4.521   3.836   8.804 -0.5688 -0.3735  0.0353
 4380SOL    HW224600   4.531   3.949   8.892  0.9639  0.9652 -1.4066
 4381SOL     OW24601   1.852   2.539   3.046 -0.0887  0.0565  0.1762
 4381SOL    HW124602   1.919   2.477   3.016  2.4412  1.3520  3.1390
 4381SOL    HW224603   1.780   2.529   2.984 -0.3234  0.2806  0.4128
 4382SOL     OW24604   0.167   4.030   6.408  1.0150 -0.2910 -0.1211
 4382SOL    HW124605   0.167   3.966   6.480  0.4080  0.5354  0.6212
 4382SOL    HW224606   0.154   3.968   6.336 -0.0580  1.3905 -1.3732
 4383SOL     OW24607   3.441   2.626   2.124  0.5096 -0.0874 -0.3288
 4383SOL    HW124608   3.527   2.658   2.098  1.4106 -0.9600  1.5368
 4383SOL    HW224609   3.391   2.627   2.042 -0.1445 -0.2825  0.0629
 4384SOL     OW24610   3.415   2.331  10.860 -0.1204 -0.0075 -0.6281
 4384SOL    HW124611   3.324   2.344  10.888  0.3100  1.6590 -0.0345
 4384SOL    HW224612   3.453   2.331  10.947  2.4077  2.4077 -1.6945
 4385SOL     OW24613   4.071   0.771   1.536  0.0933  0.0648 -0.2846
 4385SOL    HW124614   4.122   0.800   1.612  1.4458 -0.2399 -1.0866
 4385SOL    HW224615   4.136   0.799   1.471  1.7236 -0.6445  1.0306
 4386SOL     OW24616   1.657   3.267   9.497 -0.6927 -0.0567 -0.2538
 4386SOL    HW124617   1.577   3.248   9.448 -0.1428 -0.0756 -1.1342
 4386SOL    HW224618   1.624   3.336   9.554  0.9463  0.0125  0.6088
 4387SOL     OW24619   1.576   3.134  10.004  0.4504 -0.1827 -0.5692
 4387SOL    HW124620   1.625   3.056  10.030  2.1380  1.4312  1.1239
 4387SOL    HW224621   1.538   3.149  10.090 -0.6518 -0.8752 -0.9363
 4388SOL     OW24622   4.498   1.114   7.288 -0.6159  0.4674 -0.3230
 4388SOL    HW124623   4.441   1.190   7.286  0.2938  1.1791  0.7888
 4388SOL    HW224624   4.450   1.054   7.346 -1.1228 -1.3128 -2.5757
 4389SOL     OW24625   1.738   1.775   9.252 -0.3478  0.6960 -0.0116
 4389SOL    HW124626   1.762   1.718   9.325 -1.6122  1.2123  0.8118
 4389SOL    HW224627   1.650   1.791   9.287 -0.3613  0.6094 -0.0069
 4390SOL     OW24628   0.079   1.171   6.647 -0.5795 -0.0613  0.4871
 4390SOL    HW124629   0.057   1.227   6.721  2.1454 -0.7420  1.8228
 4390SOL    HW224630   0.171   1.194   6.631 -0.8743 -0.1830 -1.3795
 4391SOL     OW24631   3.654   2.325   4.634  0.7589  0.4703  0.0373
 4391SOL    HW124632   3.633   2.249   4.581  0.0849 -0.5693  1.7817
 4391SOL    HW224633   3.749   2.312   4.642  0.5997  0.3023  1.7256
 4392SOL     OW24634   1.491   4.268   7.089  0.3647  0.0021  0.1954
 4392SOL    HW124635   1.521   4.350   7.051  0.3334  0.5395  1.3214
 4392SOL    HW224636   1.501   4.279   7.184 -0.7576  0.0736  0.3053
 4393SOL     OW24637   3.047   0.454  10.147 -0.1256 -0.4199 -0.4439
 4393SOL    HW124638   3.093   0.536  10.166 -0.0529 -1.0120  1.8718
 4393SOL    HW224639   3.093   0.434  10.065 -0.0140  0.4097 -0.5862
 4394SOL     OW24640   0.588   4.459   0.689 -0.4429 -0.1889 -0.1734
 4394SOL    HW124641   0.598   4.474   0.783  1.0655 -2.5405  0.0562
 4394SOL    HW224642   0.550   4.544   0.667 -0.5981  0.2963  2.0158
 4395SOL     OW24643   4.292   0.122   3.816 -0.3380 -0.4405 -0.0480
 4395SOL    HW124644   4.357   0.090   3.754  1.4588 -0.3338  1.7607
 4395SOL    HW224645   4.249   0.040   3.843 -0.6968  0.6280  2.6305
 4396SOL     OW24646   2.047   3.782   9.400  0.7810 -0.1204 -0.3374
 4396SOL    HW124647   1.967   3.752   9.356 -0.9512 -1.0773  3.4387
 4396SOL    HW224648   2.083   3.696   9.418 -3.0786 -1.2436  2.0730
 4397SOL     OW24649   1.427   2.941   1.369 -0.5293 -0.5549  0.5017
 4397SOL    HW124650   1.443   3.030   1.336  0.0793 -0.0599  2.1567
 4397SOL    HW224651   1.400   2.949   1.460 -0.7013 -1.6138  0.5456
 4398SOL     OW24652   3.459   2.189   8.251  0.1277 -0.3587 -0.1348
 4398SOL    HW124653   3.411   2.197   8.333 -0.0355 -0.2236 -0.2427
 4398SOL    HW224654   3.388   2.166   8.191 -1.0295  2.9598 -0.0393
 4399SOL     OW24655   3.021   2.829   5.766  0.1282 -0.0058 -0.0299
 4399SOL    HW124656   3.019   2.880   5.685  0.5235  0.5841  0.3302
 4399SOL    HW224657   2.990   2.893   5.830 -0.2886 -0.1726 -0.0679
 4400SOL     OW24658   3.390   0.875   9.474 -0.4712 -0.1069 -0.0873
 4400SOL    HW124659   3.303   0.895   9.439 -0.2244  1.2381  0.0492
 4400SOL    HW224660   3.402   0.782   9.456 -1.1582 -0.4310  1.1757
 4401SOL     OW24661   3.225   3.588   2.830  0.1088 -0.5668 -0.5013
 4401SOL    HW124662   3.182   3.503   2.828  1.0446 -1.0919  1.5642
 4401SOL    HW224663   3.202   3.625   2.745  0.1697 -1.7610 -1.0443
 4402SOL     OW24664   4.058   1.698   1.344  0.4316  0.6355  0.7789
 4402SOL    HW124665   4.053   1.778   1.397 -2.0645  2.5511 -2.4066
 4402SOL    HW224666   4.126   1.639   1.376 -0.0001 -0.1016  0.3204
 4403SOL     OW24667   1.626   2.050   3.168 -0.4211 -0.4604  0.5591
 4403SOL    HW124668   1.570   2.016   3.238 -1.2875  0.3915  0.2885
 4403SOL    HW224669   1.570   2.091   3.102  0.4834 -0.6013 -0.2998
 4404SOL     OW24670   2.211   4.215   1.703 -0.2537 -0.0069  0.1337
 4404SOL    HW124671   2.294   4.191   1.662 -1.3879 -1.9611 -1.0073
 4404SOL    HW224672   2.159   4.203   1.623  2.4656 -1.1492 -1.4570
 4405SOL     OW24673   1.364   3.903   7.414 -0.4545 -0.4859 -0.7509
 4405SOL    HW124674   1.459   3.900   7.429 -0.6010 -1.6117 -0.0579
 4405SOL    HW224675   1.351   3.810   7.431 -0.7803 -0.5425 -1.3242
 4406SOL     OW24676   4.705   0.939   8.363  0.0859  0.0167 -0.3375
 4406SOL    HW124677   4.637   0.889   8.317 -1.2186  1.5264 -0.0660
 4406SOL    HW224678   0.045   0.868   8.363  2.4307  2.1311  0.0111
 4407SOL     OW24679   3.677   4.555   3.820  0.5252  0.7192 -0.2148
 4407SOL    HW124680   3.713   4.633   3.777  1.1250 -1.0041 -2.8748
 4407SOL    HW224681   3.593   4.586   3.854  1.0601  1.2045  0.6598
 4408SOL     OW24682   2.016   2.359  14.157 -0.5428 -0.0932  0.0140
 4408SOL    HW124683   1.937   2.384  14.205  0.4482 -0.2368  1.7279
 4408SOL    HW224684   2.034   2.275  14.198 -3.5509 -0.4278  0.6342
 4409SOL     OW24685   2.104   0.550   5.884 -0.5519  0.1330  0.4213
 4409SOL    HW124686   2.025   0.592   5.850 -1.7242 -0.8001  2.0337
 4409SOL    HW224687   2.076   0.470   5.929 -1.2746 -0.9020 -1.8218
 4410SOL     OW24688   4.450   3.050   2.683 -0.4157  0.2417 -0.5617
 4410SOL    HW124689   4.463   3.143   2.666 -0.8159  0.1878 -1.1818
 4410SOL    HW224690   4.382   3.031   2.618 -1.5035  3.9188 -0.4837
 4411SOL     OW24691   4.639   4.327  12.107  0.2338 -0.0191 -0.4345
 4411SOL    HW124692   4.575   4.257  12.114  0.1851 -0.1266 -1.8470
 4411SOL    HW224693   4.709   4.283  12.155 -1.4844  1.8651  3.7603
 4412SOL     OW24694   1.756   0.586   7.413 -0.2637  0.4217 -0.1907
 4412SOL    HW124695   1.767   0.628   7.328  0.2837  1.5659  0.4411
 4412SOL    HW224696   1.768   0.495   7.389 -0.7341  0.3536 -0.1804
 4413SOL     OW24697   4.713   3.583   7.886 -0.0632  0.0450 -0.2653
 4413SOL    HW124698   4.705   3.666   7.932  1.3169  0.9912 -1.7360
 4413SOL    HW224699   0.075   3.593   7.844  0.5714  2.9752  1.7656
 4414SOL     OW24700   1.263   2.688   3.182 -0.2193  0.2530  0.1337
 4414SOL    HW124701   1.308   2.767   3.150 -0.4907  0.3368 -0.0438
 4414SOL    HW224702   1.332   2.641   3.229  0.0930 -1.6807 -2.2927
 4415SOL     OW24703   3.999   1.112   1.287 -0.1022  0.0809  1.1396
 4415SOL    HW124704   3.978   1.173   1.358  1.7984  0.9491  0.9835
 4415SOL    HW224705   4.067   1.053   1.321  2.6513  2.2265 -0.6829
 4416SOL     OW24706   2.665   1.433   3.225  0.1503 -0.2500  0.2330
 4416SOL    HW124707   2.588   1.403   3.272 -0.8775 -3.1959 -3.3060
 4416SOL    HW224708   2.633   1.470   3.143 -0.6482 -0.4306  0.4660
 4417SOL     OW24709   3.981   0.291   0.449  0.0164 -0.1046 -0.1206
 4417SOL    HW124710   3.903   0.346   0.442  1.3726  1.8144 -0.1760
 4417SOL    HW224711   4.048   0.338   0.400  1.1405 -1.1247  0.4224
 4418SOL     OW24712   1.862   4.135  12.941 -0.8795 -0.3861  0.3552
 4418SOL    HW124713   1.953   4.113  12.921 -0.6236 -0.5354  1.6689
 4418SOL    HW224714   1.832   4.151  12.852  0.7882  0.0129 -0.1415
 4419SOL     OW24715   1.019   1.996   8.382  0.1163  0.0618  0.0708
 4419SOL    HW124716   1.100   2.040   8.356 -0.7991  1.7764  0.1085
 4419SOL    HW224717   1.019   1.919   8.325 -0.9299  0.6451 -0.7230
 4420SOL     OW24718   4.327   0.976   8.224 -0.4801  0.1926 -0.3407
 4420SOL    HW124719   4.414   0.998   8.190 -0.9157 -0.8610 -2.1209
 4420SOL    HW224720   4.313   0.884   8.202  0.2688  0.2255 -0.9330
 4421SOL     OW24721   4.364   2.496   2.011 -0.4274  0.0441  0.4746
 4421SOL    HW124722   4.397   2.565   1.955 -1.3812 -0.0316 -0.1830
 4421SOL    HW224723   4.269   2.507   2.000  0.0878  0.6996 -3.3184
 4422SOL     OW24724   2.990   0.706   1.191  0.0370 -0.1911 -0.3896
 4422SOL    HW124725   2.972   0.613   1.177 -0.3053 -0.7051  3.5895
 4422SOL    HW224726   2.915   0.737   1.139 -1.2681  0.6040  1.9629
 4423SOL     OW24727   0.091   1.267  15.719  0.1629 -0.3099  0.5057
 4423SOL    HW124728   0.048   1.219  15.789 -0.6472 -1.8918 -1.0958
 4423SOL    HW224729   0.085   1.215  15.639 -0.7408 -0.9396  0.9848
 4424SOL     OW24730   2.499   2.715   9.498 -0.0989 -0.4627 -0.7136
 4424SOL    HW124731   2.460   2.640   9.454  1.8690 -2.2729  0.6182
 4424SOL    HW224732   2.419   2.739   9.544  0.9375 -0.8198  1.2489
 4425SOL     OW24733   2.277   2.738   3.894 -0.0198  0.4218  0.1952
 4425SOL    HW124734   2.208   2.675   3.877  0.8585 -0.1202 -1.3395
 4425SOL    HW224735   2.330   2.712   3.819 -1.4562 -0.6941 -0.4144
 4426SOL     OW24736   0.556   2.197   5.890  0.5800  0.0542 -0.8004
 4426SOL    HW124737   0.603   2.223   5.969 -2.7165  2.2170  0.4656
 4426SOL    HW224738   0.519   2.283   5.867  3.7080  1.9145  1.2005
 4427SOL     OW24739   3.489   1.198   8.704  0.0100 -0.3934 -0.1839
 4427SOL    HW124740   3.556   1.131   8.713  0.2212  0.1204  2.0342
 4427SOL    HW224741   3.508   1.229   8.615  0.4500  0.3188  0.1545
 4428SOL     OW24742   0.154   2.717   4.354  0.2936  0.0414 -0.5688
 4428SOL    HW124743   0.090   2.787   4.358 -0.8355 -1.0816  0.9508
 4428SOL    HW224744   0.100   2.648   4.393  2.3979 -2.1990 -1.5667
 4429SOL     OW24745   1.075   3.355  10.806 -0.3079 -0.0275 -0.1960
 4429SOL    HW124746   1.000   3.404  10.770  0.0420  0.7135  0.0852
 4429SOL    HW224747   1.058   3.349  10.900 -0.5495 -1.6920 -0.3506
 4430SOL     OW24748   4.098   3.679   9.105  0.6969 -0.3827 -0.2766
 4430SOL    HW124749   4.162   3.748   9.083 -0.2033  0.2278 -1.0130
 4430SOL    HW224750   4.021   3.711   9.059  1.0120  0.4732 -0.2173
 4431SOL     OW24751   4.493   2.769   9.075 -0.2398  0.1633  0.6856
 4431SOL    HW124752   4.448   2.822   9.140 -2.3878  3.2756 -3.3038
 4431SOL    HW224753   4.492   2.835   9.005 -2.2746  1.4609  1.9542
 4432SOL     OW24754   3.797   1.874   5.461 -0.6928  0.1098 -0.2713
 4432SOL    HW124755   3.807   1.949   5.402 -1.5968  0.0233 -0.5351
 4432SOL    HW224756   3.719   1.907   5.506 -1.2525 -0.7770 -0.5922
 4433SOL     OW24757   3.838   1.607   5.415 -0.6566 -0.2987 -0.1483
 4433SOL    HW124758   3.775   1.582   5.348 -4.1143  0.1606  2.9615
 4433SOL    HW224759   3.792   1.684   5.448 -0.2763  0.3999 -1.2473
 4434SOL     OW24760   3.113   1.656  10.193 -0.5762  0.4514 -0.2337
 4434SOL    HW124761   3.170   1.732  10.194  1.6259 -1.2256  3.3171
 4434SOL    HW224762   3.037   1.701  10.156 -0.5931  1.5355  1.1212
 4435SOL     OW24763   2.616   4.209   6.229  0.0368  0.1811 -0.3674
 4435SOL    HW124764   2.597   4.166   6.146 -3.7934  2.7897 -0.8660
 4435SOL    HW224765   2.636   4.128   6.275 -0.1303 -0.3453 -1.2368
 4436SOL     OW24766   3.191   2.850   4.813 -0.1082  0.2779 -0.3421
 4436SOL    HW124767   3.259   2.784   4.794 -1.5098 -0.7447 -1.8222
 4436SOL    HW224768   3.224   2.931   4.775  2.1032 -0.7467 -0.6364
 4437SOL     OW24769   3.337   1.314   5.055  0.1721 -0.2865 -0.1588
 4437SOL    HW124770   3.378   1.398   5.035 -2.0245  0.6062 -0.8541
 4437SOL    HW224771   3.263   1.343   5.108  0.3122 -0.3244  0.0586
 4438SOL     OW24772   1.329   3.634   2.438  0.5733  0.2641 -0.5698
 4438SOL    HW124773   1.304   3.595   2.354 -0.2536  1.5568 -0.9074
 4438SOL    HW224774   1.249   3.644   2.489  1.4560  3.5121  0.1348
 4439SOL     OW24775   2.315   3.409   3.626  0.7219 -0.7799 -0.0672
 4439SOL    HW124776   2.374   3.483   3.619  1.1902 -1.1497 -0.0320
 4439SOL    HW224777   2.298   3.391   3.533 -3.6793  1.1243  0.3878
 4440SOL     OW24778   2.504   2.405   2.344  0.1147  0.2250  0.4553
 4440SOL    HW124779   2.477   2.436   2.430 -0.5350  0.8767  0.0178
 4440SOL    HW224780   2.424   2.407   2.293 -0.1421  0.2523  0.8633
 4441SOL     OW24781   0.131   1.964   7.601  0.2298 -0.4654  0.1422
 4441SOL    HW124782   0.145   1.989   7.692  1.2792 -0.7245  0.0488
 4441SOL    HW224783   0.190   2.009   7.541 -1.9602 -0.1432 -1.7464
 4442SOL     OW24784   3.779   1.245  16.145  0.5158  0.5750 -0.1381
 4442SOL    HW124785   3.825   1.323  16.177  1.0475 -0.3471  1.3334
 4442SOL    HW224786   3.714   1.287  16.088 -0.3528 -1.0721 -0.3690
 4443SOL     OW24787   3.740   1.363  17.337  0.7352 -0.1588 -0.5452
 4443SOL    HW124788   3.734   1.425  17.410 -0.9878 -3.3222  2.0021
 4443SOL    HW224789   3.770   1.426  17.271 -3.7969  2.0132 -0.5132
 4444SOL     OW24790   4.611   0.704   8.177 -0.5361 -0.2912  0.7027
 4444SOL    HW124791   4.599   0.623   8.127 -0.7887  0.5264 -0.5692
 4444SOL    HW224792   4.570   0.761   8.112 -2.2838 -0.5446  1.5897
 4445SOL     OW24793   2.247   4.086   6.905 -0.0568  0.5272  0.1874
 4445SOL    HW124794   2.185   4.141   6.952 -1.0991  0.7690 -1.4613
 4445SOL    HW224795   2.327   4.138   6.910 -1.7452  3.0454  0.8232
 4446SOL     OW24796   3.352   0.080  17.644 -0.4538  0.7317 -0.4681
 4446SOL    HW124797   3.345   0.108  17.552 -2.2366  0.3782 -0.4298
 4446SOL    HW224798   3.434   0.031  17.636 -0.6870  0.2663  0.0071
 4447SOL     OW24799   0.606   3.696   7.557  0.5215  0.5029 -0.1599
 4447SOL    HW124800   0.543   3.648   7.504  0.6350 -0.4336  0.5564
 4447SOL    HW224801   0.679   3.635   7.571  1.9449  1.9858 -1.0217
 4448SOL     OW24802   0.234   4.170   4.574  0.3199  0.1275 -0.3730
 4448SOL    HW124803   0.300   4.191   4.640  0.5685  1.1024 -0.9370
 4448SOL    HW224804   0.286   4.170   4.493  0.7471  1.6069 -0.0853
 4449SOL     OW24805   2.196   4.692   5.824  0.2720  0.8563  0.1943
 4449SOL    HW124806   2.186   4.635   5.900  1.2035 -0.9678 -1.0576
 4449SOL    HW224807   2.115   0.016   5.844 -0.9033 -1.3547  0.8089
 4450SOL     OW24808   1.391   0.364   0.757 -0.2617 -0.6201 -0.1079
 4450SOL    HW124809   1.484   0.388   0.752  0.3927 -2.8240  2.0887
 4450SOL    HW224810   1.363   0.420   0.829  0.2297 -2.1230  1.2410
 4451SOL     OW24811   4.063   4.083   5.172 -0.6621  0.1156  0.0785
 4451SOL    HW124812   4.093   4.156   5.225  1.3138 -1.4009  1.0653
 4451SOL    HW224813   4.088   4.111   5.084 -2.1513  1.3648  0.0619
 4452SOL     OW24814   1.100   1.043   3.753  0.6678  0.0404 -0.5176
 4452SOL    HW124815   1.065   1.092   3.827  1.3460 -0.1935 -0.0345
 4452SOL    HW224816   1.186   1.087   3.748  0.6581  0.4014  2.6145
 4453SOL     OW24817   4.105   3.800  13.521  0.2966  0.1932  0.2880
 4453SOL    HW124818   4.125   3.850  13.601  2.6210 -1.8680  1.0120
 4453SOL    HW224819   4.124   3.711  13.552 -2.1160  0.4910  2.6921
 4454SOL     OW24820   2.923   1.618   5.019  0.5566  0.2350 -0.3192
 4454SOL    HW124821   2.991   1.609   4.953  1.8902 -1.0804  1.2585
 4454SOL    HW224822   2.970   1.612   5.102 -0.9113 -2.0152  0.3432
 4455SOL     OW24823   1.234   1.131   1.914  0.2135 -0.2218 -0.2127
 4455SOL    HW124824   1.287   1.074   1.969  0.9814 -1.5476 -2.3251
 4455SOL    HW224825   1.145   1.097   1.926  0.6372 -1.4406 -0.5019
 4456SOL     OW24826   0.592   3.679   9.871  0.3606  0.3848  0.3021
 4456SOL    HW124827   0.511   3.637   9.898  1.7314 -1.0116  2.2444
 4456SOL    HW224828   0.645   3.670   9.950 -1.4473 -0.0095  1.4569
 4457SOL     OW24829   0.507   2.895   4.249 -0.4367 -0.2087  0.0016
 4457SOL    HW124830   0.431   2.892   4.192  0.5592  2.6648 -1.4931
 4457SOL    HW224831   0.486   2.949   4.325  1.4834 -0.5643  0.7888
 4458SOL     OW24832   2.869   3.831  14.203 -0.2387 -0.2233  0.0052
 4458SOL    HW124833   2.923   3.767  14.158 -1.7307 -1.6035  0.1817
 4458SOL    HW224834   2.833   3.775  14.272  2.0413 -2.5010 -0.6409
 4459SOL     OW24835   3.294   4.118   0.330  0.2503 -0.1626  0.4793
 4459SOL    HW124836   3.214   4.127   0.279  1.4090 -0.6534 -1.4202
 4459SOL    HW224837   3.273   4.049   0.393 -0.0783 -0.5653 -0.0700
 4460SOL     OW24838   0.604   3.279   8.687 -0.1258  0.7131 -0.6177
 4460SOL    HW124839   0.613   3.322   8.602  0.4997 -0.2385 -1.0336
 4460SOL    HW224840   0.676   3.216   8.683 -1.0429 -0.3487 -0.4451
 4461SOL     OW24841   1.248   2.072   4.384  0.2823  0.0476  0.2083
 4461SOL    HW124842   1.156   2.064   4.411  0.8842 -2.1450  1.6206
 4461SOL    HW224843   1.242   2.118   4.300 -1.4523 -0.5569 -0.0003
 4462SOL     OW24844   4.253   0.248   4.944  0.1925  0.2793 -0.5351
 4462SOL    HW124845   4.284   0.239   4.853  0.4629  0.3638 -0.4523
 4462SOL    HW224846   4.276   0.340   4.956  0.4665  0.2771 -1.0448
 4463SOL     OW24847   1.657   4.070   1.387  0.3455  0.0105 -0.3750
 4463SOL    HW124848   1.579   4.096   1.337  0.0920  0.2843  0.1591
 4463SOL    HW224849   1.714   4.072   1.310  0.4889 -2.8738 -0.3196
 4464SOL     OW24850   4.714   2.966   4.501  0.5179 -0.2147  0.3186
 4464SOL    HW124851   4.622   2.968   4.528  0.1745  0.1811 -0.8929
 4464SOL    HW224852   0.026   2.889   4.547  0.5465 -0.5372 -0.2378
 4465SOL     OW24853   2.358   1.006   1.348 -0.2281  0.4572 -0.6684
 4465SOL    HW124854   2.429   0.952   1.382 -1.1795  0.2271  0.9885
 4465SOL    HW224855   2.400   1.076   1.298  0.3691 -0.7246 -1.8076
 4466SOL     OW24856   1.629   0.874  11.906 -0.2066  0.3467  0.1551
 4466SOL    HW124857   1.556   0.881  11.844  0.2240  0.3356 -0.3555
 4466SOL    HW224858   1.671   0.960  11.909  2.9684 -1.0706 -2.8222
 4467SOL     OW24859   0.594   3.648   4.956 -0.7370 -0.2485 -0.6533
 4467SOL    HW124860   0.581   3.742   4.941  1.3223  0.1972  0.3584
 4467SOL    HW224861   0.572   3.619   4.867 -0.4731 -0.6457 -0.5898
 4468SOL     OW24862   2.388   3.683   1.520  0.0220 -0.0484  0.2784
 4468SOL    HW124863   2.303   3.702   1.560  0.1366 -1.2576  1.0846
 4468SOL    HW224864   2.367   3.608   1.465  1.4817 -1.3454  1.4994
 4469SOL     OW24865   2.831   3.509   6.509 -0.2405 -0.4305  0.3026
 4469SOL    HW124866   2.739   3.482   6.517 -0.7503  1.0865 -0.4745
 4469SOL    HW224867   2.869   3.422   6.496 -0.3127 -0.3645 -0.3674
 4470SOL     OW24868   1.794   3.881   6.731 -0.2353 -0.2037 -0.1645
 4470SOL    HW124869   1.757   3.968   6.745  0.0885 -0.0138 -0.4883
 4470SOL    HW224870   1.844   3.871   6.813  1.7560 -1.4282 -1.5287
 4471SOL     OW24871   0.401   0.328  15.740  0.2215 -0.0522 -0.4752
 4471SOL    HW124872   0.480   0.333  15.794 -0.0896  2.9005 -0.2806
 4471SOL    HW224873   0.418   0.257  15.679  0.4736  2.3731 -3.2021
 4472SOL     OW24874   2.503   4.211   6.846  0.2171  0.3533  0.0577
 4472SOL    HW124875   2.567   4.149   6.882 -1.1969 -0.9902  0.2489
 4472SOL    HW224876   2.505   4.172   6.759 -1.4453  1.3588 -0.4124
 4473SOL     OW24877   2.682   2.548   4.926  0.3806  0.1985  0.1910
 4473SOL    HW124878   2.719   2.615   4.984  0.0659 -0.3072  0.9759
 4473SOL    HW224879   2.679   2.604   4.848  0.8397  0.0624  0.0756
 4474SOL     OW24880   0.614   1.830  13.896  0.1698 -0.4446  0.1217
 4474SOL    HW124881   0.609   1.894  13.825 -2.5448 -1.4985 -0.6413
 4474SOL    HW224882   0.679   1.866  13.956  0.4867  0.9533 -1.0606
 4475SOL     OW24883   3.328   0.801   7.541  0.6929  0.2284 -0.1172
 4475SOL    HW124884   3.402   0.754   7.579 -0.6206 -1.3191  0.5164
 4475SOL    HW224885   3.381   0.859   7.486  2.0499 -1.5738 -0.7307
 4476SOL     OW24886   4.684   2.251  17.160  0.0176  0.0760  0.1460
 4476SOL    HW124887   4.705   2.164  17.125  1.3449  1.2321 -1.9269
 4476SOL    HW224888   4.716   2.249  17.250 -2.4026  0.8145  1.0230
 4477SOL     OW24889   3.862   4.605  11.248 -0.0947  0.3030 -0.4148
 4477SOL    HW124890   3.945   4.634  11.211  0.8655 -1.7473  0.1182
 4477SOL    HW224891   3.880   4.513  11.269  2.8568  0.6880 -1.2275
 4478SOL     OW24892   4.545   2.405   7.696  0.1486  0.2377  0.2086
 4478SOL    HW124893   4.458   2.410   7.655  0.3525  3.0313  0.1295
 4478SOL    HW224894   4.578   2.323   7.658 -1.1276 -0.0043 -0.3802
 4479SOL     OW24895   4.553   1.244   3.073 -0.0178  0.2630 -0.1421
 4479SOL    HW124896   4.518   1.256   2.985  0.4785 -0.2945 -0.4175
 4479SOL    HW224897   4.647   1.251   3.054 -0.1674 -1.0169 -1.3301
 4480SOL     OW24898   1.772   0.317   3.796 -0.0799  0.5616  0.2537
 4480SOL    HW124899   1.843   0.316   3.732  0.0461  0.0038  0.4029
 4480SOL    HW224900   1.704   0.282   3.740 -0.5650 -0.5103  1.5061
 4481SOL     OW24901   0.234   0.142   9.617 -0.5939 -0.3290 -0.0068
 4481SOL    HW124902   0.260   0.222   9.663 -0.1813  0.9168 -2.4355
 4481SOL    HW224903   0.179   0.113   9.690  0.1417 -2.2199 -0.1994
 4482SOL     OW24904   0.738   2.333   1.718  0.1600 -0.1723 -0.2832
 4482SOL    HW124905   0.756   2.370   1.805  1.6995  0.1392 -0.7343
 4482SOL    HW224906   0.818   2.282   1.704 -0.2581 -1.0254  0.4600
 4483SOL     OW24907   3.728   1.283   8.152 -0.3212 -0.0978 -0.0679
 4483SOL    HW124908   3.633   1.281   8.152 -0.3272  0.2953  0.6193
 4483SOL    HW224909   3.756   1.230   8.078  0.9538 -1.6717  1.5552
 4484SOL     OW24910   4.011   1.917  16.683  0.2547 -0.0164 -0.2279
 4484SOL    HW124911   4.022   1.908  16.589  0.2273  1.7871 -0.4032
 4484SOL    HW224912   3.990   2.011  16.687  1.6105  0.2604  0.2742
 4485SOL     OW24913   4.649   2.386  14.937  0.2833 -0.0031  0.1940
 4485SOL    HW124914   4.712   2.424  14.999  1.5258 -1.1161 -0.3848
 4485SOL    HW224915   4.568   2.420  14.973  0.0051 -0.4056 -0.0483
 4486SOL     OW24916   4.625   3.508  10.605  0.2661  0.1472 -0.3626
 4486SOL    HW124917   4.642   3.435  10.664 -1.8126  0.2919  0.4112
 4486SOL    HW224918   4.713   3.515  10.568  0.5347 -1.4716 -0.0153
 4487SOL     OW24919   0.258   3.573   4.308  0.1893  0.0650  0.0511
 4487SOL    HW124920   0.341   3.621   4.306  0.0002  0.3850 -0.0841
 4487SOL    HW224921   0.291   3.497   4.356  0.5874  0.6988  0.7767
 4488SOL     OW24922   0.954   2.811  13.886  0.1181 -0.6006 -0.2888
 4488SOL    HW124923   1.011   2.857  13.947 -1.6589  2.1121 -0.6809
 4488SOL    HW224924   1.004   2.753  13.828  0.3303 -0.5355 -0.1673
 4489SOL     OW24925   2.850   3.027   3.071  0.4840  0.7163 -0.6241
 4489SOL    HW124926   2.829   3.111   3.112  1.1625  1.3685 -1.6207
 4489SOL    HW224927   2.946   3.033   3.071  0.6158 -1.2295  0.2519
 4490SOL     OW24928   0.783   3.513  15.190  0.0557 -0.7197 -0.0410
 4490SOL    HW124929   0.688   3.500  15.197  0.5779 -4.3541  0.4797
 4490SOL    HW224930   0.813   3.426  15.218  1.1808 -0.8954 -1.7764
 4491SOL     OW24931   3.934   4.402   4.818  0.1539 -0.6842  0.0944
 4491SOL    HW124932   3.844   4.381   4.841 -0.5838 -0.4768 -2.5706
 4491SOL    HW224933   3.963   4.430   4.905 -2.0041  2.9719 -0.3604
 4492SOL     OW24934   1.763   3.446   2.157 -0.1616  0.1827  0.0229
 4492SOL    HW124935   1.732   3.534   2.175  0.1170  0.1784  0.5174
 4492SOL    HW224936   1.732   3.418   2.071 -2.5187  3.2503 -0.1050
 4493SOL     OW24937   4.494   3.703   8.462 -0.0277  0.8781 -0.0033
 4493SOL    HW124938   4.572   3.749   8.431 -0.0311  1.0999  0.3131
 4493SOL    HW224939   4.529   3.617   8.483 -0.2270  0.9054  0.4433
 4494SOL     OW24940   0.423   2.207   3.757  0.0143 -0.5637 -0.1813
 4494SOL    HW124941   0.503   2.163   3.727  1.3189 -0.1144  2.7197
 4494SOL    HW224942   0.424   2.196   3.852  2.9489 -2.8198 -0.4924
 4495SOL     OW24943   0.687   3.755  12.228  0.0376 -0.0767  0.4966
 4495SOL    HW124944   0.687   3.720  12.139  0.6592  1.4222 -0.0850
 4495SOL    HW224945   0.752   3.825  12.218 -1.8331  1.8183  1.7732
 4496SOL     OW24946   4.100   1.451   3.166 -0.0245 -0.0068  0.3329
 4496SOL    HW124947   4.097   1.479   3.074 -0.2568  0.1422  0.3858
 4496SOL    HW224948   4.086   1.534   3.212 -0.5399  0.5339 -0.8045
 4497SOL     OW24949   1.893   3.434   9.173  0.1561 -0.0118 -0.4613
 4497SOL    HW124950   1.854   3.482   9.101 -1.3448 -0.8516 -0.1995
 4497SOL    HW224951   1.854   3.347   9.161  0.3731 -0.1374 -0.2617
 4498SOL     OW24952   2.316   4.451  15.263 -0.3956 -0.0690  0.0755
 4498SOL    HW124953   2.393   4.439  15.208  0.2153 -2.8747  1.5821
 4498SOL    HW224954   2.314   4.369  15.312  0.1002 -0.3442 -0.3609
 4499SOL     OW24955   2.989   1.391   8.244  0.2195 -0.8260 -0.2493
 4499SOL    HW124956   2.908   1.374   8.196 -0.2101  0.7315 -0.0557
 4499SOL    HW224957   2.965   1.365   8.333 -0.7967  0.3690 -0.1787
 4500SOL     OW24958   3.807   3.822   9.026 -0.5431  0.3031 -0.5062
 4500SOL    HW124959   3.803   3.808   8.931  1.8049  1.5867 -0.8099
 4500SOL    HW224960   3.733   3.776   9.065  0.4205  0.4153  1.4435
 4501SOL     OW24961   2.958   4.138   2.164  0.0789 -0.4226 -0.5023
 4501SOL    HW124962   2.863   4.146   2.167  0.0104 -0.6669 -1.8234
 4501SOL    HW224963   2.988   4.229   2.162  0.4352 -0.5171  0.9053
 4502SOL     OW24964   2.070   2.593   3.799  0.2300  0.4383  0.1873
 4502SOL    HW124965   2.018   2.513   3.799 -1.1570  1.3328 -1.5015
 4502SOL    HW224966   2.058   2.636   3.714 -0.5870 -0.0499  0.0612
 4503SOL     OW24967   2.995   2.201   8.590 -0.1865  0.3386  0.0676
 4503SOL    HW124968   3.028   2.111   8.584 -0.4415  0.3371 -1.2245
 4503SOL    HW224969   2.996   2.209   8.686 -0.6577  2.9906 -0.1580
 4504SOL     OW24970   0.772   1.351   7.969  0.5829  0.3045  0.0632
 4504SOL    HW124971   0.711   1.299   7.916  0.4598  0.9689 -0.4525
 4504SOL    HW224972   0.823   1.281   8.009  0.1509 -1.2064 -1.9874
 4505SOL     OW24973   0.492   1.797   7.248  0.0550 -0.1238  0.3924
 4505SOL    HW124974   0.575   1.754   7.227  0.5640  0.6822  0.7559
 4505SOL    HW224975   0.475   1.779   7.340 -1.2372 -0.1550  0.1399
 4506SOL     OW24976   0.191   2.543  10.411 -0.3044  0.2132  0.1256
 4506SOL    HW124977   0.198   2.449  10.393  0.2915  0.0897  0.9718
 4506SOL    HW224978   0.100   2.562  10.388  0.5836  1.6348 -2.2221
 4507SOL     OW24979   1.520   1.141   7.911  0.1386  0.0761  0.4301
 4507SOL    HW124980   1.511   1.160   8.005  1.0994  0.1095  0.5172
 4507SOL    HW224981   1.513   1.045   7.909  1.5592 -0.0708  1.6335
 4508SOL     OW24982   0.221   3.199   2.025 -0.3084  0.4023 -0.1738
 4508SOL    HW124983   0.255   3.267   1.966  1.4507 -1.2643 -1.0860
 4508SOL    HW224984   0.148   3.242   2.070 -1.1337 -1.5551  0.4003
 4509SOL     OW24985   2.998   2.327   7.122  0.3210 -0.0987 -0.3385
 4509SOL    HW124986   2.978   2.410   7.165 -0.6072 -0.5051  0.0057
 4509SOL    HW224987   2.923   2.314   7.064  1.3143  0.6591 -1.7971
 4510SOL     OW24988   2.288   3.026   3.821 -0.5487 -0.6261  0.0479
 4510SOL    HW124989   2.277   2.931   3.833  0.6748 -0.7689 -0.0414
 4510SOL    HW224990   2.198   3.055   3.805 -0.0340  0.5083 -0.7420
 4511SOL     OW24991   0.137   3.051   7.445  0.4417  0.1931  0.2424
 4511SOL    HW124992   0.185   3.054   7.362  1.2101  1.4167  0.7320
 4511SOL    HW224993   0.182   3.126   7.483 -1.2402  0.3112  2.0391
 4512SOL     OW24994   4.448   0.666   2.183 -0.3150  0.5639  0.2742
 4512SOL    HW124995   4.392   0.603   2.139 -2.1179 -0.5753  4.1695
 4512SOL    HW224996   4.492   0.618   2.253 -2.3083 -0.3759  0.8802
 4513SOL     OW24997   1.565   0.650   8.443  0.1873 -0.0022 -0.0643
 4513SOL    HW124998   1.483   0.699   8.443 -1.2172 -2.4060  2.0885
 4513SOL    HW224999   1.533   0.586   8.506  0.2028  0.5726  0.5252
 4514SOL     OW25000   0.967   2.075   7.407 -0.0956  0.3232 -0.2518
 4514SOL    HW125001   1.053   2.090   7.366  0.2670  0.7605  0.6838
 4514SOL    HW225002   0.985   1.997   7.460 -0.0264 -0.1433 -0.9520
 4515SOL     OW25003   3.599   1.414  14.858 -0.2526  0.1399 -0.1099
 4515SOL    HW125004   3.636   1.427  14.770  2.0804 -0.1942  0.8375
 4515SOL    HW225005   3.675   1.378  14.903 -1.0630 -0.8372  0.4829
 4516SOL     OW25006   1.116   4.553   4.883  0.0835 -0.4118  0.6084
 4516SOL    HW125007   1.125   4.636   4.931  0.2892 -0.3967  0.5400
 4516SOL    HW225008   1.024   4.562   4.857  0.1096 -0.1890  0.5900
 4517SOL     OW25009   3.094   1.938   7.229  0.0414  0.2665 -0.1827
 4517SOL    HW125010   3.014   1.892   7.254 -0.5502 -0.1593 -2.8214
 4517SOL    HW225011   3.094   2.026   7.268 -0.5638  0.4766 -0.6561
 4518SOL     OW25012   4.572   2.437   9.371  0.0170  1.5700 -0.0284
 4518SOL    HW125013   4.657   2.434   9.327  1.5173  3.0666  2.7500
 4518SOL    HW225014   4.540   2.526   9.358 -0.6808  1.0894 -1.6359
 4519SOL     OW25015   3.213   0.770   4.313 -0.2548  0.2169 -0.3993
 4519SOL    HW125016   3.148   0.816   4.367  1.3226  0.2302  1.4745
 4519SOL    HW225017   3.264   0.731   4.384 -0.0319  0.8582 -0.2062
 4520SOL     OW25018   0.443   3.751   5.850 -0.0997  0.8973  0.1910
 4520SOL    HW125019   0.453   3.836   5.892 -0.6934  0.6346  0.8572
 4520SOL    HW225020   0.366   3.708   5.887  1.2380 -1.6009  0.0659
 4521SOL     OW25021   2.193   3.423  17.375 -0.5256  0.8407  0.1432
 4521SOL    HW125022   2.104   3.456  17.391 -0.8079 -0.2516  0.8428
 4521SOL    HW225023   2.241   3.439  17.456  1.1382 -0.2064 -0.6537
 4522SOL     OW25024   0.326   0.425   8.920  0.8178 -0.4901 -0.2702
 4522SOL    HW125025   0.418   0.435   8.895  0.4981 -0.0769 -1.2744
 4522SOL    HW225026   0.286   0.361   8.862  0.1277  0.4640 -0.8479
 4523SOL     OW25027   1.904   2.437   8.855 -0.2389 -0.0385  0.0605
 4523SOL    HW125028   1.931   2.346   8.872  0.1180 -0.0605 -0.6333
 4523SOL    HW225029   1.987   2.481   8.874  0.6023 -1.7860  0.4860
 4524SOL     OW25030   3.831   2.642   2.106  0.1841  0.0584 -0.2173
 4524SOL    HW125031   3.760   2.657   2.044  1.5426  2.1521 -1.2745
 4524SOL    HW225032   3.784   2.655   2.188 -0.1349  1.7791 -0.6679
 4525SOL     OW25033   2.420   3.338   8.631  0.4213  0.2223  0.3969
 4525SOL    HW125034   2.463   3.423   8.626 -0.3068  0.4772 -1.7105
 4525SOL    HW225035   2.480   3.281   8.582  0.4934  1.0171 -0.4413
 4526SOL     OW25036   0.479   3.814   8.270 -0.2826  0.0748  0.6747
 4526SOL    HW125037   0.417   3.772   8.211  0.3416 -0.9630  0.7520
 4526SOL    HW225038   0.455   3.767   8.350  2.8246 -0.3596  1.3336
 4527SOL     OW25039   1.365   2.248   3.118 -0.4410 -0.1008  0.7050
 4527SOL    HW125040   1.282   2.282   3.151 -1.1745 -0.0124 -1.2239
 4527SOL    HW225041   1.377   2.289   3.033  1.9793 -1.2438  0.4749
 4528SOL     OW25042   3.013   3.244   7.584 -0.2058 -0.2846 -0.0104
 4528SOL    HW125043   3.100   3.204   7.582  0.1368  0.4786 -0.3821
 4528SOL    HW225044   2.960   3.180   7.537 -0.2549  0.2678 -0.7161
 4529SOL     OW25045   4.080   0.065   5.026 -0.5817 -0.4027  0.1834
 4529SOL    HW125046   4.109   0.056   5.117  2.0054  1.7326 -0.4450
 4529SOL    HW225047   4.139   0.131   4.990 -1.0822  0.2003  0.4529
 4530SOL     OW25048   4.210   1.482  13.430 -0.2784  0.4190 -0.3434
 4530SOL    HW125049   4.201   1.415  13.362  2.5761 -2.1823  1.8355
 4530SOL    HW225050   4.276   1.444  13.488 -2.3883  1.8323  3.0271
 4531SOL     OW25051   0.427   4.360   7.512 -0.0263 -0.2828 -0.1802
 4531SOL    HW125052   0.421   4.347   7.607  1.1356 -1.4210 -0.2708
 4531SOL    HW225053   0.496   4.302   7.483 -0.9370 -2.9463  2.9237
 4532SOL     OW25054   1.324   1.830  13.392 -0.0270  0.0534  0.3177
 4532SOL    HW125055   1.332   1.924  13.408  1.3697 -0.0180  0.0057
 4532SOL    HW225056   1.297   1.793  13.477  1.1321  1.6965  1.4133
 4533SOL     OW25057   0.968   1.436   2.153  0.3979 -1.1383  0.0067
 4533SOL    HW125058   0.956   1.528   2.127  0.2932 -1.2857 -0.4558
 4533SOL    HW225059   0.907   1.432   2.227  2.0247  1.1370  1.5072
 4534SOL     OW25060   1.072   0.098  10.679 -0.0851  0.7795 -0.2041
 4534SOL    HW125061   1.107   0.090  10.590  1.6545  0.4122  0.5077
 4534SOL    HW225062   1.143   0.068  10.736  0.1056  1.4664 -0.0725
 4535SOL     OW25063   1.319   1.230   7.005 -0.3845 -0.2486 -0.0709
 4535SOL    HW125064   1.263   1.253   6.931 -0.9050  1.3281  0.8104
 4535SOL    HW225065   1.254   1.208   7.071  1.9296 -1.8202  1.6838
 4536SOL     OW25066   0.990   3.177   4.403  0.3468 -0.4542 -0.3377
 4536SOL    HW125067   0.922   3.145   4.463 -1.1227  0.2185 -1.6411
 4536SOL    HW225068   0.991   3.100   4.347  0.6902  0.3365 -1.4050
 4537SOL     OW25069   2.338   2.843   6.581 -0.1061  0.1733  0.2941
 4537SOL    HW125070   2.305   2.932   6.574 -0.5068  0.0503  0.6411
 4537SOL    HW225071   2.265   2.794   6.543 -0.2362  0.7214 -0.1537
 4538SOL     OW25072   4.225   4.096  13.938  0.4804 -0.7156  0.1307
 4538SOL    HW125073   4.297   4.126  13.993  1.3067 -2.0602 -0.1872
 4538SOL    HW225074   4.148   4.145  13.965  0.0164 -0.4343 -1.7141
 4539SOL     OW25075   2.972   0.861   5.059  0.4158 -0.3800  0.0267
 4539SOL    HW125076   2.943   0.852   5.150 -1.2103 -0.0822 -0.4567
 4539SOL    HW225077   2.899   0.828   5.008 -0.4948 -0.3311  1.2875
 4540SOL     OW25078   4.064   1.834  14.906  0.3802  0.3357 -0.2220
 4540SOL    HW125079   4.137   1.774  14.918 -0.0193 -0.4116 -1.5070
 4540SOL    HW225080   4.047   1.831  14.812 -0.4075 -3.9367  0.0476
 4541SOL     OW25081   0.602   0.664   9.049 -0.0516 -0.2008  0.4232
 4541SOL    HW125082   0.636   0.585   9.007 -0.1592  0.1324 -0.2842
 4541SOL    HW225083   0.683   0.695   9.089 -0.2286 -1.5120  1.8180
 4542SOL     OW25084   3.926   4.075  15.199 -0.0864 -0.3438 -0.2799
 4542SOL    HW125085   3.850   4.120  15.236  0.6002  0.6007 -0.0161
 4542SOL    HW225086   3.907   3.985  15.226 -0.5292 -0.1505  0.0569
 4543SOL     OW25087   2.799   4.704  11.066  0.3520  0.7998  0.5947
 4543SOL    HW125088   2.801   0.043  11.138  1.5024  2.0637 -0.5336
 4543SOL    HW225089   2.704   4.693  11.056  0.3442 -0.4095  1.9204
 4544SOL     OW25090   3.622   3.497   2.990 -0.0740 -0.4080  0.7678
 4544SOL    HW125091   3.708   3.530   3.016 -0.1460  0.1986  0.2102
 4544SOL    HW225092   3.584   3.534   3.070 -2.1594 -0.1994 -0.3088
 4545SOL     OW25093   4.223   0.679   4.685 -0.4100  0.5465  0.3805
 4545SOL    HW125094   4.264   0.758   4.649 -0.8892 -0.0488 -1.5068
 4545SOL    HW225095   4.273   0.610   4.642  0.4754  2.1832 -1.2482
 4546SOL     OW25096   4.089   1.172   0.069 -0.7721  0.5276 -0.2711
 4546SOL    HW125097   4.032   1.245   0.044  0.6323  1.9858  0.7899
 4546SOL    HW225098   4.163   1.219   0.108 -1.1837 -0.0719  1.2546
 4547SOL     OW25099   3.737   0.435   6.970 -0.6866 -0.3729  0.0057
 4547SOL    HW125100   3.678   0.418   7.044 -0.3275  1.9707  0.8446
 4547SOL    HW225101   3.685   0.392   6.902  0.5206 -0.0847 -1.0902
 4548SOL     OW25102   3.872   2.078  17.607 -0.4250  0.1795 -0.1422
 4548SOL    HW125103   3.935   2.126  17.660 -0.4270 -0.7842  0.7552
 4548SOL    HW225104   3.928   2.072  17.530 -2.7490  1.6383 -1.9370
 4549SOL     OW25105   4.250   1.881  13.019 -0.4286  0.2556 -0.0376
 4549SOL    HW125106   4.339   1.916  13.012  0.8055 -2.6015  1.5026
 4549SOL    HW225107   4.264   1.822  13.093 -1.2016 -1.7368 -1.4894
 4550SOL     OW25108   0.554   0.103  15.641  0.7887  0.7005 -0.0325
 4550SOL    HW125109   0.635   0.124  15.595  0.7904  0.5474 -0.0965
 4550SOL    HW225110   0.489   0.130  15.577  1.8584  1.4596 -0.8085
 4551SOL     OW25111   1.312   3.232   6.894  0.0087 -0.0434  0.2569
 4551SOL    HW125112   1.399   3.232   6.934 -0.3763 -1.4350  1.0918
 4551SOL    HW225113   1.317   3.162   6.829  0.7038  0.7500 -0.5664
 4552SOL     OW25114   4.320   3.410   9.212 -0.2201 -0.4771 -0.0945
 4552SOL    HW125115   4.234   3.400   9.255 -0.3377  0.0978 -0.2041
 4552SOL    HW225116   4.291   3.446   9.128  1.6144 -0.2174 -0.6000
 4553SOL     OW25117   1.277   4.109   4.761 -0.3921  0.4186  1.0210
 4553SOL    HW125118   1.200   4.148   4.804 -0.8079 -1.7204  2.1981
 4553SOL    HW225119   1.298   4.037   4.820  0.9142 -1.7118 -2.1147
 4554SOL     OW25120   1.899   1.296   6.134  0.3560 -0.3375 -0.2346
 4554SOL    HW125121   1.862   1.278   6.220  0.6904  0.1249  0.0025
 4554SOL    HW225122   1.847   1.238   6.077  0.2176  0.0188 -0.4708
 4555SOL     OW25123   1.922   3.777   7.652  0.0973 -0.2381 -0.1846
 4555SOL    HW125124   1.870   3.742   7.725 -1.1019  0.6798 -0.6081
 4555SOL    HW225125   1.969   3.840   7.706 -0.9950 -1.5850  2.3499
 4556SOL     OW25126   3.504   2.846   5.823 -0.0030  0.1467 -0.2616
 4556SOL    HW125127   3.453   2.886   5.893  1.2771 -0.4781  1.0160
 4556SOL    HW225128   3.440   2.787   5.782  0.2199 -0.8970  0.8814
 4557SOL     OW25129   1.531   3.841   1.503 -0.1297 -0.1712 -0.1117
 4557SOL    HW125130   1.563   3.930   1.489  0.7777 -0.6795 -1.2610
 4557SOL    HW225131   1.483   3.840   1.421  0.4382 -0.0499 -0.4444
 4558SOL     OW25132   0.799   0.874   2.297  0.4088  0.3758 -0.4939
 4558SOL    HW125133   0.823   0.809   2.231  1.7092  1.1883 -0.8104
 4558SOL    HW225134   0.752   0.935   2.239 -1.6449 -1.4450 -0.7285
 4559SOL     OW25135   3.772   0.440  16.573  0.3059 -0.0382  0.0319
 4559SOL    HW125136   3.776   0.520  16.625 -2.1589  0.1343 -0.0499
 4559SOL    HW225137   3.704   0.393  16.621 -1.4109  1.5464 -0.8695
 4560SOL     OW25138   4.486   4.378   6.008  0.1430 -0.4731  0.1625
 4560SOL    HW125139   4.507   4.372   5.915 -0.6603  0.2217 -0.0673
 4560SOL    HW225140   4.408   4.434   6.003 -1.6992 -2.9892  0.5081
 4561SOL     OW25141   3.302   2.165   7.558 -0.4544 -0.5898 -0.1801
 4561SOL    HW125142   3.236   2.212   7.507 -1.8558 -2.0835  0.2629
 4561SOL    HW225143   3.277   2.184   7.649  0.8017  1.7317 -0.3074
 4562SOL     OW25144   1.947   2.162  15.581 -0.2004 -0.2771 -0.1864
 4562SOL    HW125145   1.900   2.193  15.659  0.9160  0.8552  0.0492
 4562SOL    HW225146   1.897   2.196  15.508  0.6660 -1.7628 -1.4630
 4563SOL     OW25147   0.460   4.475   8.024 -0.0439  0.0149  0.2961
 4563SOL    HW125148   0.555   4.487   8.020 -0.1227  0.9543  1.5943
 4563SOL    HW225149   0.453   4.470   8.119  0.3890 -0.0332  0.3273
 4564SOL     OW25150   3.686   3.234   7.837  0.2050 -0.2938  0.7430
 4564SOL    HW125151   3.737   3.168   7.885  2.9331  0.0486 -1.6243
 4564SOL    HW225152   3.716   3.210   7.750 -1.5079 -1.1783  0.3959
 4565SOL     OW25153   1.568   0.534  13.828 -0.0679  0.2222  0.3194
 4565SOL    HW125154   1.588   0.532  13.922  1.1988  1.8429  0.0797
 4565SOL    HW225155   1.571   0.446  13.791 -1.8705  0.3210 -0.0524
 4566SOL     OW25156   3.966   1.825  15.346 -0.2291  0.0594  0.1060
 4566SOL    HW125157   3.903   1.877  15.396  0.2188 -1.1279  1.9288
 4566SOL    HW225158   3.934   1.823  15.256  0.0480 -0.3140  0.0161
 4567SOL     OW25159   1.584   1.235   2.026  0.2323 -0.0543 -0.1738
 4567SOL    HW125160   1.584   1.330   2.011  0.0659  0.4485  2.9705
 4567SOL    HW225161   1.597   1.212   1.934 -1.4857 -1.8993  0.0324
 4568SOL     OW25162   3.741   4.156  10.033  0.1852 -0.1253 -0.1975
 4568SOL    HW125163   3.699   4.208  10.102  1.8537 -2.8712  2.8970
 4568SOL    HW225164   3.695   4.186   9.954  0.6012  0.5882 -0.1685
 4569SOL     OW25165   2.644   1.606   3.004  0.2218 -0.6870  0.4653
 4569SOL    HW125166   2.705   1.641   2.939 -2.2146  1.7144 -0.5382
 4569SOL    HW225167   2.621   1.536   2.942 -0.6871  0.7398 -0.8213
 4570SOL     OW25168   0.964   0.311  16.845 -0.0027 -0.2780  0.4976
 4570SOL    HW125169   0.922   0.230  16.874 -0.5327 -0.4187 -0.6486
 4570SOL    HW225170   1.030   0.283  16.781  0.0710 -0.3086  0.5882
 4571SOL     OW25171   3.007   3.546  16.918  0.3571 -0.1986 -0.1786
 4571SOL    HW125172   2.978   3.477  16.859  1.2162  0.2673 -1.1291
 4571SOL    HW225173   2.926   3.588  16.948 -0.3189 -1.7326  0.1654
 4572SOL     OW25174   4.325   2.491   7.368  1.0900  0.6800  0.3315
 4572SOL    HW125175   4.274   2.502   7.288  2.6906 -1.9504 -1.0285
 4572SOL    HW225176   4.318   2.574   7.415  0.7348 -0.2056  1.8604
 4573SOL     OW25177   2.803   2.700  11.850  0.5346 -0.0799 -0.1197
 4573SOL    HW125178   2.717   2.666  11.825  1.7246 -3.3208  0.2358
 4573SOL    HW225179   2.792   2.788  11.813 -0.8481  0.6531  2.0034
 4574SOL     OW25180   3.397   1.436  15.862  0.0838 -0.2796  0.0616
 4574SOL    HW125181   3.368   1.414  15.773 -0.6728  1.6422 -0.1614
 4574SOL    HW225182   3.350   1.517  15.879 -2.7208 -2.1227  1.0795
 4575SOL     OW25183   4.571   2.661   6.773  0.3236  0.1041  0.0167
 4575SOL    HW125184   4.591   2.676   6.865 -0.0851 -0.2896  0.1693
 4575SOL    HW225185   4.487   2.706   6.775  0.6851  0.7806 -0.2253
 4576SOL     OW25186   1.365   2.978  16.916 -0.2547  0.8634  0.1946
 4576SOL    HW125187   1.457   2.949  16.917 -0.2029  1.0548  0.9791
 4576SOL    HW225188   1.378   3.032  16.838  0.7110 -0.3554 -0.5066
 4577SOL     OW25189   4.428   3.239   7.964 -0.2359  0.5022  0.2470
 4577SOL    HW125190   4.362   3.188   7.918 -1.0580  1.7342  0.0530
 4577SOL    HW225191   4.507   3.187   7.956 -0.1376  0.5600  0.7984
 4578SOL     OW25192   0.374   1.441   8.028 -0.6376 -0.3621  0.1296
 4578SOL    HW125193   0.390   1.386   8.105 -2.4020  2.1085  2.2579
 4578SOL    HW225194   0.396   1.373   7.965 -0.7558  0.2771 -0.6030
 4579SOL     OW25195   3.893   4.544   0.327 -0.1298 -0.1853 -0.2145
 4579SOL    HW125196   3.894   4.629   0.370 -1.7630 -0.9536  1.3485
 4579SOL    HW225197   3.975   4.531   0.280 -0.5096  1.4332 -1.3035
 4580SOL     OW25198   3.984   0.200  11.120  0.1504 -0.7874 -0.6914
 4580SOL    HW125199   3.954   0.273  11.066  1.1062 -1.3562 -1.9912
 4580SOL    HW225200   4.009   0.246  11.200  0.0996 -2.8846  0.5275
 4581SOL     OW25201   0.463   0.219   7.509 -0.0530  0.3188  0.1367
 4581SOL    HW125202   0.370   0.201   7.495 -0.2991 -1.7645  4.3869
 4581SOL    HW225203   0.461   0.308   7.542  3.5602  0.6970 -0.6284
 4582SOL     OW25204   1.473   2.237   3.418  0.1115  0.0445  0.2257
 4582SOL    HW125205   1.461   2.240   3.324  2.7653  2.5658 -0.0411
 4582SOL    HW225206   1.385   2.223   3.454 -0.1076 -1.6297 -0.9549
 4583SOL     OW25207   3.067   1.451   7.191  0.3851 -0.3675  0.2125
 4583SOL    HW125208   2.994   1.456   7.130  0.3197  0.2262  0.3331
 4583SOL    HW225209   3.018   1.445   7.274 -1.6174 -0.3520 -0.9686
 4584SOL     OW25210   0.568   0.992  12.178  0.5640  0.2442 -0.1564
 4584SOL    HW125211   0.503   0.992  12.107  1.8690  2.2447 -1.3456
 4584SOL    HW225212   0.629   0.919  12.168  0.5527  0.1035  0.8329
 4585SOL     OW25213   0.033   2.203   6.986  0.0827  0.1719 -0.3039
 4585SOL    HW125214   0.044   2.190   7.081 -1.1094 -1.1846 -0.3641
 4585SOL    HW225215   0.043   2.116   6.947 -0.4843  1.4174 -3.1768
 4586SOL     OW25216   4.494   2.542   3.766  0.0017 -0.2502  0.0418
 4586SOL    HW125217   4.463   2.611   3.707  2.1553  0.2623 -0.4805
 4586SOL    HW225218   4.537   2.482   3.705 -0.2265  1.4251 -1.7699
 4587SOL     OW25219   4.253   3.159   4.581 -0.0720  0.4845  0.1418
 4587SOL    HW125220   4.304   3.224   4.630 -1.4983  1.7956 -0.1132
 4587SOL    HW225221   4.168   3.157   4.625  1.0137 -1.8029  2.1449
 4588SOL     OW25222   0.968   2.270   8.189  0.8736  0.1422  0.2181
 4588SOL    HW125223   0.880   2.233   8.193  0.2746  1.4841 -0.5635
 4588SOL    HW225224   1.013   2.208   8.245 -0.2698 -0.4035  0.5306
 4589SOL     OW25225   2.842   4.005   3.078  0.7750 -0.3774  0.5441
 4589SOL    HW125226   2.889   3.952   3.142  2.6411  0.4068 -0.2073
 4589SOL    HW225227   2.911   4.014   3.013  1.8177  3.3670  2.1749
 4590SOL     OW25228   4.649   1.858   5.822 -0.4471  0.2999  0.4692
 4590SOL    HW125229   4.686   1.913   5.754 -2.1324 -1.5148 -1.8906
 4590SOL    HW225230   4.713   1.873   5.893 -0.4971  0.0927  0.5586
 4591SOL     OW25231   0.594   0.771   3.064  0.0463 -0.3859 -0.0088
 4591SOL    HW125232   0.624   0.798   3.151 -1.4778 -0.8246  0.6408
 4591SOL    HW225233   0.682   0.745   3.035  0.4259  1.2372 -0.2850
 4592SOL     OW25234   1.249   1.752   7.333 -0.4220  0.3302  0.5541
 4592SOL    HW125235   1.176   1.690   7.341 -0.2424  0.0181 -0.2594
 4592SOL    HW225236   1.308   1.691   7.288  1.0791  1.6594  0.7276
 4593SOL     OW25237   0.696   4.543  15.067 -0.6848 -0.0038  0.4555
 4593SOL    HW125238   0.642   4.603  15.016 -0.5118  0.2330  0.5574
 4593SOL    HW225239   0.636   4.468  15.077  1.1736 -1.4908  0.5607
 4594SOL     OW25240   2.351   4.298   4.509 -0.4059 -0.2116 -0.1937
 4594SOL    HW125241   2.328   4.210   4.538  0.4944 -0.8885 -1.5455
 4594SOL    HW225242   2.431   4.322   4.556  0.4655  0.3011 -1.9353
 4595SOL     OW25243   4.607   4.305  15.012  0.6980 -0.6167  0.3443
 4595SOL    HW125244   4.530   4.362  15.015  1.7316  0.6090  3.3776
 4595SOL    HW225245   4.573   4.229  15.058 -1.1643  0.0991  0.1371
 4596SOL     OW25246   1.821   4.091   3.305 -0.1617  0.6266 -0.1512
 4596SOL    HW125247   1.862   4.116   3.222  0.5859  1.4215  0.4516
 4596SOL    HW225248   1.889   4.049   3.358 -1.9687 -3.0488 -0.8049
 4597SOL     OW25249   4.125   2.961   3.966  0.4792  0.1542  0.4736
 4597SOL    HW125250   4.099   3.023   3.898  1.1216 -0.9863 -0.8153
 4597SOL    HW225251   4.054   2.896   3.964 -0.3421  1.0853 -0.5093
 4598SOL     OW25252   2.577   0.133  16.710 -0.1117 -0.3906  0.0758
 4598SOL    HW125253   2.619   0.076  16.774 -0.6085 -1.1755 -0.2968
 4598SOL    HW225254   2.655   0.188  16.702 -0.2081 -0.0077  1.8407
 4599SOL     OW25255   4.321   2.449   3.223 -0.4380 -0.5596 -0.4948
 4599SOL    HW125256   4.251   2.386   3.239 -1.7324  0.5294 -1.8492
 4599SOL    HW225257   4.382   2.386   3.185 -0.7508 -1.3789  0.3574
 4600SOL     OW25258   3.523   2.239  10.202 -0.3459  0.2323  0.2700
 4600SOL    HW125259   3.468   2.240  10.124 -1.3969  3.3562  1.0748
 4600SOL    HW225260   3.607   2.276  10.174 -0.7610  2.4478  1.9233
 4601SOL     OW25261   1.709   3.845   5.881 -0.1672  0.1741  0.1314
 4601SOL    HW125262   1.659   3.915   5.922 -2.8636 -2.0879  0.6819
 4601SOL    HW225263   1.675   3.772   5.933  0.9853  0.9921  2.0412
 4602SOL     OW25264   3.044   2.852   9.251 -0.0555 -0.0717 -0.1055
 4602SOL    HW125265   3.113   2.857   9.317  1.2670  0.7479 -1.5507
 4602SOL    HW225266   3.082   2.775   9.207 -3.1768 -2.2236  0.9354
 4603SOL     OW25267   4.241   3.066   1.877  0.0034  0.4299 -0.0897
 4603SOL    HW125268   4.241   3.157   1.907 -1.3303  1.1331 -2.2674
 4603SOL    HW225269   4.215   3.068   1.785 -0.8278  1.4666  0.1762
 4604SOL     OW25270   1.072   0.111  15.957 -0.0158  1.0705 -0.5810
 4604SOL    HW125271   1.114   0.175  15.900  0.7299 -1.9163 -3.4156
 4604SOL    HW225272   1.019   0.059  15.896  0.6163  0.8188 -0.9214
 4605SOL     OW25273   4.203   4.353   7.928 -0.6066 -0.2474 -0.3860
 4605SOL    HW125274   4.209   4.317   7.840 -0.4677 -2.0622  0.3478
 4605SOL    HW225275   4.292   4.342   7.962 -0.2038 -1.5154 -1.8562
 4606SOL     OW25276   1.641   0.663  10.154  0.1429  0.5294  0.0661
 4606SOL    HW125277   1.589   0.591  10.191  1.3752 -0.9573 -1.0864
 4606SOL    HW225278   1.720   0.655  10.206  1.5075 -1.1769 -2.2775
 4607SOL     OW25279   4.268   1.709  15.099  0.1241 -0.1539 -0.3258
 4607SOL    HW125280   4.304   1.798  15.107 -1.0616  0.2441  0.5276
 4607SOL    HW225281   4.275   1.676  15.188 -1.1088 -0.1531 -0.2267
 4608SOL     OW25282   3.360   0.146   2.302  0.5058  0.5814  0.2516
 4608SOL    HW125283   3.372   0.194   2.384  2.2416 -1.7923  1.3886
 4608SOL    HW225284   3.268   0.138   2.277  0.4166  2.4713  0.0233
 4609SOL     OW25285   2.693   3.106   6.422  0.4736 -0.5931 -0.3641
 4609SOL    HW125286   2.688   3.086   6.515 -0.7244  0.6985 -0.1393
 4609SOL    HW225287   2.605   3.092   6.386 -0.9039  1.9504  2.0149
 4610SOL     OW25288   3.272   1.858  16.785 -0.0219  0.0945 -0.0685
 4610SOL    HW125289   3.264   1.887  16.694  0.7093  1.3415  0.2541
 4610SOL    HW225290   3.224   1.930  16.827 -1.5633 -0.2304 -1.2808
 4611SOL     OW25291   2.153   0.016   3.311 -0.1163 -0.0965  0.2241
 4611SOL    HW125292   2.232   4.709   3.267  1.9126  1.9860  2.3578
 4611SOL    HW225293   2.108   0.055   3.236 -0.2025 -1.6384 -0.5207
 4612SOL     OW25294   1.054   4.105   1.981 -0.0139 -0.3103 -0.2794
 4612SOL    HW125295   1.143   4.136   2.000 -0.3175 -0.4436  1.3736
 4612SOL    HW225296   1.016   4.097   2.068  0.8182 -0.6550  0.0574
 4613SOL     OW25297   0.042   3.477  15.630  0.4401  0.2891  0.0233
 4613SOL    HW125298   4.722   3.436  15.705 -0.8454 -0.4594 -1.1471
 4613SOL    HW225299   0.097   3.403  15.605 -1.8894 -0.8920 -1.5728
 4614SOL     OW25300   3.215   4.381   0.405  0.3511  0.5474 -0.2007
 4614SOL    HW125301   3.268   4.300   0.404 -1.5251 -0.6815 -0.1449
 4614SOL    HW225302   3.226   4.417   0.317  0.4776 -2.6141 -1.5071
 4615SOL     OW25303   0.008   2.960   7.645 -0.1790 -0.7026  0.0610
 4615SOL    HW125304   0.059   2.996   7.572  0.2609  0.8543  1.1338
 4615SOL    HW225305   0.061   2.880   7.646 -0.8806 -1.1267  2.1144
 4616SOL     OW25306   0.843   0.618   2.990  0.0542 -0.2191 -0.2662
 4616SOL    HW125307   0.797   0.607   2.906  0.8258  2.5443 -1.0514
 4616SOL    HW225308   0.933   0.647   2.971  0.1475  0.0138  0.5591
 4617SOL     OW25309   1.184   1.426   0.799  0.3931  0.4187 -0.2389
 4617SOL    HW125310   1.144   1.376   0.871  0.7881 -0.5764 -0.7054
 4617SOL    HW225311   1.107   1.464   0.758 -0.8197 -1.1029  0.6148
 4618SOL     OW25312   0.021   3.651   6.318 -0.7835  0.6933 -0.2605
 4618SOL    HW125313   0.016   3.628   6.225  0.4669  1.2520 -0.4557
 4618SOL    HW225314   0.116   3.649   6.328 -0.6747 -0.3256 -1.4033
 4619SOL     OW25315   3.927   1.338   0.598  0.1855  0.0619 -0.0729
 4619SOL    HW125316   3.887   1.334   0.511  0.2861  0.4311 -0.1389
 4619SOL    HW225317   3.860   1.394   0.637  0.5192  0.0182  0.5575
 4620SOL     OW25318   0.922   0.487   0.278 -0.1441 -0.0192 -0.2048
 4620SOL    HW125319   0.879   0.554   0.225  1.1911 -0.2010 -1.5047
 4620SOL    HW225320   0.845   0.444   0.315  1.1945 -1.6823  0.6418
 4621SOL     OW25321   3.123   2.695  10.909  0.8902 -0.1311 -0.4080
 4621SOL    HW125322   3.076   2.766  10.866 -1.6454 -1.4532  0.1619
 4621SOL    HW225323   3.126   2.728  10.999 -0.5395 -1.0170 -0.0298
 4622SOL     OW25324   3.581   0.520   7.452 -0.1590  0.0231 -0.0220
 4622SOL    HW125325   3.541   0.443   7.411  2.7272 -1.4070 -0.1433
 4622SOL    HW225326   3.672   0.508   7.424  0.0829 -0.0789  0.8177
 4623SOL     OW25327   4.488   1.636   6.067 -0.2480 -0.2825  0.4564
 4623SOL    HW125328   4.579   1.624   6.093  0.3419 -0.4230 -1.6246
 4623SOL    HW225329   4.433   1.621   6.144 -0.2646  0.6955  0.6406
 4624SOL     OW25330   2.370   0.374  14.854  0.1032 -0.1874 -0.0213
 4624SOL    HW125331   2.405   0.444  14.910  1.2993 -1.6506  1.0745
 4624SOL    HW225332   2.337   0.417  14.775 -0.8641  0.9405  1.0030
 4625SOL     OW25333   4.054   0.565   1.205  0.0905 -0.3337  0.5998
 4625SOL    HW125334   4.003   0.567   1.286 -2.5906  2.7776 -1.1743
 4625SOL    HW225335   4.062   0.470   1.196 -1.8296 -0.4880  0.5831
 4626SOL     OW25336   3.509   3.541   8.117 -0.5980 -0.5712 -0.1925
 4626SOL    HW125337   3.593   3.498   8.103  0.0926  0.7585 -0.1188
 4626SOL    HW225338   3.465   3.492   8.047  0.9866  0.2823 -1.8038
 4627SOL     OW25339   0.730   4.057   5.387 -0.5868  0.6073  0.4272
 4627SOL    HW125340   0.756   3.990   5.324  1.2229  1.8954 -0.2020
 4627SOL    HW225341   0.812   4.077   5.432 -0.8241 -0.2077  1.2061
 4628SOL     OW25342   2.877   0.552   6.247 -0.4221  0.3956 -0.6992
 4628SOL    HW125343   2.828   0.528   6.168 -0.3513  0.3589 -0.7318
 4628SOL    HW225344   2.857   0.643   6.269 -0.6304  0.3097 -0.5315
 4629SOL     OW25345   3.752   2.107   3.392  0.4583  0.5481  0.0290
 4629SOL    HW125346   3.730   2.177   3.330 -0.1637 -0.5739 -1.0177
 4629SOL    HW225347   3.839   2.079   3.365 -0.3767 -0.1952 -1.9176
 4630SOL     OW25348   1.331   3.188   6.282 -0.5018  0.4423 -0.3096
 4630SOL    HW125349   1.316   3.153   6.194 -0.7157  1.0288 -0.5046
 4630SOL    HW225350   1.425   3.206   6.275 -0.4959 -0.4482 -2.5083
 4631SOL     OW25351   2.392   3.803   3.350  0.3370  0.6439  0.1357
 4631SOL    HW125352   2.353   3.756   3.276 -1.4653  0.7638  1.0097
 4631SOL    HW225353   2.389   3.890   3.310 -1.8195  0.6352  0.2657
 4632SOL     OW25354   3.167   4.247   1.926  0.0258  0.1455  0.2893
 4632SOL    HW125355   3.255   4.267   1.957  0.2642 -0.8264  0.2507
 4632SOL    HW225356   3.160   4.171   1.984 -0.4739 -0.9549 -1.2193
 4633SOL     OW25357   2.721   3.029   0.394 -0.0095 -0.0955 -0.8099
 4633SOL    HW125358   2.784   3.099   0.375 -0.6550  0.6068 -0.3641
 4633SOL    HW225359   2.786   2.959   0.402 -1.0569 -0.8996  0.5808
 4634SOL     OW25360   1.901   0.149   2.332  0.3264  0.3880  0.3085
 4634SOL    HW125361   1.931   0.236   2.306  0.2094  0.4369  0.3363
 4634SOL    HW225362   1.841   0.124   2.261  1.2101 -2.5061  0.5979
 4635SOL     OW25363   2.029   2.344   7.479 -0.2168  0.0144  0.0923
 4635SOL    HW125364   2.010   2.428   7.521  1.1602  0.7328 -0.7520
 4635SOL    HW225365   1.942   2.319   7.446  0.2512 -0.4306 -0.7776
 4636SOL     OW25366   2.104   1.925   9.031  0.0120  0.4490  0.0946
 4636SOL    HW125367   2.162   1.867   8.983  0.1705  0.1763  0.6074
 4636SOL    HW225368   2.165   1.962   9.096  0.0267 -2.4336  1.7377
 4637SOL     OW25369   3.267   1.291   1.505  0.1088  0.6900 -0.4195
 4637SOL    HW125370   3.289   1.205   1.469  0.6124  0.0357  1.4747
 4637SOL    HW225371   3.226   1.258   1.585  0.4748  1.4074  0.0652
 4638SOL     OW25372   3.497   0.072   2.093  0.0374 -0.2381  0.2145
 4638SOL    HW125373   3.452   0.095   2.174  0.8996 -1.6175  1.0692
 4638SOL    HW225374   3.473   4.703   2.088  1.4283 -0.5607 -0.5309
 4639SOL     OW25375   1.281   2.929   4.685 -0.5600 -0.1016 -0.3814
 4639SOL    HW125376   1.282   3.023   4.667  1.6863  0.2479  1.5859
 4639SOL    HW225377   1.252   2.894   4.600 -0.4449 -1.9371  0.3373
 4640SOL     OW25378   2.445   1.919  14.426  0.1243  0.7636 -0.2123
 4640SOL    HW125379   2.390   1.971  14.367  0.8729 -0.3079 -1.8326
 4640SOL    HW225380   2.480   1.981  14.491  0.3391  2.4860 -1.9798
 4641SOL     OW25381   3.544   3.677  13.185  0.0891 -0.0254 -0.0642
 4641SOL    HW125382   3.460   3.663  13.230  1.3630 -1.7114  1.8058
 4641SOL    HW225383   3.513   3.736  13.117  0.5319  1.4447  1.0126
 4642SOL     OW25384   3.353   1.269  13.896 -0.2001  0.2231 -0.0462
 4642SOL    HW125385   3.325   1.240  13.809  1.1193 -1.2656  0.0186
 4642SOL    HW225386   3.317   1.357  13.906  1.4284  0.9967 -0.9715
 4643SOL     OW25387   3.813   1.553   8.697  0.1335 -0.0646 -0.4361
 4643SOL    HW125388   3.869   1.505   8.759  1.2640  0.9668 -0.6796
 4643SOL    HW225389   3.772   1.486   8.642  0.3745 -0.7203  0.1683
 4644SOL     OW25390   1.436   2.725   5.457  1.2708  0.0593  0.7048
 4644SOL    HW125391   1.483   2.794   5.410  2.1678  0.0126  1.5233
 4644SOL    HW225392   1.439   2.766   5.544 -0.7722  1.4421  0.1143
 4645SOL     OW25393   3.598   3.924  16.572  0.2227 -0.0475 -0.4860
 4645SOL    HW125394   3.599   3.960  16.661  0.3629  3.2394 -1.7986
 4645SOL    HW225395   3.644   3.842  16.588 -2.5344 -1.6595 -0.9009
 4646SOL     OW25396   4.640   3.301  13.784 -0.4061 -0.4097  0.3492
 4646SOL    HW125397   4.560   3.346  13.812  0.4777  0.4641  1.4832
 4646SOL    HW225398   4.629   3.299  13.689 -0.1898  1.1495  0.2860
 4647SOL     OW25399   2.961   3.969  11.839  0.0390 -0.0472 -0.4402
 4647SOL    HW125400   2.978   3.941  11.749 -1.1879  2.0873 -1.3410
 4647SOL    HW225401   3.015   4.049  11.845 -2.2285  1.2902  2.3256
 4648SOL     OW25402   3.505   0.993   8.086 -0.4810  0.1266  0.1692
 4648SOL    HW125403   3.500   0.945   8.003  3.6945  0.9373 -0.5325
 4648SOL    HW225404   3.495   1.082   8.051 -2.3260 -0.5756 -1.1215
 4649SOL     OW25405   1.350   3.003   3.391 -0.4447 -0.0904  0.1069
 4649SOL    HW125406   1.429   3.041   3.354  0.3293  0.2376  2.1131
 4649SOL    HW225407   1.288   3.055   3.340 -1.7058  0.3203  2.0694
 4650SOL     OW25408   1.728   2.671   6.724  0.2203 -0.6578 -0.0163
 4650SOL    HW125409   1.793   2.724   6.677 -1.0752 -0.1720 -1.2590
 4650SOL    HW225410   1.701   2.601   6.664 -0.8044  0.0440 -0.3835
 4651SOL     OW25411   0.877   0.389   2.585 -0.0589  0.1021 -0.4518
 4651SOL    HW125412   0.934   0.466   2.581 -0.6109  0.4376 -1.9920
 4651SOL    HW225413   0.799   0.427   2.626 -0.4183 -1.7131  0.5228
 4652SOL     OW25414   0.925   4.687   2.303  0.5437  0.0982  0.4200
 4652SOL    HW125415   0.913   0.034   2.240  0.4747 -0.2665  0.0274
 4652SOL    HW225416   0.959   0.017   2.375  0.3717  0.9576 -0.1431
 4653SOL     OW25417   1.016   3.988  13.427  0.6561  0.3820  0.0092
 4653SOL    HW125418   0.929   4.024  13.444  1.3934  0.7963  2.8491
 4653SOL    HW225419   1.008   3.899  13.460 -1.2011  0.7124  0.4442
 4654SOL     OW25420   0.741   0.421   4.069 -0.2768 -0.2783  0.2850
 4654SOL    HW125421   0.759   0.478   3.995  0.1573  0.4903  0.9804
 4654SOL    HW225422   0.645   0.418   4.069 -0.2527 -1.0785  2.5215
 4655SOL     OW25423   3.343   1.213   0.872  0.5812  0.2335 -0.0599
 4655SOL    HW125424   3.253   1.240   0.856 -0.1717  0.7058  4.8907
 4655SOL    HW225425   3.332   1.143   0.936 -0.2211 -0.7427 -1.2793
 4656SOL     OW25426   2.681   4.436   5.393  0.4706  0.0475 -0.0826
 4656SOL    HW125427   2.656   4.465   5.481  0.4930 -0.0697 -0.0377
 4656SOL    HW225428   2.694   4.342   5.406 -3.1957 -0.3042  1.1610
 4657SOL     OW25429   0.580   1.794   3.269 -0.0938  0.1762 -0.2867
 4657SOL    HW125430   0.644   1.726   3.248  0.1032 -0.1903  1.5560
 4657SOL    HW225431   0.501   1.753   3.232  0.8052 -1.2344 -0.6336
 4658SOL     OW25432   1.204   1.841   0.048  0.0665  0.1413 -0.4298
 4658SOL    HW125433   1.231   1.889   0.127 -0.5227 -0.6419  0.2490
 4658SOL    HW225434   1.212   1.749   0.074 -0.7027  0.4163  0.7962
 4659SOL     OW25435   0.727   4.662  16.668  0.1427  0.0853 -0.5315
 4659SOL    HW125436   0.682   4.584  16.638 -0.4741  0.0241  0.5329
 4659SOL    HW225437   0.754   4.700  16.585 -0.2169 -0.3304 -0.8385
 4660SOL     OW25438   4.034   3.223   5.619 -0.8713 -0.1383  0.6461
 4660SOL    HW125439   4.078   3.152   5.666  0.6595 -0.7462 -1.6348
 4660SOL    HW225440   3.975   3.182   5.556  1.2500  1.2551 -2.2449
 4661SOL     OW25441   3.435   4.085   9.668 -0.2875  0.1584 -0.3669
 4661SOL    HW125442   3.529   4.069   9.670 -0.2241  0.3352 -2.2532
 4661SOL    HW225443   3.431   4.136   9.749 -0.6209 -1.4062  0.6144
 4662SOL     OW25444   0.923   1.914   5.222  0.2128  0.0603 -0.1234
 4662SOL    HW125445   0.857   1.936   5.289  0.0864 -0.5694 -0.0448
 4662SOL    HW225446   0.982   1.989   5.229 -1.9655  1.7355  0.2878
 4663SOL     OW25447   2.656   0.977   5.579  0.2776  0.2065  0.2382
 4663SOL    HW125448   2.693   0.925   5.509  0.5982  1.6666 -0.6697
 4663SOL    HW225449   2.683   0.927   5.656  0.1990  0.0259  0.1479
 4664SOL     OW25450   2.939   1.475   9.770 -0.2149 -0.0731 -0.1511
 4664SOL    HW125451   2.909   1.563   9.749  1.3262  0.9036  1.7576
 4664SOL    HW225452   2.940   1.490   9.864 -0.8217 -2.1466  0.1883
 4665SOL     OW25453   3.568   3.909  15.405  0.3776 -0.1210 -0.1014
 4665SOL    HW125454   3.586   3.984  15.347  0.7788  0.6645  1.0267
 4665SOL    HW225455   3.652   3.898  15.450 -0.5633  0.1263  1.7012
 4666SOL     OW25456   2.680   4.345   7.714  0.2468 -0.2281  0.1041
 4666SOL    HW125457   2.584   4.345   7.704  0.1084 -0.5821  1.5386
 4666SOL    HW225458   2.685   4.371   7.806 -3.8725 -0.5000  0.4352
 4667SOL     OW25459   0.293   2.234   8.090 -0.0594  0.3782  0.9811
 4667SOL    HW125460   0.211   2.272   8.122 -0.7755  0.5278 -1.0676
 4667SOL    HW225461   0.351   2.265   8.160 -0.0242  1.6449  0.3780
 4668SOL     OW25462   3.989   1.216   4.538  0.0996  0.4127 -0.8812
 4668SOL    HW125463   3.949   1.146   4.486  0.9114  0.3506 -1.4224
 4668SOL    HW225464   3.922   1.246   4.600  1.7996  0.2144  1.0140
 4669SOL     OW25465   4.554   4.564   4.897  0.4382  0.1728 -0.0812
 4669SOL    HW125466   4.628   4.566   4.836 -1.3832  1.3487 -2.2217
 4669SOL    HW225467   4.478   4.573   4.840  0.4911  0.1472 -0.1574
 4670SOL     OW25468   0.061   2.098   7.247  0.1315  0.1799 -0.1992
 4670SOL    HW125469   0.131   2.069   7.305  0.8879 -1.9099 -2.1484
 4670SOL    HW225470   0.000   2.025   7.258 -1.4514  1.3609 -1.0309
 4671SOL     OW25471   3.258   2.457   5.868 -0.0455 -0.1037  0.1822
 4671SOL    HW125472   3.197   2.394   5.906 -3.1856  2.9933  0.2802
 4671SOL    HW225473   3.337   2.405   5.886 -1.0068 -1.8763 -0.6893
 4672SOL     OW25474   0.696   3.020  15.189 -0.0033 -0.3256 -0.2166
 4672SOL    HW125475   0.759   3.074  15.237  1.0858 -0.9599 -0.9477
 4672SOL    HW225476   0.678   2.955  15.256  1.6778  1.5023  2.0012
 4673SOL     OW25477   0.245   4.462   9.287 -0.2182 -0.4340  0.1474
 4673SOL    HW125478   0.271   4.527   9.221 -0.7938 -0.5349 -0.1813
 4673SOL    HW225479   0.237   4.385   9.229  0.0756 -0.2781 -0.1044
 4674SOL     OW25480   2.429   4.047  12.551  0.0386 -0.2703  0.3068
 4674SOL    HW125481   2.445   4.043  12.457 -0.4562  0.5668  0.1884
 4674SOL    HW225482   2.333   4.044  12.555  0.1218  0.4358  2.7819
 4675SOL     OW25483   3.327   4.083   3.888 -0.2940  0.1533 -0.1323
 4675SOL    HW125484   3.331   4.028   3.810 -1.5261  2.6419 -1.9417
 4675SOL    HW225485   3.233   4.098   3.899 -0.5514 -1.4848 -0.2044
 4676SOL     OW25486   1.855   1.733   8.409 -0.0564 -0.0784  0.8104
 4676SOL    HW125487   1.924   1.786   8.369  2.0877 -1.0282  3.2835
 4676SOL    HW225488   1.792   1.804   8.424 -1.5306 -1.0219 -0.8567
 4677SOL     OW25489   0.929   1.753   6.255  0.7469  0.2206 -0.2973
 4677SOL    HW125490   1.018   1.726   6.233  0.7717  0.5371 -0.5814
 4677SOL    HW225491   0.881   1.670   6.254 -0.3563  0.8451  0.2880
 4678SOL     OW25492   0.083   4.167  17.041  0.0385  0.1955 -0.4489
 4678SOL    HW125493   0.178   4.158  17.032  0.2271  0.6282  1.0161
 4678SOL    HW225494   0.067   4.185  16.949  0.3839  1.6471 -0.2266
 4679SOL     OW25495   1.604   3.084   6.149 -0.2529  0.1030 -0.2693
 4679SOL    HW125496   1.653   3.002   6.137  0.3740  0.1557  1.9211
 4679SOL    HW225497   1.677   3.146   6.143 -1.2644  1.5055  2.2315
 4680SOL     OW25498   2.749   2.592   1.937  0.5221 -0.5064  0.6125
 4680SOL    HW125499   2.843   2.590   1.955  0.6724  0.6791 -0.0376
 4680SOL    HW225500   2.714   2.569   2.024  0.9845 -2.7051  0.2196
 4681SOL     OW25501   2.065   0.114   1.589  0.7448 -0.3054  0.1547
 4681SOL    HW125502   2.020   0.061   1.523  1.3724  0.6140 -1.0049
 4681SOL    HW225503   2.026   0.197   1.559  0.3998  0.2569  2.1488
 4682SOL     OW25504   0.295   2.090   6.442 -0.4302 -0.1843  0.1292
 4682SOL    HW125505   0.279   2.180   6.412 -0.0049  0.2612  1.2360
 4682SOL    HW225506   0.216   2.070   6.492 -0.9033  0.4518 -0.3586
 4683SOL     OW25507   1.298   1.135   7.709 -0.2124  0.7752  0.1398
 4683SOL    HW125508   1.388   1.116   7.733 -0.7049 -0.6446  0.8273
 4683SOL    HW225509   1.318   1.162   7.619 -0.1987 -2.0216 -0.6845
 4684SOL     OW25510   2.506   2.547  11.318 -0.3549  0.1757 -0.0232
 4684SOL    HW125511   2.435   2.521  11.377 -1.2805  0.4391 -1.0386
 4684SOL    HW225512   2.510   2.462  11.274  0.5973  0.4766 -0.5218
 4685SOL     OW25513   3.831   4.697   2.748  0.0445  0.0265  0.1255
 4685SOL    HW125514   3.818   0.035   2.819 -1.3459 -1.0756  0.8281
 4685SOL    HW225515   3.884   0.024   2.686  0.7450 -0.2303  0.5188
 4686SOL     OW25516   1.042   0.153   0.814 -0.4556  0.4429  0.0732
 4686SOL    HW125517   1.021   0.093   0.742  3.0506  1.7515 -2.0283
 4686SOL    HW225518   0.993   0.119   0.889  0.5501 -4.0158 -1.2979
 4687SOL     OW25519   1.108   3.603   7.875 -0.1782 -0.0962  0.0268
 4687SOL    HW125520   1.187   3.550   7.864  1.4966  2.2818  0.6596
 4687SOL    HW225521   1.108   3.653   7.793 -0.6443  0.4489  0.3617
 4688SOL     OW25522   3.550   3.897   9.946  0.2565 -0.4655  0.6970
 4688SOL    HW125523   3.562   3.949   9.867 -0.1774 -2.1227 -0.4614
 4688SOL    HW225524   3.466   3.855   9.926 -0.9165  1.7332  1.0912
 4689SOL     OW25525   1.976   1.118   0.454  0.1098  0.1243 -0.5250
 4689SOL    HW125526   1.886   1.123   0.487  0.1350  0.4456 -0.5020
 4689SOL    HW225527   2.012   1.053   0.515 -2.8016 -0.2686  0.7752
 4690SOL     OW25528   1.433   4.524   6.839 -0.2124  0.2415 -0.0604
 4690SOL    HW125529   1.416   4.466   6.764 -0.4191  2.0774 -1.4363
 4690SOL    HW225530   1.431   4.608   6.794  2.7707  0.0953 -0.4468
 4691SOL     OW25531   0.420   2.066  12.413  0.4324  0.6788 -0.0455
 4691SOL    HW125532   0.514   2.050  12.422  0.6772  3.0711  1.6258
 4691SOL    HW225533   0.422   2.126  12.338  2.1940 -0.5810 -1.0051
 4692SOL     OW25534   3.635   2.842   8.114  0.1593  0.3421 -0.1499
 4692SOL    HW125535   3.623   2.934   8.134 -1.0208  0.3648 -0.9860
 4692SOL    HW225536   3.730   2.829   8.113  0.2547  1.0066  0.9000
 4693SOL     OW25537   2.048   0.796   5.426 -0.1913  0.1576  0.0676
 4693SOL    HW125538   2.122   0.789   5.487  1.3418 -1.3365 -1.9861
 4693SOL    HW225539   2.015   0.709   5.407  0.4980 -0.0857 -0.0209
 4694SOL     OW25540   0.608   3.393   8.413 -0.1447  0.1790  0.1886
 4694SOL    HW125541   0.698   3.421   8.398 -0.5747  1.2093 -0.4304
 4694SOL    HW225542   0.599   3.309   8.367 -0.2896 -0.9075  2.2018
 4695SOL     OW25543   2.167   2.413   8.929  0.1730 -0.3494  0.1942
 4695SOL    HW125544   2.138   2.323   8.939 -1.1865 -0.0248 -0.8013
 4695SOL    HW225545   2.240   2.414   8.991  1.3027  0.4094 -1.1641
 4696SOL     OW25546   0.799   0.672   0.107 -0.4272  0.1300  0.0083
 4696SOL    HW125547   0.757   0.665   0.022  0.6164  2.1888 -0.6785
 4696SOL    HW225548   0.813   0.766   0.117  1.1925 -0.0999 -0.0817
 4697SOL     OW25549   0.729   1.415   7.453  0.4244  0.6677  0.2674
 4697SOL    HW125550   0.651   1.363   7.432  0.6950  0.5110 -0.3556
 4697SOL    HW225551   0.683   1.494   7.478 -0.6595  0.2553 -0.4078
 4698SOL     OW25552   4.687   4.058   4.490 -0.0035 -0.5556  0.1234
 4698SOL    HW125553   0.023   4.116   4.442 -0.4373  1.6191  2.2463
 4698SOL    HW225554   4.667   3.988   4.428  0.9697 -0.5290 -0.2250
 4699SOL     OW25555   4.031   2.742   8.519  0.3199 -0.2453 -0.3924
 4699SOL    HW125556   3.979   2.727   8.598 -0.5566  0.1738 -0.8881
 4699SOL    HW225557   4.040   2.837   8.519  0.7480 -0.2831 -0.7841
 4700SOL     OW25558   2.848   2.096   4.843  0.0290  0.2258  0.0988
 4700SOL    HW125559   2.874   2.124   4.755 -2.6680 -0.4440 -0.9211
 4700SOL    HW225560   2.843   2.183   4.882  0.0957 -0.0990  0.8293
 4701SOL     OW25561   0.013   0.894   1.851 -0.0887 -0.3660 -0.3620
 4701SOL    HW125562   0.074   0.831   1.813 -0.4130 -2.2221  2.1623
 4701SOL    HW225563   4.712   0.835   1.923 -2.1516  1.3338  0.3198
 4702SOL     OW25564   0.315   0.680   9.666  0.0220 -0.4728  0.0018
 4702SOL    HW125565   0.264   0.605   9.634 -0.5649 -0.1406  0.1724
 4702SOL    HW225566   0.248   0.746   9.679  0.0105 -0.4576 -0.1326
 4703SOL     OW25567   4.495   4.377   5.234 -0.4010 -0.4646  0.7626
 4703SOL    HW125568   4.533   4.447   5.182 -3.2573 -0.0452 -0.7642
 4703SOL    HW225569   4.554   4.312   5.196  1.7280  2.4079 -0.8551
 4704SOL     OW25570   4.437   3.625   2.750  0.5897 -0.3062 -0.1844
 4704SOL    HW125571   4.419   3.596   2.661 -0.9266  1.5645 -0.4764
 4704SOL    HW225572   4.363   3.679   2.779  1.3984  0.4272  0.4965
 4705SOL     OW25573   0.108   1.343   2.960 -0.2286  0.2683  0.0317
 4705SOL    HW125574   0.151   1.282   2.900 -1.8119 -0.5593 -0.2753
 4705SOL    HW225575   0.109   1.423   2.907 -2.3236  0.9058  0.9679
 4706SOL     OW25576   4.356   3.359   2.949  0.2202  0.2817 -0.2616
 4706SOL    HW125577   4.385   3.446   2.977  0.3416  0.7575 -1.8214
 4706SOL    HW225578   4.381   3.305   3.024  1.4702 -1.9027 -2.2627
 4707SOL     OW25579   2.926   1.592  16.045  0.5599 -0.2247  0.2321
 4707SOL    HW125580   2.924   1.607  15.951 -1.2534 -1.2615  0.0959
 4707SOL    HW225581   2.844   1.636  16.067 -0.4585 -1.6916 -0.5546
 4708SOL     OW25582   2.119   2.454   8.329  0.0902  0.4854 -0.7680
 4708SOL    HW125583   2.207   2.491   8.338  0.9027 -1.1748 -1.7959
 4708SOL    HW225584   2.077   2.535   8.299 -1.0311  0.3501  0.4399
 4709SOL     OW25585   2.923   4.228   4.414  0.4112  0.1929 -0.3823
 4709SOL    HW125586   2.983   4.270   4.352 -0.4966 -1.6717 -2.5463
 4709SOL    HW225587   2.904   4.142   4.376 -0.9233 -1.3042  3.6403
 4710SOL     OW25588   1.285   1.401   3.887  0.0826  0.5591 -0.4647
 4710SOL    HW125589   1.246   1.446   3.962  0.2462 -0.3499  0.1711
 4710SOL    HW225590   1.213   1.393   3.825  0.2886 -1.3334 -0.4693
 4711SOL     OW25591   1.607   4.635  17.477  0.1117  0.2527  0.4340
 4711SOL    HW125592   1.664   4.706  17.506 -0.0976  1.2028 -1.4446
 4711SOL    HW225593   1.581   4.595  17.560 -0.2844  0.4698  0.4147
 4712SOL     OW25594   3.616   2.288   4.966 -0.2400  0.0595 -0.5824
 4712SOL    HW125595   3.581   2.353   4.905 -0.9247  0.1527 -0.0839
 4712SOL    HW225596   3.690   2.342   4.995  0.6756 -2.1448  1.1888
 4713SOL     OW25597   0.826   0.644  16.687  0.6872  0.0745 -0.5422
 4713SOL    HW125598   0.890   0.581  16.654 -0.5717 -2.5696  1.9830
 4713SOL    HW225599   0.853   0.727  16.649 -2.7790  0.0024 -3.0954
 4714SOL     OW25600   3.150   4.521  12.195 -0.0208  0.1883 -0.7305
 4714SOL    HW125601   3.164   4.429  12.177 -2.5167 -0.6681  1.6628
 4714SOL    HW225602   3.236   4.557  12.174  0.1613 -0.2815 -0.7891
 4715SOL     OW25603   0.373   0.710   6.638  0.6482  0.5332  0.8880
 4715SOL    HW125604   0.326   0.688   6.557  1.2497 -0.2754  0.7561
 4715SOL    HW225605   0.347   0.634   6.690  0.8015 -0.3798 -0.3457
 4716SOL     OW25606   0.876   1.205   6.257  0.0709  0.2490 -0.2508
 4716SOL    HW125607   0.804   1.244   6.209 -0.5322  0.5012  0.8675
 4716SOL    HW225608   0.907   1.150   6.184  0.3910  0.8447 -0.5608
 4717SOL     OW25609   2.588   1.316   2.823  0.0947  0.4140  0.6795
 4717SOL    HW125610   2.608   1.239   2.877 -0.3188 -1.0338 -1.2049
 4717SOL    HW225611   2.660   1.307   2.761 -3.1151 -0.5491 -2.9955
 4718SOL     OW25612   0.752   3.984   1.661 -0.2179 -0.3895  0.3146
 4718SOL    HW125613   0.727   4.007   1.751 -3.2695 -0.9178 -0.3998
 4718SOL    HW225614   0.840   3.948   1.675  0.2747  0.2793 -1.0686
 4719SOL     OW25615   2.542   2.576   3.460  0.3240  0.0350 -0.7966
 4719SOL    HW125616   2.520   2.485   3.438 -0.1919  0.5611 -2.3910
 4719SOL    HW225617   2.514   2.620   3.380  0.8611  0.2360 -0.8737
 4720SOL     OW25618   3.207   1.817   3.185 -0.1681  0.2248  0.0103
 4720SOL    HW125619   3.126   1.784   3.223 -0.7433 -0.2011 -1.6328
 4720SOL    HW225620   3.193   1.795   3.093  0.2723  0.1772 -0.0476
 4721SOL     OW25621   0.590   4.172  11.554 -0.5384  0.8104  0.5868
 4721SOL    HW125622   0.672   4.156  11.509  0.8116  0.1423  3.2672
 4721SOL    HW225623   0.592   4.267  11.563  1.5381  1.0348 -2.3443
 4722SOL     OW25624   1.593   2.962   0.591 -0.3486  0.3893 -0.3128
 4722SOL    HW125625   1.534   2.912   0.648  0.4365 -0.9731 -0.6786
 4722SOL    HW225626   1.604   2.903   0.517  1.5616 -0.6671  0.8284
 4723SOL     OW25627   4.564   4.421   7.667  0.0898  0.6585  0.0864
 4723SOL    HW125628   4.517   4.359   7.611 -2.0420  1.6019  0.8134
 4723SOL    HW225629   4.499   4.477   7.710  0.5480  0.5861  0.8617
 4724SOL     OW25630   3.055   1.386   0.845  0.6783  0.1172  0.4499
 4724SOL    HW125631   3.080   1.399   0.936  0.0656  0.7085  0.5241
 4724SOL    HW225632   2.977   1.331   0.852  2.0883 -1.9802 -0.1624
 4725SOL     OW25633   0.091   0.318   8.038  0.3724 -0.2685  0.5052
 4725SOL    HW125634   0.160   0.354   8.094  1.7983 -0.6841 -0.9603
 4725SOL    HW225635   0.097   0.226   8.063 -0.2629  0.7204  4.3620
 4726SOL     OW25636   4.094   3.175   5.258  0.3284 -0.1186 -0.5134
 4726SOL    HW125637   4.032   3.132   5.317  0.1097  0.5337 -0.2640
 4726SOL    HW225638   4.129   3.099   5.213  2.0559  0.4065 -0.0579
 4727SOL     OW25639   4.086   2.893   9.199 -0.1740  0.0491 -0.1774
 4727SOL    HW125640   4.076   2.979   9.158 -0.4241  0.4771  0.7907
 4727SOL    HW225641   4.181   2.899   9.208 -0.0684 -0.7373 -0.7478
 4728SOL     OW25642   2.892   4.448   3.218  0.2770 -0.2955 -0.2284
 4728SOL    HW125643   2.806   4.457   3.259  0.5609  2.9029 -0.2947
 4728SOL    HW225644   2.876   4.401   3.137 -3.0933  0.2482  0.1375
 4729SOL     OW25645   4.357   4.686   7.000  0.0426  0.2293 -0.6060
 4729SOL    HW125646   4.413   4.678   6.922 -0.7188 -2.2494 -0.9181
 4729SOL    HW225647   4.360   4.593   7.025  0.5627 -0.3869 -2.8787
 4730SOL     OW25648   2.832   1.948   5.590  0.0574  0.3666  0.0472
 4730SOL    HW125649   2.751   1.918   5.548 -1.2297  2.6983  0.8881
 4730SOL    HW225650   2.820   1.916   5.679 -0.2599 -0.1107 -0.1635
 4731SOL     OW25651   1.417   1.785  17.219 -0.0661 -0.0688 -0.9911
 4731SOL    HW125652   1.376   1.738  17.292 -1.1318  1.8835 -0.3133
 4731SOL    HW225653   1.488   1.726  17.195  1.1461  1.4658 -1.1993
 4732SOL     OW25654   3.480   0.676   7.163 -0.8681  0.7056  0.2065
 4732SOL    HW125655   3.532   0.732   7.106  1.1642  0.4061  1.7591
 4732SOL    HW225656   3.520   0.701   7.247 -0.0101  0.7554 -0.2206
 4733SOL     OW25657   0.341   1.471   2.219 -0.9604  0.3947  0.0940
 4733SOL    HW125658   0.357   1.556   2.258  1.6532 -0.6656  1.2929
 4733SOL    HW225659   0.367   1.487   2.128  2.9872  0.8874  1.3087
 4734SOL     OW25660   0.145   2.281  16.256 -1.2092 -0.3832  0.0551
 4734SOL    HW125661   0.178   2.342  16.190 -3.5726  2.6150  1.6263
 4734SOL    HW225662   0.062   2.324  16.281 -1.7017  0.3291 -2.8429
 4735SOL     OW25663   1.000   0.251   3.506 -0.6646 -0.0131  0.4283
 4735SOL    HW125664   1.079   0.305   3.498  2.0313 -4.0385 -0.6297
 4735SOL    HW225665   0.940   0.322   3.525  1.0756  2.1542 -2.1266
 4736SOL     OW25666   0.392   3.163   2.237  0.5523  0.4163  0.2747
 4736SOL    HW125667   0.323   3.182   2.173  2.3367  0.3165 -1.6652
 4736SOL    HW225668   0.359   3.095   2.295 -1.4350  0.9883 -0.1829
 4737SOL     OW25669   3.822   2.362   8.622  0.3661 -0.5948  0.2039
 4737SOL    HW125670   3.791   2.278   8.657  0.4682  0.1915  2.1698
 4737SOL    HW225671   3.743   2.401   8.583  1.1638  1.2990  0.5037
 4738SOL     OW25672   1.698   1.173   4.066  0.0562 -0.3816 -0.3007
 4738SOL    HW125673   1.614   1.218   4.069  0.4245  0.2205  1.0559
 4738SOL    HW225674   1.684   1.085   4.101  1.1934  0.0398  1.2454
 4739SOL     OW25675   2.217   2.827   9.580 -0.1237  0.4404 -0.2479
 4739SOL    HW125676   2.249   2.779   9.656  2.0029 -0.5575 -1.7554
 4739SOL    HW225677   2.173   2.759   9.529  2.2969 -0.6105 -0.9539
 4740SOL     OW25678   4.302   1.324   7.277  0.8692 -0.3004  0.1440
 4740SOL    HW125679   4.220   1.308   7.230  0.4961  1.3582  0.2022
 4740SOL    HW225680   4.344   1.395   7.228  1.1315  1.2218  2.5487
 4741SOL     OW25681   0.141   4.065  13.157  0.4399  0.2891  0.4340
 4741SOL    HW125682   0.158   4.085  13.065  1.3734 -1.4871  0.2206
 4741SOL    HW225683   0.156   3.971  13.143 -0.2182  0.1410  0.7029
 4742SOL     OW25684   2.927   2.986   2.175  0.3191  0.6947 -0.2463
 4742SOL    HW125685   2.864   2.975   2.104  0.1496  1.5316 -0.2308
 4742SOL    HW225686   2.913   2.906   2.225  2.8246  1.0728  1.0568
 4743SOL     OW25687   4.589   0.585   6.512  0.2290  0.0502  0.3792
 4743SOL    HW125688   4.568   0.537   6.592  3.8353 -0.6572  0.9068
 4743SOL    HW225689   4.550   0.672   6.525 -0.0952 -0.0440  0.0407
 4744SOL     OW25690   4.641   4.631   0.027 -0.1042 -0.0996 -0.3927
 4744SOL    HW125691   4.616   4.542   0.001 -0.8036 -0.6576  2.1913
 4744SOL    HW225692   0.012   4.624   0.041  0.0676  0.4753 -1.2821
 4745SOL     OW25693   3.186   4.002   2.988 -0.1744 -0.5698 -0.1886
 4745SOL    HW125694   3.255   3.951   2.946  1.4921  1.2659  0.3572
 4745SOL    HW225695   3.121   4.002   2.917 -0.5479 -1.0772  0.1509
 4746SOL     OW25696   0.556   2.350   4.374  0.4572  0.0759 -0.1511
 4746SOL    HW125697   0.585   2.259   4.366 -2.6822 -0.7600 -2.4092
 4746SOL    HW225698   0.610   2.389   4.305  0.7104  0.2303  0.1365
 4747SOL     OW25699   1.370   3.160   5.484 -0.1706  0.0437 -0.3894
 4747SOL    HW125700   1.454   3.119   5.505 -0.2827 -0.0822 -0.1839
 4747SOL    HW225701   1.320   3.122   5.556 -0.3534 -1.8261 -1.5197
 4748SOL     OW25702   2.702   3.899   8.597 -0.1709 -0.4270  0.0925
 4748SOL    HW125703   2.760   3.940   8.533 -0.4448 -1.1115 -0.5996
 4748SOL    HW225704   2.767   3.848   8.645 -0.4199  0.6252  1.5523
 4749SOL     OW25705   2.116   2.668   8.982  0.3228  0.0941 -0.3397
 4749SOL    HW125706   2.129   2.579   8.949  1.0072  0.7174 -1.7346
 4749SOL    HW225707   2.065   2.647   9.061  0.0192 -1.0636 -0.8389
 4750SOL     OW25708   0.349   3.854   4.491 -0.7775  0.5828  0.3153
 4750SOL    HW125709   0.355   3.927   4.429 -0.7903 -1.8810 -2.5873
 4750SOL    HW225710   0.411   3.795   4.449 -1.6587  0.9856 -1.5431
 4751SOL     OW25711   0.272   4.007  12.375 -0.1321  0.0235  0.0816
 4751SOL    HW125712   0.220   3.927  12.378 -1.7076  1.0527  0.3037
 4751SOL    HW225713   0.354   3.959  12.367  0.9177  1.7415  0.3830
 4752SOL     OW25714   0.654   3.581   6.254  0.0991 -0.1907  0.8176
 4752SOL    HW125715   0.741   3.598   6.289 -0.1515  1.7030  0.5536
 4752SOL    HW225716   0.673   3.519   6.184 -1.1116 -0.4920  0.7490
 4753SOL     OW25717   0.154   3.985   3.658 -0.4749  0.0750 -0.5609
 4753SOL    HW125718   0.181   3.931   3.732  0.2529  0.4499 -0.5594
 4753SOL    HW225719   0.238   3.999   3.615 -0.1373 -0.9638 -0.2358
 4754SOL     OW25720   0.639   3.363   6.071  0.7708  0.2798  0.5627
 4754SOL    HW125721   0.561   3.324   6.033  0.6555  0.4465  0.6264
 4754SOL    HW225722   0.690   3.283   6.061 -0.1579 -0.4214  1.4101
 4755SOL     OW25723   3.330   3.500   7.599 -0.6779  0.2718  0.4024
 4755SOL    HW125724   3.262   3.483   7.665 -0.3460 -0.6974  0.4877
 4755SOL    HW225725   3.405   3.489   7.657  0.0103 -1.1119 -0.7490
 4756SOL     OW25726   2.865   0.730   2.464  0.4238  0.1337  0.3125
 4756SOL    HW125727   2.873   0.677   2.385  4.2920  1.8695 -0.4288
 4756SOL    HW225728   2.830   0.812   2.430  1.6342 -0.6959 -2.8926
 4757SOL     OW25729   2.663   1.180   8.495 -0.3099  0.2343 -0.1987
 4757SOL    HW125730   2.702   1.113   8.439 -0.6759 -0.1589  0.0152
 4757SOL    HW225731   2.610   1.234   8.438 -3.6099 -1.6599  1.0857
 4758SOL     OW25732   0.764   4.398   3.425  0.2557 -0.2412  0.0551
 4758SOL    HW125733   0.738   4.483   3.460 -1.6448 -1.2733  1.1331
 4758SOL    HW225734   0.713   4.381   3.346 -0.9985 -1.3357  1.1244
 4759SOL     OW25735   1.714   3.635  10.247  0.3501 -0.3255 -0.0468
 4759SOL    HW125736   1.741   3.543  10.249  1.7963  0.0950 -0.4669
 4759SOL    HW225737   1.771   3.670  10.179  0.8186  0.1343  0.5837
 4760SOL     OW25738   4.249   3.875   9.006  0.3799 -0.2627 -0.3397
 4760SOL    HW125739   4.191   3.930   8.953  1.8228  0.6105 -1.0254
 4760SOL    HW225740   4.332   3.880   8.958  0.7858  1.4853  0.5590
 4761SOL     OW25741   0.012   0.512   5.670  0.2491 -0.3791 -0.3095
 4761SOL    HW125742   0.098   0.532   5.634  0.9921  0.8445  2.1734
 4761SOL    HW225743   4.681   0.540   5.597 -0.9737 -2.4509 -0.1880
 4762SOL     OW25744   4.699   1.693  17.030 -0.2138  0.3399  0.0159
 4762SOL    HW125745   4.628   1.635  17.002 -1.1062  1.0945  0.7104
 4762SOL    HW225746   0.047   1.661  16.976 -3.0672 -0.9697 -3.0189
 4763SOL     OW25747   1.981   0.654  10.894  0.7056 -0.3187 -0.0740
 4763SOL    HW125748   1.935   0.653  10.978  1.1264 -0.5370  0.1516
 4763SOL    HW225749   2.071   0.656  10.929  0.3289 -0.6795  0.9173
 4764SOL     OW25750   3.842   1.147  17.183 -0.0268  0.2991 -0.4710
 4764SOL    HW125751   3.900   1.191  17.121  1.1734 -1.6017 -0.7239
 4764SOL    HW225752   3.812   1.226  17.229  0.0636 -0.2920  0.6148
 4765SOL     OW25753   2.864   1.565   3.962 -0.1999  0.2182  0.0492
 4765SOL    HW125754   2.941   1.532   4.007  0.9503  1.1063 -1.2819
 4765SOL    HW225755   2.803   1.577   4.035  0.5587 -0.2457  0.7578
 4766SOL     OW25756   1.244   1.238  14.673 -0.0025  0.4820  0.2521
 4766SOL    HW125757   1.315   1.281  14.722  0.7968  1.1168 -1.4798
 4766SOL    HW225758   1.180   1.207  14.738  0.9033  1.0644  1.4235
 4767SOL     OW25759   4.650   3.211   7.326 -0.0167  0.0686  0.4536
 4767SOL    HW125760   0.008   3.179   7.365  1.3191  4.1320  1.0147
 4767SOL    HW225761   4.691   3.275   7.267 -1.7953 -0.8360 -1.7492
 4768SOL     OW25762   4.365   1.332   2.057 -0.1102 -0.4191  0.3537
 4768SOL    HW125763   4.415   1.313   1.978  0.9864  0.0445  0.9364
 4768SOL    HW225764   4.305   1.401   2.027 -0.5045 -0.8855  0.0678
 4769SOL     OW25765   3.136   4.396  13.892 -0.0543  0.0224  0.1951
 4769SOL    HW125766   3.096   4.395  13.979 -0.4281  1.0412  0.0298
 4769SOL    HW225767   3.089   4.466  13.846  0.5193  0.5609  0.4297
 4770SOL     OW25768   3.224   1.797   4.637 -0.4189  0.0553 -0.2394
 4770SOL    HW125769   3.300   1.750   4.602  1.7459  2.5739  1.0629
 4770SOL    HW225770   3.191   1.733   4.699  2.8251 -1.3821  0.0068
 4771SOL     OW25771   4.006   4.096   1.453 -0.0150 -0.3921 -0.6242
 4771SOL    HW125772   3.928   4.048   1.428 -0.2966 -0.1953 -0.1131
 4771SOL    HW225773   4.074   4.030   1.439  0.5347  0.1185 -0.3939
 4772SOL     OW25774   2.124   0.188   5.148 -0.6605  0.4793  0.2553
 4772SOL    HW125775   2.068   0.159   5.221 -3.0038  2.1681 -0.8601
 4772SOL    HW225776   2.108   0.280   5.166 -3.8037  0.5507 -2.9531
 4773SOL     OW25777   2.776   2.683  12.753 -0.0065 -0.1093 -0.2888
 4773SOL    HW125778   2.737   2.620  12.813 -0.3187  0.6346  0.2918
 4773SOL    HW225779   2.822   2.739  12.816  0.9792 -0.4493 -0.7147
 4774SOL     OW25780   0.551   1.649   7.515  0.4969 -0.2011 -0.1710
 4774SOL    HW125781   0.512   1.625   7.599  3.1773  0.3959  1.2650
 4774SOL    HW225782   0.573   1.742   7.528  0.6184  0.0748 -2.3922
 4775SOL     OW25783   0.174   3.911   3.173 -0.0178 -0.3048 -0.3206
 4775SOL    HW125784   0.200   3.970   3.243 -1.4581 -0.6542  0.4940
 4775SOL    HW225785   0.226   3.948   3.101  0.0991 -1.2516 -0.7313
 4776SOL     OW25786   3.360   3.805   8.141  0.3618 -0.2475 -0.3230
 4776SOL    HW125787   3.427   3.741   8.165  1.1815  0.4302 -0.8232
 4776SOL    HW225788   3.412   3.869   8.093 -3.1531  1.8427 -1.3265
 4777SOL     OW25789   1.256   0.671  14.941  0.9286 -0.2042  0.5488
 4777SOL    HW125790   1.217   0.599  14.990 -0.4596 -0.6114 -1.1924
 4777SOL    HW225791   1.317   0.712  15.003  1.3416 -1.9115  1.2761
 4778SOL     OW25792   1.286   0.472   0.969  0.3585  0.2752 -0.1842
 4778SOL    HW125793   1.206   0.427   0.941  0.7304  1.4345 -3.1550
 4778SOL    HW225794   1.280   0.463   1.064 -1.5174 -1.8513 -0.4927
 4779SOL     OW25795   3.465   3.457   2.781  0.4162 -0.1582  0.9078
 4779SOL    HW125796   3.516   3.462   2.862 -1.4399  0.0204  2.0552
 4779SOL    HW225797   3.396   3.523   2.788  1.6879  0.9178  3.3747
 4780SOL     OW25798   1.714   3.824   0.223 -0.0569 -0.0164 -0.0476
 4780SOL    HW125799   1.707   3.819   0.319  2.2822  0.7975  0.1538
 4780SOL    HW225800   1.694   3.916   0.207  3.3044  0.7230  0.0731
 4781SOL     OW25801   4.534   0.817   9.312 -0.3822  0.2037  0.1345
 4781SOL    HW125802   4.461   0.792   9.369 -0.9409 -0.8675 -1.0396
 4781SOL    HW225803   4.596   0.850   9.376  0.6259 -1.2198 -0.1039
 4782SOL     OW25804   3.679   1.528   6.607 -0.7381  0.4096  0.6732
 4782SOL    HW125805   3.688   1.621   6.623  0.2073  0.3603  0.4438
 4782SOL    HW225806   3.756   1.515   6.552 -0.6195 -1.9238  1.3658
 4783SOL     OW25807   2.878   4.330   2.973  0.5442 -0.1821 -0.7722
 4783SOL    HW125808   2.791   4.316   2.937  1.0266 -1.5734 -1.3963
 4783SOL    HW225809   2.915   4.243   2.955 -1.7943 -1.1780 -0.7258
 4784SOL     OW25810   3.753   3.506   2.218  1.1016 -0.2716 -0.0817
 4784SOL    HW125811   3.719   3.587   2.179  1.2215  0.1227  0.6293
 4784SOL    HW225812   3.844   3.507   2.190  0.9435  1.7521 -0.5514
 4785SOL     OW25813   3.943   3.269   4.532  0.3045 -0.0179 -0.2885
 4785SOL    HW125814   3.977   3.279   4.443 -1.3199 -3.6818 -1.3172
 4785SOL    HW225815   3.958   3.357   4.567 -1.3558 -1.0229  2.9501
 4786SOL     OW25816   1.979   4.014   2.261 -0.2424  0.4044  0.3900
 4786SOL    HW125817   2.029   4.003   2.180 -1.7576  0.9482 -0.6076
 4786SOL    HW225818   2.044   4.049   2.323  0.3749 -1.6071  0.8768
 4787SOL     OW25819   3.916   2.663  12.310 -0.2108  0.0521 -0.1942
 4787SOL    HW125820   4.006   2.693  12.298  0.3557 -1.2314  0.8974
 4787SOL    HW225821   3.863   2.741  12.293  0.1336  0.2160 -0.5174
 4788SOL     OW25822   2.966   0.525   7.168 -0.1539 -0.0526  0.5857
 4788SOL    HW125823   3.016   0.577   7.231 -2.5337  1.3852  1.2872
 4788SOL    HW225824   2.996   0.434   7.175  0.2708 -0.1180 -2.1706
 4789SOL     OW25825   2.346   4.609   2.780  0.1342  0.4129  0.3449
 4789SOL    HW125826   2.393   4.593   2.861  1.1762 -0.9640 -0.5290
 4789SOL    HW225827   2.406   4.672   2.739  0.9054  1.0753  2.5177
 4790SOL     OW25828   3.115   4.721   3.873 -0.2793 -0.0543 -0.1454
 4790SOL    HW125829   3.200   4.713   3.830  0.6928  0.9418  1.5879
 4790SOL    HW225830   3.125   0.076   3.926  0.5287  1.0393 -1.9239
 4791SOL     OW25831   3.251   2.068   3.055 -0.5172  0.0858  0.3212
 4791SOL    HW125832   3.244   1.988   3.107  1.1900 -1.1154 -1.2950
 4791SOL    HW225833   3.160   2.094   3.045 -0.7956 -0.3724  1.7015
 4792SOL     OW25834   2.140   2.071   4.110  0.0287  0.1073 -0.3718
 4792SOL    HW125835   2.181   2.024   4.182  1.8430  0.2557 -1.3154
 4792SOL    HW225836   2.100   2.008   4.051  0.3832 -0.0770 -0.4160
 4793SOL     OW25837   0.822   1.934   6.811  0.0849 -0.5835  0.0002
 4793SOL    HW125838   0.862   2.020   6.795  0.4884 -0.9987 -1.1865
 4793SOL    HW225839   0.846   1.928   6.904  1.0114  1.0415 -0.1286
 4794SOL     OW25840   0.929   3.854   5.012  0.3105  0.0856  0.4121
 4794SOL    HW125841   0.971   3.935   4.983  1.2862 -0.1141  1.2601
 4794SOL    HW225842   0.869   3.835   4.940 -0.6086  1.3386  0.8384
 4795SOL     OW25843   0.401   0.344   9.252  0.0039 -0.7676  0.2143
 4795SOL    HW125844   0.338   0.415   9.249 -1.5949 -2.1321  1.3615
 4795SOL    HW225845   0.464   0.379   9.315  1.9972  1.6331 -3.1275
 4796SOL     OW25846   4.306   1.966   9.053 -0.5461  0.8310  0.3152
 4796SOL    HW125847   4.231   1.954   9.110 -0.1053  0.7476  0.8744
 4796SOL    HW225848   4.270   1.977   8.965 -1.6543 -2.0010  0.4345
 4797SOL     OW25849   4.269   0.733   1.223  0.1343  0.2740 -0.0512
 4797SOL    HW125850   4.343   0.675   1.205  0.4406  0.5183  0.4167
 4797SOL    HW225851   4.193   0.675   1.224  1.2491 -1.1872  0.9850
 4798SOL     OW25852   2.318   0.515   7.178 -0.6012 -0.5704 -0.1790
 4798SOL    HW125853   2.400   0.546   7.215 -0.6089 -1.2568  0.4059
 4798SOL    HW225854   2.351   0.469   7.101  2.3313 -0.7106  1.1565
 4799SOL     OW25855   1.273   3.670   2.977  0.2802 -0.0502 -0.1466
 4799SOL    HW125856   1.222   3.669   3.058  0.6926 -1.5895  0.0776
 4799SOL    HW225857   1.295   3.577   2.972 -0.4955 -0.1868 -0.9541
 4800SOL     OW25858   3.659   0.955   6.561  0.2651  0.4459 -0.4149
 4800SOL    HW125859   3.577   0.940   6.514  0.0519 -0.7708  0.3182
 4800SOL    HW225860   3.668   1.046   6.534 -0.0584  0.3084 -0.9884
 4801SOL     OW25861   0.040   3.347   7.126  0.1766  0.7234  0.2653
 4801SOL    HW125862   0.064   3.300   7.046 -0.0873 -1.6270  1.5722
 4801SOL    HW225863   0.086   3.430   7.114 -1.2765  1.2930 -1.2497
 4802SOL     OW25864   3.160   3.593  10.057 -0.1055  0.1523  0.3326
 4802SOL    HW125865   3.194   3.664  10.111  1.8342  0.3210 -1.1319
 4802SOL    HW225866   3.091   3.556  10.112  2.8516 -2.5079  2.2234
 4803SOL     OW25867   1.788   1.170   8.682  0.5977 -0.7035  0.2689
 4803SOL    HW125868   1.693   1.173   8.669  0.5130 -3.5586  0.3752
 4803SOL    HW225869   1.813   1.199   8.594 -0.6616  0.1195  0.1835
 4804SOL     OW25870   3.567   4.504  11.610  0.5502 -0.5875  0.7328
 4804SOL    HW125871   3.546   4.460  11.693  0.0218 -1.8150 -0.0526
 4804SOL    HW225872   3.634   4.448  11.571  1.6673  0.6645  0.8690
 4805SOL     OW25873   2.873   2.879   1.732 -0.7054  0.0683 -0.1377
 4805SOL    HW125874   2.940   2.945   1.744  0.8471 -1.6476  0.6696
 4805SOL    HW225875   2.887   2.822   1.808 -1.4735  0.9925  0.7040
 4806SOL     OW25876   0.007   0.172  15.597 -0.4285 -0.6836  0.6795
 4806SOL    HW125877   4.650   0.120  15.603 -0.9882  0.0592 -0.3518
 4806SOL    HW225878   4.719   0.208  15.510  1.7526  0.8559  1.0265
 4807SOL     OW25879   0.863   2.877   5.973 -0.0493 -0.4936 -0.3011
 4807SOL    HW125880   0.801   2.809   5.998  1.2518 -0.9715  1.6518
 4807SOL    HW225881   0.912   2.888   6.054 -1.3783  1.4781  0.2381
 4808SOL     OW25882   1.176   4.471   3.805 -0.1091 -0.6861 -0.1599
 4808SOL    HW125883   1.240   4.510   3.864  0.5409  0.0919 -1.3912
 4808SOL    HW225884   1.117   4.545   3.805  1.5158  0.6213  1.2960
 4809SOL     OW25885   4.581   1.260   0.149  0.4093  0.4419 -0.1893
 4809SOL    HW125886   4.626   1.322   0.091 -1.2001 -0.9715 -2.9520
 4809SOL    HW225887   4.658   1.227   0.194  1.0138  0.7766 -0.9811
 4810SOL     OW25888   0.929   1.586   3.532  0.5349 -0.4097  0.0537
 4810SOL    HW125889   0.846   1.538   3.539 -0.1286  0.9012  1.2957
 4810SOL    HW225890   0.988   1.547   3.468 -0.0047  0.2139 -0.8290
 4811SOL     OW25891   1.112   1.467   4.518 -0.3080 -0.2368 -0.1151
 4811SOL    HW125892   1.186   1.410   4.496 -0.6789 -1.3306  1.5166
 4811SOL    HW225893   1.125   1.474   4.612  0.3329 -2.0116 -0.0748
 4812SOL     OW25894   4.184   2.570   9.627  0.1725 -0.4056  0.2727
 4812SOL    HW125895   4.247   2.610   9.688 -0.1799  0.3007  0.1704
 4812SOL    HW225896   4.101   2.580   9.673  1.4315 -0.3804  2.5329
 4813SOL     OW25897   1.808   1.561   6.206 -0.2923  0.0513  0.3382
 4813SOL    HW125898   1.892   1.597   6.231  1.2080 -3.2277  0.0645
 4813SOL    HW225899   1.839   1.471   6.190 -0.1785 -0.2918  2.5091
 4814SOL     OW25900   2.204   2.595   3.371  0.3802  0.6724  0.3053
 4814SOL    HW125901   2.246   2.660   3.428 -3.6179 -0.6391  4.7029
 4814SOL    HW225902   2.137   2.645   3.324 -0.0566  1.2258  1.5116
 4815SOL     OW25903   2.502   1.031   3.339 -0.6788  0.6488 -0.0563
 4815SOL    HW125904   2.581   1.039   3.394  0.6231 -0.3170 -1.7751
 4815SOL    HW225905   2.534   1.074   3.259 -0.9487 -3.3158 -2.3208
 4816SOL     OW25906   2.056   0.818   7.821 -0.2820 -0.4048 -0.0028
 4816SOL    HW125907   2.148   0.816   7.796 -0.8322 -1.6703 -1.9108
 4816SOL    HW225908   2.025   0.762   7.750 -1.1642  0.6143 -0.4235
 4817SOL     OW25909   3.767   2.756   6.094 -0.3371 -0.3374  0.4039
 4817SOL    HW125910   3.710   2.698   6.044 -1.4867  0.2862  0.9733
 4817SOL    HW225911   3.702   2.793   6.155  0.2814  1.3924  0.0176
 4818SOL     OW25912   2.997   4.596   3.516  0.5819  0.1668 -0.1612
 4818SOL    HW125913   3.079   4.598   3.466 -0.6789 -0.9897 -2.2749
 4818SOL    HW225914   2.946   4.652   3.458  0.4890  1.3636  1.0712
 4819SOL     OW25915   3.553   2.352   8.066 -0.1287  0.3172 -0.2287
 4819SOL    HW125916   3.495   2.425   8.085 -1.2183 -0.8082  0.7587
 4819SOL    HW225917   3.531   2.296   8.141 -1.6673  1.0440 -0.1281
 4820SOL     OW25918   2.509   4.086  13.149 -0.0727  0.3883  0.0198
 4820SOL    HW125919   2.447   4.042  13.208 -0.2887  1.5696  0.6731
 4820SOL    HW225920   2.471   4.074  13.062 -3.6622 -0.8716  1.7680
 4821SOL     OW25921   3.109   0.943   8.751  0.2025 -0.2378 -0.1493
 4821SOL    HW125922   3.173   0.872   8.742  1.1306  0.7758 -1.4798
 4821SOL    HW225923   3.089   0.927   8.843 -1.7122 -1.3999 -0.7596
 4822SOL     OW25924   3.290   2.388   2.781  0.6723 -0.4883  0.4773
 4822SOL    HW125925   3.238   2.346   2.850 -2.8630  0.2314 -1.7426
 4822SOL    HW225926   3.279   2.482   2.791 -2.3252 -0.5927 -1.9692
 4823SOL     OW25927   3.091   3.366  15.487 -0.0396 -0.1193 -0.5939
 4823SOL    HW125928   3.078   3.319  15.405 -4.1143 -2.2930  1.3147
 4823SOL    HW225929   3.158   3.312  15.530  3.0174  1.8741 -2.8504
 4824SOL     OW25930   3.671   0.164   7.185 -0.1418 -0.6027 -0.9113
 4824SOL    HW125931   3.641   0.126   7.268 -1.4750  0.1737 -1.0479
 4824SOL    HW225932   3.634   0.252   7.188  1.6140  0.0959  0.1431
 4825SOL     OW25933   3.317   2.495   2.493 -0.3699 -0.4012  0.1157
 4825SOL    HW125934   3.403   2.452   2.498  0.4122  1.2139  0.6246
 4825SOL    HW225935   3.331   2.547   2.572  1.2526  1.4857 -1.4029
 4826SOL     OW25936   1.461   0.358   8.497 -0.0395 -0.8655  0.5179
 4826SOL    HW125937   1.487   0.282   8.548  1.2786  0.8288  2.3989
 4826SOL    HW225938   1.381   0.370   8.548 -0.8950 -0.8474 -0.8294
 4827SOL     OW25939   1.432   3.576   0.285 -0.1565  0.3601 -0.7444
 4827SOL    HW125940   1.337   3.562   0.275  0.1146 -1.2467 -1.0295
 4827SOL    HW225941   1.437   3.671   0.286  0.8685  0.2275  3.5712
 4828SOL     OW25942   0.288   4.495   2.982 -0.4433  0.2708  0.5826
 4828SOL    HW125943   0.216   4.558   2.973  1.1084  2.2130  1.8639
 4828SOL    HW225944   0.346   4.525   2.912 -1.2467 -0.4273 -0.3903
 4829SOL     OW25945   2.258   3.167  13.676  0.3967  0.5264  0.3958
 4829SOL    HW125946   2.350   3.152  13.695  0.1500 -0.0298  1.1299
 4829SOL    HW225947   2.228   3.088  13.630  3.0874 -0.1303 -0.2073
 4830SOL     OW25948   2.220   0.207   3.510 -0.2234 -0.2288  0.0915
 4830SOL    HW125949   2.191   0.160   3.431 -2.6866 -1.8676  1.9899
 4830SOL    HW225950   2.219   0.142   3.580  0.1223  0.6736  0.9207
 4831SOL     OW25951   1.635   0.987   2.150 -0.0930  0.2674  0.2776
 4831SOL    HW125952   1.563   0.926   2.133 -0.3443  0.1466  1.7631
 4831SOL    HW225953   1.608   1.066   2.104  0.8226 -0.8580 -2.2066
 4832SOL     OW25954   1.246   1.499   1.089  0.3727 -0.8520  0.4647
 4832SOL    HW125955   1.324   1.526   1.041  0.0988 -1.3919 -0.2762
 4832SOL    HW225956   1.225   1.414   1.050 -1.0616 -0.5639  0.6260
 4833SOL     OW25957   2.908   0.794  12.102  0.4548  0.8413  0.0202
 4833SOL    HW125958   2.880   0.772  12.191 -1.6721 -1.5561 -1.2256
 4833SOL    HW225959   2.992   0.826  12.134  0.8605  1.8245 -2.0502
 4834SOL     OW25960   2.442   0.996   3.937 -0.2147 -0.2631  0.9685
 4834SOL    HW125961   2.491   0.914   3.932 -2.2486 -1.2169 -2.7702
 4834SOL    HW225962   2.508   1.052   3.980 -1.3380  2.1073 -0.3963
 4835SOL     OW25963   2.414   3.179   0.495  0.0464 -0.2085  0.1440
 4835SOL    HW125964   2.335   3.131   0.522 -1.2665  0.7623 -1.9641
 4835SOL    HW225965   2.474   3.154   0.566  0.0433  2.0551  0.9517
 4836SOL     OW25966   0.353   0.794   8.263  0.0089  0.5081  0.4058
 4836SOL    HW125967   0.296   0.790   8.186 -0.5064  1.2645  0.7445
 4836SOL    HW225968   0.292   0.788   8.337 -0.4165  0.7377  0.0763
 4837SOL     OW25969   2.436   1.278   2.437  0.3716 -0.1311 -0.1017
 4837SOL    HW125970   2.495   1.353   2.443  0.7584 -0.3344 -1.3964
 4837SOL    HW225971   2.367   1.316   2.382 -0.8158  1.6896  2.6425
 4838SOL     OW25972   1.589   1.485   1.972  0.2187 -0.2126 -0.4505
 4838SOL    HW125973   1.608   1.529   1.889  0.3161 -2.6768 -1.7362
 4838SOL    HW225974   1.563   1.552   2.034  1.1582  0.4411 -0.7666
 4839SOL     OW25975   2.999   0.666   5.444  0.7251 -0.3110  0.0115
 4839SOL    HW125976   3.036   0.630   5.525  0.4826  0.1030  0.3040
 4839SOL    HW225977   2.990   0.583   5.398  0.1052 -0.7316  0.8796
 4840SOL     OW25978   4.054   1.471   5.772  0.4006  0.4077 -0.3222
 4840SOL    HW125979   4.054   1.381   5.804 -0.1300  1.1928  1.8997
 4840SOL    HW225980   4.098   1.468   5.687 -0.8123  1.0970 -0.9817
 4841SOL     OW25981   2.467   4.669   5.762 -0.2501  0.5545  0.2158
 4841SOL    HW125982   2.384   4.661   5.810 -0.4983  0.5692 -0.2178
 4841SOL    HW225983   2.429   4.712   5.686 -0.7625 -1.7922 -0.8608
 4842SOL     OW25984   1.463   0.960   2.571 -0.8897 -0.1248  0.3362
 4842SOL    HW125985   1.499   0.904   2.502 -0.4365 -0.5727  0.9426
 4842SOL    HW225986   1.527   1.030   2.585  0.1563 -0.7043 -1.5364
 4843SOL     OW25987   3.154   4.686  12.769  0.5065  0.3563 -0.0673
 4843SOL    HW125988   3.107   4.647  12.844 -0.0028 -1.5418 -1.3646
 4843SOL    HW225989   3.120   0.052  12.770 -0.0159  0.1639 -1.0573
 4844SOL     OW25990   2.972   1.080  12.331 -0.3594  0.2434 -0.0795
 4844SOL    HW125991   2.995   0.987  12.340  2.7046  1.0693  0.5422
 4844SOL    HW225992   3.059   1.106  12.303  1.0840 -2.0694  2.2633
 4845SOL     OW25993   3.969   3.098   7.330 -0.4232 -0.2812  0.0860
 4845SOL    HW125994   3.996   3.110   7.239  1.2843  0.2520  0.6506
 4845SOL    HW225995   4.027   3.164   7.368 -1.6333  0.7285  0.1974
 4846SOL     OW25996   2.395   1.506   2.751 -0.0471 -0.0432  0.1036
 4846SOL    HW125997   2.459   1.440   2.776 -1.6374 -1.4406  0.4979
 4846SOL    HW225998   2.334   1.467   2.688 -0.3008 -0.2946  0.5057
 4847SOL     OW25999   0.475   4.610   7.688 -0.0132  0.2422 -0.0304
 4847SOL    HW126000   0.548   4.603   7.750  2.7682 -0.8848 -3.4626
 4847SOL    HW226001   0.442   4.521   7.698 -0.2991  0.3809  0.2873
 4848SOL     OW26002   3.381   4.127   8.316  0.7786 -0.1936  0.0554
 4848SOL    HW126003   3.393   4.220   8.335  1.9789 -0.0154 -1.5495
 4848SOL    HW226004   3.446   4.122   8.245  0.1039 -3.2135 -0.3636
 4849SOL     OW26005   0.179   0.469   9.564 -0.3978  0.4403  0.7709
 4849SOL    HW126006   0.135   0.444   9.646 -1.8685  1.5656  0.3318
 4849SOL    HW226007   0.103   0.462   9.506 -1.7040  0.5615  2.4816
 4850SOL     OW26008   0.232   1.904  15.483  0.3785 -0.5058  0.0777
 4850SOL    HW126009   0.163   1.970  15.473 -0.9114 -1.8181  0.4033
 4850SOL    HW226010   0.304   1.967  15.476 -0.0910 -0.0292 -0.3977
 4851SOL     OW26011   1.838   1.479  15.230 -0.2891 -0.3369 -0.1248
 4851SOL    HW126012   1.916   1.513  15.185 -1.4348  0.9699 -1.1305
 4851SOL    HW226013   1.867   1.388  15.231 -1.6864 -0.8254 -3.3897
 4852SOL     OW26014   2.277   0.074   7.264  0.0684  0.0041 -0.1312
 4852SOL    HW126015   2.329   0.151   7.290 -0.5911  0.2689  0.4080
 4852SOL    HW226016   2.273   0.075   7.168 -0.5844 -0.7004 -0.1072
 4853SOL     OW26017   2.517   4.696   8.827  0.2197  0.3401  0.4207
 4853SOL    HW126018   2.568   4.684   8.907  0.0221  0.4525  0.5649
 4853SOL    HW226019   2.570   4.656   8.758 -1.6122  0.4765 -1.0624
 4854SOL     OW26020   1.285   0.617   8.132 -0.4686 -0.2855 -0.6935
 4854SOL    HW126021   1.369   0.572   8.123 -0.4403 -0.4429  0.3625
 4854SOL    HW226022   1.266   0.645   8.042  1.4248 -1.4684 -1.4417
 4855SOL     OW26023   0.349   3.851   4.777 -0.3439  0.0873 -1.0571
 4855SOL    HW126024   0.383   3.776   4.727  1.6907  0.7742 -0.7096
 4855SOL    HW226025   0.338   3.901   4.697  0.3529 -0.3384 -1.4253
 4856SOL     OW26026   1.505   0.853   5.889  0.0559  0.3141 -0.0718
 4856SOL    HW126027   1.487   0.777   5.834 -0.4798  0.5255 -0.1804
 4856SOL    HW226028   1.441   0.911   5.848  0.3866  0.9066  0.2465
 4857SOL     OW26029   3.274   2.293   7.101 -0.6141 -0.4139 -0.2492
 4857SOL    HW126030   3.181   2.284   7.121 -0.4094 -2.1180 -0.0540
 4857SOL    HW226031   3.314   2.297   7.189 -0.6068  1.1570 -0.3180
 4858SOL     OW26032   3.657   2.282   3.200 -0.3314 -0.0960 -0.3028
 4858SOL    HW126033   3.617   2.259   3.116  0.1005 -0.7022 -0.3450
 4858SOL    HW226034   3.575   2.312   3.239 -0.7708 -3.9058  1.6809
 4859SOL     OW26035   0.693   4.554   3.193 -0.1189 -0.0898  0.1960
 4859SOL    HW126036   0.686   4.649   3.179  0.2050 -0.0356  0.3868
 4859SOL    HW226037   0.782   4.537   3.162  0.0064 -1.3198  1.2833
 4860SOL     OW26038   1.718   2.776  15.886 -0.0267  0.2682  0.0655
 4860SOL    HW126039   1.725   2.681  15.895  2.4580  0.5263  0.7466
 4860SOL    HW226040   1.638   2.784  15.834 -0.0375  1.0430  0.2003
 4861SOL     OW26041   2.307   0.309   4.336  0.2114  0.4841 -0.3097
 4861SOL    HW126042   2.312   0.214   4.333 -0.9707  0.3947  0.3204
 4861SOL    HW226043   2.271   0.329   4.423  1.8649  0.1027  0.4644
 4862SOL     OW26044   4.432   4.700   3.634  0.1372  0.3098 -0.8990
 4862SOL    HW126045   4.413   4.716   3.541 -1.1168 -2.2022 -1.0746
 4862SOL    HW226046   4.469   4.612   3.624 -0.4122 -0.2009  1.7881
 4863SOL     OW26047   1.532   1.844   5.796  0.0380 -0.1217 -0.2161
 4863SOL    HW126048   1.486   1.780   5.742  1.0054  1.0322 -2.4127
 4863SOL    HW226049   1.619   1.810   5.813  0.0233  0.2707  0.6789
 4864SOL     OW26050   0.377   2.614   4.211 -1.3893  0.5875  0.4506
 4864SOL    HW126051   0.452   2.636   4.267 -0.4991  0.6610 -0.7720
 4864SOL    HW226052   0.306   2.631   4.272 -3.0355 -0.9814 -1.0285
 4865SOL     OW26053   0.118   2.795   3.760 -0.4405 -0.2483 -0.4355
 4865SOL    HW126054   0.129   2.861   3.692 -2.7607  1.3767  0.7679
 4865SOL    HW226055   0.024   2.808   3.775  0.3158  1.6815  2.6072
 4866SOL     OW26056   4.013   4.059  13.370 -0.2276  0.1787 -0.2338
 4866SOL    HW126057   4.075   3.995  13.404  1.3104  2.8669  1.9519
 4866SOL    HW226058   3.952   4.011  13.314  0.7672  1.0665 -2.0765
 4867SOL     OW26059   2.641   3.075   2.879  0.5938 -0.1921  0.2369
 4867SOL    HW126060   2.712   3.066   2.943  0.6366  2.5564  0.5922
 4867SOL    HW226061   2.603   3.158   2.909  0.5877 -1.0447  2.6286
 4868SOL     OW26062   2.295   4.479   6.509 -0.4199  0.8488  0.6558
 4868SOL    HW126063   2.327   4.399   6.468 -0.5915  1.1039  0.0241
 4868SOL    HW226064   2.200   4.468   6.502  0.1519 -1.2240 -3.7470
 4869SOL     OW26065   0.334   2.335  14.408 -0.4484  0.2655 -0.5447
 4869SOL    HW126066   0.288   2.304  14.330  0.4130  0.7954 -1.2774
 4869SOL    HW226067   0.300   2.423  14.424 -1.7735 -0.9424  3.2415
 4870SOL     OW26068   3.852   0.070   5.803 -0.3521  0.2186  0.8487
 4870SOL    HW126069   3.785   0.127   5.841  0.9510  1.6216  1.0663
 4870SOL    HW226070   3.909   0.123   5.747  0.6092 -1.2880  0.4036
 4871SOL     OW26071   1.628   4.610   7.931 -0.4926  0.1772  0.1787
 4871SOL    HW126072   1.704   4.662   7.904 -0.2858 -1.2441 -1.9674
 4871SOL    HW226073   1.570   4.683   7.950 -1.4921 -0.6811  0.3834
 4872SOL     OW26074   3.005   1.588   0.104 -0.1917  0.4684 -0.2193
 4872SOL    HW126075   3.013   1.681   0.126  0.4691  0.8462 -2.0540
 4872SOL    HW226076   3.071   1.547   0.160  0.9356  0.5320 -1.4857
 4873SOL     OW26077   0.291   4.555   6.629 -0.1382 -0.4034 -0.3134
 4873SOL    HW126078   0.251   4.531   6.712  0.4306 -0.3117 -0.0111
 4873SOL    HW226079   0.280   4.649   6.614 -2.5771 -0.3981  1.5618
 4874SOL     OW26080   4.078   4.262  12.581  0.1999 -0.0003 -0.4976
 4874SOL    HW126081   4.008   4.318  12.547 -1.1264 -0.7278  1.0358
 4874SOL    HW226082   4.139   4.329  12.611  1.2997 -0.9065 -0.7068
 4875SOL     OW26083   2.830   2.685  15.680 -0.3372 -0.2374  0.0988
 4875SOL    HW126084   2.878   2.621  15.733 -0.1538  0.8752  1.2644
 4875SOL    HW226085   2.892   2.752  15.650 -0.0850 -0.3883  0.2909
 4876SOL     OW26086   2.280   3.927   1.700 -0.7837 -0.1764  0.0568
 4876SOL    HW126087   2.192   3.959   1.722  0.3686  3.0632 -0.1406
 4876SOL    HW226088   2.272   3.833   1.684 -1.5179  0.1219 -1.2807
 4877SOL     OW26089   1.424   0.509   3.513  0.2241 -0.1877  0.1136
 4877SOL    HW126090   1.517   0.531   3.503  0.6249 -2.0247 -0.1956
 4877SOL    HW226091   1.432   0.481   3.604  0.7718 -0.3525  0.0162
 4878SOL     OW26092   0.984   3.188   6.246  0.3809 -0.4655  0.3752
 4878SOL    HW126093   1.034   3.206   6.167 -1.8234  0.5609 -0.7718
 4878SOL    HW226094   0.999   3.093   6.238  0.5988 -0.1671 -2.8163
 4879SOL     OW26095   3.127   2.089   4.197  0.0255  0.6713  0.1752
 4879SOL    HW126096   3.143   2.158   4.132 -0.8824  1.0273  0.3417
 4879SOL    HW226097   3.198   2.026   4.180 -1.2412 -0.3558 -1.2949
 4880SOL     OW26098   3.683   0.366   8.262 -0.4284 -0.2106 -0.0751
 4880SOL    HW126099   3.761   0.414   8.236 -0.1466  0.4222  1.9807
 4880SOL    HW226100   3.709   0.350   8.352 -3.1711  2.2222  1.1661
 4881SOL     OW26101   2.653   3.871   5.144 -0.4989 -0.4615  0.0486
 4881SOL    HW126102   2.656   3.831   5.231  0.5184 -1.0135 -0.2332
 4881SOL    HW226103   2.681   3.799   5.087 -0.7910  0.7993 -1.7105
 4882SOL     OW26104   2.604   0.149  11.457  0.1789 -0.1024 -0.2258
 4882SOL    HW126105   2.672   0.102  11.506  1.1503 -0.4559 -1.9242
 4882SOL    HW226106   2.522   0.111  11.490 -0.4039  2.3718  1.2190
 4883SOL     OW26107   2.144   1.919  14.217 -0.2397 -0.3792  0.2714
 4883SOL    HW126108   2.119   1.972  14.293 -0.7873  2.1172 -1.6666
 4883SOL    HW226109   2.084   1.935  14.145  0.5240 -0.1279 -0.3075
 4884SOL     OW26110   3.914   2.642   6.837 -0.3250  0.6590 -0.7184
 4884SOL    HW126111   3.941   2.553   6.816  0.4557  0.2814  1.9594
 4884SOL    HW226112   3.951   2.686   6.760  3.2368 -0.6044  0.2907
 4885SOL     OW26113   3.541   1.330   4.836 -0.2573  0.5118  0.7270
 4885SOL    HW126114   3.510   1.317   4.925 -1.1329  2.7181  0.7514
 4885SOL    HW226115   3.596   1.408   4.841 -1.2799  1.3472 -1.0199
 4886SOL     OW26116   3.526   0.913   5.256  0.4031 -0.2443  0.1215
 4886SOL    HW126117   3.525   0.994   5.205  1.7549 -0.1555  0.2309
 4886SOL    HW226118   3.451   0.871   5.213 -0.3153  0.4352  0.7225
 4887SOL     OW26119   2.845   0.443  11.037  0.1750 -0.1722 -0.2493
 4887SOL    HW126120   2.889   0.418  10.956  0.5660  1.1035 -0.4277
 4887SOL    HW226121   2.842   0.357  11.081 -0.0343  0.7499  1.5590
 4888SOL     OW26122   1.075   4.253  10.661 -0.7751  0.4521 -0.2555
 4888SOL    HW126123   1.129   4.290  10.590  1.6991  0.3610  1.5850
 4888SOL    HW226124   1.143   4.233  10.725  0.1858 -0.6142 -1.5949
 4889SOL     OW26125   3.733   3.141   4.984 -0.3193 -0.1641  0.7956
 4889SOL    HW126126   3.821   3.170   5.008 -0.2850  0.5529 -0.2113
 4889SOL    HW226127   3.716   3.188   4.902 -1.7729 -0.7790  0.7389
 4890SOL     OW26128   3.307   4.464   4.926 -0.3637 -0.0659  0.4068
 4890SOL    HW126129   3.267   4.388   4.884 -0.9780  0.6431 -0.3089
 4890SOL    HW226130   3.232   4.494   4.977 -1.0417 -3.0373  1.1365
 4891SOL     OW26131   1.985   1.692   9.693 -0.4378  0.3029  0.0612
 4891SOL    HW126132   2.026   1.701   9.779  0.9232 -0.5312 -0.4811
 4891SOL    HW226133   2.056   1.652   9.641 -1.8658 -2.9063  0.6213
 4892SOL     OW26134   2.521   1.158   7.759  0.1693  0.3417  0.5476
 4892SOL    HW126135   2.430   1.186   7.762 -0.2772 -1.2860  2.2255
 4892SOL    HW226136   2.524   1.067   7.731 -0.9809  0.6291 -0.4845
 4893SOL     OW26137   1.352   0.003   0.429  0.0040  0.2108  0.1044
 4893SOL    HW126138   1.352   4.687   0.342  0.3807 -3.3739  1.7619
 4893SOL    HW226139   1.418   0.073   0.429  0.7904 -0.5452 -2.8740
 4894SOL     OW26140   3.114   1.641  16.791  0.7122 -0.1580  0.2166
 4894SOL    HW126141   3.114   1.576  16.721  2.3211 -0.8325  0.8516
 4894SOL    HW226142   3.193   1.691  16.773  0.5156  0.3323  0.7223
 4895SOL     OW26143   1.841   3.231   7.529  0.3043 -0.6046  0.2996
 4895SOL    HW126144   1.777   3.172   7.569 -0.3047 -1.5488 -2.1396
 4895SOL    HW226145   1.856   3.299   7.595 -1.5610  0.3652 -0.2633
 4896SOL     OW26146   4.542   0.693  10.176 -0.3664 -0.5097 -0.0106
 4896SOL    HW126147   4.479   0.753  10.216  0.9146  0.1657  1.0171
 4896SOL    HW226148   4.540   0.629  10.248  1.0126 -1.2102 -0.5910
 4897SOL     OW26149   4.144   0.270  14.904 -0.0301 -0.0600 -0.3881
 4897SOL    HW126150   4.223   0.239  14.949 -2.5302 -2.5984  2.2707
 4897SOL    HW226151   4.131   0.345  14.962 -1.4835  0.5821 -1.5494
 4898SOL     OW26152   1.569   3.998  11.034  0.3587  0.3944 -0.9854
 4898SOL    HW126153   1.474   3.987  11.030  0.4936 -1.5904  1.6275
 4898SOL    HW226154   1.585   4.039  10.948  1.0374 -0.9344 -1.4881
 4899SOL     OW26155   2.293   2.376   6.087 -0.0954 -0.1030  0.4556
 4899SOL    HW126156   2.261   2.454   6.041  1.2955 -0.0540 -0.4271
 4899SOL    HW226157   2.317   2.328   6.008 -0.2728  0.5727 -0.0132
 4900SOL     OW26158   1.598   2.900   5.348  0.3696  0.4241  0.7366
 4900SOL    HW126159   1.685   2.926   5.378  0.3763  3.2963 -1.8387
 4900SOL    HW226160   1.594   2.970   5.284  3.8997 -0.7226 -0.7040
 4901SOL     OW26161   2.253   0.728   4.564  0.0622  0.1474 -0.4121
 4901SOL    HW126162   2.263   0.672   4.642  0.9645  0.4885 -0.2730
 4901SOL    HW226163   2.164   0.707   4.536  0.0780  0.1124 -0.4361
 4902SOL     OW26164   0.116   1.573  17.526 -0.2267  0.3655 -0.7135
 4902SOL    HW126165   0.193   1.589  17.471  0.0160  0.0313 -0.4714
 4902SOL    HW226166   0.051   1.602  17.462 -2.3567  1.5843  1.9829
 4903SOL     OW26167   2.690   2.602   7.947  0.0917 -0.2266 -0.4490
 4903SOL    HW126168   2.785   2.612   7.956 -0.3629  2.6593  1.2031
 4903SOL    HW226169   2.677   2.509   7.964  0.0716 -0.4073 -1.4471
 4904SOL     OW26170   1.067   2.597   6.574  0.0517 -0.1511 -0.2186
 4904SOL    HW126171   1.024   2.529   6.625  1.2193 -1.2372 -0.6878
 4904SOL    HW226172   1.003   2.597   6.502  1.0164 -4.2405 -1.0795
 4905SOL     OW26173   2.365   0.877   5.130 -0.0287 -0.2101 -0.2319
 4905SOL    HW126174   2.444   0.827   5.151 -0.8210 -1.1466  0.4372
 4905SOL    HW226175   2.397   0.961   5.097 -0.8253  0.4970  0.7875
 4906SOL     OW26176   4.332   3.101   4.326 -0.1105  0.5610 -0.1389
 4906SOL    HW126177   4.299   3.133   4.410 -1.6532 -0.1383 -0.4653
 4906SOL    HW226178   4.396   3.172   4.318  0.8873 -0.3772 -0.4369
 4907SOL     OW26179   2.734   3.638   2.742  0.5101  0.1971  0.3857
 4907SOL    HW126180   2.805   3.575   2.749 -0.2071 -0.5200  1.1706
 4907SOL    HW226181   2.786   3.708   2.702  0.6463  1.5921  2.9502
 4908SOL     OW26182   1.705   3.151   1.572  0.2486 -0.8854  0.3011
 4908SOL    HW126183   1.711   3.093   1.495 -0.8644  1.4067 -1.5126
 4908SOL    HW226184   1.660   3.228   1.536  0.4317 -0.9060  0.0266
 4909SOL     OW26185   0.927   0.867   1.616 -0.3431 -0.2053 -0.1961
 4909SOL    HW126186   0.849   0.892   1.666  0.4882  0.6708  0.6536
 4909SOL    HW226187   0.904   0.781   1.582 -0.9782  0.6855 -2.0593
 4910SOL     OW26188   4.101   3.216  13.283  0.6197  0.3388  0.1358
 4910SOL    HW126189   4.053   3.281  13.231 -1.6543 -2.2017 -0.9117
 4910SOL    HW226190   4.069   3.143  13.231  0.8155  0.1382  0.2943
 4911SOL     OW26191   0.805   1.539  12.457  0.1637  0.7249  0.0306
 4911SOL    HW126192   0.871   1.563  12.522  2.7362 -1.7217 -1.7259
 4911SOL    HW226193   0.857   1.516  12.380 -1.3937 -1.0637 -0.5073
 4912SOL     OW26194   3.388   1.505   1.086 -0.2766 -0.0039  0.1236
 4912SOL    HW126195   3.402   1.527   0.994 -0.1410  1.5168  0.4970
 4912SOL    HW226196   3.465   1.452   1.105 -0.6686 -0.3776  0.6874
 4913SOL     OW26197   3.907   0.692  12.425 -0.3400  0.1999  0.2544
 4913SOL    HW126198   3.844   0.624  12.446 -1.7682  0.6341 -2.5115
 4913SOL    HW226199   3.980   0.632  12.410 -0.9735 -0.1613 -1.4446
 4914SOL     OW26200   0.593   4.439  11.617  0.0115  0.3413  0.2496
 4914SOL    HW126201   0.634   4.517  11.579  0.4425  0.5595  1.1546
 4914SOL    HW226202   0.556   4.478  11.697  1.0425  0.4844  0.6641
 4915SOL     OW26203   2.936   2.905   9.575  0.5100  0.3345 -0.0390
 4915SOL    HW126204   2.858   2.886   9.627  1.6418  1.1196  1.9864
 4915SOL    HW226205   2.959   2.994   9.604  2.0979 -0.9854  2.7406
 4916SOL     OW26206   3.958   1.104   3.717  0.1440 -0.1394  0.0447
 4916SOL    HW126207   4.016   1.098   3.793  1.0604  0.5807 -0.5941
 4916SOL    HW226208   3.933   1.014   3.699  0.2386 -0.0209 -0.6953
 4917SOL     OW26209   0.124   1.916   6.000  0.3208 -0.3577  0.1927
 4917SOL    HW126210   0.168   1.999   6.016 -1.0584  0.1013  1.6539
 4917SOL    HW226211   0.164   1.856   6.063 -0.4704  1.2082  2.2072
 4918SOL     OW26212   3.739   2.757   8.488 -0.0145 -0.0973 -0.1208
 4918SOL    HW126213   3.733   2.706   8.407 -0.0691  0.1431 -0.2691
 4918SOL    HW226214   3.755   2.846   8.457  0.3265  0.6174  2.1284
 4919SOL     OW26215   2.906   1.818   9.507 -0.1029 -0.0267 -0.2342
 4919SOL    HW126216   2.898   1.769   9.426  0.2968 -0.3452 -0.0793
 4919SOL    HW226217   2.878   1.903   9.473 -0.2743 -0.0495 -0.1506
 4920SOL     OW26218   0.559   4.464   5.863 -0.4571  0.3025  0.1510
 4920SOL    HW126219   0.605   4.512   5.931 -2.6541  1.3023  0.9053
 4920SOL    HW226220   0.501   4.521   5.813 -0.2706 -0.2252 -0.6714
 4921SOL     OW26221   3.756   0.842  11.368 -0.3377 -0.2312  0.0046
 4921SOL    HW126222   3.796   0.840  11.455  0.7475 -2.0243 -0.5317
 4921SOL    HW226223   3.778   0.930  11.336 -1.1810  1.0138  2.7986
 4922SOL     OW26224   3.377   0.278   0.321 -0.4804 -0.2296 -0.0231
 4922SOL    HW126225   3.300   0.266   0.265  0.2919 -1.8068 -0.7517
 4922SOL    HW226226   3.438   0.294   0.249 -1.0641 -2.5714 -1.0263
 4923SOL     OW26227   3.634   0.006   5.024 -0.2800 -0.1182 -0.2519
 4923SOL    HW126228   3.560   0.030   5.079  1.1526  0.8164  1.2422
 4923SOL    HW226229   3.706   4.709   5.083  0.4641  1.3656 -0.6406
 4924SOL     OW26230   4.292   2.955   2.491  0.3267 -0.1037 -0.0977
 4924SOL    HW126231   4.289   2.862   2.468 -0.5915 -0.4572  1.4427
 4924SOL    HW226232   4.297   3.004   2.409 -0.4396  0.6129  0.2881
 4925SOL     OW26233   4.610   4.351  17.680  0.3461 -0.2125  0.4391
 4925SOL    HW126234   4.698   4.317   0.001  0.1767 -0.9283 -0.0885
 4925SOL    HW226235   4.569   4.309   0.060  1.6718  0.5138  1.5487
 4926SOL     OW26236   4.007   0.976   8.915 -0.5035  0.5763  0.0976
 4926SOL    HW126237   4.081   1.014   8.962 -1.9118  1.5944  1.5141
 4926SOL    HW226238   3.939   1.024   8.963 -0.0211  1.2807  0.0747
 4927SOL     OW26239   3.133   2.035   9.623 -0.4170  0.4610  0.5249
 4927SOL    HW126240   3.072   1.999   9.559 -1.2116  4.0857 -0.7638
 4927SOL    HW226241   3.120   2.129   9.609  0.9299  0.5643  0.0242
 4928SOL     OW26242   1.423   3.273   7.870 -0.1384  0.2924 -0.3189
 4928SOL    HW126243   1.398   3.362   7.843  0.4712  1.1715  1.9747
 4928SOL    HW226244   1.518   3.266   7.870 -0.0926  0.7628  1.5167
 4929SOL     OW26245   2.046   2.845   6.957  0.1658  0.0300 -0.4081
 4929SOL    HW126246   1.998   2.811   7.032 -0.4497 -1.1335 -1.3365
 4929SOL    HW226247   2.137   2.819   6.969  0.2058  0.4135  0.1286
 4930SOL     OW26248   3.197   2.936  16.135  0.5163  0.0072  0.0522
 4930SOL    HW126249   3.185   2.878  16.211 -1.6209  1.5964  0.9112
 4930SOL    HW226250   3.167   2.875  16.068 -0.0083  1.1990 -0.7774
 4931SOL     OW26251   0.858   3.235   8.091  0.2844 -0.5988 -1.3284
 4931SOL    HW126252   0.938   3.246   8.142 -1.8093 -1.0913  2.0681
 4931SOL    HW226253   0.874   3.147   8.056  1.5085 -1.8228  2.2229
 4932SOL     OW26254   3.164   3.041   0.445 -0.2041 -0.0743 -0.2841
 4932SOL    HW126255   3.086   2.986   0.449  1.2313 -2.0825  0.0073
 4932SOL    HW226256   3.191   3.032   0.354 -0.1989 -0.3339 -0.2550
 4933SOL     OW26257   1.894   1.707   5.849  0.1957  0.2303 -0.4506
 4933SOL    HW126258   1.955   1.760   5.900 -1.6744  0.6825  1.2953
 4933SOL    HW226259   1.946   1.627   5.835 -0.1948 -0.0996 -0.0337
 4934SOL     OW26260   4.336   0.789   4.105 -0.3344  0.1436 -0.0525
 4934SOL    HW126261   4.283   0.869   4.112  1.3457  1.0049  2.9306
 4934SOL    HW226262   4.330   0.755   4.195  1.5392 -2.4210 -0.9132
 4935SOL     OW26263   0.599   0.838  15.283  0.5401  0.4424  0.2607
 4935SOL    HW126264   0.664   0.768  15.294  0.4254  0.2168 -0.4667
 4935SOL    HW226265   0.512   0.802  15.301  0.7205  0.7331  1.7339
 4936SOL     OW26266   3.713   0.581   5.977  0.4144 -0.0316  1.1731
 4936SOL    HW126267   3.685   0.494   5.952  1.1655 -0.2644  1.1400
 4936SOL    HW226268   3.642   0.618   6.030 -0.1364  0.9664 -0.2536
 4937SOL     OW26269   1.744   2.714   7.881  0.0940 -0.5907  0.1825
 4937SOL    HW126270   1.752   2.725   7.976 -1.7720 -0.6367  0.3381
 4937SOL    HW226271   1.798   2.793   7.868  1.4309 -1.3671  1.0463
 4938SOL     OW26272   3.870   4.375  11.738  0.4917  0.2373 -0.1650
 4938SOL    HW126273   3.883   4.470  11.740  0.6691  0.1945  1.0785
 4938SOL    HW226274   3.813   4.356  11.664  1.5945  0.7777 -1.1500
 4939SOL     OW26275   0.157   0.698   3.655 -0.0577  0.8769  0.5320
 4939SOL    HW126276   0.065   0.725   3.647 -0.2285  0.0470 -0.3211
 4939SOL    HW226277   0.140   0.605   3.643 -1.2921  1.1979 -0.2680
 4940SOL     OW26278   2.374   3.099   6.453 -0.3572 -0.4783 -0.0049
 4940SOL    HW126279   2.358   3.040   6.379  1.9416 -2.3305  0.9691
 4940SOL    HW226280   2.368   3.189   6.420  1.1224  0.0656  1.2189
 4941SOL     OW26281   2.936   2.873   0.495  0.3111  0.3429 -0.2447
 4941SOL    HW126282   2.942   2.778   0.507  0.6679  0.2303 -1.2878
 4941SOL    HW226283   2.894   2.903   0.576  0.3887  2.4748 -1.0060
 4942SOL     OW26284   4.497   4.188   7.074  0.1727 -0.2016  0.2365
 4942SOL    HW126285   4.560   4.158   7.009 -1.4022  0.1723 -1.4426
 4942SOL    HW226286   4.430   4.121   7.075 -0.3362  0.3274  2.2120
 4943SOL     OW26287   0.119   2.392   9.256  0.1198  0.3579  0.2728
 4943SOL    HW126288   0.068   2.435   9.187 -1.8366 -2.2109  0.0961
 4943SOL    HW226289   0.195   2.362   9.205 -1.6483 -0.7464 -1.7083
 4944SOL     OW26290   3.733   0.120   6.462 -0.0420 -0.4785  0.0463
 4944SOL    HW126291   3.781   0.088   6.386 -0.6197 -0.4575 -0.3313
 4944SOL    HW226292   3.760   0.056   6.528  0.1334 -0.4627 -0.0095
 4945SOL     OW26293   1.341   1.720   5.604 -0.5822  0.0613  0.8292
 4945SOL    HW126294   1.309   1.702   5.516  0.6805 -1.9512  0.7857
 4945SOL    HW226295   1.267   1.776   5.627  0.2743  1.5197  0.0522
 4946SOL     OW26296   3.741   0.398   3.315  0.0269  0.2427 -0.6509
 4946SOL    HW126297   3.703   0.458   3.251 -2.1924  0.4005  0.8387
 4946SOL    HW226298   3.809   0.359   3.260 -1.1230 -1.7082 -0.6743
 4947SOL     OW26299   4.278   4.008  10.153 -0.1216 -0.3009  0.0481
 4947SOL    HW126300   4.224   4.080  10.121 -0.8145 -1.5478 -1.5505
 4947SOL    HW226301   4.213   3.944  10.180 -0.3228 -0.8643 -1.8128
 4948SOL     OW26302   1.287   4.177  12.518  0.0263  0.2118  0.6674
 4948SOL    HW126303   1.208   4.220  12.484 -1.0722 -2.4015 -0.0894
 4948SOL    HW226304   1.354   4.240  12.490 -0.5397 -0.5400 -2.3626
 4949SOL     OW26305   1.576   2.032   9.497 -0.1021  0.1159  0.3554
 4949SOL    HW126306   1.620   1.990   9.570  0.0306 -1.2366 -0.5041
 4949SOL    HW226307   1.646   2.091   9.468 -1.2079  0.4850 -1.5628
 4950SOL     OW26308   1.911   2.900   0.651  0.3630 -0.1563 -0.4866
 4950SOL    HW126309   1.837   2.930   0.599  0.0864  0.9383  0.5441
 4950SOL    HW226310   1.870   2.822   0.689  0.5559 -1.0329 -2.0826
 4951SOL     OW26311   0.573   2.271   4.664  0.2975  0.0929  0.3785
 4951SOL    HW126312   0.505   2.320   4.710  0.2886  0.9622 -0.5624
 4951SOL    HW226313   0.602   2.331   4.595 -0.5706 -1.8194 -1.6424
 4952SOL     OW26314   1.106   0.150  11.103  0.1545  0.1400 -0.1542
 4952SOL    HW126315   1.097   0.073  11.046  0.9286  0.3780 -0.5887
 4952SOL    HW226316   1.065   0.135  11.189  0.7893 -0.6946  0.0022
 4953SOL     OW26317   4.628   0.854   2.757 -0.0927 -0.0432 -0.2142
 4953SOL    HW126318   4.613   0.769   2.798  3.1319 -0.3137  0.4582
 4953SOL    HW226319   4.611   0.843   2.664  2.2514 -1.5343 -0.4710
 4954SOL     OW26320   2.439   2.598   7.628  0.6343 -0.3071  0.2781
 4954SOL    HW126321   2.478   2.555   7.552  0.7795 -1.7213  1.1659
 4954SOL    HW226322   2.455   2.532   7.695  2.7742  0.0863  0.1516
 4955SOL     OW26323   1.519   0.139   9.404  0.0205  0.1700 -0.2390
 4955SOL    HW126324   1.581   0.084   9.356 -1.1943 -0.2610 -1.3151
 4955SOL    HW226325   1.494   0.088   9.481 -0.4727 -1.3800 -1.4199
 4956SOL     OW26326   3.447   2.766   3.294  0.2403  0.5301  0.9042
 4956SOL    HW126327   3.401   2.732   3.217  0.4612  1.3390  0.4032
 4956SOL    HW226328   3.464   2.857   3.266 -1.4853  0.4156 -0.5339
 4957SOL     OW26329   4.204   0.057   0.279 -0.5405  0.0828 -0.0832
 4957SOL    HW126330   4.243   0.002   0.211  0.9376  0.0472  0.7767
 4957SOL    HW226331   4.259   0.135   0.285 -2.9352  1.7377  0.1877
 4958SOL     OW26332   1.648   0.975   6.500 -0.2361  0.7059 -0.5380
 4958SOL    HW126333   1.553   0.975   6.513  0.0336  1.4393  1.4970
 4958SOL    HW226334   1.667   0.894   6.452 -0.1008  0.6246 -0.3474
 4959SOL     OW26335   1.915   2.699   5.540 -0.0940  0.5126 -0.6079
 4959SOL    HW126336   1.996   2.744   5.517  1.0213 -1.2775 -0.1349
 4959SOL    HW226337   1.865   2.770   5.581  0.6254  0.3343  0.5567
 4960SOL     OW26338   2.678   2.772   9.046 -0.0869 -0.2620  0.0197
 4960SOL    HW126339   2.716   2.853   9.081  1.2980 -0.5870 -0.7487
 4960SOL    HW226340   2.584   2.789   9.052  0.0420  0.0975  1.0861
 4961SOL     OW26341   4.462   4.041  17.568  0.0302  0.7786 -0.6198
 4961SOL    HW126342   4.505   4.026  17.483 -0.2764  2.2727 -1.0408
 4961SOL    HW226343   4.534   4.026  17.629 -0.8181 -0.2560  0.1249
 4962SOL     OW26344   0.500   4.249   8.923 -0.1432 -0.0254 -0.1423
 4962SOL    HW126345   0.510   4.177   8.986  1.4672  0.3569  0.0419
 4962SOL    HW226346   0.494   4.218   8.833  0.6231  0.4353 -0.3500
 4963SOL     OW26347   2.405   4.114  11.188 -0.2057  0.6883  0.1726
 4963SOL    HW126348   2.451   4.194  11.210  1.9515 -0.4714 -0.1605
 4963SOL    HW226349   2.466   4.068  11.130 -2.2401 -0.1313 -1.3189
 4964SOL     OW26350   2.920   2.804   4.808 -0.1909  0.3302 -0.0613
 4964SOL    HW126351   2.897   2.795   4.716  0.6330  0.4416 -0.2753
 4964SOL    HW226352   3.012   2.829   4.809  0.2681 -1.3667  0.1896
 4965SOL     OW26353   3.112   3.015  10.944 -0.2688 -0.2963  0.6794
 4965SOL    HW126354   3.199   2.982  10.922  0.3064  1.4694  0.2919
 4965SOL    HW226355   3.117   3.106  10.913 -1.5748  0.2217  1.9679
 4966SOL     OW26356   1.996   1.238   8.158 -0.0597 -0.4402 -0.1995
 4966SOL    HW126357   2.077   1.220   8.206 -0.4027 -1.2317  0.0822
 4966SOL    HW226358   2.029   1.208   8.073 -1.6466 -0.3520 -0.8441
 4967SOL     OW26359   3.996   0.465   2.192 -0.2815  0.4661 -0.2416
 4967SOL    HW126360   3.972   0.547   2.149  0.3489  0.1917 -1.1234
 4967SOL    HW226361   4.058   0.420   2.135 -0.3132 -0.7624  0.7028
 4968SOL     OW26362   4.673   1.094   8.818  0.4560  0.1136  0.0604
 4968SOL    HW126363   0.022   1.032   8.813 -0.9964 -1.5961  0.3290
 4968SOL    HW226364   4.609   1.043   8.769 -0.0350 -1.5115  2.3845
 4969SOL     OW26365   2.136   2.534   0.260  0.2197  0.1154 -0.0904
 4969SOL    HW126366   2.119   2.440   0.261 -0.0042  0.1684  1.1633
 4969SOL    HW226367   2.075   2.564   0.328  0.4692 -0.9284  0.5876
 4970SOL     OW26368   1.397   1.705   2.788  0.5952 -0.2709 -0.1689
 4970SOL    HW126369   1.312   1.732   2.821  0.6684  0.3041 -0.4567
 4970SOL    HW226370   1.437   1.664   2.864 -2.2846 -1.0802  0.8701
 4971SOL     OW26371   0.521   3.990   2.826  0.1243 -0.3012 -0.0413
 4971SOL    HW126372   0.552   4.006   2.737  0.4604 -0.6912  0.0067
 4971SOL    HW226373   0.572   4.056   2.873 -0.2135 -0.3402  0.3840
 4972SOL     OW26374   0.597   3.592  14.462  0.1229  0.1528 -0.5242
 4972SOL    HW126375   0.651   3.545  14.525 -0.0601 -1.8220 -1.8395
 4972SOL    HW226376   0.626   3.553  14.379 -0.5214 -1.4109 -0.0209
 4973SOL     OW26377   2.454   1.332   6.102  0.2005 -0.4052  0.3253
 4973SOL    HW126378   2.451   1.382   6.184  1.6707  0.0976  0.0805
 4973SOL    HW226379   2.361   1.328   6.078  0.1073  1.5907  0.3507
 4974SOL     OW26380   1.584   1.619   5.082  0.3856 -0.2235 -0.8840
 4974SOL    HW126381   1.659   1.617   5.022 -0.1023  0.0329 -1.5026
 4974SOL    HW226382   1.543   1.702   5.057  3.9417  0.9171 -2.8528
 4975SOL     OW26383   0.061   1.395   0.016 -0.2363  0.5152  0.5002
 4975SOL    HW126384   0.071   1.438   0.101 -1.4410 -0.3936  1.1099
 4975SOL    HW226385   0.058   1.469  17.652  1.5199  0.7333  0.6829
 4976SOL     OW26386   2.376   1.937   8.108  0.4595 -0.1780  0.3086
 4976SOL    HW126387   2.342   1.871   8.168  1.2691 -0.8518  0.0276
 4976SOL    HW226388   2.444   1.888   8.061 -1.2016 -1.0940 -1.1043
 4977SOL     OW26389   4.008   0.279   6.001 -0.1225  0.1488  0.2874
 4977SOL    HW126390   4.098   0.305   5.982  0.3078 -2.0165 -0.6656
 4977SOL    HW226391   4.002   0.288   6.096  2.1293  1.1492  0.3346
 4978SOL     OW26392   3.701   0.719   8.428 -0.1278  0.5265  0.1201
 4978SOL    HW126393   3.676   0.801   8.387  1.2102 -0.0503 -1.8683
 4978SOL    HW226394   3.796   0.733   8.421  0.1877 -1.9273 -0.6628
 4979SOL     OW26395   0.532   0.004   0.659  0.5137 -0.3042 -0.0483
 4979SOL    HW126396   0.585   0.066   0.709  0.3306 -0.6454  0.5689
 4979SOL    HW226397   0.549   0.032   0.569  1.3371  1.6094  0.7036
 4980SOL     OW26398   1.221   1.770  13.633  0.6255  0.0296  0.3437
 4980SOL    HW126399   1.145   1.827  13.649 -1.6594 -2.3782 -1.9214
 4980SOL    HW226400   1.280   1.800  13.702  0.7874 -0.6293  0.4883
 4981SOL     OW26401   2.732   1.402  11.153 -0.3519 -0.4209 -0.0400
 4981SOL    HW126402   2.644   1.368  11.135  0.1694 -0.7852 -1.8848
 4981SOL    HW226403   2.745   1.363  11.239 -1.4719  0.3555  0.4893
 4982SOL     OW26404   2.201   2.895   3.410  0.6747  0.4297  0.2265
 4982SOL    HW126405   2.199   2.907   3.315 -0.6374 -0.7450  0.1086
 4982SOL    HW226406   2.284   2.935   3.436  0.1080  0.7293  1.5800
 4983SOL     OW26407   0.900   3.771   6.637 -0.3267  0.1577  0.2109
 4983SOL    HW126408   0.938   3.781   6.550  1.8182 -0.2933  1.1114
 4983SOL    HW226409   0.831   3.705   6.628 -0.1091 -0.2755  1.8105
 4984SOL     OW26410   1.934   1.119   0.191 -0.5814 -0.0882  0.1011
 4984SOL    HW126411   1.954   1.124   0.284  1.1533 -1.5539 -0.1912
 4984SOL    HW226412   1.929   1.024   0.180  1.3167 -0.5065  2.8951
 4985SOL     OW26413   3.541   1.254   5.553 -0.6092  0.5724  0.3303
 4985SOL    HW126414   3.617   1.264   5.496 -0.2604  1.4638  0.9438
 4985SOL    HW226415   3.491   1.333   5.530 -0.2315  0.7178  0.0153
 4986SOL     OW26416   0.852   2.285   6.953 -0.1867 -0.1911 -0.5129
 4986SOL    HW126417   0.765   2.315   6.979  0.9242  1.7913  0.9904
 4986SOL    HW226418   0.861   2.200   6.996  1.8419  0.8592  1.1780
 4987SOL     OW26419   4.496   3.131  14.090  0.3345  0.5015  0.1018
 4987SOL    HW126420   4.421   3.118  14.032 -0.6815  3.5388  0.7299
 4987SOL    HW226421   4.556   3.164  14.023 -0.4755 -1.8301 -1.7959
 4988SOL     OW26422   2.359   0.957  12.819 -0.5557  0.1866  0.1110
 4988SOL    HW126423   2.323   0.993  12.738  1.0685  1.8844  0.1501
 4988SOL    HW226424   2.321   0.869  12.816 -0.5229  0.2149 -1.1904
 4989SOL     OW26425   1.007   0.728   8.960 -0.2419  0.5710  0.3311
 4989SOL    HW126426   0.929   0.682   8.990  2.5430 -4.1401  0.3521
 4989SOL    HW226427   1.020   0.788   9.033 -1.7422  0.9874  0.2548
 4990SOL     OW26428   1.477   0.285   7.490 -0.2068 -1.0102 -0.1904
 4990SOL    HW126429   1.570   0.283   7.468 -0.2330  2.1396 -0.5901
 4990SOL    HW226430   1.471   0.227   7.566  0.9467 -0.2233  0.4962
 4991SOL     OW26431   1.044   0.819  17.078 -0.3066 -0.1166 -0.4122
 4991SOL    HW126432   0.965   0.848  17.034 -1.8888 -0.0755  2.4717
 4991SOL    HW226433   1.045   0.885  17.147  0.6824 -1.1224  0.5355
 4992SOL     OW26434   0.838   0.135   3.961 -0.0345  0.3909 -0.0951
 4992SOL    HW126435   0.893   0.163   4.035 -0.1831  0.1014  0.1275
 4992SOL    HW226436   0.756   0.174   3.989  0.0988 -0.4370  1.4561
 4993SOL     OW26437   3.705   2.649   3.438  0.4847  0.2201 -0.5480
 4993SOL    HW126438   3.654   2.686   3.366 -0.3380  3.8528  1.8763
 4993SOL    HW226439   3.766   2.599   3.384 -0.3773 -2.2445  0.7647
 4994SOL     OW26440   0.554   0.706  15.784 -0.2645 -0.0189  0.1594
 4994SOL    HW126441   0.496   0.637  15.817  1.1635 -1.4778 -0.3623
 4994SOL    HW226442   0.493   0.779  15.786 -0.9865 -0.6391  0.4393
 4995SOL     OW26443   2.054   1.625   8.142 -0.5203 -0.0995  0.3262
 4995SOL    HW126444   2.016   1.710   8.119 -1.6789 -1.4426 -2.7504
 4995SOL    HW226445   1.990   1.568   8.099 -1.2130 -0.9230  2.4437
 4996SOL     OW26446   0.884   0.767   6.255  0.4769 -0.2660 -0.3357
 4996SOL    HW126447   0.792   0.769   6.284  1.2908 -1.8043  2.3793
 4996SOL    HW226448   0.909   0.675   6.255 -2.9660 -1.2248  0.5652
 4997SOL     OW26449   3.196   3.799   4.974 -0.2403 -0.0665 -0.0191
 4997SOL    HW126450   3.101   3.790   4.966  0.0829 -1.7029 -1.8233
 4997SOL    HW226451   3.205   3.884   5.018 -2.8546  0.4768 -0.5114
 4998SOL     OW26452   2.645   0.998   7.432  0.5062  0.5417  0.2160
 4998SOL    HW126453   2.634   0.974   7.524  0.7216  1.4481  0.4752
 4998SOL    HW226454   2.574   0.947   7.394  0.2413  1.0561  0.0303
 4999SOL     OW26455   4.108   3.462   3.907  0.2554  0.2075  0.0578
 4999SOL    HW126456   4.131   3.555   3.909  4.6783 -0.9538  0.9519
 4999SOL    HW226457   4.165   3.427   3.975 -1.9762 -1.6605  0.9924
 5000SOL     OW26458   2.133   3.908   3.082 -0.6652 -0.0331 -0.0959
 5000SOL    HW126459   2.164   3.838   3.024  0.7170  0.0766  0.4990
 5000SOL    HW226460   2.216   3.953   3.096 -0.9612  1.1361 -2.0926
 5001SOL     OW26461   4.406   1.319   3.285  0.0612  0.3124  0.0689
 5001SOL    HW126462   4.330   1.263   3.267  1.6444 -1.2981 -1.4946
 5001SOL    HW226463   4.455   1.283   3.212  0.6791  1.4445 -0.0754
 5002SOL     OW26464   4.549   2.714   2.628  0.4871 -0.4968 -0.1678
 5002SOL    HW126465   4.614   2.751   2.688 -1.1931  1.2946  0.5355
 5002SOL    HW226466   4.505   2.799   2.617 -2.2554 -1.9116 -0.1123
 5003SOL     OW26467   0.219   3.634   2.378  0.0069 -0.9959  0.3491
 5003SOL    HW126468   0.262   3.700   2.433 -0.9069  0.1948 -0.3573
 5003SOL    HW226469   0.164   3.595   2.446  0.0593  1.5545  1.8636
 5004SOL     OW26470   2.763   0.589  14.294  0.0156 -0.0102  0.6093
 5004SOL    HW126471   2.734   0.514  14.242 -3.5823  1.1852  0.8526
 5004SOL    HW226472   2.848   0.594  14.250 -0.0754 -1.0935  0.2937
 5005SOL     OW26473   2.557   0.423   1.005  0.6479 -0.0508 -1.3697
 5005SOL    HW126474   2.610   0.438   0.927  0.3454  0.2138 -1.5264
 5005SOL    HW226475   2.602   0.352   1.049 -0.4354 -1.3665 -2.3646
 5006SOL     OW26476   1.785   0.343   7.302  0.4426 -0.2802 -0.5924
 5006SOL    HW126477   1.862   0.286   7.298 -0.0669 -1.0079  0.0374
 5006SOL    HW226478   1.784   0.389   7.218 -1.0222  0.9838  0.1316
 5007SOL     OW26479   4.144   1.383  16.947 -0.3999  0.3201  0.0576
 5007SOL    HW126480   4.092   1.333  16.884 -0.0031  0.5910 -0.4917
 5007SOL    HW226481   4.231   1.343  16.952 -0.0417  1.0799  0.0675
 5008SOL     OW26482   1.659   2.499   5.526  0.7179 -0.3490  0.0431
 5008SOL    HW126483   1.603   2.565   5.485 -1.3546 -3.0784 -1.5749
 5008SOL    HW226484   1.739   2.509   5.474  1.1875  0.1216  0.8606
 5009SOL     OW26485   1.662   2.856   7.623  0.5417  0.3155  0.3085
 5009SOL    HW126486   1.629   2.786   7.679  1.3008 -0.5426 -0.2932
 5009SOL    HW226487   1.758   2.853   7.633  0.5871  0.0661 -0.1524
 5010SOL     OW26488   3.893   1.497   1.283 -0.1278  0.0263 -0.5234
 5010SOL    HW126489   3.834   1.490   1.359  0.3056 -3.1115 -0.4561
 5010SOL    HW226490   3.950   1.571   1.302  1.2581 -1.3359  0.6183
 5011SOL     OW26491   3.708   1.532  17.526 -0.0526 -0.5698 -0.0992
 5011SOL    HW126492   3.777   1.591  17.555  0.9465 -1.2860 -1.0065
 5011SOL    HW226493   3.636   1.588  17.554  1.0596  1.3188 -1.0617
 5012SOL     OW26494   1.422   3.868  13.793  0.4391  0.6139  0.5028
 5012SOL    HW126495   1.368   3.816  13.851  0.1828 -0.6135 -0.8413
 5012SOL    HW226496   1.512   3.835  13.800 -0.3532 -1.4330  0.8566
 5013SOL     OW26497   3.946   3.672   8.611  0.2141  0.2836  0.2668
 5013SOL    HW126498   3.868   3.694   8.561 -0.4820 -1.5478  0.5573
 5013SOL    HW226499   3.909   3.646   8.695 -1.1590  0.3964 -0.3094
 5014SOL     OW26500   0.262   3.489   6.452 -0.0251 -0.3597 -0.3868
 5014SOL    HW126501   0.274   3.403   6.492  2.1121 -0.7287 -1.8254
 5014SOL    HW226502   0.325   3.543   6.501  2.7628 -1.3599 -2.8546
 5015SOL     OW26503   1.105   3.853   8.969 -0.3462  0.0451 -0.4129
 5015SOL    HW126504   1.143   3.874   9.054 -1.1770  1.0652 -0.2979
 5015SOL    HW226505   1.166   3.906   8.917 -2.7050  1.4660 -1.7173
 5016SOL     OW26506   3.895   3.550   8.293 -0.1411  0.6077  0.0250
 5016SOL    HW126507   3.827   3.526   8.229 -1.0951  2.5115  0.3246
 5016SOL    HW226508   3.851   3.614   8.348  0.2834  2.1160 -1.4095
 5017SOL     OW26509   0.678   1.598   6.134  0.1689  0.1498  0.5217
 5017SOL    HW126510   0.664   1.506   6.155  1.9259 -0.4998 -1.2461
 5017SOL    HW226511   0.665   1.641   6.219  1.8173  0.6507  0.5105
 5018SOL     OW26512   2.203   0.799   5.877  0.1694 -0.3286  0.0602
 5018SOL    HW126513   2.296   0.781   5.864  0.4086  0.9080  0.0277
 5018SOL    HW226514   2.176   0.708   5.881 -0.4239 -0.1322  0.5790
 5019SOL     OW26515   0.743   4.591  10.583  0.1280 -0.5108  0.6436
 5019SOL    HW126516   0.672   4.599  10.519 -0.5637  0.2865  1.5180
 5019SOL    HW226517   0.763   4.500  10.560 -0.6835 -0.5888  0.2454
 5020SOL     OW26518   0.195   0.554  15.171  0.3725 -0.4783  0.1827
 5020SOL    HW126519   0.134   0.579  15.102  0.6511 -0.1329  0.0608
 5020SOL    HW226520   0.221   0.639  15.207 -0.0632  0.3375 -1.4126
 5021SOL     OW26521   2.335   1.352   5.638  0.1843 -0.2344 -0.0052
 5021SOL    HW126522   2.426   1.345   5.665  0.4298 -0.5917 -0.9267
 5021SOL    HW226523   2.289   1.291   5.696 -0.1147  0.5533  0.5826
 5022SOL     OW26524   3.066   2.456   0.409  0.3486 -0.1839  0.7740
 5022SOL    HW126525   3.142   2.492   0.363 -1.3408  1.5887 -0.6616
 5022SOL    HW226526   3.004   2.430   0.341  1.6739 -0.1834 -0.4232
 5023SOL     OW26527   1.122   1.363   1.825 -0.0941  0.2164 -0.3146
 5023SOL    HW126528   1.122   1.336   1.733  1.3021 -0.7086 -0.0390
 5023SOL    HW226529   1.171   1.290   1.862  0.2475  1.2152  1.1789
 5024SOL     OW26530   3.754   0.693   0.734  0.1160 -0.2062 -0.4635
 5024SOL    HW126531   3.804   0.716   0.656  0.5532 -1.7782 -0.6540
 5024SOL    HW226532   3.681   0.642   0.699  0.3365 -1.1775  0.4658
 5025SOL     OW26533   0.988   4.515  10.770  0.3697  0.1081 -0.1460
 5025SOL    HW126534   1.073   4.538  10.731 -0.1606  1.6902 -0.3661
 5025SOL    HW226535   0.931   4.578  10.725 -0.9828 -0.5148  0.7053
 5026SOL     OW26536   3.861   4.371  10.757 -0.1214 -0.3346 -0.1718
 5026SOL    HW126537   3.795   4.410  10.699 -0.1135  0.8273  0.6126
 5026SOL    HW226538   3.809   4.290  10.763  1.4697 -1.3121  0.4027
 5027SOL     OW26539   0.811   0.527   8.397 -0.2462  0.7106 -0.2617
 5027SOL    HW126540   0.837   0.581   8.322  3.0645  1.9462  1.7606
 5027SOL    HW226541   0.717   0.536   8.383 -0.3277  0.8785  0.3883
 5028SOL     OW26542   1.165   2.667  10.751  0.0708 -0.0999  0.4987
 5028SOL    HW126543   1.205   2.627  10.673 -0.2845  0.2613  0.1314
 5028SOL    HW226544   1.240   2.675  10.810  0.6786 -1.3047 -0.0896
 5029SOL     OW26545   4.170   0.013   0.573 -0.2428  0.0918  0.2854
 5029SOL    HW126546   4.168   0.014   0.478  1.7510 -1.0535  0.2194
 5029SOL    HW226547   4.237   0.079   0.594  1.8107 -1.5544 -1.1329
 5030SOL     OW26548   3.832   4.343  16.409  0.6440  0.1640 -0.3375
 5030SOL    HW126549   3.757   4.333  16.350 -1.4154  2.2293  1.9431
 5030SOL    HW226550   3.789   4.351  16.494  1.2413  0.5233 -0.0713
 5031SOL     OW26551   2.432   2.391   1.495  0.4502  0.2252  0.4189
 5031SOL    HW126552   2.354   2.342   1.521  0.3369  0.5751  0.7442
 5031SOL    HW226553   2.389   2.476   1.487 -1.0338 -0.5754  0.0001
 5032SOL     OW26554   1.613   1.535   2.866 -0.5944 -0.3519 -0.1999
 5032SOL    HW126555   1.632   1.490   2.948 -4.0066 -2.2826 -0.4447
 5032SOL    HW226556   1.617   1.457   2.811  1.0062  0.9720 -1.9547
 5033SOL     OW26557   1.691   2.250   5.859 -0.2650 -0.1066 -0.0505
 5033SOL    HW126558   1.754   2.303   5.809  0.4866 -0.2677  0.7322
 5033SOL    HW226559   1.696   2.301   5.939 -0.1675 -2.8005  1.6606
 5034SOL     OW26560   3.118   4.062   9.719 -0.3731  0.5812 -0.2480
 5034SOL    HW126561   3.200   4.017   9.698 -1.3150 -1.1001 -0.2678
 5034SOL    HW226562   3.142   4.155   9.713 -1.3604  0.8482 -0.0219
 5035SOL     OW26563   0.940   2.227   4.208 -0.3426  0.1001 -0.4213
 5035SOL    HW126564   0.923   2.312   4.250  1.0765  0.4092 -0.4623
 5035SOL    HW226565   0.869   2.175   4.245 -1.1314  0.3322 -1.6137
 5036SOL     OW26566   2.265   4.141   8.280 -0.2256  0.0519 -0.2610
 5036SOL    HW126567   2.194   4.190   8.238 -0.1596  0.4881  0.1276
 5036SOL    HW226568   2.337   4.197   8.253  0.6879 -1.3474 -0.6698
 5037SOL     OW26569   0.886   3.019   3.413 -0.3321  0.0844 -1.0389
 5037SOL    HW126570   0.901   2.930   3.380 -3.5456 -0.2518 -1.5446
 5037SOL    HW226571   0.961   3.033   3.471 -1.3091 -0.7279  0.4126
 5038SOL     OW26572   1.058   4.689   8.954 -0.3800  0.1666  0.4609
 5038SOL    HW126573   1.034   4.596   8.949  1.6190 -0.3872  1.1175
 5038SOL    HW226574   1.003   4.716   9.028 -0.2201  0.5456  0.4399
 5039SOL     OW26575   0.528   2.024   9.490 -0.0655  0.2235  0.0407
 5039SOL    HW126576   0.574   1.965   9.430  0.2060 -0.6787  1.1405
 5039SOL    HW226577   0.464   2.060   9.429  0.8775  1.0341 -0.4737
 5040SOL     OW26578   0.127   0.883   6.499  0.2287  0.2948 -0.1690
 5040SOL    HW126579   0.117   0.955   6.438  2.1124 -0.1365 -0.9930
 5040SOL    HW226580   0.191   0.932   6.552  0.3160  0.8782 -0.8202
 5041SOL     OW26581   4.522   3.817  14.846 -0.1659 -0.5139 -0.3416
 5041SOL    HW126582   4.518   3.911  14.863 -0.6926 -0.9822  2.1211
 5041SOL    HW226583   4.437   3.790  14.880  1.0554 -3.1673  0.6145
 5042SOL     OW26584   0.729   3.367   6.968  0.1865  0.0163 -0.1457
 5042SOL    HW126585   0.742   3.460   6.985  0.7311  0.0336 -0.6690
 5042SOL    HW226586   0.821   3.341   6.962  0.6950  1.8401 -0.1597
 5043SOL     OW26587   3.075   0.172   4.889  0.0961  0.4657  0.0183
 5043SOL    HW126588   3.118   0.154   4.973 -0.8185 -0.9564  0.1678
 5043SOL    HW226589   3.149   0.172   4.828 -0.6173 -3.5429 -0.8395
 5044SOL     OW26590   3.404   0.964   2.031 -0.6601  0.5248  0.2079
 5044SOL    HW126591   3.309   0.950   2.031 -0.0557 -3.4892 -0.4353
 5044SOL    HW226592   3.416   1.020   1.955  0.7425 -0.2975 -0.1640
 5045SOL     OW26593   4.267   4.073   5.948  0.4716 -0.0220  0.1108
 5045SOL    HW126594   4.258   4.120   5.865  0.5932  0.5535  0.4233
 5045SOL    HW226595   4.234   3.985   5.930 -0.8615  0.7703 -1.3228
 5046SOL     OW26596   0.057   4.578   6.416  0.0693  0.4584  0.0507
 5046SOL    HW126597   0.100   4.504   6.371  0.6998  0.0382  1.3550
 5046SOL    HW226598   0.062   4.550   6.507  1.7585  0.9358  0.1105
 5047SOL     OW26599   4.203   3.672  13.300  0.2515  0.4737 -0.1689
 5047SOL    HW126600   4.162   3.728  13.365 -1.7784 -1.9657  0.6465
 5047SOL    HW226601   4.292   3.706  13.297 -0.8251  3.1372 -1.3142
 5048SOL     OW26602   2.644   2.755   7.732 -0.3501 -0.3325  0.1892
 5048SOL    HW126603   2.662   2.697   7.807  0.4261  2.5026  2.2079
 5048SOL    HW226604   2.560   2.724   7.699  0.6938 -0.0286 -2.7061
 5049SOL     OW26605   1.369   2.352   2.868  0.2005 -0.6253 -0.2200
 5049SOL    HW126606   1.409   2.299   2.799 -0.2942  0.4524 -1.3409
 5049SOL    HW226607   1.346   2.437   2.831 -1.6196 -0.2438  1.7864
 5050SOL     OW26608   2.180   3.473   6.805 -0.3127  0.2547 -0.7504
 5050SOL    HW126609   2.117   3.538   6.835 -1.4010 -0.8790 -0.5750
 5050SOL    HW226610   2.191   3.422   6.885  0.7171 -0.3315 -1.2647
 5051SOL     OW26611   1.357   3.692   9.740 -0.0603 -0.1160 -0.3940
 5051SOL    HW126612   1.365   3.783   9.770  0.7898 -0.1316 -0.5878
 5051SOL    HW226613   1.360   3.645   9.823  1.4129 -0.7850 -0.8314
 5052SOL     OW26614   0.455   1.632   4.236 -0.4170 -0.3259 -0.0873
 5052SOL    HW126615   0.363   1.636   4.263 -0.3926 -0.5572  0.0338
 5052SOL    HW226616   0.446   1.575   4.160  1.3523  2.2583 -2.2368
 5053SOL     OW26617   1.961   3.436  11.648 -0.7838 -0.0398 -0.5654
 5053SOL    HW126618   2.015   3.515  11.633  1.3677 -1.8470 -2.4199
 5053SOL    HW226619   1.888   3.452  11.589  0.1494 -1.0560 -2.0154
 5054SOL     OW26620   4.502   3.425   2.095  0.4891  0.0190  0.2944
 5054SOL    HW126621   4.509   3.402   2.003 -1.3862  0.9968 -0.1039
 5054SOL    HW226622   4.571   3.369   2.131  0.3973  0.3958  1.0684
 5055SOL     OW26623   4.541   4.680   5.989 -0.3576 -0.7019  0.2242
 5055SOL    HW126624   4.570   4.605   5.938 -0.7187  0.4148 -1.6123
 5055SOL    HW226625   4.452   4.652   6.012  0.5868 -1.5805  2.8993
 5056SOL     OW26626   4.360   4.623  17.516 -0.4919 -0.0065  0.4829
 5056SOL    HW126627   4.267   4.637  17.499 -0.4212 -0.8300 -0.6161
 5056SOL    HW226628   4.416   4.653  17.444 -2.1280  0.6008 -0.5248
 5057SOL     OW26629   3.043   0.038  10.921 -0.2254 -0.0578 -0.2208
 5057SOL    HW126630   2.959   0.003  10.953  0.8610 -1.1781  1.4367
 5057SOL    HW226631   3.108   0.004  10.982  0.3844  1.5691  0.0349
 5058SOL     OW26632   1.396   2.532   2.416  0.1694  0.0572 -0.8741
 5058SOL    HW126633   1.401   2.548   2.322  0.0682  3.1295 -0.3592
 5058SOL    HW226634   1.331   2.461   2.416 -0.4962  0.6599  2.4745
 5059SOL     OW26635   3.560   3.464   8.755 -0.3950  0.1228 -0.1866
 5059SOL    HW126636   3.478   3.433   8.792 -0.2045  0.3727  0.4328
 5059SOL    HW226637   3.613   3.384   8.755 -0.6777 -0.0693 -2.7399
 5060SOL     OW26638   2.676   2.134   4.514 -0.0811 -0.1861 -0.5904
 5060SOL    HW126639   2.732   2.057   4.524  0.4104  0.2506 -0.0008
 5060SOL    HW226640   2.732   2.201   4.552  0.7066 -1.1255 -0.0778
 5061SOL     OW26641   0.938   3.520   3.635  0.2227 -0.6176 -0.0940
 5061SOL    HW126642   1.015   3.464   3.628  1.4914  0.4938  4.5762
 5061SOL    HW226643   0.868   3.474   3.588  1.6991 -2.3000 -0.6105
 5062SOL     OW26644   4.550   0.770   4.793  0.7130 -0.3988 -0.2121
 5062SOL    HW126645   4.624   0.783   4.733  2.4530 -1.1363  1.7914
 5062SOL    HW226646   4.531   0.860   4.818 -0.0156 -1.0705  1.6896
 5063SOL     OW26647   1.024   3.057   3.041  0.3544  0.3181 -0.2452
 5063SOL    HW126648   1.001   3.077   2.950  1.7569 -0.3965 -0.7509
 5063SOL    HW226649   1.039   2.962   3.039  3.9470  0.8756  0.7279
 5064SOL     OW26650   1.412   0.404   4.929  0.2790  0.0134 -0.2327
 5064SOL    HW126651   1.390   0.326   4.980 -0.0347 -0.5138 -1.1843
 5064SOL    HW226652   1.450   0.460   4.997 -1.7241 -1.1858  1.8933
 5065SOL     OW26653   1.971   4.004   7.977  0.4242 -0.0955 -0.1901
 5065SOL    HW126654   2.003   4.066   8.042  0.8195 -0.3567 -0.1390
 5065SOL    HW226655   1.948   4.067   7.908 -0.9188 -0.6931 -0.3044
 5066SOL     OW26656   3.407   3.503   2.169 -0.2738 -0.1122  0.1133
 5066SOL    HW126657   3.318   3.493   2.134  0.4003 -2.9811 -0.7621
 5066SOL    HW226658   3.434   3.587   2.131  1.2715 -0.1608  1.1241
 5067SOL     OW26659   1.207   1.107   6.097 -0.1440 -0.1716 -0.8948
 5067SOL    HW126660   1.242   1.078   6.013 -0.0107 -0.1366 -0.8512
 5067SOL    HW226661   1.130   1.050   6.102 -0.0656 -0.4207 -2.7092
 5068SOL     OW26662   1.345   3.949  12.257 -0.9650 -0.2014 -0.1457
 5068SOL    HW126663   1.401   3.883  12.214 -1.2055 -1.2422  1.1340
 5068SOL    HW226664   1.409   3.982  12.320 -1.8397  0.9527  0.1216
 5069SOL     OW26665   1.993   4.529   3.093  0.4293 -0.4967  0.3838
 5069SOL    HW126666   2.064   4.592   3.094  0.5498 -0.5946 -3.0028
 5069SOL    HW226667   1.943   4.549   3.173 -0.0835  1.2675 -0.3792
 5070SOL     OW26668   0.532   0.646   9.519  0.6587  0.0870 -0.4762
 5070SOL    HW126669   0.455   0.677   9.567  0.8506 -0.6024  0.2827
 5070SOL    HW226670   0.519   0.677   9.430  1.6222  1.1734 -0.2387
 5071SOL     OW26671   1.486   1.919   8.015 -0.2114 -0.0333 -0.4343
 5071SOL    HW126672   1.407   1.868   7.994  0.7122 -1.9334  0.6691
 5071SOL    HW226673   1.543   1.843   8.029 -1.2546 -0.6367  0.5109
 5072SOL     OW26674   3.552   1.677   3.147  0.0740 -0.2047  0.2216
 5072SOL    HW126675   3.599   1.614   3.203 -1.1756 -0.5493  0.8839
 5072SOL    HW226676   3.533   1.746   3.211  0.8858  2.8038 -2.8135
 5073SOL     OW26677   1.826   3.592  13.873  0.3289 -0.4987 -0.4993
 5073SOL    HW126678   1.795   3.545  13.796 -1.3303 -1.1896  0.5894
 5073SOL    HW226679   1.855   3.517  13.925  1.5467  0.5547  0.3586
 5074SOL     OW26680   2.511   1.589   6.826  0.0854  0.1315 -0.5915
 5074SOL    HW126681   2.513   1.524   6.756  0.6894 -0.1177 -0.3409
 5074SOL    HW226682   2.603   1.610   6.840  0.5319  0.0407 -3.5090
 5075SOL     OW26683   4.600   2.446   4.002  0.7243  0.1074 -0.1357
 5075SOL    HW126684   4.565   2.474   3.917  0.9745  0.9760  0.0465
 5075SOL    HW226685   4.647   2.525   4.027  0.2877 -0.1328  1.4814
 5076SOL     OW26686   4.644   3.934   1.951 -0.2464 -0.4227 -0.7054
 5076SOL    HW126687   0.003   3.895   1.981  0.3321 -0.5637 -2.4493
 5076SOL    HW226688   4.636   3.884   1.869 -3.0016 -1.0740 -0.0353
 5077SOL     OW26689   3.019   3.575   3.957  0.7565  0.1954  0.0342
 5077SOL    HW126690   2.985   3.663   3.970  0.3282 -0.4759  3.5261
 5077SOL    HW226691   3.103   3.576   4.004 -0.5903  0.4759  2.4204
 5078SOL     OW26692   2.082   0.154   0.216 -0.4247 -0.1374 -0.2137
 5078SOL    HW126693   2.025   0.189   0.285  2.7264  1.5925  1.4614
 5078SOL    HW226694   2.086   0.236   0.167 -0.7667 -0.1883 -0.3323
 5079SOL     OW26695   1.170   4.693   4.611 -0.5340  0.3569  0.5609
 5079SOL    HW126696   1.130   0.056   4.619  0.5983  0.9139  0.3411
 5079SOL    HW226697   1.248   4.723   4.564 -1.9036  1.3340 -1.0707
 5080SOL     OW26698   1.945   1.860   0.959 -0.0636 -0.7079 -0.1541
 5080SOL    HW126699   2.024   1.869   1.011 -0.2060 -0.4012  0.0100
 5080SOL    HW226700   1.970   1.789   0.900  0.1544  1.3408 -2.5526
 5081SOL     OW26701   2.650   3.750   3.014 -0.1818  0.8164  0.7199
 5081SOL    HW126702   2.720   3.810   3.038 -0.3454  0.3870  2.3057
 5081SOL    HW226703   2.667   3.731   2.922 -1.4519  1.3354  0.3754
 5082SOL     OW26704   0.435   4.684  15.849  0.0827  0.2355  0.2933
 5082SOL    HW126705   0.462   0.003  15.768  1.4090 -1.1625 -0.0006
 5082SOL    HW226706   0.347   4.721  15.852  1.0388  2.6746 -2.5171
 5083SOL     OW26707   0.285   3.611  13.602 -0.0369 -0.2153  0.1555
 5083SOL    HW126708   0.369   3.596  13.647 -1.2270  1.3609  2.9066
 5083SOL    HW226709   0.222   3.621  13.673  1.6093 -4.0504  2.1378
 5084SOL     OW26710   2.124   2.617   4.347 -0.3622  0.3981  0.3419
 5084SOL    HW126711   2.080   2.532   4.356  0.5462 -0.1512 -0.5165
 5084SOL    HW226712   2.088   2.680   4.410  0.5122  1.1382  0.0918
 5085SOL     OW26713   0.974   0.995   1.950  0.2193 -0.4158 -0.4952
 5085SOL    HW126714   0.992   0.902   1.939  0.7490 -0.4056  0.2958
 5085SOL    HW226715   0.893   1.018   1.904 -0.4446 -1.5748  0.1048
 5086SOL     OW26716   4.366   3.201   1.357 -0.2858 -0.3349  0.2216
 5086SOL    HW126717   4.279   3.216   1.395 -0.7633 -1.9798 -0.2109
 5086SOL    HW226718   4.358   3.254   1.278  0.2722 -0.5946 -0.0016
 5087SOL     OW26719   0.720   4.598   2.056 -0.9632 -0.1817  0.3665
 5087SOL    HW126720   0.764   4.535   2.113  0.3307  1.1673  0.8348
 5087SOL    HW226721   0.779   4.673   2.057 -1.7636  0.4536  0.1857
 5088SOL     OW26722   3.167   1.698  10.644 -0.5799 -0.2776 -0.3855
 5088SOL    HW126723   3.236   1.671  10.705 -0.7367 -2.5931 -1.2195
 5088SOL    HW226724   3.224   1.734  10.577 -1.1170  0.3835 -0.4861
 5089SOL     OW26725   3.341   0.362   2.502 -0.0565  0.0073  0.1767
 5089SOL    HW126726   3.247   0.377   2.514  0.4385  1.5366  2.0300
 5089SOL    HW226727   3.368   0.449   2.529 -0.5049  0.8971 -2.2672
 5090SOL     OW26728   0.877   0.073  16.907  0.1576 -0.1287  0.2971
 5090SOL    HW126729   0.846   0.040  16.823  0.4568  0.5997 -0.1086
 5090SOL    HW226730   0.885   4.714  16.953 -1.1775 -0.8854 -0.8577
 5091SOL     OW26731   4.204   4.564  11.921  0.3178  0.0677 -0.1093
 5091SOL    HW126732   4.112   4.570  11.894  0.7432  1.9905 -1.1047
 5091SOL    HW226733   4.202   4.497  11.990 -1.1397  1.1858  0.9242
 5092SOL     OW26734   1.214   1.484   4.803 -0.3438  0.4419 -0.8883
 5092SOL    HW126735   1.294   1.498   4.752  1.0366  0.3420  1.2355
 5092SOL    HW226736   1.225   1.553   4.868 -1.1559 -0.1109 -0.1704
 5093SOL     OW26737   1.177   0.148   8.345  0.6640 -0.0141 -0.0089
 5093SOL    HW126738   1.244   0.180   8.406 -0.7722 -0.2080  1.6786
 5093SOL    HW226739   1.222   0.066   8.322 -1.7437 -1.6199  0.9556
 5094SOL     OW26740   1.444   1.280  10.408  0.0741 -0.2428  0.0434
 5094SOL    HW126741   1.400   1.279  10.493  0.9639  0.7262  0.5114
 5094SOL    HW226742   1.527   1.239  10.434 -0.9354 -2.4555 -0.1700
 5095SOL     OW26743   0.214   3.067   2.408  0.5904  0.3176  0.4253
 5095SOL    HW126744   0.135   3.116   2.383  0.6902 -0.6400 -1.7532
 5095SOL    HW226745   0.167   2.988   2.435  0.9878  1.5561  4.6238
 5096SOL     OW26746   3.535   2.396   7.670 -0.2675  0.1224  0.1326
 5096SOL    HW126747   3.496   2.319   7.713  0.7626 -0.2760  0.3533
 5096SOL    HW226748   3.626   2.386   7.695 -0.2171  1.7832  0.6068
 5097SOL     OW26749   1.877   2.251   1.256  0.5554 -0.1077  0.2019
 5097SOL    HW126750   1.971   2.238   1.261  0.6016 -0.5973 -1.7393
 5097SOL    HW226751   1.858   2.190   1.185  1.6431  2.0655 -1.9629
 5098SOL     OW26752   1.766   0.575   0.950 -0.2350 -0.0573 -0.2255
 5098SOL    HW126753   1.826   0.521   0.899 -0.2136  1.1581 -1.4646
 5098SOL    HW226754   1.799   0.657   0.915 -0.5575  0.6509  1.1251
 5099SOL     OW26755   0.955   2.204   3.545  0.2153 -0.4498  0.4633
 5099SOL    HW126756   0.883   2.211   3.481 -0.8677  1.6814  1.9019
 5099SOL    HW226757   0.988   2.294   3.535  1.0482 -0.5889  1.9952
 5100SOL     OW26758   0.155   2.900   5.282  0.5309  0.2190  0.5600
 5100SOL    HW126759   0.110   2.964   5.225  2.2775  1.1434  0.2361
 5100SOL    HW226760   0.078   2.870   5.330  0.8958 -1.0171  0.3540
 5101SOL     OW26761   4.508   1.045   2.238 -0.3389 -0.2651 -0.2456
 5101SOL    HW126762   4.561   1.119   2.210  1.4174 -0.6975  1.9599
 5101SOL    HW226763   4.477   1.073   2.324  0.4568 -0.7901  0.2080
 5102SOL     OW26764   3.697   0.033   6.904  0.1193  0.3981  0.1306
 5102SOL    HW126765   3.676   0.116   6.946  1.2092  0.8044 -0.1217
 5102SOL    HW226766   3.645   0.040   6.824 -1.1148 -0.0421  0.9048
 5103SOL     OW26767   1.396   0.519   8.875 -0.3902  0.0959 -0.2195
 5103SOL    HW126768   1.461   0.457   8.844  1.4524  0.4052  3.0226
 5103SOL    HW226769   1.381   0.485   8.963  0.1181  2.5016  0.8171
 5104SOL     OW26770   4.558   2.780   4.298  0.0527 -0.6525  0.7277
 5104SOL    HW126771   4.470   2.807   4.271  0.7490 -1.4318 -2.2996
 5104SOL    HW226772   4.605   2.846   4.246  0.5944 -0.8162  1.0155
 5105SOL     OW26773   2.576   3.121   7.622 -0.1848 -0.1726  0.3033
 5105SOL    HW126774   2.569   3.212   7.651 -2.5944 -0.0339 -0.7208
 5105SOL    HW226775   2.503   3.126   7.560  2.7161  0.2650 -3.1233
 5106SOL     OW26776   0.371   2.377   3.012 -0.5025  0.1527  0.1330
 5106SOL    HW126777   0.367   2.282   3.023  0.5326  0.0921 -0.0395
 5106SOL    HW226778   0.442   2.388   2.949 -1.2850  1.9212 -0.4596
 5107SOL     OW26779   2.061   0.685   0.365 -0.2505  0.5174  0.6733
 5107SOL    HW126780   2.092   0.605   0.409  0.6394 -0.5564 -1.9282
 5107SOL    HW226781   2.024   0.731   0.440  0.6019 -0.8645  1.9491
 5108SOL     OW26782   2.163   0.323   8.295  0.0355 -0.3017 -0.5224
 5108SOL    HW126783   2.150   0.237   8.256 -2.8587 -1.2618  2.4989
 5108SOL    HW226784   2.081   0.371   8.283 -0.5290 -0.7799  1.3472
 5109SOL     OW26785   0.189   1.418   0.825 -0.4403 -0.2563 -0.4681
 5109SOL    HW126786   0.251   1.347   0.844  0.3514  0.4482 -0.4586
 5109SOL    HW226787   0.160   1.430   0.915 -1.1055  0.5333 -0.7895
 5110SOL     OW26788   0.947   2.803   8.536  0.9153  0.3338  0.4456
 5110SOL    HW126789   0.939   2.898   8.548 -0.1809  0.2432  0.4985
 5110SOL    HW226790   0.967   2.813   8.443  1.0872 -0.6331  0.3804
 5111SOL     OW26791   1.100   3.526   6.056 -0.4992  0.2072 -0.9038
 5111SOL    HW126792   1.190   3.499   6.038 -0.2708 -0.2026  0.8876
 5111SOL    HW226793   1.065   3.457   6.000 -0.6595 -0.2380 -0.2403
 5112SOL     OW26794   1.291   2.016   6.899 -0.3775 -0.0199  0.2509
 5112SOL    HW126795   1.328   2.054   6.820  0.2081  0.4965  0.7739
 5112SOL    HW226796   1.359   2.014   6.966 -0.7005  0.8061  0.6078
 5113SOL     OW26797   2.836   2.599   3.507 -0.8559 -0.1884  0.3408
 5113SOL    HW126798   2.813   2.513   3.544  1.5168 -0.1141  1.9337
 5113SOL    HW226799   2.758   2.624   3.457 -0.9937 -0.7728  0.2587
 5114SOL     OW26800   1.802   0.261   4.849  0.9329  0.4939  0.2501
 5114SOL    HW126801   1.755   0.185   4.816 -1.4366  2.2045 -0.2707
 5114SOL    HW226802   1.795   0.254   4.944 -1.0575 -2.5712 -0.1525
 5115SOL     OW26803   4.517   3.510   6.171 -0.4032  0.1586  0.1783
 5115SOL    HW126804   4.598   3.534   6.127 -0.8314 -0.2093 -0.8043
 5115SOL    HW226805   4.495   3.440   6.109  1.6798 -1.0232  0.7553
 5116SOL     OW26806   2.650   2.529   3.775  0.0813 -0.4091  0.2008
 5116SOL    HW126807   2.555   2.522   3.784  0.2513 -0.2609  2.1062
 5116SOL    HW226808   2.679   2.605   3.826  1.9190 -0.5625 -0.6192
 5117SOL     OW26809   4.601   1.021  14.701  0.0515 -0.4185 -0.0376
 5117SOL    HW126810   4.577   0.970  14.779  2.3666 -0.4131  0.6906
 5117SOL    HW226811   4.531   1.001  14.640 -0.2942 -2.3249  0.9852
 5118SOL     OW26812   3.555   4.061  16.355  0.0896 -0.0841 -0.0546
 5118SOL    HW126813   3.608   3.997  16.309  1.3551  1.1649 -0.3313
 5118SOL    HW226814   3.551   4.031  16.446  0.0568  0.6650  0.1911
 5119SOL     OW26815   2.027   0.426   6.141 -0.1842  0.2762 -0.2549
 5119SOL    HW126816   2.039   0.514   6.177  1.2828 -0.6407  1.4894
 5119SOL    HW226817   2.063   0.385   6.220  1.5861 -1.3052 -1.8936
 5120SOL     OW26818   3.318   3.674  11.755 -0.1911 -0.5548  0.2695
 5120SOL    HW126819   3.331   3.647  11.664  2.3636 -2.5085  1.2150
 5120SOL    HW226820   3.348   3.764  11.754  0.6793 -0.8573 -0.2308
 5121SOL     OW26821   0.811   0.730   8.667 -0.1850 -0.2243  0.1352
 5121SOL    HW126822   0.873   0.735   8.739 -0.4847  0.6325  0.3420
 5121SOL    HW226823   0.865   0.711   8.590 -0.8122 -2.2199  0.1955
 5122SOL     OW26824   4.582   0.442   8.064  0.0551 -0.3690  0.0541
 5122SOL    HW126825   4.664   0.410   8.026  0.7145  2.2994 -0.7541
 5122SOL    HW226826   4.531   0.384   8.006 -2.3741  0.0331  1.7765
 5123SOL     OW26827   0.526   1.042   4.010 -0.1329  0.0940  0.3709
 5123SOL    HW126828   0.439   1.055   3.973  0.1464  0.6244 -0.1032
 5123SOL    HW226829   0.569   1.020   3.927 -0.2719 -3.2755  1.2339
 5124SOL     OW26830   3.489   0.982   5.531  0.4728  0.1246 -0.3384
 5124SOL    HW126831   3.523   0.972   5.441  0.6718  1.2222 -0.3837
 5124SOL    HW226832   3.520   1.071   5.550 -4.2532  1.6912 -0.0515
 5125SOL     OW26833   3.862   3.880  10.719 -0.1808  0.3484 -0.5124
 5125SOL    HW126834   3.875   3.966  10.680 -4.0446  1.5266  0.8057
 5125SOL    HW226835   3.875   3.823  10.644  0.0650  0.9193 -0.8990
 5126SOL     OW26836   0.950   0.763   6.886 -0.5616  0.0347  0.0297
 5126SOL    HW126837   0.943   0.761   6.791 -0.2178  0.4821 -0.0028
 5126SOL    HW226838   1.038   0.731   6.907 -0.5853 -0.2561 -0.3100
 5127SOL     OW26839   2.976   3.910   4.375  0.0479 -0.6029 -0.8616
 5127SOL    HW126840   2.959   3.880   4.465  0.5520 -0.0340 -0.5772
 5127SOL    HW226841   3.061   3.952   4.389 -0.5907  0.4078  0.0057
 5128SOL     OW26842   2.815   4.409   4.126 -0.0392  0.6716 -0.3579
 5128SOL    HW126843   2.747   4.473   4.147  1.1416  1.3954  1.2411
 5128SOL    HW226844   2.799   4.390   4.034 -0.0879 -0.2061 -0.1676
 5129SOL     OW26845   2.056   4.280   8.135  0.2112  0.1175 -0.8308
 5129SOL    HW126846   2.021   4.366   8.111 -0.8327  0.1918  0.9538
 5129SOL    HW226847   1.987   4.259   8.197  2.0204 -1.6804  0.5732
 5130SOL     OW26848   0.102   1.221   2.489 -0.3319  0.2164 -0.2403
 5130SOL    HW126849   0.085   1.134   2.523 -0.0389 -0.1688 -1.0731
 5130SOL    HW226850   0.181   1.250   2.536 -0.0355  1.0787 -1.2534
 5131SOL     OW26851   2.220   3.554   5.193  0.1029  1.0130 -0.3626
 5131SOL    HW126852   2.183   3.559   5.105 -0.2713  0.2438 -0.2540
 5131SOL    HW226853   2.161   3.610   5.242 -0.7587  1.7790 -2.2832
 5132SOL     OW26854   1.200   1.499  13.625 -0.1324  1.0950 -0.8846
 5132SOL    HW126855   1.211   1.591  13.649 -0.4619  0.8464  0.2436
 5132SOL    HW226856   1.281   1.479  13.577  0.6788 -0.4537  1.1151
 5133SOL     OW26857   1.628   3.263   4.822  0.0525 -0.3055 -0.3892
 5133SOL    HW126858   1.567   3.213   4.876 -1.4558  0.7842 -1.0994
 5133SOL    HW226859   1.611   3.230   4.734  0.1826 -2.7011  0.4676
 5134SOL     OW26860   1.643   3.651   3.443  0.0935 -0.2089 -0.3059
 5134SOL    HW126861   1.687   3.662   3.527 -1.0138 -0.8836  0.3510
 5134SOL    HW226862   1.678   3.570   3.407  0.6820  0.5378 -1.4471
 5135SOL     OW26863   3.390   1.187   2.724  0.0464 -0.1778 -0.3444
 5135SOL    HW126864   3.303   1.197   2.685  0.1600 -0.7539 -0.7430
 5135SOL    HW226865   3.414   1.279   2.738 -2.3238  0.2282  1.0466
 5136SOL     OW26866   2.941   3.301   4.003  0.1802  0.5231 -0.3204
 5136SOL    HW126867   2.959   3.393   3.983  0.6638 -0.0313 -2.4703
 5136SOL    HW226868   2.851   3.301   3.970 -0.3412  0.5916  1.1234
 5137SOL     OW26869   3.636   0.389   4.738  0.0815  0.0931  0.7107
 5137SOL    HW126870   3.670   0.408   4.650 -0.2454 -2.2732  0.0792
 5137SOL    HW226871   3.623   0.295   4.726 -0.4812  0.1392  0.9566
 5138SOL     OW26872   4.539   2.599   7.906 -0.0905 -0.4451  0.3020
 5138SOL    HW126873   4.555   2.564   7.819 -1.4726  1.1520 -0.5867
 5138SOL    HW226874   4.619   2.569   7.951  0.7083  1.6832  0.2843
 5139SOL     OW26875   3.875   3.527   6.592  0.3066 -0.2917 -0.2351
 5139SOL    HW126876   3.855   3.614   6.558 -0.8301 -1.3342 -2.2390
 5139SOL    HW226877   3.798   3.514   6.647 -0.8275  3.9682 -0.8436
 5140SOL     OW26878   4.052   1.234  15.736 -0.4657  0.4837  0.1408
 5140SOL    HW126879   3.986   1.236  15.666  0.2054 -0.2673 -0.5135
 5140SOL    HW226880   4.000   1.204  15.810 -0.6221  2.7592  0.9681
 5141SOL     OW26881   3.890   3.059   5.416 -0.8964  0.5328 -0.1987
 5141SOL    HW126882   3.880   2.965   5.430 -0.7570  0.8066  1.7087
 5141SOL    HW226883   3.806   3.089   5.380 -0.7998 -0.4502 -1.2386
 5142SOL     OW26884   3.162   2.409   4.674  0.1606 -0.3168  0.3651
 5142SOL    HW126885   3.188   2.389   4.584  2.4624  1.5646  0.6130
 5142SOL    HW226886   3.117   2.491   4.657  1.1956  0.3167  0.6602
 5143SOL     OW26887   2.904   4.383  14.070 -0.6116 -0.4239  0.2852
 5143SOL    HW126888   2.817   4.383  14.030 -0.3740  1.8434 -0.2118
 5143SOL    HW226889   2.930   4.291  14.069  0.2497 -0.1874  0.9431
 5144SOL     OW26890   1.788   4.548   2.719  0.1483  0.6304 -0.0619
 5144SOL    HW126891   1.839   4.481   2.764  1.6717  0.7668 -1.5520
 5144SOL    HW226892   1.764   4.506   2.636  1.1542  2.8478 -1.4806
 5145SOL     OW26893   2.362   2.373   4.208  0.0969 -0.3516 -0.4322
 5145SOL    HW126894   2.392   2.432   4.277 -0.7948  0.7540 -0.9915
 5145SOL    HW226895   2.350   2.295   4.262  2.3480 -1.8683 -2.1117
 5146SOL     OW26896   3.361   4.519  10.601 -0.6171 -0.3085  0.0569
 5146SOL    HW126897   3.324   4.556  10.682 -1.6374  0.0846 -0.5797
 5146SOL    HW226898   3.275   4.504  10.561 -0.7258  1.8267 -0.4793
 5147SOL     OW26899   2.164   3.853   2.663 -0.0896  0.5836  0.7659
 5147SOL    HW126900   2.135   3.823   2.577  0.2789 -1.6743  1.4226
 5147SOL    HW226901   2.258   3.864   2.648 -0.3818  2.2612  0.1771
 5148SOL     OW26902   2.253   2.099   2.346 -0.4243  0.4233 -0.2737
 5148SOL    HW126903   2.344   2.080   2.369 -1.1873 -2.4372  0.3324
 5148SOL    HW226904   2.257   2.154   2.267  2.0128  4.1285  2.3904
 5149SOL     OW26905   1.214   1.496   8.193  0.5112  0.6214 -0.1338
 5149SOL    HW126906   1.130   1.507   8.237  0.5915 -1.2966  0.5271
 5149SOL    HW226907   1.265   1.572   8.222  0.1249  1.8148 -2.6906
 5150SOL     OW26908   4.551   1.194   9.039 -0.1885  0.1393 -0.4749
 5150SOL    HW126909   4.531   1.284   9.016 -0.3936  0.2746  0.2232
 5150SOL    HW226910   4.578   1.150   8.959  1.5858 -1.1746  0.8220
 5151SOL     OW26911   0.869   0.346   1.026  0.8505 -0.2773  0.1907
 5151SOL    HW126912   0.907   0.346   1.114 -0.6112  1.5202  0.8234
 5151SOL    HW226913   0.948   0.333   0.974  1.2711 -0.5000  0.8868
 5152SOL     OW26914   0.207   2.150   3.455  0.2829  0.5791 -0.3806
 5152SOL    HW126915   0.275   2.217   3.460  0.3307  0.3193  2.3002
 5152SOL    HW226916   0.155   2.171   3.378  0.9991  3.0889 -0.1786
 5153SOL     OW26917   4.242   0.548   6.154 -0.4601  0.4245 -0.0507
 5153SOL    HW126918   4.218   0.578   6.242  0.4408  1.4680 -0.1702
 5153SOL    HW226919   4.272   0.627   6.110  3.2281 -0.3944  0.9540
 5154SOL     OW26920   2.745   2.260   6.992  0.1756 -0.1412  0.4124
 5154SOL    HW126921   2.669   2.224   6.946  0.3901  2.5821 -2.0630
 5154SOL    HW226922   2.806   2.193   6.961 -0.2207 -0.7713  1.0008
 5155SOL     OW26923   0.288   0.764   5.300  0.3071  0.6070 -0.1895
 5155SOL    HW126924   0.215   0.756   5.240 -1.2760  1.6012  1.5893
 5155SOL    HW226925   0.345   0.700   5.257 -3.2026 -1.9833 -0.9084
 5156SOL     OW26926   1.944   0.945   6.538  0.0351  0.0945  0.7803
 5156SOL    HW126927   1.849   0.949   6.549 -0.2069  0.3990 -1.4247
 5156SOL    HW226928   1.971   1.032   6.570 -0.9277  0.4233  0.7124
 5157SOL     OW26929   1.618   4.009   3.505 -0.0739  0.0072  0.4733
 5157SOL    HW126930   1.664   3.996   3.422 -1.4302 -0.9142 -0.1352
 5157SOL    HW226931   1.689   3.995   3.568  0.9763 -1.1718 -0.9763
 5158SOL     OW26932   4.132   3.446  10.856  0.3376  0.1358 -0.5871
 5158SOL    HW126933   4.042   3.441  10.888  0.4181 -1.7766 -0.6855
 5158SOL    HW226934   4.172   3.379  10.911  0.2394  1.1307  0.7024
 5159SOL     OW26935   1.967   0.393  12.603 -0.5556  0.0586  0.9453
 5159SOL    HW126936   1.995   0.301  12.606 -0.4768  0.0958  1.2939
 5159SOL    HW226937   2.032   0.429  12.663 -0.3129  1.4845 -0.1831
 5160SOL     OW26938   2.544   2.490  15.014  0.1125 -0.0373  0.0936
 5160SOL    HW126939   2.604   2.427  15.054 -0.0240 -0.2128  0.0220
 5160SOL    HW226940   2.497   2.425  14.961 -0.3041  1.4320 -1.3187
 5161SOL     OW26941   3.318   3.475   7.055 -0.3971 -0.0449 -0.1656
 5161SOL    HW126942   3.310   3.546   7.119  0.9785  1.8620 -2.0804
 5161SOL    HW226943   3.410   3.457   7.075 -0.5798  0.8750  1.5481
 5162SOL     OW26944   2.026   4.385   6.544  0.2523 -0.1002 -0.8399
 5162SOL    HW126945   1.994   4.314   6.488  1.2832 -1.5996  0.5001
 5162SOL    HW226946   1.939   4.417   6.566  0.8249  1.3755 -0.7110
 5163SOL     OW26947   2.131   4.680  10.777  0.1011  0.1004  0.0423
 5163SOL    HW126948   2.184   4.630  10.839  0.4994 -1.0028 -1.1937
 5163SOL    HW226949   2.082   4.609  10.735  1.1751  0.4427 -1.7348
 5164SOL     OW26950   3.817   2.390  12.265  0.0038  0.8224 -0.4135
 5164SOL    HW126951   3.813   2.480  12.298 -2.0391  1.2913 -1.9658
 5164SOL    HW226952   3.849   2.412  12.178  0.4648 -1.9584 -0.9630
 5165SOL     OW26953   4.508   3.824   4.618 -0.4216  0.0620 -0.3202
 5165SOL    HW126954   4.602   3.841   4.624 -0.6348  0.5816  1.5312
 5165SOL    HW226955   4.504   3.846   4.525  3.1033  0.8419 -0.2869
 5166SOL     OW26956   1.327   2.195   5.956 -0.6829 -0.3075  0.2867
 5166SOL    HW126957   1.347   2.194   5.862  0.7751 -2.4622  0.6372
 5166SOL    HW226958   1.270   2.119   5.965 -0.6145 -0.6350 -2.0207
 5167SOL     OW26959   1.045   4.545   7.172  0.3932  0.2553 -0.5809
 5167SOL    HW126960   1.103   4.520   7.101 -1.0232 -0.9413 -1.3211
 5167SOL    HW226961   0.979   4.476   7.178  0.7368 -0.2271 -2.4316
 5168SOL     OW26962   0.852   2.445   1.932 -0.1970  0.0426 -0.0772
 5168SOL    HW126963   0.900   2.380   1.983  1.2756  2.3571  1.5444
 5168SOL    HW226964   0.898   2.526   1.955  2.2852 -1.4834  0.2659
 5169SOL     OW26965   4.136   2.243   3.269  0.3671  0.5075 -0.1695
 5169SOL    HW126966   4.069   2.175   3.263  0.6656  0.1485  0.6961
 5169SOL    HW226967   4.214   2.192   3.290  2.0686  3.9700  1.8171
 5170SOL     OW26968   2.213   3.784   0.116  0.1486 -0.1329  0.3300
 5170SOL    HW126969   2.260   3.712   0.158 -1.5945 -1.6729 -0.3791
 5170SOL    HW226970   2.134   3.780   0.171  0.1107  0.3573  0.3107
 5171SOL     OW26971   3.825   0.659  13.478  0.4635  0.0662 -0.1366
 5171SOL    HW126972   3.862   0.723  13.417 -0.9115  2.4919  1.5783
 5171SOL    HW226973   3.875   0.578  13.465 -0.5537 -0.2819 -1.8678
 5172SOL     OW26974   3.759   0.842   7.254 -0.2795  0.1941 -0.5356
 5172SOL    HW126975   3.814   0.868   7.180  1.5776 -2.8893 -0.2671
 5172SOL    HW226976   3.678   0.846   7.204 -0.8700  0.7127  0.4644
 5173SOL     OW26977   3.553   0.545  15.731  0.0655  0.1222 -0.1414
 5173SOL    HW126978   3.559   0.607  15.804  0.9914  0.0796 -0.1795
 5173SOL    HW226979   3.534   0.603  15.657  1.1524 -0.1256 -0.6134
 5174SOL     OW26980   4.662   2.119  17.679  0.3675 -0.0016 -0.2318
 5174SOL    HW126981   4.699   2.202   0.013 -0.8192  0.2227  0.5805
 5174SOL    HW226982   4.662   2.071   0.066  0.7505 -0.7428 -0.6621
 5175SOL     OW26983   1.261   2.792   0.466 -0.5566  0.2823 -0.0946
 5175SOL    HW126984   1.245   2.873   0.513 -2.0163  0.2032 -0.4634
 5175SOL    HW226985   1.190   2.733   0.490 -0.8570  0.2451 -1.0561
 5176SOL     OW26986   4.350   0.814   0.647 -0.0536  0.4467  0.1075
 5176SOL    HW126987   4.330   0.778   0.734  0.8884  1.2097  0.6388
 5176SOL    HW226988   4.274   0.773   0.606  0.6834  1.6229 -2.3950
 5177SOL     OW26989   1.002   3.338   2.251 -0.1596  0.3246  0.2419
 5177SOL    HW126990   1.071   3.401   2.270 -0.9171  2.1748 -2.9791
 5177SOL    HW226991   0.925   3.395   2.252 -1.6303 -1.6399 -0.2581
 5178SOL     OW26992   3.137   2.818   6.645 -0.1640 -0.1378  0.3982
 5178SOL    HW126993   3.057   2.779   6.610 -1.1241  1.2026  1.1102
 5178SOL    HW226994   3.100   2.899   6.679 -1.0762  0.6046 -2.3089
 5179SOL     OW26995   2.111   3.130   2.179 -0.0921  0.3224 -0.2516
 5179SOL    HW126996   2.111   3.047   2.133  3.7389 -0.6363  1.4908
 5179SOL    HW226997   2.053   3.177   2.119 -0.8627 -0.5445 -0.1721
 5180SOL     OW26998   1.006   1.037  14.592  0.1560  0.0174 -0.2612
 5180SOL    HW126999   0.987   1.102  14.659  0.4288 -0.4455  0.2593
 5180SOL    HW227000   1.044   1.096  14.526  1.9572 -2.4546 -1.4172
 5181SOL     OW27001   3.827   0.476  10.719 -1.0982  0.1224  0.0816
 5181SOL    HW127002   3.738   0.488  10.684 -0.9716  2.1099  0.4536
 5181SOL    HW227003   3.858   0.446  10.633 -0.9844 -2.6656  1.0924
 5182SOL     OW27004   4.385   1.256   0.687  0.5493 -0.0504 -0.1619
 5182SOL    HW127005   4.480   1.266   0.682  0.4677 -0.2742 -1.9179
 5182SOL    HW227006   4.378   1.223   0.777  1.8342  0.3458  0.0844
 5183SOL     OW27007   1.277   4.391   2.884  0.6215 -0.1481 -0.3113
 5183SOL    HW127008   1.354   4.346   2.919  0.2496 -0.3784  0.2051
 5183SOL    HW227009   1.270   4.334   2.808  0.4507  2.2529 -2.0966
 5184SOL     OW27010   1.962   1.795   7.232  0.3559  0.0667 -0.1777
 5184SOL    HW127011   1.987   1.881   7.267 -1.4922 -0.2602  1.9522
 5184SOL    HW227012   1.869   1.790   7.252  0.5855  0.2588  0.9315
 5185SOL     OW27013   3.000   1.544  11.113 -0.1846  0.4419  0.4688
 5185SOL    HW127014   2.972   1.630  11.081 -1.8073 -1.4485 -3.3183
 5185SOL    HW227015   3.054   1.570  11.187  1.6343  1.1102 -1.0916
 5186SOL     OW27016   3.030   2.521   2.039 -0.2982 -0.0757 -0.0438
 5186SOL    HW127017   3.124   2.526   2.021 -0.5428 -2.3868 -1.9166
 5186SOL    HW227018   3.008   2.559   1.953 -1.7217 -0.2579  0.2302
 5187SOL     OW27019   2.620   0.885   7.688  0.8524  0.1215 -0.0911
 5187SOL    HW127020   2.617   0.795   7.656  0.5193  0.0619  0.1086
 5187SOL    HW227021   2.640   0.864   7.779  1.7247  1.7432  0.1044
 5188SOL     OW27022   1.135   4.310   3.389 -0.6057  0.3405  0.1319
 5188SOL    HW127023   1.063   4.302   3.326  0.7415  0.5839 -1.4412
 5188SOL    HW227024   1.122   4.398   3.425 -0.9432  0.5064 -0.3877
 5189SOL     OW27025   0.178   4.369   2.471  0.5606  0.0819 -0.5890
 5189SOL    HW127026   0.133   4.304   2.416  1.4898  0.6122 -1.9823
 5189SOL    HW227027   0.124   4.447   2.459 -0.1230  0.0848  2.6048
 5190SOL     OW27028   2.097   1.342  13.981  0.1951 -0.7325  0.3457
 5190SOL    HW127029   2.098   1.325  13.887 -0.6877 -0.3160  0.2606
 5190SOL    HW227030   2.028   1.281  14.006  0.3737 -1.2181 -0.3758
 5191SOL     OW27031   0.769   2.286  11.396 -0.1619  0.6811 -0.6398
 5191SOL    HW127032   0.758   2.374  11.433  0.6598  0.9895 -1.1342
 5191SOL    HW227033   0.689   2.236  11.415  0.8807 -0.1821  1.3842
 5192SOL     OW27034   3.516   3.607   6.362 -0.1440  0.2410  0.0013
 5192SOL    HW127035   3.582   3.674   6.383 -0.5457  0.1009  1.7183
 5192SOL    HW227036   3.532   3.550   6.437  1.1533  2.1541  1.1571
 5193SOL     OW27037   0.062   1.150   7.242  0.4284  0.3615  0.2255
 5193SOL    HW127038   4.691   1.154   7.258  0.5527 -1.5665  1.3917
 5193SOL    HW227039   0.066   1.054   7.241 -0.4394  0.3251 -0.7404
 5194SOL     OW27040   2.148   2.648   4.777 -0.1978  0.0802 -0.3021
 5194SOL    HW127041   2.056   2.666   4.759 -0.3903 -0.6679 -0.0536
 5194SOL    HW227042   2.150   2.649   4.873 -0.5070  1.8945 -0.3074
 5195SOL     OW27043   1.624   4.516   5.016  0.8018  0.1575  0.1013
 5195SOL    HW127044   1.545   4.515   5.070  3.1609 -1.0158  3.4478
 5195SOL    HW227045   1.611   4.551   4.927  0.3441 -0.1125  0.0597
 5196SOL     OW27046   0.717   2.313   6.090 -0.4194 -0.3359 -0.4871
 5196SOL    HW127047   0.775   2.237   6.091  1.8454  1.3955  0.2403
 5196SOL    HW227048   0.682   2.297   6.178  0.1486 -2.1549 -0.5872
 5197SOL     OW27049   4.376   3.248   7.304  0.5259 -0.0827 -0.3046
 5197SOL    HW127050   4.364   3.250   7.209 -2.1960  0.1485  0.0398
 5197SOL    HW227051   4.471   3.244   7.314  0.7057 -1.2905 -2.4041
 5198SOL     OW27052   0.367   2.575   6.222 -0.4665 -0.0541  0.2395
 5198SOL    HW127053   0.426   2.582   6.297 -0.2350 -0.7558  0.1211
 5198SOL    HW227054   0.392   2.484   6.203  1.7797  0.5870  0.1561
 5199SOL     OW27055   2.294   3.668   4.243  0.4662 -0.5906 -0.8263
 5199SOL    HW127056   2.247   3.604   4.295  1.8000 -1.7893 -1.0885
 5199SOL    HW227057   2.382   3.631   4.252  0.3975 -0.3023  1.0179
 5200SOL     OW27058   1.088   2.663   8.083  0.4136  0.2783 -0.3268
 5200SOL    HW127059   1.074   2.747   8.126  0.6780  0.0789  0.1392
 5200SOL    HW227060   1.035   2.609   8.142  1.2406 -1.1859 -0.9346
 5201SOL     OW27061   1.408   2.445   6.056 -0.3830  0.3793 -0.1584
 5201SOL    HW127062   1.430   2.487   5.973  1.4932  0.3265  0.3091
 5201SOL    HW227063   1.420   2.355   6.024 -1.2026 -0.4462  1.8479
 5202SOL     OW27064   1.355   1.253   5.059 -0.3174  0.1685 -0.2559
 5202SOL    HW127065   1.423   1.189   5.080  1.1165  1.9552  0.5242
 5202SOL    HW227066   1.398   1.334   5.086  0.1860 -0.9423  2.2449
 5203SOL     OW27067   1.114   0.482   8.900  0.1679  0.1687 -0.6031
 5203SOL    HW127068   1.112   0.570   8.861  1.4218  1.4980  2.3675
 5203SOL    HW227069   1.205   0.462   8.879  0.4075  0.8120 -0.1829
 5204SOL     OW27070   4.512   2.271   8.685 -0.1064 -0.2841  0.0655
 5204SOL    HW127071   4.487   2.180   8.668 -2.2811  0.2304  0.5311
 5204SOL    HW227072   4.448   2.302   8.749 -0.9082  0.2676 -1.0003
 5205SOL     OW27073   0.558   0.921  11.433 -0.4558  0.6019 -0.6078
 5205SOL    HW127074   0.548   0.952  11.343 -4.6703 -0.0085 -0.3101
 5205SOL    HW227075   0.475   0.875  11.443  0.6827 -1.0842  1.0939
 5206SOL     OW27076   0.884   3.720  14.835  0.1575 -0.4643  0.2158
 5206SOL    HW127077   0.815   3.773  14.874 -1.0821 -1.4629 -0.6295
 5206SOL    HW227078   0.855   3.629  14.837  0.4514 -0.6323 -2.4039
 5207SOL     OW27079   4.250   4.343   4.011  0.5329 -0.4293  0.4011
 5207SOL    HW127080   4.317   4.297   3.961  0.2872  0.4586 -0.7324
 5207SOL    HW227081   4.172   4.287   4.009 -0.2657  0.6403  1.5003
 5208SOL     OW27082   1.984   3.206  17.629 -0.2348  0.3231  0.5605
 5208SOL    HW127083   1.986   3.134  17.692 -2.3759 -1.8027 -1.7887
 5208SOL    HW227084   2.057   3.187  17.570 -1.8103 -0.5861 -1.1006
 5209SOL     OW27085   3.547   3.286   9.452 -0.5681 -0.2115  0.2273
 5209SOL    HW127086   3.472   3.271   9.509  1.9173 -0.6593  3.3870
 5209SOL    HW227087   3.573   3.363   9.503  1.8832  0.4010 -1.9431
 5210SOL     OW27088   3.243   3.216   9.962 -0.0631  0.0911  0.6243
 5210SOL    HW127089   3.255   3.220   9.867 -0.9281 -2.0166  0.4260
 5210SOL    HW227090   3.157   3.174   9.960 -0.0292 -0.0007  1.1757
 5211SOL     OW27091   4.576   0.397  17.417  0.6115 -0.2303  0.3774
 5211SOL    HW127092   4.661   0.363  17.388 -1.0993 -2.5631 -1.9765
 5211SOL    HW227093   4.522   0.319  17.401 -0.5773  0.1653  2.4684
 5212SOL     OW27094   3.683   3.798   4.783  0.2949 -0.5376 -0.7127
 5212SOL    HW127095   3.691   3.784   4.877 -0.7068 -2.1516 -0.8587
 5212SOL    HW227096   3.588   3.795   4.773  0.4128 -4.0849 -0.9012
 5213SOL     OW27097   0.851   3.370   1.840 -0.4390  0.7144 -0.1467
 5213SOL    HW127098   0.768   3.322   1.832 -1.2597  1.6321  2.6236
 5213SOL    HW227099   0.854   3.420   1.759  1.1047 -1.1090 -1.2161
 5214SOL     OW27100   4.418   1.906   5.721 -0.3477  0.7046 -0.1855
 5214SOL    HW127101   4.411   1.833   5.659  1.6368 -0.3096  0.8011
 5214SOL    HW227102   4.500   1.887   5.765 -0.4388  0.9814  0.1077
 5215SOL     OW27103   0.506   3.344   6.583  0.4281  0.2495 -0.4357
 5215SOL    HW127104   0.540   3.427   6.549  0.2277  1.0177  1.2634
 5215SOL    HW227105   0.574   3.280   6.562 -1.2407 -0.8517 -2.5213
 5216SOL     OW27106   2.111   4.565  11.640  0.5915 -0.1192 -0.4089
 5216SOL    HW127107   2.054   4.641  11.629 -0.6791 -0.9900  0.1384
 5216SOL    HW227108   2.080   4.514  11.566 -2.1707 -0.3811  0.9229
 5217SOL     OW27109   0.402   0.545   6.126  0.0063 -0.4549  0.0596
 5217SOL    HW127110   0.306   0.539   6.120  0.1657 -2.2942 -0.5552
 5217SOL    HW227111   0.424   0.633   6.096  0.5632 -1.4160 -2.3930
 5218SOL     OW27112   1.035   1.058   1.440 -0.8670 -0.3026  0.4783
 5218SOL    HW127113   0.970   1.010   1.493 -0.2159 -0.1483  1.4171
 5218SOL    HW227114   0.982   1.137   1.443 -0.0210  0.2511  0.6986
 5219SOL     OW27115   4.067   0.890   7.289  0.5403 -0.0549  0.5023
 5219SOL    HW127116   4.104   0.862   7.206 -0.1283 -0.2270  0.2623
 5219SOL    HW227117   4.147   0.911   7.338  0.2417 -0.2782  1.0872
 5220SOL     OW27118   4.376   1.739   1.863 -0.0891 -0.2280  0.4029
 5220SOL    HW127119   4.467   1.719   1.844 -0.6635 -1.5686 -0.9759
 5220SOL    HW227120   4.345   1.778   1.781  1.6963 -0.3709 -0.3337
 5221SOL     OW27121   4.277   3.004   3.665  0.1760 -0.5456 -0.2661
 5221SOL    HW127122   4.205   3.061   3.693  0.7266  0.1017 -0.1612
 5221SOL    HW227123   4.344   3.064   3.632  0.1677 -0.4969 -0.1961
 5222SOL     OW27124   0.419   3.268   5.380 -0.3968 -0.0441  0.4324
 5222SOL    HW127125   0.369   3.199   5.423 -0.7669 -0.6876 -1.0606
 5222SOL    HW227126   0.497   3.254   5.434 -1.7876 -2.5859  1.7515
 5223SOL     OW27127   2.655   0.173   5.047 -0.0785 -0.3106  0.4545
 5223SOL    HW127128   2.705   0.203   4.971  0.5020 -0.7292  0.6702
 5223SOL    HW227129   2.582   0.234   5.050  1.0578  1.0924 -0.1255
 5224SOL     OW27130   2.392   3.835   6.984  0.1551  0.1770  0.6078
 5224SOL    HW127131   2.370   3.899   6.916 -1.0840  1.0373  1.8073
 5224SOL    HW227132   2.392   3.895   7.059 -2.8875  0.6075  0.2645
 5225SOL     OW27133   4.098   1.690   5.451 -0.3653  0.2258 -0.3125
 5225SOL    HW127134   4.138   1.622   5.397  3.0945  3.5676 -1.8594
 5225SOL    HW227135   4.006   1.661   5.449  0.2294 -2.1095  3.9292
 5226SOL     OW27136   1.204   3.156   3.242 -0.5062  0.0627  0.6422
 5226SOL    HW127137   1.166   3.109   3.168  0.6326 -0.2700  0.2750
 5226SOL    HW227138   1.120   3.199   3.261 -0.3522  0.3120  0.7609
 5227SOL     OW27139   0.050   2.676  16.699  0.3335  0.0516  0.4544
 5227SOL    HW127140   0.079   2.767  16.695 -0.8517  0.3575 -1.0356
 5227SOL    HW227141   0.095   2.634  16.626  1.3318 -2.0185  2.2587
 5228SOL     OW27142   3.418   4.610   1.092  0.0041  0.5682  0.4231
 5228SOL    HW127143   3.439   4.703   1.105 -1.3015  0.8794  0.3372
 5228SOL    HW227144   3.503   4.582   1.060 -1.1619  0.6976 -2.7064
 5229SOL     OW27145   2.869   0.225   1.913 -0.2793 -0.0614  0.2116
 5229SOL    HW127146   2.850   0.149   1.968  0.4146  0.0204  0.5604
 5229SOL    HW227147   2.912   0.190   1.835  1.2774  0.6608  0.7432
 5230SOL     OW27148   1.788   4.186   5.202  0.2130  0.0137 -0.5316
 5230SOL    HW127149   1.782   4.102   5.249  0.0221  0.7755  0.8130
 5230SOL    HW227150   1.715   4.181   5.141 -0.7265  2.2211  0.4347
 5231SOL     OW27151   2.686   4.483   6.243 -0.0128  0.3371  0.6066
 5231SOL    HW127152   2.748   4.475   6.171  0.3866 -0.6706  1.0643
 5231SOL    HW227153   2.661   4.391   6.249 -0.7842  0.3333 -2.7052
 5232SOL     OW27154   0.385   2.463   4.739 -0.0964 -0.0457 -0.2236
 5232SOL    HW127155   0.351   2.454   4.828  0.5842 -0.7915 -0.0313
 5232SOL    HW227156   0.412   2.555   4.741  1.3048 -0.4600  0.2154
 5233SOL     OW27157   0.478   2.512  16.772  0.3307 -0.7217  0.5599
 5233SOL    HW127158   0.432   2.429  16.780 -0.1345 -0.4873  0.2833
 5233SOL    HW227159   0.413   2.574  16.805  0.0957 -0.0494 -1.1815
 5234SOL     OW27160   4.151   3.728   6.991  0.2496 -0.1926  0.0694
 5234SOL    HW127161   4.076   3.787   7.000 -0.2287 -0.7368 -0.2819
 5234SOL    HW227162   4.175   3.727   6.898  0.2077  1.0209  0.0557
 5235SOL     OW27163   1.716   4.611   2.191  0.4781  0.0775  0.2421
 5235SOL    HW127164   1.626   4.594   2.219  0.2854 -0.1739 -0.5413
 5235SOL    HW227165   1.732   4.704   2.176 -0.3272  0.1281 -0.2830
 5236SOL     OW27166   0.939   0.198   2.795  0.0552 -0.1799  0.3266
 5236SOL    HW127167   0.898   0.246   2.723 -0.8977 -0.9483  0.3579
 5236SOL    HW227168   1.020   0.172   2.752  1.4072 -0.2007  2.9058
 5237SOL     OW27169   3.956   4.372   5.885  0.4761  0.2881 -0.2357
 5237SOL    HW127170   4.008   4.393   5.807 -2.5057 -1.7000 -2.7930
 5237SOL    HW227171   3.922   4.285   5.863  3.0311 -0.6330 -0.5147
 5238SOL     OW27172   3.535   0.601   0.605  0.4127  0.4293 -0.4270
 5238SOL    HW127173   3.476   0.674   0.582  0.8783 -0.1329 -3.3605
 5238SOL    HW227174   3.475   0.526   0.601  2.1915 -0.9185 -1.5796
 5239SOL     OW27175   4.583   2.707   7.045  0.0643 -0.8389 -0.0351
 5239SOL    HW127176   4.643   2.638   7.073 -1.9108 -2.5019  0.0943
 5239SOL    HW227177   4.591   2.770   7.117  0.6669  0.6239 -1.3897
 5240SOL     OW27178   3.448   1.730   1.448  0.1495  0.5035 -0.4174
 5240SOL    HW127179   3.464   1.643   1.485 -0.0803  0.1047 -1.2477
 5240SOL    HW227180   3.379   1.711   1.385  1.0322 -2.3077 -0.5336
 5241SOL     OW27181   2.313   2.830   3.146 -0.3197  0.1835 -0.3988
 5241SOL    HW127182   2.328   2.854   3.055  0.6660 -2.4015 -0.8954
 5241SOL    HW227183   2.247   2.762   3.148 -2.1027  1.8967 -1.4736
 5242SOL     OW27184   2.651   2.951   5.103  0.1103 -0.2642 -0.1597
 5242SOL    HW127185   2.634   2.910   5.188  0.4117  0.9080  0.4820
 5242SOL    HW227186   2.729   2.906   5.070 -0.3141 -1.0366 -0.0895
 5243SOL     OW27187   3.328   3.476   5.438 -0.6114 -0.4383  0.0811
 5243SOL    HW127188   3.399   3.480   5.373  0.5369 -1.4855  1.2712
 5243SOL    HW227189   3.354   3.395   5.483  0.0525 -0.3718 -0.1840
 5244SOL     OW27190   0.672   1.145  16.709 -0.2667  0.3511  0.0452
 5244SOL    HW127191   0.750   1.188  16.744 -1.3479  0.5934  2.0846
 5244SOL    HW227192   0.708   1.105  16.630  1.3832 -0.9641  1.4712
 5245SOL     OW27193   0.145   2.473   1.193  0.2644 -0.4751 -0.5200
 5245SOL    HW127194   0.152   2.536   1.121 -0.6445  0.6984  0.4198
 5245SOL    HW227195   0.238   2.473   1.218  0.6893  0.9459 -2.0562
 5246SOL     OW27196   0.359   3.803   2.591  0.1905 -0.4015 -0.1183
 5246SOL    HW127197   0.418   3.878   2.599 -3.4906  2.2883  1.8064
 5246SOL    HW227198   0.286   3.832   2.646 -0.3577 -0.7396 -0.6610
 5247SOL     OW27199   3.290   1.486   7.629  0.0671 -0.1902  0.2459
 5247SOL    HW127200   3.268   1.425   7.559  2.5274 -0.7111 -0.0767
 5247SOL    HW227201   3.385   1.477   7.627  0.2136  0.7999  2.1235
 5248SOL     OW27202   2.568   4.421   0.516 -0.2703  0.6298  0.2351
 5248SOL    HW127203   2.486   4.436   0.564 -1.2756 -3.3771 -0.1978
 5248SOL    HW227204   2.620   4.399   0.594  0.4570  2.2114  0.1793
 5249SOL     OW27205   1.588   3.622   5.319  0.2323 -0.1838 -0.1966
 5249SOL    HW127206   1.667   3.570   5.331 -0.5722 -1.4888 -0.5518
 5249SOL    HW227207   1.578   3.588   5.230 -1.1911  0.4916 -0.2911
 5250SOL     OW27208   4.092   2.485   6.243  0.1194 -0.1622  0.1288
 5250SOL    HW127209   4.043   2.434   6.308  0.3322  0.2855  0.6428
 5250SOL    HW227210   4.159   2.428   6.204  1.2616 -0.4346  2.5065
 5251SOL     OW27211   0.150   2.564   5.421  0.0423  0.3475  0.2214
 5251SOL    HW127212   0.098   2.557   5.340 -0.1086 -1.0135  0.4515
 5251SOL    HW227213   0.241   2.563   5.392  0.1607  1.9485  0.5130
 5252SOL     OW27214   3.768   0.878   6.273  0.1483 -0.4961 -0.2451
 5252SOL    HW127215   3.847   0.823   6.282  1.0101  1.2745  2.9557
 5252SOL    HW227216   3.772   0.886   6.177 -0.9285 -2.4264 -0.4553
 5253SOL     OW27217   3.335   0.335   6.251  0.0275  0.0255  0.1906
 5253SOL    HW127218   3.271   0.406   6.262  0.3007  0.2219  0.5086
 5253SOL    HW227219   3.322   0.276   6.325 -0.4399 -0.4807 -0.2918
 5254SOL     OW27220   3.404   2.826  13.803  0.2653 -0.1482  0.3963
 5254SOL    HW127221   3.497   2.816  13.823  0.5423  0.0460 -0.7614
 5254SOL    HW227222   3.408   2.901  13.744  1.5541 -1.3498 -1.0507
 5255SOL     OW27223   0.174   2.188   4.959 -0.4304  0.4346  0.4417
 5255SOL    HW127224   0.216   2.236   5.030 -1.3657 -0.2909  1.4925
 5255SOL    HW227225   0.249   2.138   4.928  0.4211  0.7764  1.9440
 5256SOL     OW27226   0.707   3.850   6.015 -0.5847  0.4303  0.0882
 5256SOL    HW127227   0.737   3.843   6.106 -2.2284  0.0456  0.6103
 5256SOL    HW227228   0.779   3.799   5.980 -0.2315  1.0648 -0.1086
 5257SOL     OW27229   0.305   1.628  14.036  0.0683 -0.0291 -0.1376
 5257SOL    HW127230   0.400   1.634  14.044  0.1961 -1.4362 -0.4268
 5257SOL    HW227231   0.307   1.592  13.948 -2.5234  1.0341 -0.6523
 5258SOL     OW27232   1.972   0.175  16.577  1.0058  0.3844 -0.5294
 5258SOL    HW127233   1.978   0.146  16.668  2.6010  1.4801 -0.2804
 5258SOL    HW227234   2.038   0.116  16.539  2.4038 -0.1972  2.7342
 5259SOL     OW27235   4.264   1.427  10.548 -0.5555  0.2066 -0.1760
 5259SOL    HW127236   4.282   1.401  10.638 -2.6677  1.2545  0.5362
 5259SOL    HW227237   4.196   1.494  10.558 -1.1445 -0.8556  2.9047
 5260SOL     OW27238   3.310   3.644  13.319 -0.2271  0.7680 -0.1577
 5260SOL    HW127239   3.237   3.705  13.310  0.6182  1.9338  0.9007
 5260SOL    HW227240   3.270   3.559  13.333 -0.2000  0.8178  0.2351
 5261SOL     OW27241   0.187   1.423  17.200  0.0520  0.1315 -0.2078
 5261SOL    HW127242   0.209   1.421  17.107 -0.3472  1.4915 -0.3354
 5261SOL    HW227243   0.104   1.470  17.192  0.5974  1.2486  0.7577
 5262SOL     OW27244   3.891   4.120   5.779  0.4241 -0.4869 -0.1525
 5262SOL    HW127245   3.877   4.119   5.684  0.6173  1.3868 -0.1988
 5262SOL    HW227246   3.986   4.109   5.774  0.4720  0.8932 -2.2880
 5263SOL     OW27247   1.435   2.619   3.541 -0.3058  0.5467  0.1422
 5263SOL    HW127248   1.442   2.528   3.572 -0.2549 -0.0961 -1.7412
 5263SOL    HW227249   1.471   2.612   3.453 -3.1032  1.1959 -1.0536
 5264SOL     OW27250   3.905   1.850   6.641 -0.2663 -0.6767 -0.2642
 5264SOL    HW127251   3.820   1.846   6.684 -0.1466  0.6315  0.1053
 5264SOL    HW227252   3.956   1.925   6.672 -1.0734  0.1756 -0.9840
 5265SOL     OW27253   3.983   1.476   4.219  0.1555 -0.5347 -0.0061
 5265SOL    HW127254   3.922   1.548   4.238 -1.2263 -1.2881 -1.6296
 5265SOL    HW227255   3.939   1.415   4.160  0.1416 -1.0994  0.5881
 5266SOL     OW27256   0.330   3.624   5.051  0.2365  0.0943  0.6136
 5266SOL    HW127257   0.317   3.654   5.141 -1.7703 -0.3276  0.4611
 5266SOL    HW227258   0.422   3.651   5.040  0.7241 -2.2558 -1.1333
 5267SOL     OW27259   0.205   0.196   7.496  0.4236  0.2950  0.7727
 5267SOL    HW127260   0.122   0.232   7.528 -1.2975  0.1518 -3.5628
 5267SOL    HW227261   0.175   0.143   7.422 -2.2600  0.9364  1.3922
 5268SOL     OW27262   2.776   4.104   0.980  0.5349  0.1655 -0.0407
 5268SOL    HW127263   2.736   4.026   1.019  1.0730 -0.0137  0.1495
 5268SOL    HW227264   2.867   4.072   0.980  0.0411 -1.2782 -3.3754
 5269SOL     OW27265   2.631   0.093   1.715  0.2480 -0.2091 -0.4001
 5269SOL    HW127266   2.711   0.119   1.761  1.1944 -3.1872 -0.3719
 5269SOL    HW227267   2.640   0.003   1.684  0.9520 -0.1059 -0.4966
 5270SOL     OW27268   2.142   1.408   2.850 -0.1386  0.3155  0.1147
 5270SOL    HW127269   2.073   1.399   2.783  0.5208  0.6525 -0.6098
 5270SOL    HW227270   2.110   1.486   2.895  0.2604  0.1358  0.6989
 5271SOL     OW27271   0.775   3.840   3.125  0.2118 -0.3434 -0.5751
 5271SOL    HW127272   0.814   3.888   3.198  0.5771  1.1606 -1.7709
 5271SOL    HW227273   0.709   3.784   3.166 -1.2306  2.7528  1.3529
 5272SOL     OW27274   4.108   0.066   6.680 -0.4245 -0.1148 -0.1917
 5272SOL    HW127275   4.039   0.005   6.653  0.5546 -0.2956 -2.2465
 5272SOL    HW227276   4.061   0.143   6.714  0.3056  0.9167 -1.5282
 5273SOL     OW27277   2.396   3.576   6.684 -0.2824 -0.3832  0.2572
 5273SOL    HW127278   2.323   3.548   6.740 -0.6212 -0.8137 -0.3943
 5273SOL    HW227279   2.432   3.492   6.657  0.8722  0.4791 -0.8896
 5274SOL     OW27280   4.426   2.701   3.002  0.0761 -0.3709 -0.4512
 5274SOL    HW127281   4.430   2.685   3.097 -1.9404 -0.6629 -0.4120
 5274SOL    HW227282   4.449   2.618   2.960  0.1587 -0.8480  0.5152
 5275SOL     OW27283   2.447   0.322   2.858  0.1546 -0.2301  0.2564
 5275SOL    HW127284   2.499   0.399   2.838 -1.1309  0.9446  1.4491
 5275SOL    HW227285   2.367   0.340   2.809 -0.0349 -0.2522  0.5554
 5276SOL     OW27286   4.312   2.719   6.892 -0.0137 -0.0371  1.1462
 5276SOL    HW127287   4.355   2.734   6.976  1.7153  0.4826  0.1758
 5276SOL    HW227288   4.296   2.811   6.870 -0.0034 -0.4009 -0.4088
 5277SOL     OW27289   0.511   0.081   8.558  0.0059 -0.2610  0.5420
 5277SOL    HW127290   0.434   0.039   8.520  0.6414  1.1363 -2.3005
 5277SOL    HW227291   0.566   0.005   8.577 -0.8614 -0.3243  2.7004
 5278SOL     OW27292   3.375   2.404   4.483  0.0070  0.2336 -0.0098
 5278SOL    HW127293   3.428   2.347   4.428  1.3320  3.9202 -2.5340
 5278SOL    HW227294   3.395   2.368   4.570 -2.3880 -1.6783 -0.2384
 5279SOL     OW27295   3.837   0.488  16.305  0.4302 -0.2487  0.7305
 5279SOL    HW127296   3.808   0.468  16.394 -1.6053 -0.7281 -0.0294
 5279SOL    HW227297   3.919   0.537  16.314 -0.4068  1.4627 -0.9185
 5280SOL     OW27298   3.569   3.535   0.891  0.7351 -0.5569  0.1124
 5280SOL    HW127299   3.621   3.508   0.966  1.6410  0.3747 -0.1801
 5280SOL    HW227300   3.520   3.606   0.932  0.4745 -0.3912 -0.4764
 5281SOL     OW27301   4.528   2.406  17.633 -0.1330 -0.2724 -0.7269
 5281SOL    HW127302   4.623   2.402  17.635 -0.1856 -2.1444 -1.9721
 5281SOL    HW227303   4.500   2.335  17.575 -1.8480 -0.6678  0.5710
 5282SOL     OW27304   3.071   4.556  15.412 -0.5259  0.1265  0.4049
 5282SOL    HW127305   3.150   4.605  15.388 -0.4951  0.5568  1.3819
 5282SOL    HW227306   3.012   4.630  15.395 -1.9396 -1.3597 -1.1393
 5283SOL     OW27307   1.990   3.962   8.320 -0.1417  0.2648 -0.1619
 5283SOL    HW127308   1.918   3.930   8.374 -0.7975  0.9074 -0.6540
 5283SOL    HW227309   2.061   3.960   8.384 -0.4349 -1.4717  0.0951
 5284SOL     OW27310   0.504   1.023  17.218 -0.0683 -0.3786 -0.5568
 5284SOL    HW127311   0.540   1.080  17.287 -1.5308 -0.1896  0.0419
 5284SOL    HW227312   0.411   1.045  17.221  0.4335  1.3359  2.5234
 5285SOL     OW27313   0.518   1.915   7.543 -0.1711  0.0233 -0.5055
 5285SOL    HW127314   0.504   2.003   7.578  0.4220  0.3074 -0.9715
 5285SOL    HW227315   0.595   1.938   7.491  0.4397  2.3459  1.3928
 5286SOL     OW27316   4.495   3.575   6.743  0.5317  0.1424 -0.6920
 5286SOL    HW127317   4.531   3.571   6.654 -1.0370  3.6585 -1.4887
 5286SOL    HW227318   4.534   3.657   6.774  0.2056  0.3058 -0.7175
 5287SOL     OW27319   0.151   1.528  14.241  0.3044  0.0725  0.2214
 5287SOL    HW127320   0.077   1.531  14.180 -0.3059 -0.1271  0.9560
 5287SOL    HW227321   0.215   1.580  14.192  1.0779  0.6931  1.8799
 5288SOL     OW27322   3.051   2.663   9.680 -0.2083 -0.6380 -0.2738
 5288SOL    HW127323   3.050   2.748   9.636  0.2008 -0.9711 -0.9250
 5288SOL    HW227324   3.080   2.674   9.770 -1.9920  1.9769  0.0090
 5289SOL     OW27325   0.174   3.875   4.970  0.0170 -0.2925 -0.1098
 5289SOL    HW127326   0.235   3.866   4.897  0.2478  1.2906 -0.1196
 5289SOL    HW227327   0.105   3.930   4.931 -0.5106  0.0686  1.3473
 5290SOL     OW27328   4.714   2.175  17.420  0.4433 -0.3127  0.3554
 5290SOL    HW127329   0.032   2.160  17.505  0.2557 -2.5770  0.0466
 5290SOL    HW227330   4.621   2.172  17.441  0.2256 -0.2290 -0.5901
 5291SOL     OW27331   1.739   0.964  14.105  0.1666 -0.4822  0.0413
 5291SOL    HW127332   1.712   0.925  14.189  0.0774  1.5694  0.9868
 5291SOL    HW227333   1.713   0.898  14.041  0.6332 -0.5104 -0.1181
 5292SOL     OW27334   0.321   0.556  15.623  0.2986 -0.8634  0.2620
 5292SOL    HW127335   0.268   0.603  15.687  2.5011  0.6691  0.9704
 5292SOL    HW227336   0.321   0.473  15.670  0.7418 -1.5735 -1.0064
 5293SOL     OW27337   0.641   2.743   7.972 -0.3257  0.6984 -0.1909
 5293SOL    HW127338   0.641   2.707   7.883 -0.2632  0.2771 -0.0222
 5293SOL    HW227339   0.667   2.667   8.024 -3.1456 -0.6557 -0.7797
 5294SOL     OW27340   2.366   0.050   5.499 -0.3741 -0.4321  0.5564
 5294SOL    HW127341   2.276   0.079   5.491 -0.6964 -2.2974 -2.4847
 5294SOL    HW227342   2.405   0.056   5.411  0.2237 -1.1064  0.7730
 5295SOL     OW27343   1.646   4.036   2.328 -0.3530 -0.3401  0.1073
 5295SOL    HW127344   1.691   4.121   2.333  1.3196 -1.2437  0.4133
 5295SOL    HW227345   1.721   3.978   2.317  0.2507  0.4954 -0.1967
 5296SOL     OW27346   3.064   0.981   2.471 -0.4200 -0.3308  0.6716
 5296SOL    HW127347   3.067   0.914   2.540 -0.4688  1.1816  2.1577
 5296SOL    HW227348   3.155   0.974   2.440 -1.0328  0.7021 -1.3406
 5297SOL     OW27349   4.197   3.859   2.320 -0.0228  0.6203  0.0673
 5297SOL    HW127350   4.275   3.840   2.267 -1.7479 -1.0981 -1.8818
 5297SOL    HW227351   4.139   3.892   2.251  0.6961 -2.6546 -2.1015
 5298SOL     OW27352   3.394   4.517   7.012 -0.0091  0.1170  0.0435
 5298SOL    HW127353   3.343   4.524   7.092  0.6085  2.7854  0.1955
 5298SOL    HW227354   3.482   4.550   7.029  0.5917 -1.2181 -0.4465
 5299SOL     OW27355   4.601   3.672  10.976  0.7519  0.2096  0.4405
 5299SOL    HW127356   4.683   3.693  10.932  0.6067 -0.7573 -0.3038
 5299SOL    HW227357   4.550   3.751  10.965 -0.2794 -0.5534 -0.2621
 5300SOL     OW27358   0.383   0.333  15.080  0.0248  0.6483 -0.7452
 5300SOL    HW127359   0.462   0.370  15.043 -0.3453 -0.0317 -2.2150
 5300SOL    HW227360   0.354   0.406  15.135  1.4333  0.6705 -0.0611
 5301SOL     OW27361   2.598   4.028   3.151 -0.1231 -0.0638 -0.1420
 5301SOL    HW127362   2.686   4.050   3.121  0.3592  2.1926  2.8949
 5301SOL    HW227363   2.599   3.934   3.134 -1.3088 -0.2053  0.5265
 5302SOL     OW27364   1.437   2.518   5.808 -0.1250  0.5290  0.0485
 5302SOL    HW127365   1.465   2.594   5.756  0.6734  0.3880  0.2642
 5302SOL    HW227366   1.356   2.505   5.759  0.0459 -1.8000  0.3995
 5303SOL     OW27367   4.079   1.471   6.961 -0.5485  0.0852  0.3641
 5303SOL    HW127368   4.154   1.521   6.928  0.1037 -0.0687  1.6297
 5303SOL    HW227369   4.020   1.545   6.943 -1.1171 -0.8902 -1.7103
 5304SOL     OW27370   3.070   3.719  11.879  0.1161 -0.0622  0.3244
 5304SOL    HW127371   3.057   3.813  11.863  0.7565 -0.2640 -1.3839
 5304SOL    HW227372   3.147   3.696  11.828 -0.0776 -0.0606  0.0269
 5305SOL     OW27373   0.631   0.360   7.839 -0.1466 -0.0906  0.4760
 5305SOL    HW127374   0.564   0.343   7.773 -1.6506 -0.2199  2.0334
 5305SOL    HW227375   0.667   0.273   7.857  0.1980  0.0718  0.5839
 5306SOL     OW27376   3.234   1.770   9.683 -0.1956  0.0577 -0.3366
 5306SOL    HW127377   3.191   1.855   9.692  1.3043  0.5207  2.6701
 5306SOL    HW227378   3.218   1.739   9.594 -0.5733 -2.5354  0.6335
 5307SOL     OW27379   3.913   4.134   6.256  0.3836 -0.0277  0.6375
 5307SOL    HW127380   3.982   4.197   6.235 -0.1372  0.1794 -0.4434
 5307SOL    HW227381   3.930   4.058   6.201  0.1066  0.8017 -0.5879
 5308SOL     OW27382   0.839   1.396   7.156  0.4033 -0.4691 -0.4237
 5308SOL    HW127383   0.801   1.375   7.241 -0.7112  2.4217 -0.2475
 5308SOL    HW227384   0.767   1.441   7.113  0.3271 -0.6330 -0.4669
 5309SOL     OW27385   0.136   0.039   7.254 -0.1203  0.1340  0.2113
 5309SOL    HW127386   0.159   0.106   7.190 -0.9232  1.2166  1.0471
 5309SOL    HW227387   0.152   4.683   7.205 -2.8242  0.2698 -0.8987
 5310SOL     OW27388   0.011   4.545   8.042 -0.3493 -0.2644  0.3050
 5310SOL    HW127389   0.071   4.616   8.020 -0.5963  0.3346  1.5552
 5310SOL    HW227390   4.648   4.584   8.028  0.2858  1.3532  0.8721
 5311SOL     OW27391   0.865   3.698  14.542  0.1742 -0.1289  0.1375
 5311SOL    HW127392   0.893   3.714  14.632  2.1288 -0.2389 -0.4477
 5311SOL    HW227393   0.777   3.736  14.540 -0.4872 -1.5931  1.0079
 5312SOL     OW27394   2.594   0.995   3.655  0.3401 -0.0924  0.0236
 5312SOL    HW127395   2.578   0.954   3.741  1.6596  0.4761  0.5400
 5312SOL    HW227396   2.569   0.917   3.605 -0.1971 -0.4811  0.8955
 5313SOL     OW27397   0.314   0.557  12.140 -0.1422 -0.1546  0.0312
 5313SOL    HW127398   0.276   0.494  12.200  2.3549 -3.2351 -1.5896
 5313SOL    HW227399   0.391   0.514  12.102 -0.0082 -0.5145  0.7261
 5314SOL     OW27400   0.244   2.675   5.138 -0.3749 -0.3855  0.2888
 5314SOL    HW127401   0.166   2.620   5.145 -1.1166  0.4679 -1.2466
 5314SOL    HW227402   0.227   2.749   5.197 -0.1134  1.8330 -2.4326
 5315SOL     OW27403   0.340   0.589  13.042  0.0800  0.5437 -0.4459
 5315SOL    HW127404   0.376   0.510  13.082  0.2686  0.4045 -0.8890
 5315SOL    HW227405   0.415   0.649  13.045 -0.8143  1.6941 -0.8757
 5316SOL     OW27406   4.501   3.584   3.012  0.8670  0.6866 -0.1877
 5316SOL    HW127407   4.479   3.653   3.074 -1.6699 -0.2425 -0.0685
 5316SOL    HW227408   4.503   3.631   2.929 -0.0621 -2.9735 -2.2973
 5317SOL     OW27409   0.559   3.693   6.750 -0.1421  0.2082 -0.3996
 5317SOL    HW127410   0.634   3.643   6.717 -0.9211 -0.4337 -1.2030
 5317SOL    HW227411   0.536   3.740   6.669  0.1633 -0.2451 -0.7482
 5318SOL     OW27412   4.049   3.947   3.826  0.1205 -0.1106 -0.1234
 5318SOL    HW127413   3.982   3.931   3.893 -0.9731  0.0029 -1.1818
 5318SOL    HW227414   3.996   3.976   3.752  1.3414  3.8082  0.5430
 5319SOL     OW27415   2.080   0.179   9.930 -0.0936 -0.5444  0.0760
 5319SOL    HW127416   2.008   0.230   9.966 -1.8910 -1.8272 -1.6492
 5319SOL    HW227417   2.133   0.241   9.881 -1.6070 -0.4563 -1.4582
 5320SOL     OW27418   2.477   3.212  16.632 -0.1819  0.8728 -0.2362
 5320SOL    HW127419   2.465   3.251  16.546 -2.2525 -0.2349 -0.4322
 5320SOL    HW227420   2.437   3.126  16.628  0.3191  0.5262  1.9965
 5321SOL     OW27421   3.817   4.095   5.532 -0.2364  0.2311  0.3983
 5321SOL    HW127422   3.745   4.147   5.567  0.8700  1.0209  1.4820
 5321SOL    HW227423   3.889   4.156   5.515 -0.7777  0.3243 -1.5724
 5322SOL     OW27424   3.509   1.746   5.386 -0.4857  0.0458  0.1294
 5322SOL    HW127425   3.534   1.779   5.299 -0.0919  0.5837  0.4515
 5322SOL    HW227426   3.444   1.813   5.408 -1.1795 -0.7393  0.4531
 5323SOL     OW27427   1.699   2.308   0.960 -0.3081 -0.6444  0.0906
 5323SOL    HW127428   1.772   2.348   0.912 -1.1876  1.2013  0.2932
 5323SOL    HW227429   1.740   2.225   0.985  1.6765  0.6501  1.1604
 5324SOL     OW27430   1.119   1.219   5.730 -0.2710  0.0427  0.1173
 5324SOL    HW127431   1.115   1.292   5.792  1.5921  0.4932 -0.2941
 5324SOL    HW227432   1.127   1.261   5.645 -0.5185  3.3623  1.7187
 5325SOL     OW27433   4.675   1.807  10.151  0.0020 -0.1205  0.3738
 5325SOL    HW127434   4.723   1.872  10.202 -0.5306  1.1970 -0.8070
 5325SOL    HW227435   4.651   1.853  10.070 -2.0392  0.0534  1.0943
 5326SOL     OW27436   1.027   0.597   8.214  0.7043 -0.3333  0.1793
 5326SOL    HW127437   1.000   0.505   8.220 -1.8740  0.2382 -2.4654
 5326SOL    HW227438   1.110   0.582   8.169 -0.2052 -3.7261 -0.3939
 5327SOL     OW27439   2.599   1.876   2.426  1.1973  0.3671  0.5796
 5327SOL    HW127440   2.556   1.826   2.495  0.6023 -0.7669 -0.6107
 5327SOL    HW227441   2.568   1.965   2.446 -2.0381 -0.5785 -0.1016
 5328SOL     OW27442   0.332   0.848  12.408 -0.0697  0.0663  0.6710
 5328SOL    HW127443   0.282   0.830  12.488 -0.4071 -0.2936  0.3834
 5328SOL    HW227444   0.387   0.770  12.416  0.4792  0.3075 -0.8506
 5329SOL     OW27445   1.568   4.293  15.428  0.5053  0.5461 -0.2081
 5329SOL    HW127446   1.626   4.221  15.453 -1.1659 -0.6176  0.3291
 5329SOL    HW227447   1.480   4.263  15.446  1.2691 -1.8166 -0.4373
 5330SOL     OW27448   3.746   2.316  10.096 -0.2396  1.1327  0.3466
 5330SOL    HW127449   3.722   2.276  10.013 -0.8868 -1.3728  1.7372
 5330SOL    HW227450   3.840   2.330  10.092 -0.0833  0.1070  0.4025
 5331SOL     OW27451   2.055   1.840   2.748 -0.2943  0.1803 -0.6354
 5331SOL    HW127452   2.048   1.830   2.653  0.9115  0.7029 -0.7734
 5331SOL    HW227453   2.138   1.884   2.767  0.2411 -1.4173  0.7691
 5332SOL     OW27454   2.034   2.980   3.074  0.3597  1.2092  0.2064
 5332SOL    HW127455   2.077   2.910   3.024 -4.2322 -1.7396  0.3551
 5332SOL    HW227456   2.104   3.043   3.059  1.8018 -0.4902 -0.2689
 5333SOL     OW27457   0.267   0.932   9.012  0.6842 -0.5202 -0.3738
 5333SOL    HW127458   0.227   0.896   9.091  1.0234  0.6404  0.3308
 5333SOL    HW227459   0.283   0.856   8.957 -0.2874  0.0106 -1.4028
 5334SOL     OW27460   0.603   4.672   6.433 -0.3084 -0.1668  0.2456
 5334SOL    HW127461   0.572   0.007   6.364 -0.8336 -1.4638 -0.6191
 5334SOL    HW227462   0.696   4.682   6.410 -0.1877  0.9395  1.2263
 5335SOL     OW27463   0.321   1.113   0.431  0.0261  0.8071  0.0013
 5335SOL    HW127464   0.302   1.106   0.524 -1.4724  0.6369 -0.3234
 5335SOL    HW227465   0.407   1.070   0.427  0.1759  1.0014  1.2124
 5336SOL     OW27466   0.112   0.822   0.424  0.2524 -0.2659  0.2828
 5336SOL    HW127467   0.123   0.840   0.331  1.3142  0.4755  0.5541
 5336SOL    HW227468   0.042   0.885   0.439 -0.3616 -1.0375  0.6777
 5337SOL     OW27469   2.347   0.717   2.869  0.9077  0.0503  0.4581
 5337SOL    HW127470   2.360   0.767   2.950 -0.7297 -0.6083  1.1194
 5337SOL    HW227471   2.431   0.694   2.828  0.4691  0.7435 -0.8017
 5338SOL     OW27472   2.936   3.116  14.993  0.3296  0.3058 -0.0280
 5338SOL    HW127473   2.964   3.025  14.999  0.7206  0.4081 -0.3129
 5338SOL    HW227474   2.856   3.110  14.940  0.8222  1.9722 -0.9727
 5339SOL     OW27475   3.387   4.627  12.149 -0.5261 -0.0619  0.6154
 5339SOL    HW127476   3.405   4.646  12.241 -1.0253 -0.1970  0.7380
 5339SOL    HW227477   3.400   4.713  12.108  1.2956 -1.3196 -1.3895
 5340SOL     OW27478   1.269   4.035   4.231  0.4514  0.4387  0.0367
 5340SOL    HW127479   1.243   3.981   4.157  0.4582 -0.5445  0.7577
 5340SOL    HW227480   1.235   3.986   4.305  0.0256  0.5989 -0.0514
 5341SOL     OW27481   2.146   3.130  17.340  0.0597 -0.3416 -0.1436
 5341SOL    HW127482   2.229   3.116  17.386  1.1325  3.4467 -0.8943
 5341SOL    HW227483   2.149   3.225  17.346  3.0644 -0.4902  0.4775
 5342SOL     OW27484   0.907   1.564  14.368 -0.3631 -0.0706  0.4237
 5342SOL    HW127485   0.886   1.489  14.424 -0.9915 -1.0608 -1.1518
 5342SOL    HW227486   0.877   1.523  14.287 -0.6002  0.2726  0.3360
 5343SOL     OW27487   0.532   1.308   8.515 -0.1674  0.0885 -0.0244
 5343SOL    HW127488   0.599   1.348   8.571  0.4727 -0.9812 -0.0305
 5343SOL    HW227489   0.589   1.301   8.438 -0.9581 -3.4537 -0.2644
 5344SOL     OW27490   1.378   3.533   1.347 -0.2282 -0.2270  0.0479
 5344SOL    HW127491   1.299   3.576   1.311 -1.1661 -0.6935  1.5781
 5344SOL    HW227492   1.330   3.454   1.368  0.9951 -0.5152  1.7452
 5345SOL     OW27493   4.279   0.825   2.314 -0.0139  0.0732  0.0775
 5345SOL    HW127494   4.346   0.779   2.264  1.4191  2.5085 -0.2770
 5345SOL    HW227495   4.217   0.845   2.243  0.9396  1.0451 -0.4874
 5346SOL     OW27496   3.256   4.541   9.296 -0.3650 -0.1986 -0.3828
 5346SOL    HW127497   3.272   4.457   9.252  1.7799  1.0478 -1.9977
 5346SOL    HW227498   3.216   4.508   9.376  0.2955  3.2298  1.3559
 5347SOL     OW27499   1.427   3.038   6.704 -0.0367 -0.2905  0.3265
 5347SOL    HW127500   1.515   3.059   6.672  1.8108 -4.4539  2.7406
 5347SOL    HW227501   1.381   2.993   6.633  1.3289  0.3448 -0.9888
 5348SOL     OW27502   1.863   3.029   5.115  0.2168 -0.5255 -0.0716
 5348SOL    HW127503   1.775   3.006   5.086 -0.0417  1.0366 -0.5350
 5348SOL    HW227504   1.892   3.075   5.036  1.2992 -0.0172  0.6281
 5349SOL     OW27505   3.491   0.756   7.951  0.1032 -0.5978  0.2293
 5349SOL    HW127506   3.526   0.743   7.864 -1.6203  0.2464 -0.5989
 5349SOL    HW227507   3.527   0.686   8.006 -0.4835  1.7348  3.5788
 5350SOL     OW27508   0.368   1.407   1.538  0.1263 -0.4932  0.2957
 5350SOL    HW127509   0.376   1.503   1.538 -0.1509 -0.4762  3.5561
 5350SOL    HW227510   0.443   1.374   1.587  1.1560 -0.5572 -1.3127
 5351SOL     OW27511   0.361   4.040   7.716 -0.1129  0.0315 -0.6748
 5351SOL    HW127512   0.272   4.037   7.683 -0.8789  2.6838  1.1643
 5351SOL    HW227513   0.409   4.038   7.633 -0.7387 -1.0211 -1.0132
 5352SOL     OW27514   1.620   4.504   9.164 -0.2987  1.0267 -0.2876
 5352SOL    HW127515   1.613   4.536   9.074  4.2938  0.3267 -0.8855
 5352SOL    HW227516   1.600   4.584   9.213 -0.9684  1.3608 -1.0994
 5353SOL     OW27517   2.151   2.647   8.677 -0.3773  0.4688 -0.0989
 5353SOL    HW127518   2.186   2.637   8.766 -1.1836 -0.7426  0.0952
 5353SOL    HW227519   2.169   2.739   8.658  1.1325  0.1958  0.0008
 5354SOL     OW27520   2.592   0.788   7.953 -0.4780  0.0728  0.3750
 5354SOL    HW127521   2.576   0.695   7.935 -0.5591 -0.0036  0.8467
 5354SOL    HW227522   2.598   0.786   8.048  1.0970  2.2939  0.3316
 5355SOL     OW27523   0.709   1.965   7.368  0.3198  0.5315  0.1093
 5355SOL    HW127524   0.795   2.007   7.373  0.6880 -0.3223  0.9189
 5355SOL    HW227525   0.744   1.881   7.338  0.2078  0.0945  1.2037
 5356SOL     OW27526   4.008   2.279   6.437 -0.2199 -0.4291 -1.4829
 5356SOL    HW127527   4.101   2.270   6.454 -0.9778 -2.6466  1.6991
 5356SOL    HW227528   3.999   2.212   6.368  1.3981 -2.2731  0.0905
 5357SOL     OW27529   0.918   2.134  17.439 -0.0664 -0.0639  0.2416
 5357SOL    HW127530   0.957   2.152  17.525  0.0174  0.5095  0.0885
 5357SOL    HW227531   0.988   2.079  17.404  1.3242  1.9701 -0.1959
 5358SOL     OW27532   4.039   1.055   1.962 -0.8913  0.4143 -0.5568
 5358SOL    HW127533   4.031   0.985   2.027 -1.1939 -0.5199 -1.6017
 5358SOL    HW227534   4.100   1.017   1.899 -0.8760 -0.0084 -0.2871
 5359SOL     OW27535   2.402   3.343   9.288 -0.2212  0.2852 -0.1237
 5359SOL    HW127536   2.370   3.276   9.348 -2.1124  1.8481  0.6071
 5359SOL    HW227537   2.419   3.423   9.339  0.7574 -0.0142  0.0179
 5360SOL     OW27538   1.904   0.327   7.831  0.2109 -0.0397 -0.1473
 5360SOL    HW127539   1.986   0.364   7.861 -0.3376  0.2111  1.0501
 5360SOL    HW227540   1.847   0.397   7.862 -1.2643 -0.6545 -1.4634
 5361SOL     OW27541   3.525   0.227   2.674 -0.0791  0.0202 -0.3047
 5361SOL    HW127542   3.461   0.295   2.654  0.5861  1.1408  1.3499
 5361SOL    HW227543   3.589   0.280   2.723  0.1802  0.5996 -1.2722
 5362SOL     OW27544   3.329   0.314  16.100  0.1256 -0.2276  0.1735
 5362SOL    HW127545   3.379   0.233  16.091 -0.9834 -0.9490  0.5146
 5362SOL    HW227546   3.254   0.294  16.045  0.0997 -2.8734  1.1858
 5363SOL     OW27547   0.825   0.952   2.972 -0.1713 -0.1487  0.3809
 5363SOL    HW127548   0.851   0.942   3.063  2.0555  1.7040 -0.0543
 5363SOL    HW227549   0.895   0.902   2.931  0.4899  0.1585  1.1519
 5364SOL     OW27550   4.583   0.295  15.120  0.7797 -0.0150  0.0550
 5364SOL    HW127551   4.603   0.387  15.104 -2.0814  0.1169 -2.8381
 5364SOL    HW227552   4.660   0.258  15.077 -0.0981  0.3068 -1.7846
 5365SOL     OW27553   2.178   4.577   7.432  0.6630 -0.0249 -0.3257
 5365SOL    HW127554   2.236   4.647   7.402  1.1115  0.1038  0.8649
 5365SOL    HW227555   2.237   4.502   7.432 -0.3956 -0.8457  0.3689
 5366SOL     OW27556   1.865   4.102   6.127  0.0009 -0.3156 -0.2973
 5366SOL    HW127557   1.880   4.129   6.218  0.0391 -1.5759  0.0628
 5366SOL    HW227558   1.948   4.123   6.084 -0.3600 -0.3224 -0.9949
 5367SOL     OW27559   1.733   4.089   5.607 -0.4257 -0.1047 -0.3322
 5367SOL    HW127560   1.788   4.059   5.534 -1.4503 -2.1360 -0.2843
 5367SOL    HW227561   1.761   4.031   5.678  1.5839 -0.0271 -1.0494
 5368SOL     OW27562   4.072   1.912   8.293  0.6432  0.4253  0.1828
 5368SOL    HW127563   4.083   1.955   8.378  3.7948 -2.2508  1.1287
 5368SOL    HW227564   4.032   1.827   8.312  0.2371  0.0016 -2.6655
 5369SOL     OW27565   2.734   3.257  17.336 -0.4893  0.4702  0.3401
 5369SOL    HW127566   2.729   3.239  17.430 -2.1693  2.1434  0.5729
 5369SOL    HW227567   2.674   3.331  17.327 -0.6971  0.2914  0.2509
 5370SOL     OW27568   3.638   1.357   6.285 -0.5973  0.6503 -0.0903
 5370SOL    HW127569   3.694   1.358   6.207  1.3090  2.1470  1.2706
 5370SOL    HW227570   3.552   1.356   6.243  0.7197  1.3200 -2.8397
 5371SOL     OW27571   0.526   1.237   4.758  0.0484 -0.0246  0.0279
 5371SOL    HW127572   0.614   1.269   4.780 -0.2149  0.1304  0.8620
 5371SOL    HW227573   0.549   1.181   4.684 -0.5288 -0.2691  0.0355
 5372SOL     OW27574   1.139   1.107   4.660  0.1835 -0.2374 -0.5271
 5372SOL    HW127575   1.151   1.176   4.726 -1.5269  0.7194 -1.2342
 5372SOL    HW227576   1.161   1.035   4.720 -0.6817  0.3629  0.5031
 5373SOL     OW27577   0.545   3.558   4.679  0.0392  0.0653 -0.2561
 5373SOL    HW127578   0.632   3.547   4.639 -0.0875  0.0128 -0.5161
 5373SOL    HW227579   0.519   3.466   4.690 -1.8074  0.6267  0.0217
 5374SOL     OW27580   1.607   4.079   1.031 -0.9178 -0.3187  0.1707
 5374SOL    HW127581   1.546   4.097   1.103 -2.1457 -2.3582 -0.3492
 5374SOL    HW227582   1.688   4.074   1.081  1.0586  2.0167 -2.8743
 5375SOL     OW27583   4.679   0.122   5.628  0.0565 -0.4132  0.2227
 5375SOL    HW127584   4.669   0.048   5.688  1.7756 -0.2325  0.7493
 5375SOL    HW227585   0.027   0.090   5.572  0.3113 -0.0145  0.3254
 5376SOL     OW27586   4.468   1.039   5.962  0.2977 -0.0534 -0.3551
 5376SOL    HW127587   4.467   1.012   6.054  0.0775  2.1531  0.2903
 5376SOL    HW227588   4.505   1.126   5.980 -1.2286  1.3876 -3.9844
 5377SOL     OW27589   0.606   0.074   1.134 -0.3068  0.0795  0.3418
 5377SOL    HW127590   0.607   0.013   1.207  1.1198  1.2531  1.2916
 5377SOL    HW227591   0.540   0.136   1.166  1.0240  0.5388  2.2195
 5378SOL     OW27592   2.143   3.979  13.365 -0.9077 -0.0381 -0.0377
 5378SOL    HW127593   2.084   3.930  13.308 -0.3446 -0.4833 -0.2243
 5378SOL    HW227594   2.073   4.022  13.415 -1.5809 -1.1158 -0.0523
 5379SOL     OW27595   1.084   3.074   8.554  0.1658  0.2878  0.6085
 5379SOL    HW127596   1.162   3.121   8.523 -1.6678  2.6373 -0.4790
 5379SOL    HW227597   1.024   3.086   8.479 -0.0282 -1.9888  0.3970
 5380SOL     OW27598   4.300   0.836   7.737 -0.0859  0.3206 -0.0720
 5380SOL    HW127599   4.286   0.913   7.793  0.6951 -0.0353  0.6158
 5380SOL    HW227600   4.270   0.764   7.793 -0.0169  1.3686  1.3211
 5381SOL     OW27601   1.057   0.994  13.012 -0.4643  0.1049 -0.9846
 5381SOL    HW127602   1.110   1.071  13.031 -1.2423 -0.2874  2.7061
 5381SOL    HW227603   1.105   0.931  13.065 -0.3842 -0.4837 -1.7462
 5382SOL     OW27604   2.338   1.338   4.282  0.0716  0.8157 -0.7264
 5382SOL    HW127605   2.323   1.302   4.369  2.0991  0.9835 -0.3062
 5382SOL    HW227606   2.341   1.254   4.236 -0.6019  0.0645  0.6034
 5383SOL     OW27607   1.087   1.506  14.850 -0.7418  0.9296  0.7223
 5383SOL    HW127608   1.038   1.579  14.888  0.6956  0.7480  2.9192
 5383SOL    HW227609   1.021   1.463  14.795 -0.8851 -0.3767  1.8866
 5384SOL     OW27610   0.188   4.191  11.508  0.3930  0.6552  0.1098
 5384SOL    HW127611   0.245   4.120  11.536  3.0219  2.1947 -1.3416
 5384SOL    HW227612   0.236   4.262  11.550  0.3992  0.1593  0.9182
 5385SOL     OW27613   4.654   2.028   4.470 -0.2956  0.1581 -0.0244
 5385SOL    HW127614   4.699   2.036   4.386  0.7092  0.5060  0.5555
 5385SOL    HW227615   4.623   2.114   4.499  0.5332  0.2480  0.5821
 5386SOL     OW27616   0.325   3.410   8.054  0.4785 -0.3065  0.4979
 5386SOL    HW127617   0.371   3.469   7.995  0.4410  0.2276  1.0051
 5386SOL    HW227618   0.392   3.363   8.104  0.5640  0.3925  1.0311
 5387SOL     OW27619   2.969   2.238  14.836  0.7651  0.1769 -0.4420
 5387SOL    HW127620   2.976   2.227  14.931  1.1954  0.6873 -0.4217
 5387SOL    HW227621   3.060   2.265  14.826  1.3465 -2.1522 -1.3797
 5388SOL     OW27622   1.144   1.803   2.921 -0.0352  0.2240  0.5032
 5388SOL    HW127623   1.073   1.757   2.966  0.5410  1.6486  2.8429
 5388SOL    HW227624   1.151   1.886   2.968  0.8366  0.6993 -0.4657
 5389SOL     OW27625   4.524   2.259  13.872 -0.0025 -0.2480  0.4690
 5389SOL    HW127626   4.474   2.341  13.870  1.8190  0.8891  1.6971
 5389SOL    HW227627   4.460   2.191  13.890  0.3685 -0.9043 -0.6539
 5390SOL     OW27628   4.136   1.516  11.867  0.5708 -0.5758 -0.1192
 5390SOL    HW127629   4.187   1.551  11.795  2.9224  0.5643  2.1148
 5390SOL    HW227630   4.050   1.523  11.826  0.5742  1.3695  0.2263
 5391SOL     OW27631   1.569   3.805   8.261 -0.7884 -0.2593  0.0949
 5391SOL    HW127632   1.611   3.833   8.180 -0.9479  0.1146  0.1393
 5391SOL    HW227633   1.483   3.843   8.242  0.2420  0.6096 -2.9076
 5392SOL     OW27634   1.541   2.738   9.010  0.5240  0.0267  0.6217
 5392SOL    HW127635   1.489   2.716   8.933  0.4102 -0.8628  0.9613
 5392SOL    HW227636   1.476   2.740   9.080  1.4447 -3.5294  1.5741
 5393SOL     OW27637   2.101   0.520   3.759  0.7767  0.1974 -0.5519
 5393SOL    HW127638   2.174   0.559   3.807 -0.4140  0.1864  1.2503
 5393SOL    HW227639   2.024   0.521   3.816  1.4935  1.4145  0.3998
 5394SOL     OW27640   0.870   1.688   2.056  0.1476 -0.0405 -0.2133
 5394SOL    HW127641   0.813   1.694   1.978  1.9051  0.5496 -1.4481
 5394SOL    HW227642   0.835   1.759   2.110 -1.0248  0.9373 -2.2592
 5395SOL     OW27643   0.710   1.187   0.021  0.7072  0.0235 -0.9363
 5395SOL    HW127644   0.704   1.279  17.693 -0.8206 -0.1009 -1.0457
 5395SOL    HW227645   0.618   1.166   0.037  0.9974 -1.0147 -0.5756
 5396SOL     OW27646   1.909   1.323  17.688  0.3622 -0.0788 -0.1423
 5396SOL    HW127647   1.986   1.301  17.635  0.9926  0.2069  0.6623
 5396SOL    HW227648   1.908   1.246   0.049  0.2375 -0.3795 -0.5413
 5397SOL     OW27649   2.902   0.869  10.563  0.3174 -0.0334 -0.3152
 5397SOL    HW127650   2.894   0.782  10.523  2.8030 -0.2247 -0.3734
 5397SOL    HW227651   2.987   0.886  10.524 -0.2684  1.6094 -0.8633
 5398SOL     OW27652   1.230   0.801   7.909  0.6994  0.1995 -0.4337
 5398SOL    HW127653   1.180   0.779   7.831  0.4358  1.7398 -0.7073
 5398SOL    HW227654   1.180   0.874   7.945 -2.4409 -1.3344 -1.6738
 5399SOL     OW27655   3.603   0.054   3.225  0.2758 -0.2640  0.3340
 5399SOL    HW127656   3.543   4.703   3.220 -0.7542  0.7634 -2.4335
 5399SOL    HW227657   3.569   0.107   3.153  0.8902 -3.1332 -2.0410
 5400SOL     OW27658   1.971   4.612   3.492 -0.3001 -0.1071 -0.4591
 5400SOL    HW127659   2.046   4.629   3.436 -0.3084 -0.2490 -0.5115
 5400SOL    HW227660   1.896   4.630   3.435 -2.1236 -0.9497  1.6744
 5401SOL     OW27661   2.085   2.507   0.540 -1.0002  0.6931  0.3683
 5401SOL    HW127662   1.997   2.479   0.514 -1.5511  1.2738  1.5916
 5401SOL    HW227663   2.132   2.436   0.496 -2.1622 -0.5992  1.2402
 5402SOL     OW27664   0.647   0.191  12.412 -0.4274 -0.3311  0.2181
 5402SOL    HW127665   0.738   0.213  12.432 -1.0593  1.8854  0.5713
 5402SOL    HW227666   0.652   0.226  12.323 -3.7800  2.2831  1.0783
 5403SOL     OW27667   0.957   1.852   9.473 -0.2215 -0.6453  0.3617
 5403SOL    HW127668   1.029   1.805   9.430 -0.5309 -0.1021 -0.7537
 5403SOL    HW227669   0.949   1.804   9.555  1.7154  1.9674  2.0766
 5404SOL     OW27670   2.963   3.306  16.806 -0.1241 -0.2058 -0.0284
 5404SOL    HW127671   2.907   3.274  16.735  0.6769  0.2603 -0.8697
 5404SOL    HW227672   3.026   3.239  16.829 -1.0720 -1.3681 -0.7871
 5405SOL     OW27673   0.668   0.085   3.143 -0.0383  0.0700 -0.0612
 5405SOL    HW127674   0.582   0.128   3.135  0.9640  1.7228 -2.0419
 5405SOL    HW227675   0.724   0.152   3.180  3.2561 -3.2610  0.9729
 5406SOL     OW27676   2.929   3.866   9.282  0.3034 -0.2646  0.3124
 5406SOL    HW127677   2.835   3.852   9.273  0.6524 -1.7321 -1.2034
 5406SOL    HW227678   2.940   3.933   9.350 -1.7192  0.0964  0.2892
 5407SOL     OW27679   3.582   3.745   4.053  0.1108 -0.3720  0.3782
 5407SOL    HW127680   3.610   3.834   4.076 -1.7689  0.3340 -0.0925
 5407SOL    HW227681   3.487   3.755   4.056  0.2362  0.2036  3.0765
 5408SOL     OW27682   0.024   1.111   4.882  0.3964 -0.2614  0.3825
 5408SOL    HW127683   0.007   1.046   4.950 -0.5967 -0.7127 -0.2941
 5408SOL    HW227684   0.079   1.067   4.817 -1.2618  0.9960 -1.8389
 5409SOL     OW27685   4.211   4.070  15.804 -0.1165  0.2090  0.0233
 5409SOL    HW127686   4.229   4.164  15.801  1.6688 -0.1488 -0.6533
 5409SOL    HW227687   4.217   4.033  15.716 -2.4412  3.1960 -1.3773
 5410SOL     OW27688   3.810   2.131   9.408 -0.4594 -0.0987  0.0318
 5410SOL    HW127689   3.789   2.113   9.500 -0.7318  1.2795  0.2291
 5410SOL    HW227690   3.902   2.105   9.405 -0.2799  0.6546 -1.0616
 5411SOL     OW27691   3.248   1.311   6.817  0.0667  0.4027 -0.4742
 5411SOL    HW127692   3.336   1.276   6.802  0.4410  0.0311  2.6049
 5411SOL    HW227693   3.245   1.374   6.745 -1.2724  0.1987 -0.6015
 5412SOL     OW27694   1.505   4.313  11.439 -0.3884 -0.4161  0.2444
 5412SOL    HW127695   1.557   4.241  11.403  0.9353  1.0909 -0.8777
 5412SOL    HW227696   1.495   4.375  11.366 -0.9738  1.2938  1.7801
 5413SOL     OW27697   2.256   3.947   8.464  0.3623 -0.0690  0.3117
 5413SOL    HW127698   2.255   4.024   8.407  4.1581  0.8894  1.5542
 5413SOL    HW227699   2.324   3.970   8.527  1.3171  1.5139 -1.2811
 5414SOL     OW27700   0.921   4.397   0.587  0.1703 -0.0555 -0.1747
 5414SOL    HW127701   0.993   4.434   0.535  1.7332 -0.8380  1.4565
 5414SOL    HW227702   0.965   4.335   0.645  0.2242  0.8946  0.7956
 5415SOL     OW27703   3.357   2.229   8.531  0.4299  0.2527 -0.0403
 5415SOL    HW127704   3.282   2.288   8.539 -0.3607 -0.3712 -3.0111
 5415SOL    HW227705   3.413   2.278   8.591 -1.9481  0.0952  2.3143
 5416SOL     OW27706   1.310   3.196   2.618  0.0490 -0.2169 -0.1109
 5416SOL    HW127707   1.336   3.134   2.550 -1.0272  0.2370 -0.9353
 5416SOL    HW227708   1.250   3.251   2.568 -2.0897 -2.1508  0.3478
 5417SOL     OW27709   4.466   3.637   7.607 -0.0102  0.7055 -0.1070
 5417SOL    HW127710   4.504   3.580   7.675 -0.3570  1.1894  0.4872
 5417SOL    HW227711   4.413   3.573   7.559  0.0963 -0.1345  0.8821
 5418SOL     OW27712   0.997   3.999   5.488 -0.5572  0.2400  1.0260
 5418SOL    HW127713   0.976   3.959   5.404 -0.3610  2.1347  0.0561
 5418SOL    HW227714   1.060   3.932   5.513  1.1559  1.7382  0.7457
 5419SOL     OW27715   1.514   2.064   8.248 -0.4560 -0.0899 -0.4555
 5419SOL    HW127716   1.585   2.128   8.239  0.3739 -0.6446  1.9348
 5419SOL    HW227717   1.522   2.014   8.167 -0.7070  1.5967 -1.5103
 5420SOL     OW27718   1.953   4.572  12.786  0.3354  0.2876 -0.4280
 5420SOL    HW127719   2.000   4.507  12.734  1.9948  0.3006  1.0428
 5420SOL    HW227720   1.869   4.568  12.740 -0.1266 -2.5020  0.6852
 5421SOL     OW27721   3.458   0.047  17.135  1.1953 -0.8788 -0.5978
 5421SOL    HW127722   3.381   0.031  17.190 -0.0795  1.3606 -1.7147
 5421SOL    HW227723   3.497   0.130  17.164 -0.2653 -0.0789 -0.8745
 5422SOL     OW27724   1.626   2.353   8.869  0.3843 -0.1325  0.5417
 5422SOL    HW127725   1.616   2.369   8.775  1.3791  0.3701  0.5252
 5422SOL    HW227726   1.707   2.403   8.879  0.2643 -0.1082  1.3990
 5423SOL     OW27727   0.412   1.677   3.880 -0.0295 -0.3786 -0.2172
 5423SOL    HW127728   0.368   1.723   3.808 -0.6688  0.1428  0.5050
 5423SOL    HW227729   0.470   1.745   3.914 -1.3711  0.4366  0.4532
 5424SOL     OW27730   2.263   1.863   4.263  0.0385  0.1081 -0.4154
 5424SOL    HW127731   2.180   1.825   4.292 -0.5868  0.0220 -2.2973
 5424SOL    HW227732   2.332   1.799   4.282  0.9334  1.4488  0.9005
 5425SOL     OW27733   2.090   3.020   6.142 -0.3600  0.1544  0.0463
 5425SOL    HW127734   2.109   3.056   6.056  1.2922  0.8438  0.6960
 5425SOL    HW227735   2.175   2.986   6.168 -1.1693 -0.4115  1.9839
 5426SOL     OW27736   2.108   4.379   6.822  0.1961 -0.4867  0.2368
 5426SOL    HW127737   2.088   4.405   6.732 -1.4987  0.5033  0.9058
 5426SOL    HW227738   2.135   4.288   6.811  1.0588 -0.0642 -1.2438
 5427SOL     OW27739   0.876   4.654   6.380 -0.0761 -0.1423  0.3545
 5427SOL    HW127740   0.906   4.563   6.381  1.2445  0.2828 -1.2386
 5427SOL    HW227741   0.911   4.674   6.467  0.1820  1.9333 -0.2271
 5428SOL     OW27742   3.561   0.432   2.878 -0.0462  0.3272 -0.4144
 5428SOL    HW127743   3.489   0.494   2.864 -0.6303 -0.2006  0.2606
 5428SOL    HW227744   3.614   0.450   2.801 -2.1192 -0.9176 -2.1281
 5429SOL     OW27745   3.507   0.408   9.198  0.2958 -0.4274  0.3665
 5429SOL    HW127746   3.452   0.386   9.122 -1.6778  0.6365  1.4668
 5429SOL    HW227747   3.599   0.398   9.175  0.7716  2.0479  1.1639
 5430SOL     OW27748   4.119   3.336  11.507 -0.0455  0.0051  1.0503
 5430SOL    HW127749   4.211   3.312  11.494  0.0997 -0.0229  2.1135
 5430SOL    HW227750   4.086   3.248  11.526 -0.5785  0.0389  0.2791
 5431SOL     OW27751   2.583   4.319   8.017  0.1742 -0.0699  0.6199
 5431SOL    HW127752   2.606   4.289   8.105  0.2658 -0.6553  0.3918
 5431SOL    HW227753   2.491   4.300   8.002  0.2530 -1.1637  1.5511
 5432SOL     OW27754   2.232   3.806   2.267 -0.2640 -0.0065  0.3840
 5432SOL    HW127755   2.140   3.784   2.281 -0.5314  1.8298  1.4750
 5432SOL    HW227756   2.236   3.884   2.322  1.8359 -0.9807  1.6137
 5433SOL     OW27757   2.466   3.812   8.795 -0.4184  0.2815 -0.2131
 5433SOL    HW127758   2.506   3.729   8.821  1.0373  1.3326  0.9492
 5433SOL    HW227759   2.541   3.844   8.744 -0.3865 -1.6002 -1.3395
 5434SOL     OW27760   3.767   3.033   8.384 -0.2567 -0.9994  0.2975
 5434SOL    HW127761   3.811   3.118   8.376  0.8182 -1.4883  1.0403
 5434SOL    HW227762   3.694   3.057   8.327 -0.3818 -2.5990 -0.2103
 5435SOL     OW27763   4.026   1.113   9.978  0.2864  0.1086 -0.0789
 5435SOL    HW127764   4.013   1.184  10.042 -0.5858 -0.8144  0.7675
 5435SOL    HW227765   4.027   1.164   9.896  1.6111 -0.3218 -0.3274
 5436SOL     OW27766   0.428   1.472   7.321 -0.0377 -0.3922  0.0874
 5436SOL    HW127767   0.471   1.544   7.368 -0.2995  0.5270 -1.0980
 5436SOL    HW227768   0.345   1.488   7.367  0.6589  2.2674  0.4212
 5437SOL     OW27769   4.490   3.149   2.091  0.2086 -0.0509 -0.3813
 5437SOL    HW127770   4.558   3.082   2.088 -0.4539 -0.7364  0.2668
 5437SOL    HW227771   4.501   3.208   2.016  2.4627 -0.3649 -0.2911
 5438SOL     OW27772   1.782   2.925   8.583 -0.1629  0.7167  0.0826
 5438SOL    HW127773   1.835   2.938   8.504  0.3076 -0.4942  0.1977
 5438SOL    HW227774   1.780   3.011   8.624 -0.3649 -0.8952  3.4375
 5439SOL     OW27775   0.334   3.675  12.645  0.6915  0.4322 -0.8196
 5439SOL    HW127776   0.367   3.641  12.561 -1.1763 -3.1317 -0.1046
 5439SOL    HW227777   0.415   3.679  12.697 -1.7489 -1.3029  3.0944
 5440SOL     OW27778   3.420   4.567   3.551 -0.2512  0.1492 -0.3491
 5440SOL    HW127779   3.336   4.582   3.508 -1.1922  2.0699  2.1848
 5440SOL    HW227780   3.486   4.614   3.500  0.7919  1.2110  1.9542
 5441SOL     OW27781   1.421   0.957   4.899  0.1311  0.2779  0.1680
 5441SOL    HW127782   1.433   0.877   4.950 -2.0447 -0.4456 -0.4592
 5441SOL    HW227783   1.328   0.950   4.882 -0.2443 -0.9338  2.7917
 5442SOL     OW27784   0.050   3.639   6.820 -0.2039 -0.6051 -0.7919
 5442SOL    HW127785   4.721   3.559   6.816 -0.0557 -0.5032 -4.6876
 5442SOL    HW227786   0.139   3.606   6.821  0.1320  0.3396  0.6880
 5443SOL     OW27787   0.131   0.891   9.741  0.3032 -0.1100  0.1022
 5443SOL    HW127788   0.103   0.938   9.819 -0.2522  1.8724 -1.2796
 5443SOL    HW227789   0.155   0.960   9.679 -0.1069 -2.0914 -2.2724
 5444SOL     OW27790   3.830   2.210   5.404 -0.2780  0.0703  0.7298
 5444SOL    HW127791   3.820   2.299   5.370 -0.1882 -0.3632 -0.4405
 5444SOL    HW227792   3.738   2.184   5.397 -0.2995  0.0020  1.3107
 5445SOL     OW27793   1.344   3.080  12.970  0.2720  0.0926  0.1906
 5445SOL    HW127794   1.391   3.139  12.910  1.9048 -1.0575  0.3470
 5445SOL    HW227795   1.392   3.085  13.053  0.1329  1.6170  0.1801
 5446SOL     OW27796   2.437   0.362   8.376 -0.3160  0.4243  0.1937
 5446SOL    HW127797   2.488   0.299   8.325 -1.0303  0.9045 -1.1017
 5446SOL    HW227798   2.345   0.345   8.359 -0.4145 -0.8746  2.1137
 5447SOL     OW27799   2.519   2.191  12.176  0.3148  0.1103 -0.1525
 5447SOL    HW127800   2.550   2.280  12.163 -0.6542  0.1688 -2.1134
 5447SOL    HW227801   2.598   2.140  12.194 -0.8108 -1.8336 -0.6146
 5448SOL     OW27802   1.965   4.204  15.909  0.1934 -0.3474  0.0574
 5448SOL    HW127803   1.878   4.194  15.871  0.2576  1.2573 -0.5184
 5448SOL    HW227804   1.984   4.116  15.942  1.1620 -0.3740 -0.5535
 5449SOL     OW27805   0.214   1.668   4.332  0.1767  0.6587 -0.0504
 5449SOL    HW127806   0.206   1.595   4.394  0.3501 -1.3865 -2.4590
 5449SOL    HW227807   0.174   1.734   4.390  0.6959 -1.2525  2.5018
 5450SOL     OW27808   3.853   0.419  11.647 -0.2523  0.2910 -0.2004
 5450SOL    HW127809   3.782   0.475  11.616 -1.7331 -2.3075 -1.4894
 5450SOL    HW227810   3.867   0.450  11.737  1.2479 -1.1964  0.0632
 5451SOL     OW27811   4.195   1.027   2.534 -0.2315 -0.4974  0.2988
 5451SOL    HW127812   4.189   1.042   2.440  0.4914  0.4687  0.4081
 5451SOL    HW227813   4.257   0.955   2.545  1.1071  0.3125 -2.0447
 5452SOL     OW27814   0.504   2.673   0.755 -0.0452  0.1194  0.2890
 5452SOL    HW127815   0.443   2.736   0.717 -0.3196  0.9368  2.0602
 5452SOL    HW227816   0.471   2.657   0.844 -2.0574  2.4038 -0.0564
 5453SOL     OW27817   4.667   1.530  14.030 -0.4536 -0.2657 -0.3464
 5453SOL    HW127818   4.696   1.581  13.954  0.0341 -0.5222 -0.3385
 5453SOL    HW227819   4.579   1.564  14.021 -0.5261 -0.3151  0.1966
 5454SOL     OW27820   4.295   1.781  17.611  0.1637 -0.0834  0.0191
 5454SOL    HW127821   4.380   1.746  17.585 -0.2233 -1.4745  0.6364
 5454SOL    HW227822   4.241   1.733  17.547  0.8012 -0.7470 -0.0187
 5455SOL     OW27823   3.837   1.677   6.223  0.0370  0.1534  0.4582
 5455SOL    HW127824   3.858   1.738   6.153  1.4902 -1.1103 -0.1967
 5455SOL    HW227825   3.872   1.596   6.187  0.7960  0.9079 -0.4913
 5456SOL     OW27826   3.890   3.128   0.002  0.2208  0.6250 -0.3553
 5456SOL    HW127827   3.921   3.102  17.612  0.7273  1.1186 -0.3247
 5456SOL    HW227828   3.822   3.190  17.672 -0.8417 -0.0186  0.8572
 5457SOL     OW27829   1.068   0.437   0.809  0.3294 -0.0218 -0.6163
 5457SOL    HW127830   1.088   0.349   0.779  2.2248  0.8016 -1.8307
 5457SOL    HW227831   1.050   0.482   0.726 -2.1358 -0.9188 -0.5658
 5458SOL     OW27832   2.597   0.603  10.682 -0.0104 -0.3442 -0.0529
 5458SOL    HW127833   2.677   0.557  10.707 -0.5315 -0.1031  2.0201
 5458SOL    HW227834   2.591   0.569  10.592 -2.3019  1.5291 -0.6291
 5459SOL     OW27835   4.647   1.715   5.485 -0.2609 -0.0765 -0.1941
 5459SOL    HW127836   4.561   1.686   5.516  0.1856 -1.5616 -0.3413
 5459SOL    HW227837   4.694   1.737   5.566  1.1434  0.1455 -1.0693
 5460SOL     OW27838   4.688   2.242   7.935 -0.8606 -0.0438  0.0083
 5460SOL    HW127839   4.694   2.286   8.020 -1.7562 -0.2224  0.1579
 5460SOL    HW227840   4.697   2.303   7.862  1.3298 -1.2524 -0.7355
 5461SOL     OW27841   3.577   1.968   2.245  0.1067  0.2099 -0.2944
 5461SOL    HW127842   3.635   2.035   2.280  1.4358 -1.5462  0.8653
 5461SOL    HW227843   3.603   1.888   2.290 -2.7046 -0.4313  0.1537
 5462SOL     OW27844   2.747   2.860   3.295 -0.3771 -0.0297  0.0870
 5462SOL    HW127845   2.801   2.879   3.218 -1.0429  1.0316 -0.1118
 5462SOL    HW227846   2.660   2.898   3.282  0.7599  2.0802 -1.2480
 5463SOL     OW27847   3.545   1.271   8.447  0.8624  0.3035 -0.2299
 5463SOL    HW127848   3.487   1.336   8.407 -1.9960 -1.2946  1.3325
 5463SOL    HW227849   3.624   1.326   8.448  0.0651  1.4423 -0.3031
 5464SOL     OW27850   0.978   3.181   2.465  0.2209  0.3889 -0.7283
 5464SOL    HW127851   1.040   3.231   2.517  0.7619  0.2495 -1.2392
 5464SOL    HW227852   0.994   3.221   2.380 -2.5239  1.0672 -0.9382
 5465SOL     OW27853   0.624   2.344   1.459  0.5554 -0.3832 -0.1519
 5465SOL    HW127854   0.699   2.299   1.420 -0.1314  0.5088 -2.5135
 5465SOL    HW227855   0.654   2.359   1.549 -2.1443  0.6415  0.5562
 5466SOL     OW27856   4.545   1.301   6.067  0.0671 -0.5382 -0.0307
 5466SOL    HW127857   4.523   1.344   5.984 -0.5887 -1.6187 -0.4243
 5466SOL    HW227858   4.637   1.326   6.076 -0.2375  0.2054  0.9837
 5467SOL     OW27859   3.654   2.092   7.231 -0.0194 -0.5584 -0.5883
 5467SOL    HW127860   3.680   2.173   7.188 -0.0734 -0.1821  0.0857
 5467SOL    HW227861   3.585   2.067   7.170 -0.9467 -0.4809  0.4404
 5468SOL     OW27862   1.074   1.615  12.279  0.0549 -0.1466 -0.3649
 5468SOL    HW127863   1.070   1.520  12.290 -1.0926 -0.0875 -0.2204
 5468SOL    HW227864   1.129   1.634  12.355  0.1424 -0.1201 -0.4347
 5469SOL     OW27865   3.499   2.097  12.725 -0.0621  0.0624  0.1601
 5469SOL    HW127866   3.552   2.029  12.684  0.1310  0.9576 -1.0686
 5469SOL    HW227867   3.466   2.055  12.804 -1.2632  2.9157  1.1866
 5470SOL     OW27868   4.391   4.171   2.802 -0.1664  0.3118  0.0533
 5470SOL    HW127869   4.371   4.262   2.781 -0.8587  0.9616  3.4980
 5470SOL    HW227870   4.402   4.131   2.715 -0.1596  1.4935 -0.4862
 5471SOL     OW27871   3.887   1.847  15.104 -0.0549 -0.0400 -0.5363
 5471SOL    HW127872   3.948   1.838  15.030  2.1994 -1.2535  1.4321
 5471SOL    HW227873   3.833   1.923  15.086 -0.9496 -0.5200  0.1677
 5472SOL     OW27874   4.616   4.600   5.147  0.1645  0.6122  0.2374
 5472SOL    HW127875   4.560   4.677   5.156  0.0931  0.5776  0.0823
 5472SOL    HW227876   4.603   4.578   5.055  1.7778  0.5281  0.0251
 5473SOL     OW27877   2.884   2.820  16.317  0.0317 -0.0219  0.4907
 5473SOL    HW127878   2.915   2.760  16.386  0.1278  1.3727  1.6580
 5473SOL    HW227879   2.970   2.853  16.291  1.0603 -2.1072  1.2154
 5474SOL     OW27880   3.928   2.519  12.533 -0.4811 -0.0508 -0.6729
 5474SOL    HW127881   3.986   2.585  12.570  0.3224 -1.8298  1.2939
 5474SOL    HW227882   3.904   2.563  12.452 -1.7592  1.6955  0.6513
 5475SOL     OW27883   3.167   3.424   6.181  0.1501 -0.0711  0.2471
 5475SOL    HW127884   3.193   3.487   6.249 -1.7284  0.1846  0.7296
 5475SOL    HW227885   3.254   3.425   6.141  0.1337  0.8204  0.2336
 5476SOL     OW27886   0.185   2.771   7.607 -0.3776 -0.4706 -0.1300
 5476SOL    HW127887   0.216   2.683   7.629 -0.4100 -0.6288 -0.7117
 5476SOL    HW227888   0.161   2.759   7.515 -0.3897 -5.1732  0.4839
 5477SOL     OW27889   0.487   2.896   7.338 -0.0050 -0.2882  0.0800
 5477SOL    HW127890   0.506   2.850   7.256  1.5045 -0.0216  0.2713
 5477SOL    HW227891   0.394   2.918   7.336 -0.3505 -1.8576 -0.4725
 5478SOL     OW27892   1.419   1.549   5.886 -0.4090 -0.1360  0.3824
 5478SOL    HW127893   1.499   1.561   5.936 -0.3037 -1.5436  0.5359
 5478SOL    HW227894   1.411   1.642   5.865  2.5093  0.2354  0.9022
 5479SOL     OW27895   2.474   1.730  17.410 -0.2178 -0.3544 -0.3217
 5479SOL    HW127896   2.401   1.779  17.446 -0.8329 -1.8545  0.4820
 5479SOL    HW227897   2.550   1.780  17.441  1.0724 -2.1779 -0.4861
 5480SOL     OW27898   3.821   2.441   6.064  0.3431 -0.0215 -0.3225
 5480SOL    HW127899   3.734   2.479   6.060  0.8510  0.9146 -2.4675
 5480SOL    HW227900   3.881   2.497   6.015 -0.9259  2.1279  0.6070
 5481SOL     OW27901   0.183   4.150  12.902  0.0454 -0.3533 -0.0160
 5481SOL    HW127902   0.170   4.136  12.808  1.4140  1.5311 -0.4788
 5481SOL    HW227903   0.269   4.191  12.903  1.0300 -2.4506  0.7747
 5482SOL     OW27904   1.405   0.714   7.088  0.5611  0.1761  0.3178
 5482SOL    HW127905   1.406   0.759   7.172  2.5079  3.3054 -1.3924
 5482SOL    HW227906   1.445   0.776   7.027 -0.9399 -2.4766 -3.4294
 5483SOL     OW27907   4.068   4.150   4.044  0.1381 -0.2104 -0.2419
 5483SOL    HW127908   4.039   4.083   3.982 -0.8649  0.8245 -0.8864
 5483SOL    HW227909   3.987   4.187   4.078  0.9515 -0.5720  2.0626
 5484SOL     OW27910   3.099   2.058   6.471 -0.0577  0.7355 -0.1620
 5484SOL    HW127911   3.149   2.140   6.463 -0.5475  1.0790  0.2586
 5484SOL    HW227912   3.164   1.996   6.504 -0.1550  1.1513  0.8281
 5485SOL     OW27913   2.274   2.124   0.583  0.5901 -0.1608  0.2425
 5485SOL    HW127914   2.199   2.172   0.549 -1.0988 -2.3554  0.8296
 5485SOL    HW227915   2.347   2.186   0.581  0.4870 -0.0750 -0.6794
 5486SOL     OW27916   3.286   2.685   8.864 -0.0246  0.3366  0.4384
 5486SOL    HW127917   3.208   2.733   8.836 -0.0575 -0.4849 -0.9338
 5486SOL    HW227918   3.271   2.676   8.958  0.3869  1.0486  0.5690
 5487SOL     OW27919   2.844   2.072   9.447  0.2941 -0.1770  0.2296
 5487SOL    HW127920   2.891   2.133   9.391 -0.4537  0.5199  0.3569
 5487SOL    HW227921   2.765   2.126   9.457  0.0714 -0.5071  0.2456
 5488SOL     OW27922   2.580   2.180   7.231  0.2989 -0.4227 -0.4594
 5488SOL    HW127923   2.619   2.226   7.157  0.2203 -0.5773 -0.5966
 5488SOL    HW227924   2.618   2.095   7.210  2.1452  0.4085 -0.4449
 5489SOL     OW27925   0.699   0.396   3.097  0.1730 -0.3150  0.1616
 5489SOL    HW127926   0.742   0.475   3.063  2.2438 -1.3446  0.3588
 5489SOL    HW227927   0.608   0.412   3.071  0.3950 -2.9370 -2.2112
 5490SOL     OW27928   0.015   0.975  12.059 -0.9434 -0.3838 -0.0175
 5490SOL    HW127929   0.076   0.918  12.105  0.4201  2.5146  1.7462
 5490SOL    HW227930   4.690   0.919  11.998 -1.1422  0.0216 -0.2306
 5491SOL     OW27931   0.408   0.977   6.603  0.1135  0.3944 -0.4774
 5491SOL    HW127932   0.424   0.979   6.697 -0.8571  2.6512 -0.3663
 5491SOL    HW227933   0.409   0.883   6.586  1.8193  0.2158  0.6125
 5492SOL     OW27934   1.978   1.136   3.831 -0.0552  0.3157 -0.4397
 5492SOL    HW127935   2.019   1.199   3.890  1.0883 -0.0158 -0.8702
 5492SOL    HW227936   2.051   1.082   3.799 -0.0812  0.7145 -1.1678
 5493SOL     OW27937   2.600   3.379   6.486 -0.1023 -0.2737 -0.6289
 5493SOL    HW127938   2.544   3.346   6.556 -1.0306  0.4091 -1.0631
 5493SOL    HW227939   2.607   3.304   6.427 -0.1644 -0.4451 -0.4202
 5494SOL     OW27940   2.490   3.504   6.114 -0.2820  0.3118 -0.6122
 5494SOL    HW127941   2.571   3.459   6.136  1.2233  3.0930 -0.4680
 5494SOL    HW227942   2.474   3.561   6.190 -2.0494  0.7946 -1.3413
 5495SOL     OW27943   4.263   3.607   2.457  0.1876  0.3607 -0.1006
 5495SOL    HW127944   4.193   3.561   2.503 -0.3114  1.1741 -0.0463
 5495SOL    HW227945   4.215   3.686   2.431 -1.7446 -0.0589  2.1539
 5496SOL     OW27946   0.658   1.595   7.818 -0.6342  0.2527  0.2294
 5496SOL    HW127947   0.598   1.646   7.872 -0.1665  2.0492 -0.9830
 5496SOL    HW227948   0.643   1.507   7.854 -1.0184  0.8214  1.4564
 5497SOL     OW27949   3.119   4.212  14.384  0.0202 -0.1991 -0.2308
 5497SOL    HW127950   3.062   4.288  14.386  2.0376  1.2211  3.4545
 5497SOL    HW227951   3.065   4.156  14.328 -1.4941  2.5984 -1.5179
 5498SOL     OW27952   0.642   2.832   1.790  0.1629  0.0742 -0.1085
 5498SOL    HW127953   0.560   2.865   1.828  0.3836 -0.9192  1.2378
 5498SOL    HW227954   0.662   2.894   1.720 -0.8851  0.0179 -0.4662
 5499SOL     OW27955   2.860   4.635   1.658 -1.0380  0.5919 -0.7378
 5499SOL    HW127956   2.875   4.601   1.569  1.1065  2.0837 -0.9361
 5499SOL    HW227957   2.858   4.548   1.700  0.1190  0.0991 -1.7143
 5500SOL     OW27958   2.092   2.139  12.439  0.2566 -0.5578 -0.8714
 5500SOL    HW127959   2.079   2.107  12.528 -3.8578 -0.4330 -1.4102
 5500SOL    HW227960   2.186   2.121  12.432  0.4023  0.7153 -2.3760
 5501SOL     OW27961   3.019   3.667  12.328 -0.4272  0.1114 -0.5317
 5501SOL    HW127962   3.038   3.706  12.414 -0.2110 -0.4396 -0.3313
 5501SOL    HW227963   3.103   3.642  12.291 -0.3877  0.7786 -0.8827
 5502SOL     OW27964   1.454   0.208  17.450 -0.1666  0.5003  0.0127
 5502SOL    HW127965   1.432   0.296  17.420 -1.8354 -0.2357 -0.9510
 5502SOL    HW227966   1.395   0.199  17.525 -0.9316  0.0145 -0.6442
 5503SOL     OW27967   2.549   1.033  12.983  0.3048 -0.7719  0.2088
 5503SOL    HW127968   2.600   1.069  12.910 -0.6361 -2.3653 -1.2173
 5503SOL    HW227969   2.465   1.017  12.941 -0.7456  1.4362  1.4812
 5504SOL     OW27970   4.660   2.193   5.119 -0.4394 -0.2760 -0.5562
 5504SOL    HW127971   0.008   2.181   5.057 -0.4758 -3.4081 -0.0250
 5504SOL    HW227972   4.593   2.216   5.055 -0.7824 -2.1719 -0.8787
 5505SOL     OW27973   0.538   1.400   1.770 -0.2784 -0.2651  0.0049
 5505SOL    HW127974   0.473   1.433   1.833  0.4233  0.5143  0.3210
 5505SOL    HW227975   0.623   1.401   1.814 -0.0095 -0.6187 -0.5193
 5506SOL     OW27976   2.066   4.469   2.573  0.1119 -0.2774 -0.0152
 5506SOL    HW127977   2.021   4.519   2.505  0.3113  1.3919  1.0868
 5506SOL    HW227978   2.058   4.521   2.652  0.4405 -0.0514 -0.1322
 5507SOL     OW27979   1.552   1.342   7.030  0.1845  0.7819  0.1075
 5507SOL    HW127980   1.482   1.283   7.002 -0.0973  0.3463  1.7656
 5507SOL    HW227981   1.604   1.361   6.952  0.9336 -2.2178 -0.1447
 5508SOL     OW27982   1.153   2.426   4.718  0.4574 -0.1206  0.4483
 5508SOL    HW127983   1.097   2.476   4.659  0.8704  0.5509  0.6391
 5508SOL    HW227984   1.112   2.340   4.705 -0.6592  0.2388  1.5394
 5509SOL     OW27985   4.361   4.285   1.180  0.4290 -0.2429 -0.6544
 5509SOL    HW127986   4.445   4.330   1.167  0.8230 -0.4149  1.2084
 5509SOL    HW227987   4.383   4.201   1.139  0.2563 -0.9873  0.7615
 5510SOL     OW27988   0.504   3.007   6.374  0.0554  0.2076  0.0833
 5510SOL    HW127989   0.424   3.036   6.330  1.9892  0.4729 -3.2658
 5510SOL    HW227990   0.562   3.083   6.381  0.0379  0.2017  0.2921
 5511SOL     OW27991   4.122   1.300   7.973 -0.6730 -0.5222  0.2001
 5511SOL    HW127992   4.213   1.316   7.945 -1.4282  0.1756 -1.8517
 5511SOL    HW227993   4.132   1.293   8.067 -1.0349 -0.6474  0.2278
 5512SOL     OW27994   0.548   0.969   4.258  0.3175  0.3073  0.3596
 5512SOL    HW127995   0.528   0.997   4.168  1.8136  0.1997 -0.0157
 5512SOL    HW227996   0.623   0.911   4.240 -1.4272 -1.5270 -0.9535
 5513SOL     OW27997   4.100   2.215   2.094  0.4966 -0.1462  0.2404
 5513SOL    HW127998   4.028   2.210   2.031 -0.5311  2.4015  1.2037
 5513SOL    HW227999   4.055   2.269   2.160  0.5607  0.7024 -0.4086
 5514SOL     OW28000   2.530   4.402  17.238 -0.1412 -0.1146 -0.1056
 5514SOL    HW128001   2.491   4.342  17.174  1.1837  0.1163 -1.1213
 5514SOL    HW228002   2.453   4.432  17.286  0.6604  0.1593  1.0019
 5515SOL     OW28003   1.853   4.088   1.174  0.2264  0.2992 -0.3958
 5515SOL    HW128004   1.921   4.151   1.152 -1.8360  2.2157 -1.2429
 5515SOL    HW228005   1.906   4.008   1.178 -0.9015 -0.4536 -0.3856
 5516SOL     OW28006   3.711   0.098  11.215 -0.5619 -0.3969 -0.3715
 5516SOL    HW128007   3.741   0.008  11.229 -0.8595 -0.0263  2.5575
 5516SOL    HW228008   3.792   0.133  11.176 -0.7728  1.3183  0.7359
 5517SOL     OW28009   2.984   3.690   5.711 -0.3210  0.0546 -0.2424
 5517SOL    HW128010   3.057   3.729   5.760  0.4298 -1.2644 -0.2980
 5517SOL    HW228011   2.994   3.729   5.625  0.9800 -0.6266 -0.3970
 5518SOL     OW28012   3.585   2.593  13.012 -0.4102 -0.0944  0.1619
 5518SOL    HW128013   3.511   2.606  13.071 -1.2628 -0.2870 -0.8617
 5518SOL    HW228014   3.536   2.543  12.947 -1.5338  2.0868 -0.6354
 5519SOL     OW28015   1.354   1.232   2.734 -0.3048 -0.3815 -0.1901
 5519SOL    HW128016   1.339   1.255   2.642 -0.5134 -1.8138 -0.5038
 5519SOL    HW228017   1.449   1.244   2.742 -0.1138  0.0819 -3.0251
 5520SOL     OW28018   3.402   3.918  11.869  0.0325 -0.2480 -0.2145
 5520SOL    HW128019   3.491   3.942  11.843  0.5391 -0.3951  1.4292
 5520SOL    HW228020   3.415   3.927  11.963 -0.8476 -0.8226 -0.0381
 5521SOL     OW28021   0.250   0.335   3.893  0.3085  0.3090 -0.0534
 5521SOL    HW128022   0.183   0.276   3.924  0.0548  0.6095 -0.0319
 5521SOL    HW228023   0.206   0.412   3.856 -0.1103  0.5083  0.8815
 5522SOL     OW28024   0.083   1.150  12.503 -0.5840  0.5282 -0.3329
 5522SOL    HW128025   0.094   1.062  12.540  1.3802  0.1039 -1.9886
 5522SOL    HW228026   0.014   1.142  12.438 -1.1613 -1.2146  0.5032
 5523SOL     OW28027   0.330   2.501  12.115 -0.2241 -0.1249 -0.5505
 5523SOL    HW128028   0.323   2.576  12.057 -0.3701  0.0808 -0.2678
 5523SOL    HW228029   0.425   2.492  12.122 -0.1324  1.5033  0.4348
 5524SOL     OW28030   1.824   3.994   1.576 -0.2033  0.2263 -0.3190
 5524SOL    HW128031   1.758   4.015   1.642 -0.7688  1.2981 -1.2290
 5524SOL    HW228032   1.776   4.021   1.498  1.4256  0.8317 -1.1100
 5525SOL     OW28033   1.652   3.260   7.250 -0.1078  0.0395 -0.1749
 5525SOL    HW128034   1.612   3.332   7.299  0.6606 -0.6160  1.3981
 5525SOL    HW228035   1.743   3.288   7.261 -0.1909  0.4742 -0.5740
 5526SOL     OW28036   0.513   0.184   9.065  0.4754 -0.8323  0.4272
 5526SOL    HW128037   0.502   0.249   8.995  1.4164 -1.4525 -0.2844
 5526SOL    HW228038   0.466   0.233   9.134  3.6235  1.2264  1.1114
 5527SOL     OW28039   0.027   0.806   4.414 -0.2703 -0.0581 -0.5785
 5527SOL    HW128040   4.720   0.891   4.384 -0.6836 -0.1203 -0.3271
 5527SOL    HW228041   0.121   0.802   4.391 -0.7533  2.6180 -2.9937
 5528SOL     OW28042   4.537   3.771  14.587 -0.4773  0.0880  0.2431
 5528SOL    HW128043   4.534   3.796  14.679 -1.0884 -0.6593  0.4255
 5528SOL    HW228044   4.565   3.680  14.591  0.4959  0.3685 -0.1650
 5529SOL     OW28045   2.921   1.844   8.829 -0.0166 -0.1560 -0.3239
 5529SOL    HW128046   2.832   1.865   8.802 -0.3033 -0.3402  0.4860
 5529SOL    HW228047   2.944   1.778   8.763  0.7998 -0.2899  0.0931
 5530SOL     OW28048   2.996   0.085  16.815 -0.3432  0.3141 -0.4213
 5530SOL    HW128049   2.933   0.156  16.802 -0.7075  0.4741  2.3264
 5530SOL    HW228050   2.952   0.034  16.883  1.5336  0.6625  1.0277
 5531SOL     OW28051   0.118   1.313   3.502 -0.1683  0.3984 -0.8759
 5531SOL    HW128052   0.044   1.370   3.518 -1.3217 -1.2476 -0.3436
 5531SOL    HW228053   0.130   1.325   3.408 -0.7394 -1.6688 -1.2089
 5532SOL     OW28054   0.565   1.475   3.120 -0.4757 -0.6134 -0.0063
 5532SOL    HW128055   0.532   1.437   3.202 -1.2841 -0.8320 -0.4365
 5532SOL    HW228056   0.525   1.412   3.060  1.3689  0.0411 -1.8840
 5533SOL     OW28057   0.716   1.661   6.851 -0.1408  0.6554 -0.3498
 5533SOL    HW128058   0.655   1.730   6.828  0.7488  2.5674  3.1731
 5533SOL    HW228059   0.795   1.713   6.867  1.6387 -2.0925 -0.1307
 5534SOL     OW28060   2.622   2.516   9.133 -0.1592  0.3496  0.1477
 5534SOL    HW128061   2.654   2.527   9.223 -0.3127 -1.1936  0.3916
 5534SOL    HW228062   2.657   2.596   9.094  1.9842 -0.3578  0.6573
 5535SOL     OW28063   0.861   3.587   5.296  0.6715 -0.3063 -0.2272
 5535SOL    HW128064   0.916   3.577   5.218 -0.8014 -0.2764 -1.2629
 5535SOL    HW228065   0.776   3.558   5.264  2.0323 -2.0118 -2.3086
 5536SOL     OW28066   2.783   4.073   5.984  0.4694 -0.0408  0.6052
 5536SOL    HW128067   2.844   4.048   6.054  1.9769  0.8158 -0.4055
 5536SOL    HW228068   2.759   3.986   5.950 -0.8795  0.0003  1.4851
 5537SOL     OW28069   4.480   0.020   3.970 -0.9804 -0.0183  0.4573
 5537SOL    HW128070   4.504   4.656   3.939 -0.3676  0.7916 -1.3141
 5537SOL    HW228071   4.412   0.039   3.905 -1.3062  0.5658  0.9717
 5538SOL     OW28072   4.431   0.567  17.602 -0.0720  0.1264 -0.2760
 5538SOL    HW128073   4.469   0.549  17.687 -1.1783 -2.9223 -0.4394
 5538SOL    HW228074   4.464   0.492  17.553  0.5445  0.3239 -0.1580
 5539SOL     OW28075   3.970   2.690   6.567  0.0143 -0.3293  0.1877
 5539SOL    HW128076   4.061   2.719   6.559 -0.7187  1.9236 -0.0024
 5539SOL    HW228077   3.936   2.660   6.483  2.6642 -0.5649 -0.7987
 5540SOL     OW28078   4.026   0.517  17.173 -0.3000 -0.4642  0.1943
 5540SOL    HW128079   3.989   0.515  17.085 -3.7791  0.6945  1.6259
 5540SOL    HW228080   4.080   0.595  17.171  1.0632 -1.3775  1.2873
 5541SOL     OW28081   4.636   3.489   8.570  0.0269 -0.5453 -0.3323
 5541SOL    HW128082   4.609   3.420   8.631  0.3187  1.8295  2.5261
 5541SOL    HW228083   4.695   3.545   8.621 -0.6102 -0.9583  0.8555
 5542SOL     OW28084   1.673   4.354  10.192  0.2835  0.4212  0.4642
 5542SOL    HW128085   1.597   4.381  10.243  0.6460 -1.3551  1.8986
 5542SOL    HW228086   1.666   4.407  10.112  0.2409  1.3071  1.0606
 5543SOL     OW28087   2.977   4.012   6.180 -0.1959 -0.1863  0.2841
 5543SOL    HW128088   2.924   4.021   6.259 -2.4644  0.3983 -1.2893
 5543SOL    HW228089   3.020   3.930   6.201 -0.8708 -0.1126  1.9446
 5544SOL     OW28090   1.870   1.072  17.004  0.4334  0.1765  0.0488
 5544SOL    HW128091   1.887   1.154  16.958 -0.5746  0.1935 -0.2882
 5544SOL    HW228092   1.911   1.085  17.089 -2.3727  1.0174  1.2657
 5545SOL     OW28093   3.080   1.370   4.800  0.0803 -0.0917  0.0679
 5545SOL    HW128094   3.027   1.349   4.723  1.8104 -0.3388 -1.0437
 5545SOL    HW228095   3.115   1.287   4.832  0.3450  0.6349  1.6238
 5546SOL     OW28096   1.348   2.260  11.945  0.3336 -0.3483 -0.4405
 5546SOL    HW128097   1.404   2.234  12.018  1.2454 -1.0815 -1.3978
 5546SOL    HW228098   1.373   2.184  11.892  0.5589  0.0086 -0.8485
 5547SOL     OW28099   2.841   2.262   0.425 -0.0729 -0.1547 -0.4011
 5547SOL    HW128100   2.823   2.192   0.488  2.4562 -0.5004 -0.0692
 5547SOL    HW228101   2.849   2.336   0.485  0.6234  0.5189 -1.3411
 5548SOL     OW28102   1.212   0.629   3.074  0.2585  0.0808  0.7090
 5548SOL    HW128103   1.300   0.647   3.107  1.0690 -0.3086 -1.2015
 5548SOL    HW228104   1.201   0.538   3.100  2.2246 -0.6673 -1.0351
 5549SOL     OW28105   4.053   2.617   7.673  0.1313 -0.2330  0.5986
 5549SOL    HW128106   3.992   2.644   7.742  0.2964  1.0646  0.2498
 5549SOL    HW228107   4.109   2.565   7.731  0.9991  0.7733  0.6621
 5550SOL     OW28108   2.617   4.302   8.582  0.3424  0.2645  0.3286
 5550SOL    HW128109   2.555   4.364   8.543  0.7689  2.0441  2.4609
 5550SOL    HW228110   2.616   4.343   8.668  3.2005 -1.5278  1.2018
 5551SOL     OW28111   2.668   1.270   7.198 -0.3928  0.1939 -0.6280
 5551SOL    HW128112   2.741   1.208   7.206 -1.0833 -0.4759  0.4759
 5551SOL    HW228113   2.640   1.297   7.286  0.1659  0.0121 -0.3895
 5552SOL     OW28114   3.767   1.065   0.665  0.0452 -0.0848  0.4571
 5552SOL    HW128115   3.713   1.064   0.586 -0.6183  1.6035  0.8903
 5552SOL    HW228116   3.703   1.093   0.731  0.6972  0.7327  0.7347
 5553SOL     OW28117   2.102   0.771   2.763  0.2332  0.0461  0.4901
 5553SOL    HW128118   2.174   0.751   2.823  0.4040 -2.0505 -0.4319
 5553SOL    HW228119   2.107   0.702   2.697 -0.8473  2.6744 -2.3524
 5554SOL     OW28120   3.173   4.519   8.049  0.0646  0.5809 -0.1976
 5554SOL    HW128121   3.268   4.515   8.058 -0.1212  0.2649  1.6580
 5554SOL    HW228122   3.156   4.443   7.993 -0.0154  0.2186  0.3214
 5555SOL     OW28123   4.634   2.211   2.291  0.0178  0.1991  0.4527
 5555SOL    HW128124   4.652   2.229   2.383 -1.3232  0.3047  0.6903
 5555SOL    HW228125   4.542   2.188   2.301  0.5090 -1.8449  0.3065
 5556SOL     OW28126   3.414   0.257   4.937 -0.0387 -0.0086  0.0674
 5556SOL    HW128127   3.354   0.270   4.864 -2.0905  2.6970  2.2106
 5556SOL    HW228128   3.455   0.177   4.903  1.8457  0.6999  0.6834
 5557SOL     OW28129   1.444   2.680  12.912  0.1137  0.3668  0.2283
 5557SOL    HW128130   1.397   2.611  12.865  0.7819  0.8999 -1.2051
 5557SOL    HW228131   1.517   2.682  12.851 -0.8509 -0.6865 -0.9465
 5558SOL     OW28132   4.059   4.664  11.082 -0.1272 -0.3674 -0.7364
 5558SOL    HW128133   4.110   4.656  11.001 -1.3330 -1.5539 -1.3715
 5558SOL    HW228134   4.025   0.029  11.071  0.9637  0.0694 -0.6439
 5559SOL     OW28135   0.347   3.105   5.592 -0.1450  0.0875  0.3892
 5559SOL    HW128136   0.271   3.080   5.646 -0.5430  1.6533  0.5415
 5559SOL    HW228137   0.391   3.022   5.574 -3.1881 -2.2607  3.7080
 5560SOL     OW28138   1.958   3.210  14.155  0.2366 -0.9855  0.1634
 5560SOL    HW128139   1.923   3.272  14.091 -0.4753 -0.1242  1.3831
 5560SOL    HW228140   1.979   3.272  14.225  2.9072 -1.3650 -0.2716
 5561SOL     OW28141   3.800   2.491   5.005  0.1407 -0.1892  0.2665
 5561SOL    HW128142   3.872   2.504   4.943  0.0243  0.1223  0.1938
 5561SOL    HW228143   3.747   2.566   4.977 -1.5131 -1.6666 -0.4985
 5562SOL     OW28144   1.540   2.746   3.069 -0.5189 -0.0734 -0.4944
 5562SOL    HW128145   1.556   2.664   3.023  1.4141  0.7369 -1.2665
 5562SOL    HW228146   1.630   2.776   3.079 -0.6480  1.0335 -2.4807
 5563SOL     OW28147   1.051   4.035  15.314 -0.7505 -0.0446  0.2471
 5563SOL    HW128148   1.122   4.096  15.292 -1.3739  0.5127 -0.2141
 5563SOL    HW228149   1.024   4.055  15.403 -0.2112 -1.1943  0.6711
 5564SOL     OW28150   3.634   2.767  13.290 -0.2332  0.3234  0.2219
 5564SOL    HW128151   3.713   2.740  13.337 -1.0168 -0.1612  1.2497
 5564SOL    HW228152   3.559   2.760  13.349 -1.1060 -1.6752 -1.0950
 5565SOL     OW28153   3.200   0.048   5.117 -0.4349  0.2489 -0.1653
 5565SOL    HW128154   3.140   0.085   5.182 -1.2617  1.0175 -1.3529
 5565SOL    HW228155   3.275   0.015   5.165 -0.7182 -0.2395 -0.0593
 5566SOL     OW28156   2.294   3.901  12.856 -0.5803 -0.7712 -0.2079
 5566SOL    HW128157   2.360   3.930  12.794 -0.1904  0.4224  0.7616
 5566SOL    HW228158   2.241   3.981  12.866  0.4296 -0.0330 -0.6915
 5567SOL     OW28159   2.478   4.308   2.640 -0.4726  0.0676  0.0680
 5567SOL    HW128160   2.444   4.374   2.580 -0.4460  1.0334  1.1150
 5567SOL    HW228161   2.391   4.299   2.679 -0.1733  0.6625  0.8784
 5568SOL     OW28162   4.460   4.365  13.474 -0.2533  0.0772  0.0887
 5568SOL    HW128163   4.526   4.425  13.441 -0.2301  0.4802  0.8758
 5568SOL    HW228164   4.492   4.330  13.557 -0.8297  2.8806  1.4963
 5569SOL     OW28165   0.260   4.560   8.870  0.3504 -0.1395  0.3621
 5569SOL    HW128166   0.237   4.473   8.902  0.2960  0.1027  0.9678
 5569SOL    HW228167   0.217   4.553   8.784 -2.2534 -0.0626  1.6559
 5570SOL     OW28168   4.655   4.130   3.687  0.4498 -0.4574 -0.2722
 5570SOL    HW128169   4.654   4.150   3.593  1.5780  1.6450  0.1748
 5570SOL    HW228170   0.016   4.085   3.688  1.4162  1.3037 -2.8370
 5571SOL     OW28171   2.249   1.282   7.699 -0.1099  0.1351  0.1082
 5571SOL    HW128172   2.210   1.323   7.776 -0.9574 -0.4316 -0.0169
 5571SOL    HW228173   2.170   1.255   7.652  1.3578  0.8615 -2.8370
 5572SOL     OW28174   2.318   1.066  13.797 -0.2106  0.3505  0.0162
 5572SOL    HW128175   2.404   1.080  13.758 -0.9203  0.1710 -1.5739
 5572SOL    HW228176   2.341   1.026  13.881  0.6732  1.0694  0.1108
 5573SOL     OW28177   0.725   0.629  17.511 -0.4765  0.1646 -0.7240
 5573SOL    HW128178   0.637   0.591  17.521  0.5944 -0.9812  4.4250
 5573SOL    HW228179   0.745   0.601  17.422  2.4103  0.1498 -0.0620
 5574SOL     OW28180   2.822   2.976   9.155  0.1591 -0.1590 -0.1657
 5574SOL    HW128181   2.798   3.005   9.243 -0.7641 -2.0317  0.1978
 5574SOL    HW228182   2.909   2.939   9.172  0.5729 -0.7231 -3.5625
 5575SOL     OW28183   0.880   1.858   3.436  0.3521  0.5860 -0.1477
 5575SOL    HW128184   0.809   1.864   3.500  0.3497 -0.0256 -0.0893
 5575SOL    HW228185   0.884   1.763   3.428 -2.5350  0.4914 -0.4276
 5576SOL     OW28186   4.242   2.062  14.903 -0.2628  0.7959 -0.1719
 5576SOL    HW128187   4.171   1.998  14.895 -0.5091  1.0012  0.4082
 5576SOL    HW228188   4.246   2.074  14.998 -0.1931 -1.5623  0.1279
 5577SOL     OW28189   4.651   3.084   7.880  0.5876 -0.0493 -0.4111
 5577SOL    HW128190   4.679   3.045   7.797  0.0221 -0.5994 -0.3448
 5577SOL    HW228191   4.709   3.036   7.939 -0.9099 -0.4816  0.7098
 5578SOL     OW28192   4.706   0.496   5.304 -0.2816  0.7869  0.3289
 5578SOL    HW128193   4.663   0.467   5.223  1.1662  0.4450 -0.3167
 5578SOL    HW228194   0.071   0.500   5.268 -0.4180  0.7066 -0.0217
 5579SOL     OW28195   4.387   3.595  10.802  0.1279 -0.0294  0.4268
 5579SOL    HW128196   4.482   3.596  10.809  0.3431 -0.0903 -2.5775
 5579SOL    HW228197   4.362   3.511  10.841 -1.1132 -0.3929 -1.1253
 5580SOL     OW28198   2.321   2.139   7.179  0.1412 -0.1762 -0.1600
 5580SOL    HW128199   2.414   2.154   7.196  0.1681 -1.1796  0.5480
 5580SOL    HW228200   2.320   2.044   7.188 -1.9119 -0.1506 -0.0824
 5581SOL     OW28201   1.589   3.838   9.965 -0.1654  0.4077 -0.4116
 5581SOL    HW128202   1.627   3.915  10.008 -1.8755  0.2528  1.3559
 5581SOL    HW228203   1.668   3.789   9.940 -2.3524 -2.8432 -0.9185
 5582SOL     OW28204   3.897   4.455  12.495 -0.5314 -0.6178  0.3341
 5582SOL    HW128205   3.820   4.498  12.531 -1.2522 -0.0923 -1.8816
 5582SOL    HW228206   3.895   4.487  12.405  2.3050  0.6857  0.7070
 5583SOL     OW28207   1.198   0.381   3.197  0.1039 -0.0124  0.3227
 5583SOL    HW128208   1.123   0.335   3.159 -0.0421 -0.5052  1.2135
 5583SOL    HW228209   1.267   0.317   3.184 -0.0499 -0.9219  3.8688
 5584SOL     OW28210   2.836   3.601   4.198 -0.1298 -0.1053 -0.0816
 5584SOL    HW128211   2.863   3.568   4.112  1.2938 -0.7027  0.5852
 5584SOL    HW228212   2.890   3.680   4.198 -1.9526  1.1211  0.7847
 5585SOL     OW28213   2.834   3.914  12.059  0.2155  0.2961  0.0416
 5585SOL    HW128214   2.918   3.917  12.012 -0.4234  0.7227 -1.0726
 5585SOL    HW228215   2.779   3.973  12.007 -0.5476  0.4453  1.0112
 5586SOL     OW28216   4.097   2.365  11.567 -0.0026 -0.7634 -0.1315
 5586SOL    HW128217   4.129   2.368  11.477  1.0012  2.8804  0.3343
 5586SOL    HW228218   4.035   2.292  11.559 -0.6385  0.0085 -2.3678
 5587SOL     OW28219   3.870   3.146   8.013 -0.2101 -0.7643 -0.6189
 5587SOL    HW128220   3.807   3.126   8.083  0.7249  1.2796  0.8352
 5587SOL    HW228221   3.941   3.092   8.046  1.7517  1.0020 -1.9827
 5588SOL     OW28222   1.659   0.309   0.087 -0.1462 -0.3214 -0.5042
 5588SOL    HW128223   1.729   0.364   0.125 -1.9387  2.1094 -0.7267
 5588SOL    HW228224   1.594   0.309   0.158  0.7877 -1.1981  0.3629
 5589SOL     OW28225   1.035   3.539   5.070 -0.3245  0.4644  0.0509
 5589SOL    HW128226   0.976   3.464   5.060  0.6585 -0.5313  1.7824
 5589SOL    HW228227   1.030   3.582   4.985 -1.4189  1.5248  0.6492
 5590SOL     OW28228   1.015   1.953   7.912  0.3278 -0.5152 -0.6927
 5590SOL    HW128229   1.032   1.946   7.818  0.3022 -0.9386 -0.6688
 5590SOL    HW228230   1.060   2.033   7.938 -0.2777  0.4337 -2.5682
 5591SOL     OW28231   2.041   0.933  11.897  0.1186 -0.2797 -0.0518
 5591SOL    HW128232   2.117   0.882  11.870  1.4140  1.5589  0.0992
 5591SOL    HW228233   2.087   1.012  11.926  1.0659 -1.6710  2.2625
 5592SOL     OW28234   4.534   2.677   1.946 -0.3254  0.0830  0.3298
 5592SOL    HW128235   4.534   2.769   1.920  0.1004 -0.3747 -1.3074
 5592SOL    HW228236   4.623   2.660   1.914 -0.3713  0.8734 -0.2052
 5593SOL     OW28237   2.719   1.930  12.631  0.0536 -0.2072 -0.1963
 5593SOL    HW128238   2.719   1.855  12.572  0.3668  0.1515 -0.6523
 5593SOL    HW228239   2.812   1.929  12.653 -0.6181 -2.1085  2.5148
 5594SOL     OW28240   3.203   0.464   8.362  0.8922 -0.6796  0.4603
 5594SOL    HW128241   3.125   0.498   8.407  0.4840  0.1975 -0.9139
 5594SOL    HW228242   3.219   0.528   8.293  0.1574 -1.6205 -0.5704
 5595SOL     OW28243   3.078   4.427   5.114 -0.2166 -0.0733  0.2652
 5595SOL    HW128244   3.036   4.499   5.162 -1.3167  0.3717 -1.3795
 5595SOL    HW228245   3.008   4.388   5.063 -0.8282  0.5554  0.6234
 5596SOL     OW28246   1.533   2.936   3.641  0.7658  0.1254  0.3966
 5596SOL    HW128247   1.464   2.971   3.698 -0.4951 -2.2033  0.3396
 5596SOL    HW228248   1.495   2.948   3.554 -1.0408 -0.6316  1.0747
 5597SOL     OW28249   3.331   2.790   9.679  0.6342 -0.0860 -0.3458
 5597SOL    HW128250   3.380   2.710   9.659  3.4807  1.3293  0.9238
 5597SOL    HW228251   3.308   2.792   9.772  1.5161  0.3030 -0.1332
 5598SOL     OW28252   4.274   1.145   0.967  0.6048 -0.5223 -0.2923
 5598SOL    HW128253   4.271   1.052   0.945 -1.3052 -0.3624 -0.6615
 5598SOL    HW228254   4.184   1.160   0.995  1.0423 -0.0519  0.8762
 5599SOL     OW28255   3.161   3.320  10.240 -0.0524  0.6408  0.3308
 5599SOL    HW128256   3.176   3.276  10.157 -4.0509  0.4705 -0.2766
 5599SOL    HW228257   3.077   3.361  10.224 -1.7315 -2.8185  0.1877
 5600SOL     OW28258   0.911   2.172   2.981 -0.2891  0.5596 -0.4009
 5600SOL    HW128259   0.907   2.085   3.021 -1.4134  0.2879 -1.0870
 5600SOL    HW228260   1.002   2.172   2.952  0.4284 -3.0017  1.8926
 5601SOL     OW28261   3.486   0.607   2.279 -0.4706 -0.0466 -0.3678
 5601SOL    HW128262   3.429   0.534   2.253 -0.1884  0.1332 -1.4858
 5601SOL    HW228263   3.520   0.636   2.194  2.6464  0.8179  1.1998
 5602SOL     OW28264   1.681   0.560   3.502 -0.1310 -0.2356 -0.4618
 5602SOL    HW128265   1.767   0.541   3.539 -0.4840 -1.4561 -0.2392
 5602SOL    HW228266   1.695   0.637   3.449  0.2624 -0.5167 -0.7622
 5603SOL     OW28267   2.099   0.061   7.713  0.3963 -0.0769  0.4671
 5603SOL    HW128268   2.082   4.709   7.657  3.0710 -0.5899  0.3391
 5603SOL    HW228269   2.095   0.133   7.649  0.0884  0.6187  1.2714
 5604SOL     OW28270   4.357   4.508  12.246 -0.4670  0.7275  0.3752
 5604SOL    HW128271   4.275   4.483  12.203  1.4806 -0.1492 -2.8190
 5604SOL    HW228272   4.334   4.479  12.334 -2.5109  0.5657 -0.2130
 5605SOL     OW28273   0.569   0.666   6.915 -0.2182 -0.2433  0.0734
 5605SOL    HW128274   0.633   0.688   6.847  0.4824  1.3721  1.2451
 5605SOL    HW228275   0.557   0.572   6.905  1.4826 -0.3466 -1.0546
 5606SOL     OW28276   2.058   3.719  12.580  0.2291 -0.5369  0.0007
 5606SOL    HW128277   2.070   3.811  12.600 -1.5633  0.0754 -1.6103
 5606SOL    HW228278   2.146   3.683  12.568 -0.0636 -1.8549  1.8527
 5607SOL     OW28279   2.489   0.076   6.171  0.0935  0.5905  0.0076
 5607SOL    HW128280   2.564   0.018   6.161  1.2269  2.2958 -1.4576
 5607SOL    HW228281   2.521   0.149   6.117  1.5650  1.2850  1.8215
 5608SOL     OW28282   4.134   4.113  17.655 -0.2617  0.0298 -0.1194
 5608SOL    HW128283   4.212   4.162  17.631 -1.1559  0.7111 -1.6217
 5608SOL    HW228284   4.098   4.172   0.024  0.7275 -1.1315  1.4859
 5609SOL     OW28285   2.492   0.864  10.220 -0.3248  0.4908 -0.3503
 5609SOL    HW128286   2.525   0.922  10.289 -1.2141  1.7217 -0.9653
 5609SOL    HW228287   2.537   0.783  10.246  0.1309  0.7651 -0.2679
 5610SOL     OW28288   2.976   3.577  14.561  0.2330 -0.1938  0.5379
 5610SOL    HW128289   2.910   3.576  14.491  2.5975 -0.6391 -1.6678
 5610SOL    HW228290   2.913   3.575  14.633 -0.4016 -0.7187 -0.0239
 5611SOL     OW28291   1.725   3.884  17.232 -0.1186  0.5729 -0.2611
 5611SOL    HW128292   1.645   3.893  17.283  0.2816  0.7060  0.3429
 5611SOL    HW228293   1.783   3.889  17.307  0.5985  0.9721 -0.8374
 5612SOL     OW28294   1.872   4.140   0.547 -0.0870 -0.1673 -0.0547
 5612SOL    HW128295   1.942   4.110   0.490  1.8567  1.8307  1.2883
 5612SOL    HW228296   1.823   4.201   0.493  0.0255 -0.0820 -0.0595
 5613SOL     OW28297   3.372   1.376   5.893 -0.3794 -0.3573  0.1256
 5613SOL    HW128298   3.430   1.435   5.941 -0.0065  0.1853 -0.9847
 5613SOL    HW228299   3.306   1.437   5.858  1.7306  0.4616 -2.4776
 5614SOL     OW28300   3.016   1.901   5.369 -0.0728  0.1904  0.1023
 5614SOL    HW128301   3.001   1.943   5.453  0.0095 -0.0434  0.2325
 5614SOL    HW228302   3.080   1.961   5.330  2.2917 -2.1931  0.3160
 5615SOL     OW28303   1.515   0.416   4.659  0.6068  0.1082  0.2200
 5615SOL    HW128304   1.480   0.438   4.745 -1.9373 -2.6585 -0.1103
 5615SOL    HW228305   1.609   0.432   4.669  0.7187 -2.1689  2.9106
 5616SOL     OW28306   3.389   4.716   8.272 -0.5709 -0.3251  0.2922
 5616SOL    HW128307   3.440   0.050   8.216 -0.5434  1.6984  2.3940
 5616SOL    HW228308   3.396   4.633   8.225  0.6071 -1.0374  1.7296
 5617SOL     OW28309   0.829   3.406  13.455  0.3139 -0.0097 -0.0031
 5617SOL    HW128310   0.821   3.321  13.411  1.3115  0.6723 -1.5420
 5617SOL    HW228311   0.899   3.436  13.397  1.0656 -0.0204  0.9018
 5618SOL     OW28312   3.910   0.985   4.338  0.2414 -0.0304 -0.2677
 5618SOL    HW128313   3.827   0.973   4.293 -0.2151  2.0696  0.0254
 5618SOL    HW228314   3.966   0.933   4.280  0.2558 -0.1448 -0.1512
 5619SOL     OW28315   3.619   0.901   0.012 -0.8180 -0.0587  0.5739
 5619SOL    HW128316   3.653   0.990   0.023 -2.7069  1.0987 -3.0093
 5619SOL    HW228317   3.594   0.888  17.617 -0.1218 -1.0737  0.5214
 5620SOL     OW28318   4.331   1.617   6.876  0.2847 -0.8791 -0.1115
 5620SOL    HW128319   4.277   1.615   6.797  1.8150  1.7154 -1.2262
 5620SOL    HW228320   4.343   1.711   6.893 -2.7901  0.0654 -3.0212
 5621SOL     OW28321   0.674   2.102   4.329 -0.0273 -0.3366  0.8743
 5621SOL    HW128322   0.651   2.054   4.409 -0.4423 -1.2312  0.2122
 5621SOL    HW228323   0.684   2.029   4.268 -1.5245 -0.6970  1.0552
 5622SOL     OW28324   0.691   4.086   8.451 -0.0583 -0.3624 -0.0487
 5622SOL    HW128325   0.696   4.019   8.383  0.8970  0.5669 -0.8958
 5622SOL    HW228326   0.751   4.150   8.414  0.3274 -1.6717 -1.6856
 5623SOL     OW28327   2.343   0.259   2.340 -0.4012  0.4586  0.3255
 5623SOL    HW128328   2.302   0.345   2.335 -1.3302 -0.0202 -0.4271
 5623SOL    HW228329   2.344   0.246   2.245 -0.5630  1.7062  0.1526
 5624SOL     OW28330   2.474   3.007   6.995  0.6576 -0.8803 -0.2434
 5624SOL    HW128331   2.391   2.983   7.037 -0.3929  2.8541 -0.1405
 5624SOL    HW228332   2.539   2.949   7.033  3.7300  2.0687 -0.9393
 5625SOL     OW28333   0.041   3.511   3.678 -0.2612  0.3955  0.6570
 5625SOL    HW128334   0.131   3.522   3.648 -1.3033  0.3500 -2.5311
 5625SOL    HW228335   0.001   3.448   3.617  1.0100 -0.3500  0.6009
 5626SOL     OW28336   0.552   3.601   4.012 -0.3402 -0.2636 -0.0212
 5626SOL    HW128337   0.557   3.594   3.916 -1.1294  0.3038 -0.1030
 5626SOL    HW228338   0.511   3.687   4.025 -0.4815 -0.3732  0.2433
 5627SOL     OW28339   1.576   4.263  14.412 -0.0620 -0.1221 -0.1983
 5627SOL    HW128340   1.593   4.225  14.498 -0.6995 -2.6333 -1.1853
 5627SOL    HW228341   1.574   4.358  14.428 -2.0867  0.0767 -1.6478
 5628SOL     OW28342   4.391   1.351   5.199 -0.1172 -0.1758 -0.0133
 5628SOL    HW128343   4.370   1.303   5.279 -1.1988 -0.9399 -0.7420
 5628SOL    HW228344   4.337   1.430   5.199  0.6821  0.3639 -0.5166
 5629SOL     OW28345   0.684   2.326  16.088 -0.1280 -0.0210 -0.1748
 5629SOL    HW128346   0.611   2.292  16.140  0.5623 -0.6660  0.3618
 5629SOL    HW228347   0.750   2.260  16.105 -1.8493 -1.8387 -0.4986
 5630SOL     OW28348   2.021   2.103   5.672 -0.0711  0.3989 -0.1583
 5630SOL    HW128349   1.974   2.054   5.605  0.5565 -1.1452  0.5146
 5630SOL    HW228350   2.110   2.081   5.644  1.0638  1.5012  2.5876
 5631SOL     OW28351   3.287   3.265   4.538  0.1815 -0.5551  0.2371
 5631SOL    HW128352   3.382   3.265   4.531  0.1368  1.1658 -0.4120
 5631SOL    HW228353   3.273   3.215   4.458 -1.7022  0.8345 -0.3152
 5632SOL     OW28354   1.730   2.996   1.359 -0.5642  0.3668 -0.2872
 5632SOL    HW128355   1.717   3.020   1.268  1.2924  2.0141 -0.1134
 5632SOL    HW228356   1.696   2.906   1.354  0.8966 -0.0822 -1.7833
 5633SOL     OW28357   2.368   3.957  14.236 -0.4638  0.2874 -0.0662
 5633SOL    HW128358   2.288   3.983  14.190  0.0316  1.8564 -0.0494
 5633SOL    HW228359   2.366   4.032  14.296  2.8098  0.2445  0.1104
 5634SOL     OW28360   3.905   3.545  14.699  0.1096 -0.3134 -0.3011
 5634SOL    HW128361   3.810   3.532  14.692 -0.0498  0.0646  1.0941
 5634SOL    HW228362   3.911   3.634  14.733  2.4423 -0.5418 -0.0976
 5635SOL     OW28363   0.217   4.512  15.135  0.3667  0.0277  0.1526
 5635SOL    HW128364   0.199   4.517  15.041 -0.9866  1.3172  0.4732
 5635SOL    HW228365   0.178   4.596  15.161  1.6015  0.4846  0.5075
 5636SOL     OW28366   4.554   4.707   6.796 -0.0275 -0.0082  0.3807
 5636SOL    HW128367   4.476   4.679   6.748 -0.0978 -1.6882  1.4255
 5636SOL    HW228368   4.623   4.647   6.768 -1.0815 -0.1246 -1.9615
 5637SOL     OW28369   0.286   3.117  14.574  0.4038  0.6334  0.1673
 5637SOL    HW128370   0.346   3.068  14.630  0.8856  3.7719  2.3454
 5637SOL    HW228371   0.340   3.178  14.524 -1.8402 -0.3073 -3.4334
 5638SOL     OW28372   2.419   3.014   2.326 -0.1623 -0.2152  0.0091
 5638SOL    HW128373   2.357   3.081   2.297  1.1445  0.0622 -2.1533
 5638SOL    HW228374   2.476   3.076   2.371  0.5806 -2.4821  2.1838
 5639SOL     OW28375   0.278   1.078   4.621 -0.0693  0.2365  0.1335
 5639SOL    HW128376   0.287   1.019   4.696 -1.2121 -0.4201 -0.2500
 5639SOL    HW228377   0.356   1.050   4.572 -0.3770  1.9924 -1.3434
 5640SOL     OW28378   1.652   3.652   2.329  0.9413 -0.4865  0.4820
 5640SOL    HW128379   1.739   3.690   2.327  1.0630 -0.7772  0.1735
 5640SOL    HW228380   1.628   3.652   2.421 -1.5681  1.9934 -0.1632
 5641SOL     OW28381   1.324   0.586   4.318 -0.1690 -0.0080 -0.0498
 5641SOL    HW128382   1.390   0.654   4.334 -1.0151  0.8027  0.0186
 5641SOL    HW228383   1.304   0.614   4.228  0.6552 -0.2157 -0.2946
 5642SOL     OW28384   1.078   4.282   8.026 -0.7417 -0.0505  0.1371
 5642SOL    HW128385   0.993   4.259   7.988 -0.3445  2.7454 -2.4827
 5642SOL    HW228386   1.051   4.350   8.088  0.3485  0.1901  0.3478
 5643SOL     OW28387   4.514   3.230   9.191 -0.1675 -1.2066  0.1884
 5643SOL    HW128388   4.511   3.225   9.096  1.6722 -1.1994  0.1338
 5643SOL    HW228389   4.462   3.306   9.215  2.3424  1.6675 -3.5286
 5644SOL     OW28390   1.829   1.463   3.386  0.0217  0.0401  0.2758
 5644SOL    HW128391   1.744   1.478   3.428 -0.0219 -0.2359  0.2866
 5644SOL    HW228392   1.883   1.517   3.443  0.2069  1.9617 -1.7072
 5645SOL     OW28393   1.356   4.027   1.867 -0.0485  0.5923 -0.1885
 5645SOL    HW128394   1.370   4.114   1.905  1.7352  0.5507 -0.7240
 5645SOL    HW228395   1.359   4.056   1.776  0.3912  1.0929 -0.0152
 5646SOL     OW28396   3.568   2.743   8.690 -0.7068 -0.3574  0.4082
 5646SOL    HW128397   3.638   2.734   8.755 -1.7148 -0.0696  1.5348
 5646SOL    HW228398   3.622   2.730   8.612  0.0064  0.0472  0.8445
 5647SOL     OW28399   0.898   0.289   0.518  0.2482 -0.1845  0.0270
 5647SOL    HW128400   0.938   0.361   0.568  2.2376 -0.5014 -1.1235
 5647SOL    HW228401   0.950   0.281   0.438  1.8082  2.5187  0.7443
 5648SOL     OW28402   1.809   3.286   6.727  0.3110  0.1623 -0.5620
 5648SOL    HW128403   1.753   3.244   6.663 -0.0587  0.3133 -0.3363
 5648SOL    HW228404   1.779   3.252   6.811  0.0420 -2.8852 -1.8981
 5649SOL     OW28405   3.192   0.385  13.990 -0.4709 -0.1094  0.1918
 5649SOL    HW128406   3.202   0.351  14.079 -3.9187  3.1684  1.8355
 5649SOL    HW228407   3.281   0.361  13.965 -0.0037  1.3385  0.4986
 5650SOL     OW28408   3.883   2.749   5.379  0.2274  0.1743  0.1994
 5650SOL    HW128409   3.789   2.750   5.362  0.0603 -0.8756  1.1111
 5650SOL    HW228410   3.934   2.730   5.300 -1.0974 -0.4232 -0.5043
 5651SOL     OW28411   2.647   0.047  14.150  0.2696 -0.0963 -0.2915
 5651SOL    HW128412   2.691   0.048  14.065  0.7072 -2.8719 -0.0895
 5651SOL    HW228413   2.587   0.121  14.137  0.1470 -0.6384 -2.9376
 5652SOL     OW28414   4.500   3.990   5.001  0.1378  0.2348  0.1567
 5652SOL    HW128415   4.492   3.895   4.994  0.1780  0.4717 -3.5517
 5652SOL    HW228416   4.448   4.014   4.924  0.6463  1.6401  0.2546
 5653SOL     OW28417   2.726   4.019   2.790 -0.1704  0.2345  0.0109
 5653SOL    HW128418   2.697   4.042   2.701 -2.1132  1.1771  0.8967
 5653SOL    HW228419   2.726   3.923   2.789 -0.1863  0.2359 -0.1974
 5654SOL     OW28420   3.500   0.875   0.894  0.3328  0.4253  0.0561
 5654SOL    HW128421   3.537   0.830   0.969  1.4135  1.2705  0.0328
 5654SOL    HW228422   3.559   0.947   0.874  1.1164 -0.1849  0.1770
 5655SOL     OW28423   0.588   4.301  15.058 -0.4003 -0.2224 -0.1890
 5655SOL    HW128424   0.652   4.230  15.053  0.2907  0.4829 -1.2933
 5655SOL    HW228425   0.580   4.319  14.964  1.5710 -0.6353 -0.4310
 5656SOL     OW28426   0.327   1.462  13.817  0.2101  0.7858  0.2750
 5656SOL    HW128427   0.302   1.374  13.847 -0.1871  0.2734 -1.5558
 5656SOL    HW228428   0.422   1.461  13.811  0.2543 -2.6853  1.1675
 5657SOL     OW28429   4.564   0.700  16.990 -0.0347 -0.0019  0.4920
 5657SOL    HW128430   4.625   0.665  16.925  0.1686  0.6836  0.3108
 5657SOL    HW228431   4.497   0.632  16.995 -1.2364  0.9691 -2.1137
 5658SOL     OW28432   3.096   1.565  11.378 -0.0198 -0.3363  0.7403
 5658SOL    HW128433   3.127   1.589  11.465  1.5826 -0.8655  0.3127
 5658SOL    HW228434   3.095   1.469  11.376 -0.7009 -0.3546  2.1918
 5659SOL     OW28435   1.511   2.516   7.490 -0.3880  0.1220  0.5800
 5659SOL    HW128436   1.593   2.552   7.459 -0.3359  1.0852  1.8636
 5659SOL    HW228437   1.543   2.485   7.575  1.2333 -0.2283 -0.1714
 5660SOL     OW28438   4.182   3.638   5.263 -0.2564 -0.3507 -0.5994
 5660SOL    HW128439   4.164   3.731   5.271 -3.0492 -1.0933  1.6227
 5660SOL    HW228440   4.216   3.630   5.173  2.6430 -0.8096  0.5257
 5661SOL     OW28441   1.062   2.729   5.513 -0.6858  0.6524 -0.4720
 5661SOL    HW128442   1.047   2.765   5.601 -1.3221 -0.9707  0.0918
 5661SOL    HW228443   1.044   2.805   5.458  0.4401  3.4461  2.9903
 5662SOL     OW28444   0.465   2.414   8.470  0.2542  0.0780 -0.0425
 5662SOL    HW128445   0.499   2.438   8.384 -0.1636  2.5183  0.4813
 5662SOL    HW228446   0.536   2.377   8.522 -0.4023  0.7916  1.3597
 5663SOL     OW28447   2.650   3.622   1.542  0.3502 -0.2059  0.7481
 5663SOL    HW128448   2.679   3.680   1.612 -0.7918  2.1115 -0.7144
 5663SOL    HW228449   2.561   3.655   1.526  0.6728 -0.7117 -2.0501
 5664SOL     OW28450   0.538   2.285   5.536  0.1832 -0.0369 -0.1020
 5664SOL    HW128451   0.630   2.289   5.563 -0.2845 -1.2469  1.6560
 5664SOL    HW228452   0.490   2.273   5.618 -1.1973  1.4727 -0.6914
 5665SOL     OW28453   0.343   1.672  17.379  0.1875 -0.3175 -0.0536
 5665SOL    HW128454   0.411   1.618  17.338  1.1722  0.6025  0.3646
 5665SOL    HW228455   0.378   1.757  17.353  0.5611 -0.7868 -1.0767
 5666SOL     OW28456   0.319   0.139  15.485  0.3129  0.2029 -0.0675
 5666SOL    HW128457   0.233   0.171  15.512  0.4999 -0.2283  1.0490
 5666SOL    HW228458   0.311   0.104  15.397 -0.4315 -0.3394  0.2177
 5667SOL     OW28459   0.963   0.982   5.570 -0.3514 -0.1318  0.7277
 5667SOL    HW128460   1.016   0.921   5.621 -0.1189  0.0943  0.7541
 5667SOL    HW228461   0.905   1.019   5.637 -0.3578 -0.0369  0.6699
 5668SOL     OW28462   0.257   4.694   8.012  0.3636 -0.0568  0.1401
 5668SOL    HW128463   0.336   4.645   8.036  0.1093 -0.4001  0.2921
 5668SOL    HW228464   0.275   0.001   7.923  1.9892  1.1343  0.8784
 5669SOL     OW28465   0.851   4.691   5.213 -0.7358 -0.4135 -0.6460
 5669SOL    HW128466   0.775   4.635   5.226 -1.0276  0.1069 -0.1393
 5669SOL    HW228467   0.897   4.691   5.297 -1.9896 -3.1577  0.0260
 5670SOL     OW28468   2.456   4.544   6.739 -0.0731 -0.4176 -0.6143
 5670SOL    HW128469   2.414   4.503   6.663 -0.6704 -0.8989 -0.0257
 5670SOL    HW228470   2.542   4.503   6.750  0.5177  1.1800  0.7251
 5671SOL     OW28471   3.978   2.742   5.618 -0.5010  0.4858  0.5059
 5671SOL    HW128472   3.903   2.746   5.677  0.5776  0.9794  1.8401
 5671SOL    HW228473   3.935   2.745   5.532 -0.1802  0.9768  0.3638
 5672SOL     OW28474   0.460   3.785  12.361 -0.5096 -0.7067  0.0576
 5672SOL    HW128475   0.445   3.690  12.361  0.4458 -0.8621 -0.0608
 5672SOL    HW228476   0.546   3.785  12.319 -2.1297  1.1184 -3.2333
 5673SOL     OW28477   4.454   2.673   3.326 -0.1008  0.5689  0.0735
 5673SOL    HW128478   4.401   2.597   3.299  0.3338  0.5039 -0.5942
 5673SOL    HW228479   4.535   2.663   3.276 -0.7385 -0.9122 -0.6741
 5674SOL     OW28480   2.063   3.943   4.827 -0.0832  0.1227 -0.1703
 5674SOL    HW128481   2.036   3.851   4.839  2.0753 -0.2220  2.0392
 5674SOL    HW228482   2.114   3.966   4.905  0.3649  0.5631 -0.5966
 5675SOL     OW28483   2.040   1.887  16.383  0.1071 -1.0637 -0.0648
 5675SOL    HW128484   2.053   1.887  16.289  1.1138  1.7224  0.0553
 5675SOL    HW228485   2.058   1.980  16.401 -1.2533 -1.1724  1.9455
 5676SOL     OW28486   2.954   1.646   1.317  0.0349 -0.5312 -0.0710
 5676SOL    HW128487   2.946   1.624   1.410  0.5855  0.4796  0.2156
 5676SOL    HW228488   3.042   1.685   1.315 -0.6216  1.0392  1.8200
 5677SOL     OW28489   1.930   2.238   6.804 -0.0777  0.3285  0.3004
 5677SOL    HW128490   1.937   2.194   6.889 -0.1006 -1.4145 -0.5801
 5677SOL    HW228491   1.991   2.186   6.752 -1.8903 -2.0116  0.4675
 5678SOL     OW28492   0.701   1.367   3.447 -0.2578  0.4732  0.0033
 5678SOL    HW128493   0.769   1.354   3.381  0.6967 -1.1531  1.3011
 5678SOL    HW228494   0.621   1.342   3.402  0.7040  0.5818 -1.7515
 5679SOL     OW28495   0.437   1.720   6.664 -0.1372 -0.1692 -0.7162
 5679SOL    HW128496   0.500   1.729   6.593 -2.3670  0.3604 -2.6430
 5679SOL    HW228497   0.440   1.809   6.700 -0.9700 -1.3509  2.2790
 5680SOL     OW28498   3.308   3.651   0.966  0.0369  0.1035 -0.3042
 5680SOL    HW128499   3.269   3.698   1.039  1.2423  2.9127 -1.4835
 5680SOL    HW228500   3.239   3.666   0.901  0.6948  1.6860 -0.6320
 5681SOL     OW28501   3.954   0.776   4.162  0.3084  0.4951  0.5447
 5681SOL    HW128502   3.888   0.727   4.113  0.4299  0.7890  0.0954
 5681SOL    HW228503   4.003   0.702   4.196 -1.1717 -1.4826 -1.6095
 5682SOL     OW28504   3.721   3.649   7.891 -0.4955 -0.1872  0.0211
 5682SOL    HW128505   3.660   3.712   7.853 -1.1604  0.1031  1.5991
 5682SOL    HW228506   3.797   3.705   7.901 -0.9056  0.7743 -2.1205
 5683SOL     OW28507   2.464   1.714  13.251 -0.1570  0.4918  0.1721
 5683SOL    HW128508   2.552   1.738  13.221 -0.5116 -0.1290 -1.3768
 5683SOL    HW228509   2.403   1.788  13.246 -0.2324  0.4767  0.9980
 5684SOL     OW28510   0.655   0.893   3.292  0.3203 -0.5079 -0.1713
 5684SOL    HW128511   0.627   0.940   3.371 -0.4457 -3.2707  1.2316
 5684SOL    HW228512   0.738   0.937   3.273 -0.4032  0.7392 -0.4058
 5685SOL     OW28513   3.350   0.760   5.527 -0.3517  0.6993 -0.1413
 5685SOL    HW128514   3.342   0.753   5.431  0.0426 -2.2025  0.0184
 5685SOL    HW228515   3.411   0.831   5.544 -1.0918  0.6956  2.5233
 5686SOL     OW28516   1.313   3.388   5.956 -0.4826 -0.0863  0.0302
 5686SOL    HW128517   1.341   3.304   5.994  1.6183  0.2280 -0.7858
 5686SOL    HW228518   1.288   3.364   5.867  0.4196  2.3998 -0.8938
 5687SOL     OW28519   4.465   1.237  11.980 -0.0816 -0.4568  0.1339
 5687SOL    HW128520   4.468   1.173  12.051  2.3078 -0.6093 -0.1182
 5687SOL    HW228521   4.526   1.305  12.007 -1.0678  0.0012  1.2293
 5688SOL     OW28522   2.896   4.012   5.637 -0.2740  0.4364 -0.1020
 5688SOL    HW128523   2.973   3.971   5.677 -2.2658 -2.0395  1.2117
 5688SOL    HW228524   2.933   4.074   5.574  0.2148 -0.2485 -0.4857
 5689SOL     OW28525   4.558   2.273   5.867 -1.0879  0.7397  0.4670
 5689SOL    HW128526   4.630   2.285   5.805  0.2189 -0.8053  1.6774
 5689SOL    HW228527   4.578   2.349   5.923  0.4120  0.9867 -0.3958
 5690SOL     OW28528   0.074   0.524   1.178 -0.1615 -0.0215 -0.1210
 5690SOL    HW128529   0.147   0.521   1.116 -0.8834  0.7457 -1.0042
 5690SOL    HW228530   0.014   0.464   1.133 -1.4337  1.6423 -0.6312
 5691SOL     OW28531   3.812   3.858   3.125 -0.0913  0.0778  0.0550
 5691SOL    HW128532   3.829   3.871   3.032  0.2511  1.5236  0.3322
 5691SOL    HW228533   3.726   3.899   3.138 -0.7521 -1.3208  0.1888
 5692SOL     OW28534   0.785   4.097   6.992  0.1579 -1.1638 -0.0983
 5692SOL    HW128535   0.881   4.096   6.999  0.1665  1.2043  0.2451
 5692SOL    HW228536   0.768   4.043   6.915 -0.2897 -0.0869 -0.7527
 5693SOL     OW28537   3.654   0.132   1.874  0.6713 -0.1511  0.2139
 5693SOL    HW128538   3.614   0.082   1.945  3.4355 -2.8921 -0.1646
 5693SOL    HW228539   3.682   0.207   1.928 -0.3397 -0.4183  1.1098
 5694SOL     OW28540   4.359   2.856   8.601 -0.4135  0.5867 -0.0547
 5694SOL    HW128541   4.324   2.882   8.686  0.1546 -0.3403  0.4737
 5694SOL    HW228542   4.373   2.763   8.622  3.2144  1.0217 -0.4682
 5695SOL     OW28543   3.045   3.174  12.897  0.0502  0.1908  0.2155
 5695SOL    HW128544   2.980   3.215  12.955  0.7307  0.8487  0.5272
 5695SOL    HW228545   3.012   3.199  12.811  0.1409  0.2670  0.2021
 5696SOL     OW28546   0.462   0.345   2.629 -0.2479 -0.2682 -0.2503
 5696SOL    HW128547   0.508   0.406   2.571 -0.8301  1.9241  1.5717
 5696SOL    HW228548   0.520   0.269   2.620 -2.4650 -1.8437 -1.2870
 5697SOL     OW28549   1.783   4.591   8.363  0.2198  0.4999  0.7021
 5697SOL    HW128550   1.781   4.517   8.303 -1.4091  0.7847  0.4109
 5697SOL    HW228551   1.720   4.648   8.321 -0.9417 -1.0195  0.3682
 5698SOL     OW28552   1.598   3.114   3.333 -0.1851 -0.1821 -0.1839
 5698SOL    HW128553   1.649   3.170   3.275 -1.3464  0.8992 -0.1722
 5698SOL    HW228554   1.669   3.054   3.356  0.4720  0.4237 -0.6004
 5699SOL     OW28555   0.608   1.632  14.980  0.3624 -0.4018  0.1210
 5699SOL    HW128556   0.517   1.604  14.992 -0.1092  0.8244 -0.5698
 5699SOL    HW228557   0.646   1.588  15.056 -0.3171  0.4125  0.9288
 5700SOL     OW28558   1.065   3.161  13.021  0.4599  0.1476 -0.0900
 5700SOL    HW128559   1.118   3.177  13.099 -1.3642 -0.0062  1.1621
 5700SOL    HW228560   1.121   3.102  12.970 -0.4692 -1.1538  0.3756
 5701SOL     OW28561   4.470   2.536  13.563  0.1391  0.0092  0.4170
 5701SOL    HW128562   4.435   2.447  13.565 -1.4950  0.6367 -0.4283
 5701SOL    HW228563   4.563   2.531  13.588  0.6767 -1.7293 -1.8448
 5702SOL     OW28564   1.057   2.986   3.858 -0.0590 -0.2274 -0.0210
 5702SOL    HW128565   0.995   2.917   3.881  1.0732 -0.9827  0.7654
 5702SOL    HW228566   1.067   3.028   3.943 -1.1894 -1.4129  0.7116
 5703SOL     OW28567   2.681   0.373   3.323  0.0392 -0.6646 -0.3540
 5703SOL    HW128568   2.605   0.315   3.316 -0.0078 -0.8485  1.6027
 5703SOL    HW228569   2.647   0.461   3.302 -0.5815 -0.5411  1.1998
 5704SOL     OW28570   3.117   1.613  11.639  0.5275 -0.0113 -0.4765
 5704SOL    HW128571   3.071   1.675  11.696  1.6171  0.1979  0.1631
 5704SOL    HW228572   3.179   1.581  11.704  2.0120 -0.0432 -1.9118
 5705SOL     OW28573   0.380   0.076   9.386  0.3509 -0.2038  0.0275
 5705SOL    HW128574   0.405   0.168   9.382 -0.5280  0.1209  1.9769
 5705SOL    HW228575   0.331   0.083   9.468  0.4818 -1.2710  0.1947
 5706SOL     OW28576   4.107   1.385   0.834  0.6314  0.2029 -0.1411
 5706SOL    HW128577   4.145   1.400   0.921  1.2592  0.0204 -0.3823
 5706SOL    HW228578   4.034   1.447   0.826  0.4935  0.1820  0.9264
 5707SOL     OW28579   2.955   2.470   3.890  0.0898  0.1192 -0.7850
 5707SOL    HW128580   2.999   2.530   3.830  0.6008  2.0819  1.5829
 5707SOL    HW228581   2.863   2.487   3.867 -0.4619 -0.7911  0.7862
 5708SOL     OW28582   2.821   1.949   8.185  0.6209  0.3545  0.4452
 5708SOL    HW128583   2.807   2.043   8.193 -0.9884  0.2857 -1.4237
 5708SOL    HW228584   2.804   1.917   8.274 -0.9609  1.2229  0.4541
 5709SOL     OW28585   2.600   4.436   5.652  0.7467  0.1594 -0.4931
 5709SOL    HW128586   2.562   4.501   5.711  0.8954 -0.9383  0.8211
 5709SOL    HW228587   2.577   4.359   5.703 -0.8697  2.1895  1.8740
 5710SOL     OW28588   1.451   1.283   4.102 -0.3126  0.0987 -0.1529
 5710SOL    HW128589   1.391   1.213   4.127 -0.0226 -0.5431 -1.2536
 5710SOL    HW228590   1.400   1.341   4.045  0.6962  0.4352 -0.7153
 5711SOL     OW28591   0.261   2.469   2.436 -0.3636 -0.0391  0.3361
 5711SOL    HW128592   0.260   2.405   2.507 -0.4819  0.5032  0.8257
 5711SOL    HW228593   0.179   2.515   2.457  1.1405  3.0226 -0.4756
 5712SOL     OW28594   1.005   1.620   7.398 -0.3405 -0.2570 -0.5722
 5712SOL    HW128595   1.009   1.525   7.389  2.4922 -0.0959 -0.9399
 5712SOL    HW228596   0.960   1.624   7.483 -1.2081 -0.9547 -1.0062
 5713SOL     OW28597   2.839   4.547  16.004 -0.0296 -0.1774 -0.3898
 5713SOL    HW128598   2.840   4.567  15.911  1.7270  2.3314  0.1599
 5713SOL    HW228599   2.912   4.486  16.008  0.6922  0.8852  3.2958
 5714SOL     OW28600   3.421   1.276  14.374 -0.0563 -0.2138 -0.6055
 5714SOL    HW128601   3.488   1.335  14.407 -0.4745  0.8243 -1.5926
 5714SOL    HW228602   3.452   1.260  14.284  0.7921 -0.4565 -0.2717
 5715SOL     OW28603   2.872   1.439   5.739  0.4778  0.2280 -0.7211
 5715SOL    HW128604   2.949   1.495   5.740  1.4533 -1.1243 -1.2683
 5715SOL    HW228605   2.884   1.383   5.663  2.9812  0.1981 -0.3029
 5716SOL     OW28606   1.377   1.899  10.178  0.2900  0.4127  0.2996
 5716SOL    HW128607   1.422   1.922  10.096 -0.5479 -0.2072 -0.3299
 5716SOL    HW228608   1.445   1.857  10.230 -0.9731 -1.9323  0.0180
 5717SOL     OW28609   4.328   1.126  17.545  0.0887 -0.1066 -0.3930
 5717SOL    HW128610   4.238   1.095  17.537  0.1401  0.1749 -2.0980
 5717SOL    HW228611   4.385   1.049  17.536 -0.0896 -0.2916  0.0558
 5718SOL     OW28612   3.564   1.602   7.701  0.5131 -0.2214  0.0496
 5718SOL    HW128613   3.611   1.523   7.728  0.7747 -0.2621 -0.5261
 5718SOL    HW228614   3.585   1.605   7.607 -0.0153  1.2288 -0.0176
 5719SOL     OW28615   1.681   3.434  13.241 -0.1137  0.1534 -0.9044
 5719SOL    HW128616   1.591   3.413  13.217 -0.7925  0.7243  1.1394
 5719SOL    HW228617   1.676   3.528  13.253 -0.6873  0.2686 -2.0591
 5720SOL     OW28618   3.456   3.545   6.104  0.7862 -0.0478 -0.3595
 5720SOL    HW128619   3.458   3.635   6.072  1.9356 -1.1939 -3.5287
 5720SOL    HW228620   3.478   3.548   6.197 -1.4821  0.5672  0.1629
 5721SOL     OW28621   4.102   4.203   0.755 -0.4427 -0.0646  0.2827
 5721SOL    HW128622   4.151   4.123   0.775 -1.5798 -0.5327  1.2356
 5721SOL    HW228623   4.126   4.256   0.830 -0.3989 -0.7540  0.7566
 5722SOL     OW28624   1.054   4.346   2.563 -0.1346  0.0576  0.1784
 5722SOL    HW128625   1.128   4.307   2.610 -1.2857  0.6496  2.4251
 5722SOL    HW228626   0.982   4.346   2.626 -0.8582 -0.9002 -0.6274
 5723SOL     OW28627   4.261   2.090   6.012  0.2930  0.0455  0.1938
 5723SOL    HW128628   4.178   2.103   5.966 -1.2915 -2.5062  2.3535
 5723SOL    HW228629   4.279   1.997   6.003 -1.6993 -0.3894  0.5942
 5724SOL     OW28630   3.905   0.378  13.454 -0.3894  0.6330 -0.5194
 5724SOL    HW128631   3.982   0.379  13.511  0.7888  0.4013 -2.1324
 5724SOL    HW228632   3.918   0.308  13.390  0.5795  0.8856 -0.5970
 5725SOL     OW28633   1.562   2.562  13.764  0.0989 -0.3230 -0.1534
 5725SOL    HW128634   1.605   2.578  13.680  2.6210 -2.0640  0.8022
 5725SOL    HW228635   1.610   2.628  13.815  0.8264 -0.5726 -0.5162
 5726SOL     OW28636   1.780   0.659   6.064 -0.6472 -0.0911  0.2146
 5726SOL    HW128637   1.796   0.662   5.969  2.7625 -0.9571  0.7830
 5726SOL    HW228638   1.866   0.633   6.097 -1.0705 -2.4491 -0.5697
 5727SOL     OW28639   3.045   2.926  12.703  0.4564  0.4653  0.0867
 5727SOL    HW128640   2.992   2.904  12.779 -0.6406 -0.6521 -1.0050
 5727SOL    HW228641   3.118   2.865  12.710  0.6414  0.7124  0.2730
 5728SOL     OW28642   4.399   0.161   1.108  0.4851  0.6774 -0.5201
 5728SOL    HW128643   4.475   0.128   1.059  0.4151 -0.2988  0.0293
 5728SOL    HW228644   4.362   0.203   1.030 -1.5488 -0.0321  0.0705
 5729SOL     OW28645   2.848   2.854  16.032  0.5439 -0.2402  0.0227
 5729SOL    HW128646   2.779   2.915  16.005  1.3355 -0.2722 -2.0603
 5729SOL    HW228647   2.829   2.847  16.126 -0.8419 -0.2928 -0.2523
 5730SOL     OW28648   2.040   2.868   2.060 -0.3247  0.1241  0.2940
 5730SOL    HW128649   1.966   2.929   2.053  0.0665  0.3212 -2.4573
 5730SOL    HW228650   2.028   2.850   1.966 -1.8397  0.3382  0.4477
 5731SOL     OW28651   2.041   1.328   5.109 -0.3644 -0.5517  0.1588
 5731SOL    HW128652   2.088   1.277   5.043  0.8680  0.0954  0.5446
 5731SOL    HW228653   2.036   1.259   5.175 -3.1368 -1.6887 -1.2042
 5732SOL     OW28654   2.252   3.913  11.838  0.4232 -0.2166  0.5944
 5732SOL    HW128655   2.312   3.961  11.895 -1.4752 -0.2679  2.6440
 5732SOL    HW228656   2.214   3.841  11.887 -4.4775  0.7196 -1.8653
 5733SOL     OW28657   4.512   4.101  10.146 -0.2108 -0.0778 -0.0644
 5733SOL    HW128658   4.430   4.057  10.165 -0.0378  0.1711  1.2976
 5733SOL    HW228659   4.494   4.195  10.156  1.1019  0.2068 -0.3538
 5734SOL     OW28660   2.385   2.474  12.831 -0.4036  0.1707 -0.3766
 5734SOL    HW128661   2.424   2.507  12.749 -0.6891  1.1410 -0.1186
 5734SOL    HW228662   2.293   2.460  12.810 -0.7198 -0.9937  1.9056
 5735SOL     OW28663   1.215   2.211   4.159 -0.4258 -0.2755  0.0991
 5735SOL    HW128664   1.253   2.278   4.102 -0.3920 -0.3299  0.0575
 5735SOL    HW228665   1.124   2.208   4.129 -0.4163 -2.2206  0.2261
 5736SOL     OW28666   4.022   4.366   6.154  0.1201 -0.0477 -0.5897
 5736SOL    HW128667   4.024   4.367   6.059  2.3100 -1.6590 -0.5895
 5736SOL    HW228668   4.108   4.325   6.167  1.6259  3.4456  0.3627
 5737SOL     OW28669   1.893   1.123   7.189  0.1389  0.0403  0.0146
 5737SOL    HW128670   1.970   1.132   7.133  0.0590 -0.9538 -0.2631
 5737SOL    HW228671   1.913   1.201   7.240 -0.7742 -0.8972  1.7976
 5738SOL     OW28672   1.498   0.007   6.275  0.1325  0.1429 -0.2248
 5738SOL    HW128673   1.474   4.681   6.353 -1.3927  0.6040 -0.3988
 5738SOL    HW228674   1.572   4.679   6.243 -1.6181 -2.2173 -0.5546
 5739SOL     OW28675   3.463   2.778   2.445 -0.5795  0.3705  0.2732
 5739SOL    HW128676   3.392   2.735   2.492 -0.3730  0.7436  0.9259
 5739SOL    HW228677   3.425   2.865   2.431  2.1678  2.0765  3.4584
 5740SOL     OW28678   4.294   1.172   1.529  0.0349  0.6051 -0.4396
 5740SOL    HW128679   4.272   1.126   1.448  0.6833  0.0305 -0.2904
 5740SOL    HW228680   4.374   1.215   1.497 -1.5396  3.0697 -1.0891
 5741SOL     OW28681   4.180   3.638   0.484  0.1656 -0.3703  0.0913
 5741SOL    HW128682   4.196   3.686   0.566  0.7921 -1.7784  0.7821
 5741SOL    HW228683   4.196   3.548   0.510 -0.4733 -0.3806  0.4735
 5742SOL     OW28684   4.011   4.636   1.783 -0.1622 -0.1588  0.4437
 5742SOL    HW128685   4.054   4.574   1.724  1.0967  0.2173  0.9718
 5742SOL    HW228686   4.085   4.682   1.822 -0.3631  1.2525 -0.8773
 5743SOL     OW28687   3.288   3.265   4.254 -0.3383 -0.5273 -0.3708
 5743SOL    HW128688   3.367   3.219   4.226  1.0347  1.7191 -0.1702
 5743SOL    HW228689   3.230   3.239   4.182  0.4767  0.8180 -1.5126
 5744SOL     OW28690   3.472   1.704   2.058  0.0610 -0.5092 -0.2340
 5744SOL    HW128691   3.514   1.618   2.049  0.9231 -0.0426 -0.6044
 5744SOL    HW228692   3.382   1.687   2.028  0.1385 -0.5546 -0.4398
 5745SOL     OW28693   2.374   3.761   2.043  0.5858 -0.4265  0.0325
 5745SOL    HW128694   2.333   3.801   2.119  2.2083 -0.5880  0.9950
 5745SOL    HW228695   2.411   3.681   2.081  0.2861 -0.2791  0.6256
 5746SOL     OW28696   4.521   4.163   5.548 -0.2025  0.3019 -0.4386
 5746SOL    HW128697   4.537   4.069   5.537 -2.8376 -0.1156 -0.9331
 5746SOL    HW228698   4.611   4.191   5.559  0.6885 -1.8848 -2.0368
 5747SOL     OW28699   2.934   0.156  13.413 -0.0182 -0.7129  0.0159
 5747SOL    HW128700   2.949   0.185  13.502  2.1622  0.8550 -0.8596
 5747SOL    HW228701   2.987   0.216  13.360 -1.4845 -0.3445 -1.0404
 5748SOL     OW28702   0.731   3.814   0.954 -0.1056 -0.1299  0.6993
 5748SOL    HW128703   0.644   3.803   0.991 -0.3144 -0.8706 -0.0181
 5748SOL    HW228704   0.750   3.900   0.993  3.3195  0.4838 -2.3309
 5749SOL     OW28705   1.470   0.897   3.771 -0.1246 -0.1478 -0.3250
 5749SOL    HW128706   1.434   0.982   3.793 -2.4273 -1.1468 -0.1781
 5749SOL    HW228707   1.531   0.879   3.842 -0.6387  0.1988  0.2043
 5750SOL     OW28708   4.104   2.195   0.027  0.3582 -0.1385 -0.5275
 5750SOL    HW128709   4.138   2.267   0.081 -1.1052 -0.1683  0.4534
 5750SOL    HW228710   4.187   2.149   0.022 -1.2009 -2.8693 -1.1157
 5751SOL     OW28711   3.781   0.956   4.607 -0.8972  0.1986 -0.2646
 5751SOL    HW128712   3.769   0.957   4.512 -2.1110 -1.5377 -0.1363
 5751SOL    HW228713   3.811   0.866   4.616 -0.0772  0.5714  0.7042
 5752SOL     OW28714   2.284   2.736   2.179  0.1667  0.2699  0.8203
 5752SOL    HW128715   2.268   2.751   2.272 -2.3001 -0.1671  0.4639
 5752SOL    HW228716   2.220   2.794   2.136  1.4762  0.2891 -1.0819
 5753SOL     OW28717   0.856   0.296   6.903 -0.3278 -0.0271  0.1336
 5753SOL    HW128718   0.940   0.258   6.878  1.0892  2.1051  1.7061
 5753SOL    HW228719   0.819   0.303   6.815  3.4897  2.7542 -1.2255
 5754SOL     OW28720   0.551   3.490   9.359 -0.1797 -0.1556 -0.1518
 5754SOL    HW128721   0.499   3.478   9.438 -1.9972  3.1164 -0.8238
 5754SOL    HW228722   0.530   3.417   9.301 -2.9504  1.2334 -0.9057
 5755SOL     OW28723   2.827   1.939   5.888  0.5950 -0.1191  0.8806
 5755SOL    HW128724   2.833   1.854   5.931  0.3666 -0.4904  0.1807
 5755SOL    HW228725   2.732   1.941   5.889  0.5084 -3.2064  0.0347
 5756SOL     OW28726   2.019   3.098  10.012  0.4219  0.6247 -0.3754
 5756SOL    HW128727   1.924   3.106  10.021  0.5968 -0.1867  2.1774
 5756SOL    HW228728   2.044   3.190  10.004 -0.7515  1.0441  0.7414
 5757SOL     OW28729   1.436   4.335   5.733 -0.6304 -0.2470 -0.0789
 5757SOL    HW128730   1.433   4.262   5.671  0.0296 -0.3959  0.0664
 5757SOL    HW228731   1.416   4.407   5.673 -1.2797  1.6260  2.3773
 5758SOL     OW28732   1.799   1.561   4.931 -0.1499  0.0982 -0.7344
 5758SOL    HW128733   1.840   1.479   4.905 -0.7472 -0.5411  0.3281
 5758SOL    HW228734   1.789   1.600   4.844 -1.3072 -0.0590 -0.6735
 5759SOL     OW28735   3.849   2.474   2.800  0.0330 -0.2093 -0.2881
 5759SOL    HW128736   3.900   2.549   2.831  0.9226 -1.0254  0.2057
 5759SOL    HW228737   3.893   2.401   2.842 -1.3444 -1.0621 -0.3236
 5760SOL     OW28738   2.837   1.775  17.210  0.0924  0.8146 -0.3636
 5760SOL    HW128739   2.916   1.789  17.263  1.1741 -1.7982 -1.2739
 5760SOL    HW228740   2.872   1.743  17.126 -0.5143  0.7250 -0.5819
 5761SOL     OW28741   3.453   1.167   3.043  0.4325  0.4818 -0.1298
 5761SOL    HW128742   3.371   1.217   3.039 -0.2329 -0.6983 -1.0750
 5761SOL    HW228743   3.437   1.119   3.125 -2.5410  1.9866  0.1663
 5762SOL     OW28744   2.520   2.227   0.538 -0.1608 -0.4627 -0.1669
 5762SOL    HW128745   2.576   2.153   0.514  0.4541 -0.3224  0.8449
 5762SOL    HW228746   2.567   2.268   0.610 -0.3152  0.5862 -0.6604
 5763SOL     OW28747   1.718   4.297   2.252 -0.4423 -0.3253 -0.3875
 5763SOL    HW128748   1.789   4.358   2.232 -0.1169 -0.3351  0.7299
 5763SOL    HW228749   1.685   4.340   2.331  1.3576  0.0842  0.1433
 5764SOL     OW28750   1.553   4.514  14.475 -0.3739  0.1849  0.0908
 5764SOL    HW128751   1.604   4.569  14.535 -0.9316  0.3683  0.3973
 5764SOL    HW228752   1.478   4.571  14.462 -0.8901 -0.3231  0.7781
 5765SOL     OW28753   3.847   0.736   8.901 -0.6018  0.1280 -0.1636
 5765SOL    HW128754   3.910   0.806   8.921 -0.5305 -0.9241  3.1981
 5765SOL    HW228755   3.804   0.718   8.984  2.5389  1.5459  1.7573
 5766SOL     OW28756   2.978   2.200  10.102 -0.1036  0.3155 -0.0608
 5766SOL    HW128757   2.944   2.284  10.070 -0.1378  1.0140  1.8209
 5766SOL    HW228758   2.964   2.138  10.030 -2.2815 -1.2192  1.6770
 5767SOL     OW28759   3.578   4.145   0.385 -0.7330 -0.5858  0.0220
 5767SOL    HW128760   3.486   4.130   0.366 -0.6717  1.5456 -1.9545
 5767SOL    HW228761   3.622   4.114   0.306  1.1142  1.9008  0.0692
 5768SOL     OW28762   0.733   1.042   6.931 -0.4508  0.2423 -0.0807
 5768SOL    HW128763   0.818   1.085   6.930 -0.1850 -0.2823 -0.2183
 5768SOL    HW228764   0.715   1.022   7.023 -1.6570  1.2769 -0.0834
 5769SOL     OW28765   2.212   1.474   7.886  0.6063  0.7224 -0.6048
 5769SOL    HW128766   2.252   1.540   7.829  1.1659  1.1673  0.3173
 5769SOL    HW228767   2.134   1.521   7.917  0.5670 -0.0833  0.5056
 5770SOL     OW28768   1.233   4.523  10.662 -0.5888  0.0841 -0.3850
 5770SOL    HW128769   1.255   4.446  10.714 -1.4167 -0.0169 -0.1870
 5770SOL    HW228770   1.273   4.489  10.582 -0.1274 -1.3853  0.4733
 5771SOL     OW28771   2.524   3.105   4.921  0.4201 -0.2467 -0.2551
 5771SOL    HW128772   2.563   3.028   4.964 -0.3856 -1.5198 -1.7936
 5771SOL    HW228773   2.562   3.173   4.977 -2.3752 -0.1680  1.5447
 5772SOL     OW28774   4.291   0.765   2.583 -0.0218 -0.1026  0.4433
 5772SOL    HW128775   4.380   0.730   2.591 -1.0522 -2.7539  0.0483
 5772SOL    HW228776   4.289   0.768   2.487 -0.7636 -1.2928  0.4319
 5773SOL     OW28777   2.048   1.375   0.383 -0.0130 -0.3216 -0.0501
 5773SOL    HW128778   2.035   1.280   0.388  1.3971 -0.4147  1.8955
 5773SOL    HW228779   1.961   1.397   0.350  1.0342  0.8373 -2.0248
 5774SOL     OW28780   2.241   4.363   2.739 -0.1933  0.1315 -0.2015
 5774SOL    HW128781   2.186   4.375   2.661 -1.9021  1.1869  1.1555
 5774SOL    HW228782   2.275   4.450   2.759  0.8112 -0.5462  0.9971
 5775SOL     OW28783   1.993   1.750  10.174 -1.2685  0.0674 -0.9103
 5775SOL    HW128784   2.079   1.708  10.178 -1.0582  0.5979  0.3977
 5775SOL    HW228785   2.012   1.843  10.186 -1.4787 -0.2306  1.9139
 5776SOL     OW28786   2.148   1.904   9.370  0.4246 -0.1199 -0.1843
 5776SOL    HW128787   2.066   1.951   9.387  1.0352 -0.0221  2.5405
 5776SOL    HW228788   2.213   1.957   9.416  0.9999 -2.2330  1.4292
 5777SOL     OW28789   2.473   3.013  17.138  0.3726 -0.2899  0.0486
 5777SOL    HW128790   2.506   3.095  17.174  0.4529  1.2768 -3.6184
 5777SOL    HW228791   2.457   3.039  17.047 -1.0183  0.5665  0.5485
 5778SOL     OW28792   2.558   4.531   2.981  0.0367  0.6671  0.1546
 5778SOL    HW128793   2.589   4.441   2.977  2.4719  1.4372  1.7700
 5778SOL    HW228794   2.641   4.574   3.001  0.5895  1.0382 -2.9014
 5779SOL     OW28795   0.448   2.296   9.280  0.7744 -0.4525 -0.0721
 5779SOL    HW128796   0.483   2.311   9.192 -1.3894 -1.0331 -1.0136
 5779SOL    HW228797   0.373   2.238   9.273  0.7098 -0.4311  0.4147
 5780SOL     OW28798   1.676   0.174   8.828  0.3134 -0.0232  0.1018
 5780SOL    HW128799   1.669   0.270   8.824 -0.3060 -0.0335  0.7594
 5780SOL    HW228800   1.771   0.166   8.835  0.2493  0.1626  1.2495
 5781SOL     OW28801   1.274   2.994   5.211 -0.2073 -0.3841 -0.3776
 5781SOL    HW128802   1.353   3.027   5.254 -1.9914 -1.9506  4.1530
 5781SOL    HW228803   1.295   2.995   5.117  3.6410 -2.2676  0.4398
 5782SOL     OW28804   4.306   3.422  13.242 -0.2786  0.1940 -0.1078
 5782SOL    HW128805   4.262   3.507  13.253  1.0837  0.7275  1.2965
 5782SOL    HW228806   4.230   3.366  13.252 -0.7521  0.5037 -2.1327
 5783SOL     OW28807   1.433   0.636   3.256 -0.1892  0.3613  0.2177
 5783SOL    HW128808   1.381   0.607   3.331  0.0011  0.6189  0.4493
 5783SOL    HW228809   1.465   0.720   3.290 -0.3584  0.8380 -0.8120
 5784SOL     OW28810   3.111   0.017   6.211 -0.4920  0.3436  1.1109
 5784SOL    HW128811   3.112   4.724   6.305 -1.1319 -2.2944  0.6286
 5784SOL    HW228812   3.180   4.688   6.170 -1.0211  1.6619 -1.4768
 5785SOL     OW28813   0.223   0.471   9.971 -0.3527  0.5335  0.0122
 5785SOL    HW128814   0.158   0.424   9.919 -1.0084  0.7284  0.6488
 5785SOL    HW228815   0.221   0.423  10.054 -1.2472  1.8162  0.7352
 5786SOL     OW28816   3.621   4.099   1.633  0.0645  0.1569 -0.0194
 5786SOL    HW128817   3.699   4.152   1.650  0.8118 -1.4597  1.5549
 5786SOL    HW228818   3.573   4.152   1.568 -1.1179  0.1388  0.8315
 5787SOL     OW28819   0.413   4.370   7.773  0.0808 -0.2409  0.4354
 5787SOL    HW128820   0.422   4.413   7.857 -2.0811 -0.7246  0.9188
 5787SOL    HW228821   0.428   4.281   7.804  0.0147 -0.3111  0.2698
 5788SOL     OW28822   3.089   0.011   9.706  0.5940 -0.4234  0.7720
 5788SOL    HW128823   3.179   0.043   9.709  0.5700 -0.3985  1.3517
 5788SOL    HW228824   3.050   0.068   9.773 -0.8013 -0.4597 -0.0155
 5789SOL     OW28825   4.352   1.951   4.206 -0.5831 -0.8420  0.1238
 5789SOL    HW128826   4.290   2.024   4.214  0.7241  0.4455 -1.5158
 5789SOL    HW228827   4.318   1.921   4.121  0.9935 -0.2889 -0.7050
 5790SOL     OW28828   3.403   1.508   8.414  0.1643 -0.1685  0.3472
 5790SOL    HW128829   3.349   1.567   8.362 -0.1803 -0.7975 -0.0211
 5790SOL    HW228830   3.416   1.562   8.491  1.2287  0.5789 -0.3634
 5791SOL     OW28831   3.554   1.757   9.685  0.1987 -0.4438 -1.0835
 5791SOL    HW128832   3.481   1.697   9.670  0.4311 -1.4351  1.7595
 5791SOL    HW228833   3.534   1.813   9.610  0.2417 -0.0181 -0.7752
 5792SOL     OW28834   3.115   3.077   6.757 -0.5898 -0.1334  0.4959
 5792SOL    HW128835   3.034   3.087   6.808 -1.1017 -1.0502 -0.1245
 5792SOL    HW228836   3.145   3.167   6.747 -1.5177  0.1284  0.0084
 5793SOL     OW28837   2.865   0.831  17.284 -0.1468 -0.1448  0.4204
 5793SOL    HW128838   2.908   0.826  17.369 -0.0064 -0.6706  0.3169
 5793SOL    HW228839   2.933   0.878  17.236 -0.3842 -0.9502 -0.6985
 5794SOL     OW28840   0.440   3.378   4.408 -0.2711  0.1151 -0.5561
 5794SOL    HW128841   0.430   3.283   4.416 -0.4107  0.4194  2.9192
 5794SOL    HW228842   0.508   3.380   4.341 -0.7832  0.2861 -1.0741
 5795SOL     OW28843   4.005   2.966   7.742  0.8274  0.9780  0.3924
 5795SOL    HW128844   3.920   2.947   7.782  0.8792  1.1451  0.5850
 5795SOL    HW228845   4.011   2.923   7.657 -0.6295  1.3091  0.1352
 5796SOL     OW28846   2.224   3.729   8.741 -0.0342 -0.2782  0.0144
 5796SOL    HW128847   2.317   3.752   8.751 -0.1864  0.1030  0.5625
 5796SOL    HW228848   2.173   3.809   8.758 -1.1173 -0.8405 -0.6052
 5797SOL     OW28849   3.573   3.217   4.559 -0.3530 -0.1831 -0.0959
 5797SOL    HW128850   3.610   3.130   4.548  0.5931  0.0431  1.3461
 5797SOL    HW228851   3.623   3.268   4.495  1.9106  0.4148  2.1533
 5798SOL     OW28852   1.378   4.385  13.523 -0.3201  0.4273  0.6083
 5798SOL    HW128853   1.383   4.457  13.585 -3.0857  2.4781 -1.5950
 5798SOL    HW228854   1.292   4.356  13.552 -0.6517 -0.3148 -1.0852
 5799SOL     OW28855   2.289   0.492   6.379  0.4517  0.2756  0.0623
 5799SOL    HW128856   2.224   0.507   6.448 -0.8269 -1.3742 -0.8021
 5799SOL    HW228857   2.273   0.402   6.351 -0.9880  0.6011 -0.1852
 5800SOL     OW28858   2.602   4.062  16.833  0.3640 -0.8416 -0.0844
 5800SOL    HW128859   2.623   4.009  16.910  0.2462  0.8109  1.0952
 5800SOL    HW228860   2.516   4.026  16.813 -0.3244  0.4740  0.4642
 5801SOL     OW28861   1.413   1.552  10.582  0.2282  0.1552 -0.2165
 5801SOL    HW128862   1.489   1.524  10.633  0.3651  2.4281  0.8566
 5801SOL    HW228863   1.342   1.489  10.596  1.4546 -1.1029  0.2924
 5802SOL     OW28864   3.273   4.101   0.686  0.2808 -0.5577 -0.5814
 5802SOL    HW128865   3.273   4.006   0.701 -0.2682 -0.3197  0.9465
 5802SOL    HW228866   3.367   4.118   0.680  0.4246 -1.1045  0.1199
 5803SOL     OW28867   1.722   1.136   3.766 -0.0693 -0.5025  0.0470
 5803SOL    HW128868   1.705   1.141   3.860 -0.8712 -3.1152  0.0463
 5803SOL    HW228869   1.815   1.158   3.761 -0.5630  1.5813 -0.1201
 5804SOL     OW28870   1.854   3.346   3.904  0.0464  0.1320 -0.0376
 5804SOL    HW128871   1.868   3.281   3.835  1.6311  0.1369  0.2893
 5804SOL    HW228872   1.893   3.306   3.982  0.0927  1.4952  0.6376
 5805SOL     OW28873   1.089   4.522  15.836 -0.3562  0.2624 -0.9605
 5805SOL    HW128874   1.008   4.573  15.826  0.7954  1.8542 -2.0643
 5805SOL    HW228875   1.145   4.553  15.765  0.0837  0.4257 -0.5354
 5806SOL     OW28876   2.918   0.267   7.833  0.2606  0.1253 -0.1217
 5806SOL    HW128877   2.935   0.337   7.896 -0.5705  0.7127 -0.5480
 5806SOL    HW228878   2.964   0.187   7.860 -0.3975 -0.0230  0.5907
 5807SOL     OW28879   4.414   0.760   3.185 -0.0798  0.2957 -0.5508
 5807SOL    HW128880   4.376   0.847   3.198  1.5648  1.4259 -3.1964
 5807SOL    HW228881   4.478   0.781   3.116  0.9403  0.6775  0.5158
 5808SOL     OW28882   1.945   1.614  17.659 -0.7200  0.6595 -0.0594
 5808SOL    HW128883   1.885   1.636   0.034  0.1359 -0.4114  0.9761
 5808SOL    HW228884   1.948   1.519  17.657  0.9313  0.6945  0.2665
 5809SOL     OW28885   3.934   3.208   8.636 -0.2633  0.2543  0.7215
 5809SOL    HW128886   3.953   3.221   8.543 -1.7477  2.5179  0.7612
 5809SOL    HW228887   3.964   3.292   8.670  0.8520  0.6193 -1.1520
 5810SOL     OW28888   4.061   2.609   5.196 -0.6207  0.0585 -0.7604
 5810SOL    HW128889   4.053   2.516   5.174 -0.6659 -0.0280 -0.3780
 5810SOL    HW228890   4.117   2.633   5.122 -0.3945 -0.1478 -0.6590
 5811SOL     OW28891   0.680   3.539   9.046 -0.2808 -1.4880 -0.4723
 5811SOL    HW128892   0.660   3.596   8.972 -1.9829  0.4088  1.4686
 5811SOL    HW228893   0.609   3.475   9.041 -0.9803 -0.9655  2.6838
 5812SOL     OW28894   3.777   3.575  11.348 -0.7882 -0.0019  0.4240
 5812SOL    HW128895   3.768   3.638  11.277  4.7908  1.3945  0.9703
 5812SOL    HW228896   3.683   3.562  11.362 -0.4157 -4.1468 -0.8205
 5813SOL     OW28897   4.162   1.927   8.829 -0.4284 -0.3180  0.0441
 5813SOL    HW128898   4.130   1.865   8.764 -2.0121  1.1170 -0.5440
 5813SOL    HW228899   4.097   1.997   8.821 -0.5402 -0.4483 -0.1900
 5814SOL     OW28900   1.197   3.130   9.473  0.0228 -0.0627  0.2468
 5814SOL    HW128901   1.194   3.190   9.548  0.2403  1.1231 -0.6856
 5814SOL    HW228902   1.103   3.133   9.456 -0.3235  1.4067  2.3273
 5815SOL     OW28903   2.039   2.153   4.521  0.1465  0.0050  0.7309
 5815SOL    HW128904   2.010   2.241   4.500  0.0977  0.6447  3.5024
 5815SOL    HW228905   2.091   2.183   4.595 -0.6222 -0.0144  1.2786
 5816SOL     OW28906   4.657   1.322  12.246  0.0579  0.4382 -0.0854
 5816SOL    HW128907   0.017   1.368  12.245 -0.5431  1.6029  2.7609
 5816SOL    HW228908   4.605   1.394  12.211  2.0744  2.0249  0.1937
 5817SOL     OW28909   4.395   2.487  15.375 -0.3793  0.3572  0.1221
 5817SOL    HW128910   4.425   2.442  15.296 -0.8297  0.3797 -0.0621
 5817SOL    HW228911   4.402   2.581  15.354  2.0348  0.0089 -0.6614
 5818SOL     OW28912   3.666   3.303   0.777  0.4884  0.1104  0.2342
 5818SOL    HW128913   3.743   3.339   0.732  0.5119  0.3514  0.4696
 5818SOL    HW228914   3.605   3.376   0.793  0.3087 -0.1526  0.7440
 5819SOL     OW28915   1.829   0.077   8.539  0.8461 -0.5766 -0.0822
 5819SOL    HW128916   1.862   0.058   8.452 -0.6414 -1.3910 -0.4727
 5819SOL    HW228917   1.859   0.167   8.551  0.2155 -0.3463 -0.2153
 5820SOL     OW28918   0.489   3.507   8.815 -0.5591  0.3146  0.8148
 5820SOL    HW128919   0.524   3.560   8.744  0.9566 -2.5571 -0.5754
 5820SOL    HW228920   0.518   3.419   8.793  0.2556  0.8212 -0.1329
 5821SOL     OW28921   1.360   0.191   4.087  0.4317 -0.2150  0.4493
 5821SOL    HW128922   1.400   0.158   4.007  1.2156  1.9003 -0.0292
 5821SOL    HW228923   1.393   0.128   4.150  0.0109  0.9988  1.9006
 5822SOL     OW28924   1.156   4.602   3.042 -0.6503 -0.0497  0.0576
 5822SOL    HW128925   1.218   4.672   3.062 -0.3419 -0.2658 -0.1437
 5822SOL    HW228926   1.204   4.524   3.014  1.1505  0.9311  0.3520
 5823SOL     OW28927   4.580   3.806  10.153  0.0121  0.3509  0.3689
 5823SOL    HW128928   4.554   3.897  10.142 -2.0218 -0.4923 -1.8803
 5823SOL    HW228929   4.516   3.761  10.097  0.0917  0.0784  0.4953
 5824SOL     OW28930   2.231   3.276  16.877  0.2781  0.3677 -0.2251
 5824SOL    HW128931   2.267   3.308  16.959 -0.0098 -0.4813  0.2355
 5824SOL    HW228932   2.274   3.190  16.875 -1.8864 -0.6934 -1.4303
 5825SOL     OW28933   4.091   2.220  14.647 -0.7078  0.2489  0.1963
 5825SOL    HW128934   4.109   2.128  14.629 -2.7515 -0.2112  0.4167
 5825SOL    HW228935   4.176   2.251  14.680 -0.6009  1.9657 -1.7123
 5826SOL     OW28936   1.274   3.484  14.276 -0.2469 -0.1283 -0.1719
 5826SOL    HW128937   1.296   3.509  14.186 -0.9292  0.7631 -0.0957
 5826SOL    HW228938   1.191   3.526  14.300 -1.0505 -0.5332 -2.3014
 5827SOL     OW28939   2.893   2.076   2.446 -0.0683  0.1317 -0.2587
 5827SOL    HW128940   2.824   2.117   2.395 -0.6883  0.5205  0.8813
 5827SOL    HW228941   2.941   2.032   2.376 -1.2751  0.8383 -1.5312
 5828SOL     OW28942   0.914   0.815   0.425 -0.1664  0.2635  0.0530
 5828SOL    HW128943   0.850   0.845   0.359 -0.6995 -0.2276  0.3427
 5828SOL    HW228944   0.992   0.799   0.372 -0.9989  0.0304 -1.1037
 5829SOL     OW28945   2.721   2.890   7.107  0.0965 -0.1003  1.0361
 5829SOL    HW128946   2.767   2.933   7.179  2.3688 -0.0768 -0.4016
 5829SOL    HW228947   2.798   2.851   7.065 -1.6509 -1.6093 -0.7390
 5830SOL     OW28948   2.658   1.905   8.677  0.3800  0.4978 -0.3344
 5830SOL    HW128949   2.602   1.828   8.682  0.7894  0.4160  3.2597
 5830SOL    HW228950   2.596   1.977   8.687 -0.3524  0.3252 -3.6952
 5831SOL     OW28951   3.458   0.392  13.103  0.2416  0.7065  0.0125
 5831SOL    HW128952   3.494   0.303  13.107 -0.5239  0.3321 -1.7654
 5831SOL    HW228953   3.490   0.432  13.184  0.5219  0.3139  0.0938
 5832SOL     OW28954   1.903   2.435   7.188  0.2950  0.1842  0.3052
 5832SOL    HW128955   1.995   2.411   7.185  0.6339  1.6792 -1.1696
 5832SOL    HW228956   1.858   2.355   7.161  1.3488  0.1456 -1.2922
 5833SOL     OW28957   2.957   3.568   9.806 -0.0776  0.4854  0.0956
 5833SOL    HW128958   3.051   3.553   9.810  0.0721  1.5349  0.5568
 5833SOL    HW228959   2.955   3.641   9.744 -0.4660  1.3562  1.1389
 5834SOL     OW28960   0.522   1.964   6.489  0.4327  0.1357  0.1201
 5834SOL    HW128961   0.556   1.955   6.578 -1.8151 -0.3855  0.9461
 5834SOL    HW228962   0.429   1.984   6.503  0.4057  0.4811 -0.6108
 5835SOL     OW28963   3.309   2.936   7.347 -0.3733 -0.2425  0.4832
 5835SOL    HW128964   3.400   2.919   7.371  0.1924  2.7240  0.3543
 5835SOL    HW228965   3.291   2.871   7.279 -0.3393  0.7504 -0.4772
 5836SOL     OW28966   0.846   3.281  12.891 -0.2435  0.5222  0.7366
 5836SOL    HW128967   0.824   3.307  12.980 -0.8764  0.7820  0.5001
 5836SOL    HW228968   0.920   3.222  12.909 -1.2302 -1.6829 -2.5992
 5837SOL     OW28969   4.076   0.856   6.383  0.2003 -0.0656  0.6662
 5837SOL    HW128970   4.116   0.896   6.460  0.1140  0.5642  0.3805
 5837SOL    HW228971   4.110   0.767   6.392 -0.4249 -0.1983  1.6760
 5838SOL     OW28972   4.652   4.542  14.761  0.0250 -0.2014 -0.3745
 5838SOL    HW128973   4.707   4.479  14.808  1.6873 -0.4258 -2.6173
 5838SOL    HW228974   4.721   4.591  14.716  0.9188 -0.7623  0.3952
 5839SOL     OW28975   0.202   0.984  15.588 -0.5999  0.2223 -0.3020
 5839SOL    HW128976   0.254   1.020  15.517 -1.3487 -0.2766 -1.1158
 5839SOL    HW228977   0.127   0.963  15.532 -1.3837 -1.0708  1.2013
 5840SOL     OW28978   4.107   2.621  13.015  0.4871  0.0654 -0.2977
 5840SOL    HW128979   4.019   2.584  13.015  1.0606 -1.3028  0.1765
 5840SOL    HW228980   4.164   2.545  13.016  0.2208 -0.1254  0.0829
 5841SOL     OW28981   0.933   3.967   4.635 -0.1425 -0.1491  0.2849
 5841SOL    HW128982   0.929   3.884   4.684 -2.0824 -0.4666 -0.3924
 5841SOL    HW228983   0.975   3.938   4.555  0.6175  1.9610 -0.0516
 5842SOL     OW28984   4.483   0.234   6.946 -0.1236 -0.6765  0.0949
 5842SOL    HW128985   4.564   0.281   6.927 -0.6528  0.3567  0.4062
 5842SOL    HW228986   4.464   0.170   6.878 -0.1959 -1.7555  1.1275
 5843SOL     OW28987   0.945   1.505   8.344  0.4539  0.0834 -0.2749
 5843SOL    HW128988   0.942   1.543   8.431 -0.6344  2.1348 -1.2087
 5843SOL    HW228989   0.866   1.452   8.326  1.1696 -2.0161  2.7679
 5844SOL     OW28990   0.534   0.103   6.150 -0.5678  0.0568  0.2732
 5844SOL    HW128991   0.501   0.177   6.099  0.5439  2.2828  2.7933
 5844SOL    HW228992   0.453   0.052   6.156 -0.0589 -0.3854  3.1878
 5845SOL     OW28993   1.898   2.703   7.155  0.2425  0.4330  0.2210
 5845SOL    HW128994   1.816   2.689   7.107 -0.3253  1.3274  0.9295
 5845SOL    HW228995   1.920   2.611   7.172 -0.7793  0.1139 -0.1505
 5846SOL     OW28996   2.271   0.654  12.952 -0.3098 -0.2667 -0.2072
 5846SOL    HW128997   2.366   0.650  12.943 -0.5019 -1.7591 -1.6064
 5846SOL    HW228998   2.258   0.749  12.955 -1.0904 -0.3349 -1.2132
 5847SOL     OW28999   1.710   0.993   2.987  0.4619 -0.4280 -0.4879
 5847SOL    HW129000   1.741   0.949   2.909  1.3940  2.3741 -1.6818
 5847SOL    HW229001   1.752   1.079   2.982 -0.2253 -0.1396 -1.1709
 5848SOL     OW29002   4.449   3.167  16.340 -0.5393  0.3540 -0.6533
 5848SOL    HW129003   4.498   3.226  16.397 -0.5370 -0.4128  0.1278
 5848SOL    HW229004   4.413   3.101  16.399  0.8736  0.3549  0.1996
 5849SOL     OW29005   0.262   4.720   9.172  0.5624  0.0511  0.4155
 5849SOL    HW129006   0.169   0.009   9.190  0.6632  2.9262 -1.0343
 5849SOL    HW229007   0.303   0.034   9.250 -3.0406  2.5060  1.1701
 5850SOL     OW29008   2.561   3.978   4.914  0.4263  0.0812 -0.0723
 5850SOL    HW129009   2.502   3.902   4.909  0.4854  0.0628 -0.4424
 5850SOL    HW229010   2.610   3.958   4.994 -0.8986  1.1091  1.0129
 5851SOL     OW29011   0.375   0.899   5.896 -0.3274 -0.7322  0.4099
 5851SOL    HW129012   0.314   0.888   5.969 -0.5118 -0.0977  0.3504
 5851SOL    HW229013   0.329   0.872   5.817 -0.7090  1.3368 -0.0829
 5852SOL     OW29014   4.187   1.141   3.080  0.3798 -0.6098 -0.3276
 5852SOL    HW129015   4.145   1.107   3.001  1.3493 -1.9589 -0.2583
 5852SOL    HW229016   4.229   1.214   3.035 -0.9643  0.4126  0.0601
 5853SOL     OW29017   0.825   3.487   7.609  0.4500  0.0040  0.6359
 5853SOL    HW129018   0.835   3.483   7.704  0.5180  2.0148  0.7231
 5853SOL    HW229019   0.789   3.400   7.592  0.7509  0.0266 -0.1310
 5854SOL     OW29020   1.718   4.112  16.463 -0.8366  0.1088  0.0080
 5854SOL    HW129021   1.706   4.203  16.491 -1.8407 -0.7375  2.3635
 5854SOL    HW229022   1.746   4.123  16.372  0.2607 -0.2991  0.2902
 5855SOL     OW29023   3.024   3.948  16.583 -0.3720  0.3286  0.0225
 5855SOL    HW129024   3.023   3.988  16.670  0.9895 -1.0760  0.6838
 5855SOL    HW229025   2.986   3.860  16.596  0.3523 -0.0057 -0.1540
 5856SOL     OW29026   1.661   3.398   1.466  0.5990  0.0102  0.2020
 5856SOL    HW129027   1.629   3.477   1.509  4.6849  1.8209 -0.1921
 5856SOL    HW229028   1.742   3.426   1.424 -0.5535  2.0586 -0.6430
 5857SOL     OW29029   0.539   1.049   9.517 -0.6934 -0.0395  0.2956
 5857SOL    HW129030   0.578   1.078   9.434  0.2540 -1.1815  0.3450
 5857SOL    HW229031   0.497   0.966   9.496 -1.0206  0.9573 -2.9614
 5858SOL     OW29032   4.214   2.868   2.056  0.1902 -0.3901 -0.0156
 5858SOL    HW129033   4.230   2.907   2.142  0.8676 -0.3547 -0.1553
 5858SOL    HW229034   4.232   2.941   1.997 -1.5291  0.8514  1.0272
 5859SOL     OW29035   4.261   2.472   0.468  0.4019  0.0650 -0.2189
 5859SOL    HW129036   4.226   2.554   0.434  0.8268  1.5440  2.9518
 5859SOL    HW229037   4.350   2.504   0.485 -0.1181  2.0571 -1.2298
 5860SOL     OW29038   4.061   2.965   8.097 -0.0665  0.5100  0.8091
 5860SOL    HW129039   4.102   2.954   8.183 -2.1786  0.3075  1.8030
 5860SOL    HW229040   4.003   2.889   8.096 -0.9423  1.2287 -2.6387
 5861SOL     OW29041   3.085   1.564   3.279 -0.5250  0.3892  0.2715
 5861SOL    HW129042   2.994   1.594   3.279 -0.5522  0.3047 -0.3680
 5861SOL    HW229043   3.091   1.563   3.374  0.0748  2.0507  0.2552
 5862SOL     OW29044   2.806   3.463   1.391  0.4834 -0.0094 -0.1920
 5862SOL    HW129045   2.746   3.524   1.434  0.8294  0.9203 -1.0244
 5862SOL    HW229046   2.883   3.469   1.447 -0.2675 -1.8477  1.0327
 5863SOL     OW29047   2.797   0.913   5.805 -0.6269 -0.0017  0.0675
 5863SOL    HW129048   2.864   0.979   5.786  1.0326 -1.7825 -0.2790
 5863SOL    HW229049   2.819   0.900   5.897 -2.7477  2.7845  0.9786
 5864SOL     OW29050   2.195   3.431   6.228 -0.1331 -0.3316 -0.3996
 5864SOL    HW129051   2.182   3.427   6.323 -0.8616  0.0458 -0.4854
 5864SOL    HW229052   2.202   3.526   6.216 -1.7249 -0.0574  0.9199
 5865SOL     OW29053   2.246   2.874   1.464  0.2970 -0.8872  0.5312
 5865SOL    HW129054   2.170   2.819   1.445 -0.0691  0.1562 -1.0057
 5865SOL    HW229055   2.217   2.949   1.412 -1.1529 -2.1715 -0.5317
 5866SOL     OW29056   2.104   2.345   8.611 -0.3292 -0.8792  0.1269
 5866SOL    HW129057   2.094   2.390   8.527  2.5695 -0.3420  0.0650
 5866SOL    HW229058   2.049   2.394   8.673  2.3544  0.7929  1.1629
 5867SOL     OW29059   2.700   2.279   6.421  0.3218 -0.1248  0.2297
 5867SOL    HW129060   2.702   2.362   6.374 -0.3634 -0.2666 -0.0543
 5867SOL    HW229061   2.606   2.263   6.429  0.3834 -0.6326 -0.0685
 5868SOL     OW29062   0.041   3.130   5.148 -0.0652  0.2344  0.0021
 5868SOL    HW129063   4.670   3.131   5.154 -0.1019  2.8661 -1.0621
 5868SOL    HW229064   0.059   3.193   5.218  2.3218  0.1771 -0.5588
 5869SOL     OW29065   0.213   0.947  16.776 -0.0599 -0.3010  0.1226
 5869SOL    HW129066   0.307   0.936  16.785 -0.0108 -0.2787 -0.3881
 5869SOL    HW229067   0.189   0.967  16.867 -0.7466  1.1737 -0.3773
 5870SOL     OW29068   4.255   0.008  12.495  0.4220  0.3557  0.0894
 5870SOL    HW129069   4.302   0.067  12.437 -1.7949  3.0664  1.0903
 5870SOL    HW229070   4.181   4.712  12.437  0.6324 -2.6175  0.7879
 5871SOL     OW29071   4.213   1.655  17.161 -0.3101  0.3129  0.5390
 5871SOL    HW129072   4.183   1.628  17.074  0.7187 -0.8453  0.5446
 5871SOL    HW229073   4.227   1.750  17.153 -2.5161  0.4971 -1.0247
 5872SOL     OW29074   1.005   3.793   3.517  0.3516 -0.3883  0.1057
 5872SOL    HW129075   0.975   3.705   3.540 -0.2947 -0.1705  0.0782
 5872SOL    HW229076   1.059   3.813   3.594 -0.9285 -1.8281  1.3667
 5873SOL     OW29077   2.624   0.704   2.130  0.0583 -0.3838 -0.4928
 5873SOL    HW129078   2.543   0.658   2.154  0.8055 -1.4406 -0.0008
 5873SOL    HW229079   2.681   0.642   2.086 -0.3988  0.2878 -2.0233
 5874SOL     OW29080   1.628   3.864  16.614 -0.7280 -0.0221 -0.3184
 5874SOL    HW129081   1.532   3.869  16.612 -0.7787 -2.5794 -3.8312
 5874SOL    HW229082   1.652   3.796  16.676  1.6494  0.0198 -1.2208
 5875SOL     OW29083   1.363   3.610   7.497  0.0405  0.5357  0.0768
 5875SOL    HW129084   1.403   3.544   7.441  3.6679  0.1245  3.1535
 5875SOL    HW229085   1.275   3.595   7.461  1.0733 -1.9588 -1.4077
 5876SOL     OW29086   3.671   2.674   0.929  0.2676  0.8746  0.4622
 5876SOL    HW129087   3.646   2.729   0.855 -2.5807  0.9878  1.5209
 5876SOL    HW229088   3.588   2.638   0.961  0.0709  0.6824 -0.2622
 5877SOL     OW29089   3.049   2.633   4.096  0.1943  0.6253  0.6942
 5877SOL    HW129090   3.020   2.587   4.017 -0.9260  3.0660 -0.3404
 5877SOL    HW229091   3.145   2.633   4.087  0.1598  0.9790  0.2914
 5878SOL     OW29092   2.171   3.261  12.100 -0.0730 -0.6602  0.1218
 5878SOL    HW129093   2.154   3.286  12.191  0.4038 -0.0916  0.0555
 5878SOL    HW229094   2.136   3.172  12.098 -1.9197  0.1631 -4.0545
 5879SOL     OW29095   3.033   1.949  10.808  0.3487 -0.1139  0.0771
 5879SOL    HW129096   3.062   1.887  10.741  1.7080  1.1861 -0.5332
 5879SOL    HW229097   3.063   2.031  10.769  1.6207  0.8554  3.1350
 5880SOL     OW29098   0.426   1.428  13.192 -0.1768 -0.2318  0.2835
 5880SOL    HW129099   0.467   1.485  13.127  0.5347 -1.4167 -0.2858
 5880SOL    HW229100   0.498   1.387  13.239 -0.5520  0.7189  1.7171
 5881SOL     OW29101   4.308   3.966   1.530  0.0990 -0.2163 -0.4293
 5881SOL    HW129102   4.294   3.946   1.438 -0.7535 -0.6508 -0.2101
 5881SOL    HW229103   4.245   3.909   1.575 -0.4275 -0.5082 -1.5440
 5882SOL     OW29104   1.007   4.644   5.427  0.0221  0.2374  0.0289
 5882SOL    HW129105   0.942   4.597   5.478  0.7200 -1.3620 -0.5602
 5882SOL    HW229106   1.086   4.629   5.479 -0.3544 -0.4406  0.3888
 5883SOL     OW29107   3.329   0.837  13.768  0.1166 -0.2026 -0.0107
 5883SOL    HW129108   3.412   0.791  13.750 -1.2165 -2.5540 -0.2060
 5883SOL    HW229109   3.353   0.877  13.852  0.8389 -1.8081  0.5657
 5884SOL     OW29110   3.971   4.315  13.494  0.0481 -0.0039 -0.4369
 5884SOL    HW129111   3.941   4.238  13.445  1.0349 -1.3856  1.1399
 5884SOL    HW229112   4.042   4.281  13.548 -2.8946 -3.9426  0.9557
 5885SOL     OW29113   2.639   1.994   5.009  0.0028 -0.0545 -0.8757
 5885SOL    HW129114   2.669   2.009   5.098 -2.6200 -2.6974  0.4665
 5885SOL    HW229115   2.702   2.042   4.956  2.6948  1.1108  3.3540
 5886SOL     OW29116   4.210   1.656   3.748 -0.5235 -0.4361 -0.3971
 5886SOL    HW129117   4.192   1.565   3.769  0.2131 -0.8681 -1.6286
 5886SOL    HW229118   4.304   1.660   3.761 -0.4710 -2.8990 -0.0267
 5887SOL     OW29119   2.638   1.910   2.791  0.2443 -0.4293 -0.1511
 5887SOL    HW129120   2.697   1.983   2.773 -0.4457  0.3438  0.7074
 5887SOL    HW229121   2.658   1.841   2.727  1.1919 -0.5586  0.2765
 5888SOL     OW29122   0.420   4.086  13.250 -0.0366  0.3360  0.3174
 5888SOL    HW129123   0.329   4.106  13.273 -0.7266 -2.4786 -0.0015
 5888SOL    HW229124   0.413   4.096  13.155 -0.3540  1.1309  0.4288
 5889SOL     OW29125   2.319   3.796  11.593  0.4012 -0.0173 -0.3784
 5889SOL    HW129126   2.408   3.831  11.586  1.1171 -1.6368  0.5695
 5889SOL    HW229127   2.299   3.844  11.673 -0.7421 -0.0818 -0.6269
 5890SOL     OW29128   2.361   0.061   4.041 -0.6781 -0.1299 -1.3203
 5890SOL    HW129129   2.291   0.028   3.984 -1.3935 -1.4059  0.2884
 5890SOL    HW229130   2.374   4.723   4.113 -1.3075  1.9202  0.5620
 5891SOL     OW29131   3.428   0.133  14.998 -0.3145 -0.2600  0.4480
 5891SOL    HW129132   3.509   0.104  14.957 -1.2728 -0.5335 -1.2733
 5891SOL    HW229133   3.437   0.228  15.006 -2.1408 -0.0175 -0.1465
 5892SOL     OW29134   0.153   1.094   8.174  0.3384  0.3099  0.0970
 5892SOL    HW129135   0.067   1.055   8.192  0.1566  0.3989 -0.5854
 5892SOL    HW229136   0.193   1.105   8.260 -0.7742  2.6607  0.3153
 5893SOL     OW29137   1.654   4.584   6.102 -0.1617  0.1834  0.1707
 5893SOL    HW129138   1.576   4.579   6.047  0.8167  0.3351 -1.2205
 5893SOL    HW229139   1.728   4.561   6.047  0.7312  2.7522  0.3010
 5894SOL     OW29140   3.303   1.106   6.578 -0.1660  0.3239  0.1642
 5894SOL    HW129141   3.380   1.160   6.559 -0.5723  2.2728  3.9631
 5894SOL    HW229142   3.348   1.023   6.595  2.8510  1.8705 -0.1235
 5895SOL     OW29143   3.833   1.291   5.490 -0.7282  0.1082  0.4034
 5895SOL    HW129144   3.862   1.381   5.506  0.5481 -0.4955  1.5073
 5895SOL    HW229145   3.882   1.265   5.412 -0.8210  2.1550 -0.3450
 5896SOL     OW29146   0.615   3.445  12.003  0.1318 -0.0703 -0.0848
 5896SOL    HW129147   0.520   3.449  12.008 -0.0624 -3.2438 -1.1675
 5896SOL    HW229148   0.630   3.415  12.093  0.6056 -1.1590 -0.5231
 5897SOL     OW29149   0.494   2.869   5.614  0.1057 -0.2142 -0.1048
 5897SOL    HW129150   0.583   2.843   5.593  0.4233  0.3344  0.5805
 5897SOL    HW229151   0.501   2.864   5.709 -0.1690  0.1218 -0.0674
 5898SOL     OW29152   2.915   0.132   8.186  0.0426 -0.1349  0.1491
 5898SOL    HW129153   2.965   0.194   8.132 -0.3803 -0.0951 -0.1913
 5898SOL    HW229154   2.989   0.106   8.242 -0.2267  1.5469  1.2751
 5899SOL     OW29155   1.695   4.422   7.579 -0.3062  0.1018 -0.5418
 5899SOL    HW129156   1.788   4.439   7.594  0.1297 -1.3349 -1.7025
 5899SOL    HW229157   1.664   4.417   7.670 -1.7288  2.0153 -0.9057
 5900SOL     OW29158   3.258   4.345   5.898 -0.1384 -0.2511 -0.2675
 5900SOL    HW129159   3.169   4.310   5.896  0.5881 -2.1735  0.5778
 5900SOL    HW229160   3.306   4.292   5.834  2.8313  2.1067  0.0037
 5901SOL     OW29161   0.472   2.002  16.561  0.7923  0.5260  0.0164
 5901SOL    HW129162   0.557   1.980  16.599  0.3668  0.2218  0.8030
 5901SOL    HW229163   0.472   1.946  16.483 -1.1698  0.8960 -0.2431
 5902SOL     OW29164   1.623   2.149   5.066 -0.0020 -1.0147 -0.3270
 5902SOL    HW129165   1.542   2.130   5.114  0.6369  1.1630  1.5651
 5902SOL    HW229166   1.600   2.102   4.986  2.0272 -0.7254 -1.0810
 5903SOL     OW29167   3.602   4.278   3.033 -0.5245 -0.8445 -0.0969
 5903SOL    HW129168   3.680   4.262   3.085 -0.2410  1.0855  0.0776
 5903SOL    HW229169   3.650   4.339   2.977 -0.6987  0.4032  1.1046
 5904SOL     OW29170   3.869   2.868   2.986 -0.1742  0.4744 -0.6383
 5904SOL    HW129171   3.936   2.824   2.933  0.3091  1.8038 -1.1440
 5904SOL    HW229172   3.805   2.798   2.987  0.5660 -0.1193  3.0195
 5905SOL     OW29173   1.349   0.343   6.146 -0.5500 -0.1102  0.5223
 5905SOL    HW129174   1.300   0.289   6.208 -0.4315 -0.5743  0.2190
 5905SOL    HW229175   1.293   0.350   6.068 -1.3332 -0.9067  1.0146
 5906SOL     OW29176   2.001   3.376   9.990 -0.1198  0.3960 -0.6192
 5906SOL    HW129177   2.045   3.460   9.986 -0.1848  0.5065  0.8870
 5906SOL    HW229178   1.924   3.391   9.935  1.2934  1.2892 -2.3389
 5907SOL     OW29179   1.006   3.662  16.782  0.5271 -0.8602  0.1274
 5907SOL    HW129180   1.051   3.591  16.736 -0.1511 -1.1530 -0.0900
 5907SOL    HW229181   1.073   3.728  16.798  0.7629 -0.9478 -0.5080
 5908SOL     OW29182   1.199   1.653   0.588 -0.0228 -0.3832  0.2307
 5908SOL    HW129183   1.190   1.562   0.618 -3.2775 -0.2877 -0.4702
 5908SOL    HW229184   1.287   1.676   0.618 -0.6105  1.2587  0.6818
 5909SOL     OW29185   4.274   4.590   2.299 -0.7387 -0.3261 -0.5255
 5909SOL    HW129186   4.289   4.505   2.258  2.1172 -0.8037  1.5493
 5909SOL    HW229187   4.227   4.562   2.377  0.4411  0.0733  0.3188
 5910SOL     OW29188   2.000   0.002   4.173 -0.1268  0.6827 -0.3023
 5910SOL    HW129189   2.025   4.663   4.241  0.1213  2.6439  1.4356
 5910SOL    HW229190   2.010   0.091   4.209  1.1850  0.0048  1.0174
 5911SOL     OW29191   2.301   2.280   3.969  0.0838 -0.1464  0.0650
 5911SOL    HW129192   2.307   2.315   4.058 -1.3134  3.6133 -1.2817
 5911SOL    HW229193   2.227   2.225   3.992 -1.0720  1.0028 -0.8606
 5912SOL     OW29194   1.891   3.007   9.243 -0.0186 -0.5085 -0.0777
 5912SOL    HW129195   1.798   2.994   9.261  0.5591 -1.3375  2.2548
 5912SOL    HW229196   1.933   3.005   9.329 -1.6331 -1.4171  0.6835
 5913SOL     OW29197   4.438   1.424   1.017 -0.1940 -0.8413  0.0926
 5913SOL    HW129198   4.384   1.345   1.018 -1.1313 -0.2077  0.1949
 5913SOL    HW229199   4.496   1.401   0.945  0.0968 -3.1020  1.0574
 5914SOL     OW29200   3.569   3.862   6.058 -0.4639 -0.5095  0.1988
 5914SOL    HW129201   3.512   3.879   5.983  0.9714 -1.7358 -1.1491
 5914SOL    HW229202   3.628   3.934   6.039  0.2732 -1.7586 -2.1618
 5915SOL     OW29203   1.268   2.735  15.508 -0.1185 -0.0464 -0.5553
 5915SOL    HW129204   1.324   2.724  15.430  1.3996 -0.0766  0.5302
 5915SOL    HW229205   1.188   2.773  15.471 -0.4637  0.5078  0.7896
 5916SOL     OW29206   1.378   3.300   9.866  0.3989 -0.5991 -0.5071
 5916SOL    HW129207   1.350   3.327   9.953 -1.0592 -0.9079 -0.8725
 5916SOL    HW229208   1.428   3.222   9.890  0.3111  0.0551  1.7219
 5917SOL     OW29209   1.464   0.816   4.358 -0.1686 -0.2825  0.1292
 5917SOL    HW129210   1.491   0.821   4.449 -0.8683  0.6455  0.2825
 5917SOL    HW229211   1.537   0.851   4.306 -1.0160  0.3766 -0.6187
 5918SOL     OW29212   2.259   0.866  13.595  0.4140  0.1809  1.0869
 5918SOL    HW129213   2.305   0.937  13.638  1.2449  1.0586 -1.2363
 5918SOL    HW229214   2.176   0.886  13.636 -0.9741 -1.2624 -1.0281
 5919SOL     OW29215   0.161   0.516   7.407 -0.4337 -0.0021 -0.1860
 5919SOL    HW129216   0.196   0.492   7.321 -0.9258  1.4030 -0.7794
 5919SOL    HW229217   0.066   0.511   7.396 -0.1516  0.3488 -2.8469
 5920SOL     OW29218   1.586   0.189   3.597 -0.2515 -0.5300  0.1634
 5920SOL    HW129219   1.536   0.109   3.581 -0.7380 -0.0524 -0.6751
 5920SOL    HW229220   1.590   0.229   3.511  0.6917 -0.8864  0.0460
 5921SOL     OW29221   2.362   0.648  10.602 -0.2964  0.0382 -0.0762
 5921SOL    HW129222   2.320   0.562  10.609 -3.0643  1.2186 -2.1593
 5921SOL    HW229223   2.426   0.628  10.670 -1.3415 -0.6484  0.7068
 5922SOL     OW29224   0.227   3.454  16.156  0.3514 -0.0086  0.2401
 5922SOL    HW129225   0.311   3.481  16.118  0.0808 -0.0540 -0.3910
 5922SOL    HW229226   0.171   3.523  16.120  1.0823  0.7423  0.5480
 5923SOL     OW29227   0.867   1.338  11.707  0.0371 -0.6410  0.3366
 5923SOL    HW129228   0.774   1.358  11.717  0.7947  1.7046  2.6985
 5923SOL    HW229229   0.875   1.245  11.726  0.0234 -0.1299  2.8276
 5924SOL     OW29230   1.968   4.711  10.498  0.0601  0.0917  0.6643
 5924SOL    HW129231   1.918   0.037  10.563 -1.9651 -0.0069 -0.8229
 5924SOL    HW229232   1.982   4.628  10.544  2.0449 -0.5443 -1.0587
 5925SOL     OW29233   2.961   4.669   2.531  0.3083 -1.0505 -0.4729
 5925SOL    HW129234   2.931   0.017   2.587  1.7995 -1.2557  0.5715
 5925SOL    HW229235   2.875   4.642   2.498  0.8688 -1.3171 -1.7026
 5926SOL     OW29236   0.053   0.895   4.699  0.3238  0.4767  0.5304
 5926SOL    HW129237   0.144   0.883   4.729 -0.0309 -2.1115  0.5620
 5926SOL    HW229238   0.059   0.863   4.609 -2.9684 -1.7015  1.0965
 5927SOL     OW29239   4.215   4.337   3.091 -0.4302  0.2368 -0.6526
 5927SOL    HW129240   4.193   4.248   3.066 -0.5807  1.5960 -5.4077
 5927SOL    HW229241   4.267   4.368   3.016  0.4278  3.1630  1.1260
 5928SOL     OW29242   0.920   0.819   7.835  0.0045  0.3700  0.3301
 5928SOL    HW129243   0.845   0.870   7.865  0.6793  0.9003  1.1180
 5928SOL    HW229244   0.887   0.730   7.846 -0.9795  0.6663 -0.2178
 5929SOL     OW29245   3.739   0.584   5.642  0.0107 -0.5470  0.5759
 5929SOL    HW129246   3.737   0.670   5.599  1.2916 -0.2704  1.0523
 5929SOL    HW229247   3.792   0.605   5.718 -1.5472  1.1958  1.1727
 5930SOL     OW29248   3.486   4.113   8.038  0.1611 -0.5424 -0.1453
 5930SOL    HW129249   3.551   4.108   7.969  0.8547  1.4047  0.3735
 5930SOL    HW229250   3.413   4.159   7.995  0.3197 -0.9287 -0.8171
 5931SOL     OW29251   2.104   2.729   2.955  0.4064  0.2624 -0.8908
 5931SOL    HW129252   2.134   2.645   2.988 -1.8027 -1.3169 -2.9028
 5931SOL    HW229253   2.069   2.691   2.874  0.7404 -0.5760 -0.6404
 5932SOL     OW29254   1.757   2.485   0.133 -0.2731  0.7382  0.0942
 5932SOL    HW129255   1.770   2.567   0.086 -3.0732 -0.0152 -1.9537
 5932SOL    HW229256   1.744   2.417   0.067  1.8188 -0.8284  1.2851
 5933SOL     OW29257   1.900   2.329   7.775 -0.6170 -0.0799 -0.7189
 5933SOL    HW129258   1.891   2.384   7.852 -0.3918 -0.4140 -0.4528
 5933SOL    HW229259   1.975   2.372   7.732 -0.6066 -1.0916 -1.7079
 5934SOL     OW29260   2.400   4.361   7.701  0.6706  0.3789 -0.0088
 5934SOL    HW129261   2.358   4.298   7.760  1.3070 -0.3429 -0.3270
 5934SOL    HW229262   2.379   4.447   7.737 -2.2707 -0.1679 -0.4025
 5935SOL     OW29263   3.154   4.525   3.105 -0.2923  0.3720  0.2755
 5935SOL    HW129264   3.076   4.533   3.159 -0.9686 -0.0851 -0.6234
 5935SOL    HW229265   3.150   4.429   3.098  3.2925  0.4092 -2.6776
 5936SOL     OW29266   0.408   1.262   0.878  0.1267 -0.3301 -0.3582
 5936SOL    HW129267   0.479   1.326   0.875 -0.6165  0.4829 -0.4344
 5936SOL    HW229268   0.415   1.216   0.962 -0.9528  0.5093  0.1897
 5937SOL     OW29269   3.840   0.530   7.689 -0.1520  0.1214 -0.4629
 5937SOL    HW129270   3.892   0.479   7.627  0.8375 -0.3011  0.7232
 5937SOL    HW229271   3.834   0.617   7.647 -1.3456 -1.0642 -2.7822
 5938SOL     OW29272   1.089   1.443   3.362  0.3801  0.3954 -0.4088
 5938SOL    HW129273   1.150   1.429   3.434 -1.3428 -0.5617  0.8698
 5938SOL    HW229274   1.130   1.516   3.315  2.0488  0.9897  1.9530
 5939SOL     OW29275   2.224   0.387   3.120 -0.0670 -0.0010 -0.2159
 5939SOL    HW129276   2.176   0.447   3.177  0.4344 -0.7408  0.9777
 5939SOL    HW229277   2.229   0.438   3.039  1.2775  1.2068  0.6238
 5940SOL     OW29278   4.512   1.986   3.145  0.3875  0.3318 -0.2582
 5940SOL    HW129279   4.599   1.961   3.114 -0.5639 -2.3119 -0.7375
 5940SOL    HW229280   4.451   1.952   3.080 -1.8789  2.5678  0.6759
 5941SOL     OW29281   2.693   1.680   2.072  0.3046 -0.3538 -0.2855
 5941SOL    HW129282   2.754   1.649   2.139  2.4605  0.2218 -1.9684
 5941SOL    HW229283   2.722   1.766   2.041 -1.6703  0.6709  0.7153
 5942SOL     OW29284   0.391   2.388  10.688  0.6041  0.6860 -0.9095
 5942SOL    HW129285   0.452   2.437  10.744 -0.8355  0.1083  1.1352
 5942SOL    HW229286   0.422   2.410  10.600  1.1987  0.3375 -0.7899
 5943SOL     OW29287   3.528   1.717   4.797  0.4506  0.1239 -0.2438
 5943SOL    HW129288   3.568   1.796   4.833  1.9031 -0.1881 -1.1801
 5943SOL    HW229289   3.556   1.705   4.707  0.8355 -0.4949 -0.0392
 5944SOL     OW29290   3.963   1.110   5.326  0.1952 -0.7409 -0.0860
 5944SOL    HW129291   3.872   1.138   5.311 -0.1104  0.5080  3.9742
 5944SOL    HW229292   3.993   1.089   5.238 -0.5239 -1.9940 -0.0470
 5945SOL     OW29293   3.352   2.106   4.590  0.2120  0.0822  0.3573
 5945SOL    HW129294   3.304   2.143   4.664 -1.2505  0.9979 -1.0333
 5945SOL    HW229295   3.350   2.011   4.605  1.4013  0.6733  4.0457
 5946SOL     OW29296   4.255   4.473   5.924 -1.1391  0.1325  0.4278
 5946SOL    HW129297   4.224   4.441   5.839  1.2459 -0.8719 -0.0856
 5946SOL    HW229298   4.217   4.560   5.915 -0.4315  0.0561 -3.4705
 5947SOL     OW29299   0.557   4.042   9.115 -0.1910  0.3014 -0.1378
 5947SOL    HW129300   0.628   3.978   9.117  0.6055  1.1626 -0.7084
 5947SOL    HW229301   0.486   3.985   9.088  0.5153 -0.2049 -0.9252
 5948SOL     OW29302   1.386   0.381   9.131 -0.5070  0.5718 -0.2966
 5948SOL    HW129303   1.462   0.395   9.188  0.7275  0.0749 -1.8259
 5948SOL    HW229304   1.379   0.286   9.132  1.2145  0.4485 -0.6716
 5949SOL     OW29305   2.422   0.371   6.923  0.2292 -0.4083  0.8573
 5949SOL    HW129306   2.464   0.410   6.847  0.3395  0.8170  1.5516
 5949SOL    HW229307   2.485   0.304   6.951  0.5380 -1.1385 -1.6028
 5950SOL     OW29308   0.190   1.458  12.075 -0.4697  0.6952 -0.0545
 5950SOL    HW129309   0.133   1.388  12.043  2.3650 -1.2391 -0.8400
 5950SOL    HW229310   0.141   1.536  12.048 -1.1935  0.5695  0.9010
 5951SOL     OW29311   1.885   0.721   6.722 -0.0610  0.0017 -0.2492
 5951SOL    HW129312   1.815   0.756   6.776 -1.4236  0.1509 -2.0991
 5951SOL    HW229313   1.950   0.792   6.723 -2.0848  1.8392  0.0763
 5952SOL     OW29314   2.081   1.591   7.398  0.2178 -0.4541 -0.2132
 5952SOL    HW129315   2.115   1.631   7.478 -0.8487 -2.0024  1.0065
 5952SOL    HW229316   2.032   1.664   7.360  2.0277  1.3215  0.9001
 5953SOL     OW29317   2.411   0.890   6.462 -0.4252 -0.1387 -0.7720
 5953SOL    HW129318   2.316   0.879   6.470 -0.5666  1.1227 -0.6009
 5953SOL    HW229319   2.446   0.801   6.468  1.5493  0.7021  0.0237
 5954SOL     OW29320   3.546   2.608   9.188  0.5554 -0.3815 -0.2602
 5954SOL    HW129321   3.505   2.542   9.133 -1.5444 -0.9764  2.0377
 5954SOL    HW229322   3.638   2.584   9.178  0.9662  0.8488  0.5400
 5955SOL     OW29323   1.462   1.792   3.046  0.5969  0.1169 -0.2748
 5955SOL    HW129324   1.383   1.836   3.076  0.9286 -0.4156  1.3586
 5955SOL    HW229325   1.499   1.857   2.985 -2.6654 -0.1562 -2.5170
 5956SOL     OW29326   1.754   3.071   3.745  0.6395  0.4378  0.2344
 5956SOL    HW129327   1.779   3.130   3.673  0.6399 -0.8411 -0.8152
 5956SOL    HW229328   1.680   3.026   3.705 -0.7414  0.2994  2.9505
 5957SOL     OW29329   3.550   0.781   3.486 -0.0505  0.1799 -0.2547
 5957SOL    HW129330   3.561   0.868   3.524  3.3856 -0.9789  1.4088
 5957SOL    HW229331   3.642   0.761   3.468 -0.0606  0.8910 -1.0533
 5958SOL     OW29332   3.400   4.680   1.695  0.4567  0.3901 -0.4599
 5958SOL    HW129333   3.324   4.626   1.672  0.5119 -0.4824  1.4450
 5958SOL    HW229334   3.448   4.616   1.747  0.6671  0.1982 -0.8856
 5959SOL     OW29335   1.428   4.702   3.047 -0.2229  0.2357  0.1374
 5959SOL    HW129336   1.424   0.059   3.098  3.3656  1.7431 -2.0554
 5959SOL    HW229337   1.508   4.703   2.995 -1.7759 -2.1075 -2.2841
 5960SOL     OW29338   3.480   0.865  13.154  0.0163 -0.0405  0.4720
 5960SOL    HW129339   3.505   0.830  13.240 -0.2274  1.0771  0.9985
 5960SOL    HW229340   3.554   0.837  13.100 -0.0688  1.6838 -0.5157
 5961SOL     OW29341   1.745   4.428   1.962  0.3687 -0.0954  0.0942
 5961SOL    HW129342   1.664   4.449   1.916  1.2968  0.0020 -1.4942
 5961SOL    HW229343   1.729   4.498   2.026 -1.2361  1.1432 -1.6816
 5962SOL     OW29344   1.679   2.410  12.579  0.5701  0.2408  0.5340
 5962SOL    HW129345   1.716   2.390  12.665  2.4558  0.2079 -0.2778
 5962SOL    HW229346   1.616   2.479  12.601  0.1408 -0.1171  0.4179
 5963SOL     OW29347   2.342   3.061   9.490  0.4966 -0.1791  0.1462
 5963SOL    HW129348   2.287   3.081   9.414  0.6698 -1.3220 -0.2873
 5963SOL    HW229349   2.302   2.977   9.515  1.8513 -0.7072  0.5327
 5964SOL     OW29350   3.647   4.561  12.653  0.3574 -0.1797  0.6821
 5964SOL    HW129351   3.566   4.609  12.669  0.7655  0.8733 -0.4206
 5964SOL    HW229352   3.709   4.615  12.702 -1.1269  0.8069  1.4800
 5965SOL     OW29353   2.954   1.506   2.590  0.0305  0.5436 -0.3060
 5965SOL    HW129354   2.912   1.567   2.529  1.1894  1.0975 -0.5526
 5965SOL    HW229355   3.040   1.487   2.553 -0.5665 -2.3047 -0.1922
 5966SOL     OW29356   1.204   3.760   0.477  0.0243 -0.0999 -0.6020
 5966SOL    HW129357   1.131   3.802   0.523 -1.1321 -0.2683 -2.2850
 5966SOL    HW229358   1.163   3.688   0.429  0.8875 -2.3877  2.0819
 5967SOL     OW29359   3.347   2.485   8.693  0.0667 -0.4287  0.0315
 5967SOL    HW129360   3.355   2.562   8.749  0.2155 -0.1590 -0.3580
 5967SOL    HW229361   3.256   2.471   8.718  0.0511  0.6888  0.5788
 5968SOL     OW29362   1.796   1.608   9.443  0.1474  0.3562  0.1149
 5968SOL    HW129363   1.762   1.578   9.528  1.0752 -0.0639  0.3344
 5968SOL    HW229364   1.863   1.668   9.475  0.6824 -0.0338 -0.2668
 5969SOL     OW29365   2.192   4.512   6.037 -0.4657  0.0401  0.1268
 5969SOL    HW129366   2.223   4.530   6.126  1.1359  2.5427 -0.9520
 5969SOL    HW229367   2.277   4.481   6.006  0.2934 -1.2383  3.4178
 5970SOL     OW29368   1.407   0.424   7.125  0.7507  0.2970 -0.5914
 5970SOL    HW129369   1.409   0.510   7.083 -0.0109  0.2392 -0.7502
 5970SOL    HW229370   1.371   0.454   7.209 -1.1917 -0.0622 -1.3098
 5971SOL     OW29371   2.319   2.220   5.309  0.3015  0.0328 -0.5949
 5971SOL    HW129372   2.242   2.172   5.278  0.7337 -2.1306  1.7047
 5971SOL    HW229373   2.369   2.148   5.346  0.0669  0.0887 -0.1741
 5972SOL     OW29374   4.088   1.396  17.490  0.0357 -0.6814  0.0501
 5972SOL    HW129375   4.070   1.312  17.447  0.6313 -0.1150 -1.3113
 5972SOL    HW229376   4.041   1.387  17.573 -0.9495 -2.8807 -0.7527
 5973SOL     OW29377   1.939   3.207   2.626 -0.0024  0.2706  0.2807
 5973SOL    HW129378   1.920   3.208   2.532  0.4221 -4.7606  0.1235
 5973SOL    HW229379   1.893   3.288   2.649 -2.9966 -1.5812  0.9099
 5974SOL     OW29380   2.243   3.886   3.670  0.1926 -0.1762 -0.4327
 5974SOL    HW129381   2.180   3.844   3.612  0.2754  0.9822 -1.3540
 5974SOL    HW229382   2.327   3.844   3.650  1.4145  1.5465  1.0500
 5975SOL     OW29383   4.319   3.180   4.925  0.7793 -0.0228  0.3944
 5975SOL    HW129384   4.337   3.266   4.887  0.1466 -0.6397 -1.3007
 5975SOL    HW229385   4.230   3.175   4.890  0.5596  0.5498  0.8737
 5976SOL     OW29386   3.532   2.547  13.675  0.0361 -0.2117 -0.2064
 5976SOL    HW129387   3.600   2.486  13.702 -1.1336  0.0620  3.3940
 5976SOL    HW229388   3.515   2.586  13.761  2.7000  0.1008  0.1831
 5977SOL     OW29389   0.496   0.980   6.335  0.3648 -0.6741  0.1232
 5977SOL    HW129390   0.482   1.023   6.419 -2.1566  0.4369 -0.8524
 5977SOL    HW229391   0.586   0.951   6.353  0.1974 -0.7303  0.8752
 5978SOL     OW29392   3.772   2.475  11.038 -0.0282  0.4412  0.5364
 5978SOL    HW129393   3.741   2.491  10.949  2.0890  2.6538  0.1942
 5978SOL    HW229394   3.707   2.408  11.056  0.5066 -0.7602 -2.0619
 5979SOL     OW29395   1.288   3.125   7.316  0.0527 -0.1775  0.3574
 5979SOL    HW129396   1.351   3.059   7.343  0.5215  0.8022  1.6664
 5979SOL    HW229397   1.211   3.113   7.371 -0.3190 -2.2233 -0.5933
 5980SOL     OW29398   1.238   2.172   3.809 -0.3385 -0.3852  0.4236
 5980SOL    HW129399   1.248   2.264   3.835 -1.0028  0.4757 -2.3894
 5980SOL    HW229400   1.150   2.155   3.845 -0.5538  2.0510  1.0981
 5981SOL     OW29401   4.676   3.334   3.502  0.2701 -0.4126  0.4106
 5981SOL    HW129402   0.007   3.276   3.448  0.7573  1.8232 -1.5240
 5981SOL    HW229403   4.610   3.369   3.442  1.6748  1.2697 -0.1490
 5982SOL     OW29404   2.589   1.913   4.221 -0.1958 -0.1815  0.1511
 5982SOL    HW129405   2.532   1.946   4.290 -0.2706  1.3343 -0.6281
 5982SOL    HW229406   2.669   1.963   4.236  1.0663 -2.4360  0.7685
 5983SOL     OW29407   3.684   3.583   2.673 -0.1785 -0.5692  0.2999
 5983SOL    HW129408   3.595   3.553   2.688  0.1380 -0.6597  1.8984
 5983SOL    HW229409   3.717   3.515   2.614 -0.7433 -0.2479 -0.3949
 5984SOL     OW29410   2.264   4.665   2.311 -0.1309 -0.0216 -0.3816
 5984SOL    HW129411   2.172   4.648   2.328  0.1043  0.6840  1.6194
 5984SOL    HW229412   2.274   0.037   2.307  0.9791 -0.1967 -1.9635
 5985SOL     OW29413   4.314   2.637   2.737  0.0171 -0.5345 -0.1992
 5985SOL    HW129414   4.286   2.566   2.681  2.0643 -1.9697  0.5725
 5985SOL    HW229415   4.405   2.620   2.762 -0.4810 -1.2626  1.1330
 5986SOL     OW29416   1.134   3.040   6.615  0.2812  0.2727  0.2622
 5986SOL    HW129417   1.179   2.989   6.547  1.3419 -0.2305  1.3508
 5986SOL    HW229418   1.056   2.986   6.617  0.0311  0.5608 -1.7143
 5987SOL     OW29419   2.804   1.552   8.791 -0.0173  0.3212 -0.2521
 5987SOL    HW129420   2.888   1.517   8.819  0.0408  1.2630  0.7361
 5987SOL    HW229421   2.766   1.567   8.878 -1.2175 -3.0511 -0.1981
 5988SOL     OW29422   4.369   4.336  15.791 -0.5466  0.3165 -0.0605
 5988SOL    HW129423   4.314   4.386  15.731 -1.8585 -2.5283 -1.1753
 5988SOL    HW229424   4.390   4.402  15.858 -3.8405 -0.3229  1.5887
 5989SOL     OW29425   4.127   1.602   7.504  0.3122  0.4556  0.1127
 5989SOL    HW129426   4.186   1.677   7.505  0.6767  0.1559  3.4283
 5989SOL    HW229427   4.186   1.528   7.520 -1.1083 -0.6397  0.3319
 5990SOL     OW29428   0.219   4.168   9.225  0.3487 -0.0614  0.0019
 5990SOL    HW129429   0.282   4.138   9.290  0.4737  0.5187  0.1467
 5990SOL    HW229430   0.143   4.203   9.273  0.6775  1.5368 -0.6415
 5991SOL     OW29431   2.022   2.578   2.100 -0.3402 -0.0680  0.2765
 5991SOL    HW129432   2.019   2.595   2.006 -0.6046  0.3325  0.3579
 5991SOL    HW229433   2.030   2.668   2.131  1.0915 -0.7897  2.0598
 5992SOL     OW29434   3.555   2.421   2.576  0.4144  0.4961  0.2087
 5992SOL    HW129435   3.602   2.346   2.538 -0.2837 -0.2835  0.8722
 5992SOL    HW229436   3.615   2.494   2.564  1.6674 -0.8424 -1.7174
 5993SOL     OW29437   3.554   0.585   5.259  0.5219  0.5146  0.0945
 5993SOL    HW129438   3.552   0.673   5.222 -1.3435  0.6419  0.5023
 5993SOL    HW229439   3.530   0.537   5.179  2.3300 -0.7636  0.3257
 5994SOL     OW29440   4.613   3.538  10.245 -0.8550 -0.6154  0.2731
 5994SOL    HW129441   4.609   3.627  10.281  1.1295  0.2712 -1.7184
 5994SOL    HW229442   4.682   3.502  10.300  0.3618  0.9428 -0.2378
 5995SOL     OW29443   2.772   3.951   7.119 -0.5390 -0.1585 -0.0192
 5995SOL    HW129444   2.688   3.948   7.165 -0.4225  1.1462  0.2695
 5995SOL    HW229445   2.743   3.966   7.029  1.5938  2.4907 -0.2668
 5996SOL     OW29446   4.487   1.494   4.933  0.2537 -0.1423  0.6162
 5996SOL    HW129447   4.469   1.570   4.878  0.2591  2.2037  3.8492
 5996SOL    HW229448   4.559   1.461   4.880 -1.3772 -0.3665 -1.4566
 5997SOL     OW29449   2.311   0.665   4.057  1.0672  0.0063  0.0366
 5997SOL    HW129450   2.353   0.708   3.983  2.0123 -2.0972 -0.6550
 5997SOL    HW229451   2.229   0.714   4.051  0.4826 -0.5928  2.8560
 5998SOL     OW29452   1.225   3.129   4.116  0.3766 -0.5387 -0.6279
 5998SOL    HW129453   1.213   3.186   4.193  2.4908 -0.6794 -0.1876
 5998SOL    HW229454   1.179   3.050   4.146 -1.2440  1.1204  1.2539
 5999SOL     OW29455   1.506   2.393   4.270 -0.4748 -0.2555 -0.1591
 5999SOL    HW129456   1.413   2.414   4.267 -0.1826  0.8733 -1.1912
 5999SOL    HW229457   1.548   2.431   4.194  2.6149 -0.3814  1.4880
 6000SOL     OW29458   4.273   0.030  12.147 -0.0493  0.6833 -0.8614
 6000SOL    HW129459   4.309   4.682  12.200 -1.4792  0.0501 -0.7409
 6000SOL    HW229460   4.193   0.044  12.197  0.4540 -0.0373  0.1701
 6001SOL     OW29461   4.627   4.093   8.931 -0.5375 -0.1933 -0.2980
 6001SOL    HW129462   4.584   4.148   8.997 -0.3777 -0.3495 -0.0648
 6001SOL    HW229463   4.674   4.162   8.883  1.8447 -2.3125 -1.0215
 6002SOL     OW29464   0.428   0.118  10.272  0.2648  0.0925 -0.2128
 6002SOL    HW129465   0.461   0.182  10.210  1.0351  1.2265  1.3732
 6002SOL    HW229466   0.350   0.158  10.310  0.6936  1.7604 -1.1303
 6003SOL     OW29467   0.199   3.888  16.782 -0.1811  0.5243 -0.1833
 6003SOL    HW129468   0.278   3.843  16.750 -0.4127 -1.4115  1.9561
 6003SOL    HW229469   0.233   3.969  16.819 -0.0099  1.0450 -1.4658
 6004SOL     OW29470   2.155   4.369  11.414  0.1813  0.3591  0.5554
 6004SOL    HW129471   2.072   4.323  11.428  1.7254 -2.1123  1.6099
 6004SOL    HW229472   2.209   4.334  11.485 -2.3690 -0.1008  2.2987
 6005SOL     OW29473   1.490   0.892   8.060 -0.2234  0.0823  0.0418
 6005SOL    HW129474   1.403   0.865   8.030  0.3199  0.5921 -1.9198
 6005SOL    HW229475   1.538   0.822   8.016 -0.2478  0.0688  0.0361
 6006SOL     OW29476   2.709   0.596  15.243 -0.1178 -0.0512 -0.7419
 6006SOL    HW129477   2.771   0.572  15.174  0.5400  1.4244 -0.6515
 6006SOL    HW229478   2.661   0.671  15.207  0.5438  1.0743  0.7660
 6007SOL     OW29479   0.999   2.514   8.885 -0.2687 -0.6822 -0.1153
 6007SOL    HW129480   0.942   2.456   8.834  1.3606 -1.9200 -0.5205
 6007SOL    HW229481   0.937   2.557   8.943 -1.0042 -1.3154 -0.4290
 6008SOL     OW29482   0.030   1.607  11.878  0.3162  0.2047  0.0653
 6008SOL    HW129483   4.679   1.580  11.825 -0.1610  2.3271 -0.3208
 6008SOL    HW229484   0.104   1.562  11.836  0.4092  0.1039  0.3377
 6009SOL     OW29485   4.011   4.485   2.395  0.1947  0.5993  0.3653
 6009SOL    HW129486   3.996   4.391   2.398 -0.7080  0.7832  1.7376
 6009SOL    HW229487   3.933   4.521   2.352 -1.6355 -2.7452  0.9233
 6010SOL     OW29488   0.333   3.505   3.515  0.0671  0.4069 -0.0782
 6010SOL    HW129489   0.367   3.435   3.459 -0.7002 -1.1339  1.3823
 6010SOL    HW229490   0.357   3.483   3.605  3.1163 -1.9917 -1.4597
 6011SOL     OW29491   1.848   2.640   4.626  0.3812 -0.2489 -0.0319
 6011SOL    HW129492   1.791   2.604   4.559  0.4381 -1.5669  0.6345
 6011SOL    HW229493   1.884   2.722   4.591  0.2010 -0.0198  0.3145
 6012SOL     OW29494   3.171   4.406   4.660 -0.5483  0.0244 -0.1631
 6012SOL    HW129495   3.140   4.496   4.657  2.6472  1.2084  2.5000
 6012SOL    HW229496   3.236   4.412   4.590  2.2791  0.0263  2.4558
 6013SOL     OW29497   2.157   2.026  10.250 -0.3185  0.1204 -0.5189
 6013SOL    HW129498   2.221   1.961  10.278 -0.5965  0.0776  0.0321
 6013SOL    HW229499   2.210   2.101  10.277  0.0573  0.1860 -1.4407
 6014SOL     OW29500   1.988   0.642   8.552 -0.2674  0.2924 -0.2642
 6014SOL    HW129501   2.020   0.708   8.492  1.1517  0.8087  1.0539
 6014SOL    HW229502   2.063   0.612   8.604  0.0101 -1.3218 -1.5899
 6015SOL     OW29503   2.680   4.260  14.315 -0.0259  0.4191 -0.1447
 6015SOL    HW129504   2.650   4.264  14.225 -1.1883  1.7449  0.3039
 6015SOL    HW229505   2.765   4.219  14.299 -0.6227  0.4651 -3.3221
 6016SOL     OW29506   0.029   1.594   6.157  0.0731 -0.4663  0.0699
 6016SOL    HW129507   0.123   1.603   6.170  0.2167  0.1813 -1.4666
 6016SOL    HW229508   0.030   1.514   6.105  3.3137 -0.7855  0.6090
 6017SOL     OW29509   2.177   1.164  15.645 -0.0035  0.6843 -0.2934
 6017SOL    HW129510   2.199   1.109  15.719  0.1165 -0.6390 -1.3242
 6017SOL    HW229511   2.087   1.192  15.664  0.0947 -0.9741  2.5569
 6018SOL     OW29512   3.543   2.628   9.718  0.2197  0.9409  0.0171
 6018SOL    HW129513   3.543   2.612   9.813  0.8111  2.6317  0.3105
 6018SOL    HW229514   3.623   2.681   9.711  0.3636  1.1155  2.7347
 6019SOL     OW29515   3.239   0.037   6.938 -0.1777  0.7241  0.1182
 6019SOL    HW129516   3.169   0.101   6.942 -0.6938  0.1030  0.8488
 6019SOL    HW229517   3.254   0.008   7.027 -0.7471 -0.5333 -0.1992
 6020SOL     OW29518   3.424   0.425   8.777  0.1178  0.0121  0.0112
 6020SOL    HW129519   3.379   0.382   8.849 -1.5971  1.6521 -0.0659
 6020SOL    HW229520   3.362   0.411   8.706 -1.3808 -1.1729  1.5871
 6021SOL     OW29521   1.603   3.260   8.511 -0.1653  0.0724 -0.8394
 6021SOL    HW129522   1.613   3.263   8.606 -2.7977 -0.3149 -0.5684
 6021SOL    HW229523   1.575   3.169   8.502  0.1674 -0.3695  2.6251
 6022SOL     OW29524   2.278   4.533   8.108  0.1938  0.1626  0.2038
 6022SOL    HW129525   2.324   4.463   8.062 -0.7999  0.0584 -0.6403
 6022SOL    HW229526   2.272   4.598   8.038 -0.9133 -1.1071 -0.8859
 6023SOL     OW29527   4.210   2.891   9.484  0.5526  0.4123 -0.4273
 6023SOL    HW129528   4.234   2.874   9.575  1.2682 -2.3959 -1.1163
 6023SOL    HW229529   4.156   2.969   9.496 -0.1815 -0.3950  1.5842
 6024SOL     OW29530   2.821   1.514   3.699  0.4923  0.4657 -0.2417
 6024SOL    HW129531   2.763   1.438   3.693 -0.9535  1.7280 -2.1745
 6024SOL    HW229532   2.813   1.531   3.793 -0.7617 -2.3495  0.1687
 6025SOL     OW29533   4.289   2.325   5.256  0.0903  0.4761 -0.1640
 6025SOL    HW129534   4.270   2.326   5.163  0.9603  0.2381 -0.3469
 6025SOL    HW229535   4.269   2.235   5.282 -0.1548  1.2457  2.3931
 6026SOL     OW29536   4.340   3.693   7.197 -0.0664 -0.6612 -0.2584
 6026SOL    HW129537   4.398   3.626   7.162  0.0663  0.1107 -1.5525
 6026SOL    HW229538   4.271   3.696   7.130  0.3325  0.3628 -0.6302
 6027SOL     OW29539   0.964   1.555   8.602 -0.1255 -0.6164 -0.0825
 6027SOL    HW129540   1.004   1.587   8.683 -2.6296  0.6053  0.6681
 6027SOL    HW229541   1.029   1.489   8.578  1.2041  1.1861 -1.4689
 6028SOL     OW29542   4.361   3.124   0.741  0.3369  0.1317 -0.0755
 6028SOL    HW129543   4.288   3.179   0.711 -0.2489 -0.3948  0.3844
 6028SOL    HW229544   4.396   3.177   0.813 -2.2589 -2.6187  3.2023
 6029SOL     OW29545   0.875   3.733   0.356 -0.0940 -0.0610  0.7650
 6029SOL    HW129546   0.794   3.770   0.324 -1.8522 -1.7569  3.2410
 6029SOL    HW229547   0.891   3.664   0.292 -1.7934  0.4732 -0.2301
 6030SOL     OW29548   0.250   4.329  15.341 -0.2099 -0.5967  0.9029
 6030SOL    HW129549   0.273   4.391  15.272 -0.0205 -0.0333  1.4785
 6030SOL    HW229550   0.318   4.263  15.327 -0.0066 -0.2912  0.4472
 6031SOL     OW29551   4.360   2.099   4.586 -0.3333  0.1201 -0.4649
 6031SOL    HW129552   4.421   2.170   4.568 -0.3522  0.0340 -0.8696
 6031SOL    HW229553   4.290   2.111   4.521 -2.1617 -1.2615  1.2565
 6032SOL     OW29554   1.129   1.016   5.349  0.6554  0.0937  0.0161
 6032SOL    HW129555   1.076   1.003   5.428 -0.6618 -0.9789 -1.0383
 6032SOL    HW229556   1.144   1.110   5.356 -2.5179  0.7993 -2.5781
 6033SOL     OW29557   2.000   3.206   9.660 -0.4394  0.3663  0.6877
 6033SOL    HW129558   1.956   3.290   9.646 -1.6389 -0.4603 -0.5903
 6033SOL    HW229559   2.070   3.223   9.723 -0.2319  1.1877  0.2291
 6034SOL     OW29560   0.046   1.344   8.637 -0.2388 -0.2730 -0.0554
 6034SOL    HW129561   0.086   1.353   8.550  0.6574 -1.6317  0.2165
 6034SOL    HW229562   0.119   1.312   8.690 -1.0214 -0.2925  1.0139
 6035SOL     OW29563   0.260   2.500  13.929 -0.0050  0.1330  0.2452
 6035SOL    HW129564   0.186   2.503  13.868 -2.1522  1.1214  2.8823
 6035SOL    HW229565   0.264   2.416  13.975 -0.9606  0.2493  0.5389
 6036SOL     OW29566   1.841   0.033   9.418  0.5203 -0.4612  0.4914
 6036SOL    HW129567   1.921   0.006   9.373 -0.1947 -0.3332 -0.8519
 6036SOL    HW229568   1.867   4.722   9.503  0.3621  0.8823  1.0783
 6037SOL     OW29569   4.191   3.022  17.345  0.5056  0.3099  0.2118
 6037SOL    HW129570   4.165   2.934  17.319  0.3620  1.1371 -2.4179
 6037SOL    HW229571   4.227   3.062  17.266 -0.4019  0.0529 -0.3258
 6038SOL     OW29572   3.345   0.116  17.373 -0.0335  0.0804  0.5785
 6038SOL    HW129573   3.429   0.162  17.369 -0.7236  1.3306  0.7783
 6038SOL    HW229574   3.280   0.180  17.345 -0.7275 -1.7818 -2.0659
 6039SOL     OW29575   1.385   0.246   2.751 -0.1807 -0.8715  0.4917
 6039SOL    HW129576   1.339   0.325   2.782  0.8733  0.4017 -1.2305
 6039SOL    HW229577   1.417   0.277   2.666  1.3368 -1.8379  0.7201
 6040SOL     OW29578   1.799   2.232  17.011 -0.5314 -0.9414  0.0757
 6040SOL    HW129579   1.787   2.137  17.001  0.8750 -1.1759  0.5432
 6040SOL    HW229580   1.720   2.254  17.060  0.1975 -0.8788  1.2383
 6041SOL     OW29581   4.204   1.602   4.144 -0.1626 -0.5484 -0.3156
 6041SOL    HW129582   4.226   1.524   4.093 -0.5183 -1.7870  1.4086
 6041SOL    HW229583   4.120   1.569   4.176  0.5390  0.4368  2.5158
 6042SOL     OW29584   3.157   4.120   3.497  0.1911 -0.0576 -0.3624
 6042SOL    HW129585   3.177   4.112   3.404  0.9950  0.9659 -0.2689
 6042SOL    HW229586   3.068   4.084   3.501 -1.1584  3.1281 -1.5110
 6043SOL     OW29587   4.722   3.949   5.860 -0.3469  0.0150  0.0998
 6043SOL    HW129588   4.640   3.908   5.830 -0.0614 -1.0694  0.8240
 6043SOL    HW229589   4.682   4.012   5.920  0.2455  0.1331  0.3704
 6044SOL     OW29590   0.518   1.348  17.029 -0.2545  0.7731 -0.2140
 6044SOL    HW129591   0.457   1.310  16.966 -1.0279  1.1062  0.3323
 6044SOL    HW229592   0.496   1.442  17.031 -1.6775  0.4111  0.8388
 6045SOL     OW29593   1.862   3.205   4.139  0.0712  0.4100  0.3941
 6045SOL    HW129594   1.885   3.115   4.161 -1.3137 -0.0106  0.0966
 6045SOL    HW229595   1.900   3.252   4.214 -1.5226  1.4744  0.5335
 6046SOL     OW29596   4.707   2.921   4.909  0.1716  0.2402 -0.5699
 6046SOL    HW129597   4.723   3.013   4.931 -2.0473  0.6099 -0.4810
 6046SOL    HW229598   4.639   2.901   4.973  1.6451 -1.9628  0.2831
 6047SOL     OW29599   3.066   2.575   8.046  0.1856 -0.0239 -0.0154
 6047SOL    HW129600   2.989   2.590   8.101  0.3489 -0.6353  0.3783
 6047SOL    HW229601   3.076   2.483   8.069  3.3292  0.5643  0.9832
 6048SOL     OW29602   0.465   2.782   5.015 -0.5871  0.3497 -0.2949
 6048SOL    HW129603   0.512   2.858   5.049  1.3223  0.2144 -2.5863
 6048SOL    HW229604   0.394   2.774   5.078 -1.4355  1.1308 -1.1642
 6049SOL     OW29605   2.461   3.562   2.797  0.5748  0.0777 -0.1938
 6049SOL    HW129606   2.543   3.597   2.765  0.3922  0.7947  0.1200
 6049SOL    HW229607   2.428   3.502   2.730 -1.3985 -0.6486  1.4390
 6050SOL     OW29608   4.165   4.475   5.640 -0.4992 -0.1813 -0.6041
 6050SOL    HW129609   4.259   4.477   5.620  0.0925  0.3442  2.0990
 6050SOL    HW229610   4.137   4.563   5.614 -1.8520  0.2316  2.2534
 6051SOL     OW29611   1.298   2.534  12.733 -0.2132  0.4088 -0.1776
 6051SOL    HW129612   1.337   2.450  12.708 -0.4845  0.4253 -0.6641
 6051SOL    HW229613   1.207   2.515  12.758 -0.2224  2.5731  1.4554
 6052SOL     OW29614   1.911   1.205  12.812  0.4690  0.1324 -0.3406
 6052SOL    HW129615   1.831   1.164  12.843 -1.0230  1.1253 -2.8092
 6052SOL    HW229616   1.877   1.293  12.792 -2.1270 -0.4893  1.3991
 6053SOL     OW29617   1.091   4.595  11.381 -0.5338 -0.5088 -0.0246
 6053SOL    HW129618   1.089   4.687  11.356  2.8246 -0.4958 -0.2205
 6053SOL    HW229619   1.004   4.578  11.418 -0.7205 -0.4610 -0.4440
 6054SOL     OW29620   3.874   2.507   7.468  0.2826 -0.3528  0.6279
 6054SOL    HW129621   3.834   2.422   7.484 -2.0785  0.4621 -1.0345
 6054SOL    HW229622   3.931   2.524   7.543  0.4163 -1.8384  0.8635
 6055SOL     OW29623   4.546   2.100   3.612  0.8143 -0.5968 -0.2754
 6055SOL    HW129624   4.621   2.073   3.559 -0.3011 -0.7849 -1.7730
 6055SOL    HW229625   4.498   2.017   3.613 -1.4089  0.7347  3.0753
 6056SOL     OW29626   3.309   3.503   9.725  0.2125  0.2528 -0.4880
 6056SOL    HW129627   3.319   3.408   9.725 -0.2779  0.2000 -2.3115
 6056SOL    HW229628   3.243   3.514   9.657 -0.5583  0.3291  0.2623
 6057SOL     OW29629   2.563   0.731   3.523  0.1727  0.4170  0.1921
 6057SOL    HW129630   2.591   0.696   3.439 -0.0686 -0.7321  0.5916
 6057SOL    HW229631   2.473   0.699   3.521  1.0074 -1.6227 -3.5520
 6058SOL     OW29632   2.164   4.446   9.507  0.0526  0.3761  0.0847
 6058SOL    HW129633   2.121   4.505   9.445  1.7207  0.2447 -1.1928
 6058SOL    HW229634   2.255   4.461   9.484  1.1193 -0.8287  3.5876
 6059SOL     OW29635   1.148   0.375   5.965  0.4398 -0.0267 -0.0970
 6059SOL    HW129636   1.090   0.437   6.009  0.1144 -0.0461 -0.4992
 6059SOL    HW229637   1.088   0.310   5.929 -1.0034  0.4768  1.4042
 6060SOL     OW29638   0.726   0.861  15.635 -0.8101 -0.1066  0.1346
 6060SOL    HW129639   0.653   0.806  15.663 -2.1834  0.3745 -2.4524
 6060SOL    HW229640   0.775   0.793  15.587 -1.0087  1.0182 -1.6629
 6061SOL     OW29641   1.582   1.394  16.619 -0.0542  0.2761 -0.3793
 6061SOL    HW129642   1.523   1.337  16.668 -0.1597  0.4055 -0.3555
 6061SOL    HW229643   1.651   1.393  16.685 -0.2554 -0.3765 -0.1758
 6062SOL     OW29644   1.265   3.609   5.432  0.1498 -0.8404 -0.2387
 6062SOL    HW129645   1.256   3.697   5.395 -0.2154 -1.4964 -1.6962
 6062SOL    HW229646   1.280   3.560   5.351  1.1732  0.0377 -0.5857
 6063SOL     OW29647   1.920   1.342   4.821 -0.1772  0.4629 -1.1515
 6063SOL    HW129648   1.893   1.349   4.729 -0.1217  0.9941 -1.1289
 6063SOL    HW229649   1.882   1.257   4.842  0.8701 -0.2592 -2.1642
 6064SOL     OW29650   2.316   3.244   9.043 -0.7222  0.4062 -0.6744
 6064SOL    HW129651   2.334   3.284   9.128 -2.3937 -1.4029  0.5197
 6064SOL    HW229652   2.266   3.318   9.007  2.2911  2.4002 -0.7922
 6065SOL     OW29653   2.575   2.970  12.640  0.6559  0.1000  0.5264
 6065SOL    HW129654   2.509   2.910  12.674  1.3453 -1.0360 -0.1280
 6065SOL    HW229655   2.576   3.041  12.704  2.3642  1.0662 -0.5761
 6066SOL     OW29656   1.913   0.471   0.723 -0.4148 -0.1285  0.0642
 6066SOL    HW129657   1.859   0.400   0.686 -0.4728 -0.0581  0.0133
 6066SOL    HW229658   1.969   0.498   0.650 -0.6511 -2.9334 -1.1545
 6067SOL     OW29659   3.785   2.798   9.922  0.0449 -0.4526  0.1736
 6067SOL    HW129660   3.744   2.755   9.997 -1.0556  0.6322  0.1882
 6067SOL    HW229661   3.725   2.873   9.917 -0.1673 -0.7120 -1.3028
 6068SOL     OW29662   3.228   3.596   4.101  0.4128  0.4648  0.0235
 6068SOL    HW129663   3.271   3.555   4.176  0.7081 -2.0794 -1.5192
 6068SOL    HW229664   3.263   3.684   4.102  0.7779  0.3080  1.7458
 6069SOL     OW29665   3.317   4.362   9.738 -0.4110  0.2990  0.1769
 6069SOL    HW129666   3.357   4.314   9.810  2.3113  3.1090  0.5104
 6069SOL    HW229667   3.357   4.447   9.754 -0.7720  0.3060  1.0374
 6070SOL     OW29668   4.516   2.579   0.474 -0.6800  0.4118  0.3822
 6070SOL    HW129669   4.595   2.632   0.484  0.6156 -1.2345 -0.8715
 6070SOL    HW229670   4.518   2.549   0.383 -0.2426  1.0025  0.1941
 6071SOL     OW29671   3.503   0.579   6.173 -0.2830 -0.3835 -0.2296
 6071SOL    HW129672   3.459   0.658   6.140 -0.1681  0.6349  2.0344
 6071SOL    HW229673   3.432   0.515   6.173 -0.6436  0.0105 -1.8189
 6072SOL     OW29674   1.811   1.252   2.974  0.0126 -0.3821  0.1285
 6072SOL    HW129675   1.796   1.323   3.037  0.2081 -2.7684  2.8361
 6072SOL    HW229676   1.905   1.236   2.978 -0.1693 -1.2775  0.6717
 6073SOL     OW29677   4.721   2.608   4.599 -0.9190  0.4671  0.2884
 6073SOL    HW129678   0.056   2.562   4.659 -1.2684 -0.8215 -0.3460
 6073SOL    HW229679   0.019   2.700   4.615  0.0217  0.8548 -3.2643
 6074SOL     OW29680   0.991   1.840  13.847 -0.0487 -0.4385  0.2235
 6074SOL    HW129681   0.997   1.912  13.909  2.9597  0.1641 -0.7697
 6074SOL    HW229682   0.983   1.885  13.762  3.1620 -0.2373  0.0504
 6075SOL     OW29683   0.137   0.957   2.638  0.6511  0.4142  0.1209
 6075SOL    HW129684   0.165   0.872   2.604 -1.6398 -0.7332  1.0536
 6075SOL    HW229685   0.062   0.937   2.695  0.9059  0.6222  0.5285
 6076SOL     OW29686   4.360   4.552   4.700 -0.1989 -0.8059 -0.2853
 6076SOL    HW129687   4.270   4.522   4.687  0.3396 -2.5736  0.0739
 6076SOL    HW229688   4.400   4.488   4.641 -1.1074 -1.3305 -0.3427
 6077SOL     OW29689   1.940   2.342  16.323  0.2263 -0.2605 -0.2674
 6077SOL    HW129690   1.941   2.347  16.418  0.8229 -1.0762 -0.2273
 6077SOL    HW229691   1.872   2.407  16.306  2.5203  1.9242 -1.2021
 6078SOL     OW29692   3.375   0.907   8.797  0.2597 -0.2447 -0.4899
 6078SOL    HW129693   3.375   0.907   8.892 -0.0625  0.6760 -0.4904
 6078SOL    HW229694   3.457   0.946   8.766  0.9312 -0.7729  0.6165
 6079SOL     OW29695   1.735   0.291  16.568  0.1490 -0.8569  0.6594
 6079SOL    HW129696   1.819   0.244  16.565  0.6331 -0.0155  0.8581
 6079SOL    HW229697   1.716   0.295  16.661  1.6207  2.1094  0.8454
 6080SOL     OW29698   0.295   3.532  13.100 -1.1747 -0.2910  0.0557
 6080SOL    HW129699   0.308   3.501  13.189  1.0231  1.3768  0.3107
 6080SOL    HW229700   0.281   3.444  13.064 -1.8642 -1.3070  2.7900
 6081SOL     OW29701   3.831   4.244   6.514  0.4112  0.2641 -0.3802
 6081SOL    HW129702   3.787   4.323   6.482 -1.6409  0.3178  2.5909
 6081SOL    HW229703   3.863   4.198   6.436 -0.9195 -0.9247 -0.2197
 6082SOL     OW29704   1.672   1.886   6.979  0.0127 -0.3030 -0.1511
 6082SOL    HW129705   1.602   1.939   7.018 -0.2800 -0.9805  0.2599
 6082SOL    HW229706   1.630   1.874   6.893  0.1351 -0.3433 -0.2055
 6083SOL     OW29707   2.113   0.596  16.175 -0.0932  0.1248  0.6195
 6083SOL    HW129708   2.036   0.641  16.140  0.5189 -0.7859 -1.8603
 6083SOL    HW229709   2.071   0.543  16.243  1.0152 -0.8932  0.5137
 6084SOL     OW29710   2.658   2.763  11.452  0.2012 -0.0579  0.2232
 6084SOL    HW129711   2.631   2.672  11.455 -0.1011 -0.0029 -0.9010
 6084SOL    HW229712   2.740   2.767  11.501  0.8362 -3.1919 -0.5633
 6085SOL     OW29713   0.543   0.516  15.275  0.2895  0.6540 -0.4848
 6085SOL    HW129714   0.516   0.599  15.315  0.6346 -0.6143  2.3778
 6085SOL    HW229715   0.516   0.453  15.341  0.3463  0.8397 -0.2820
 6086SOL     OW29716   2.633   3.372  11.885  0.1778  0.1121 -0.0168
 6086SOL    HW129717   2.656   3.464  11.895  2.3174 -0.6689  2.1618
 6086SOL    HW229718   2.698   3.328  11.941  0.7855  1.7802  0.5785
 6087SOL     OW29719   1.010   0.507   6.336 -0.3265 -0.3375 -0.1675
 6087SOL    HW129720   0.994   0.441   6.404  0.2558  0.8253  1.0894
 6087SOL    HW229721   1.100   0.539   6.339  0.6059 -3.0818  1.3976
 6088SOL     OW29722   3.220   2.391  14.227  0.1715 -0.2016  0.6367
 6088SOL    HW129723   3.290   2.404  14.163 -0.4671  1.3592  0.2455
 6088SOL    HW229724   3.185   2.305  14.205  0.7023  0.2142 -1.8712
 6089SOL     OW29725   1.137   3.907   6.087  0.9171 -0.1540  0.0109
 6089SOL    HW129726   1.079   3.881   6.015 -1.0925  0.9992  1.2278
 6089SOL    HW229727   1.222   3.889   6.048  0.8495  1.3244 -0.8425
 6090SOL     OW29728   1.344   3.533   4.565 -0.2586  0.1117  0.7883
 6090SOL    HW129729   1.414   3.522   4.629  0.5368  0.0176 -0.1069
 6090SOL    HW229730   1.335   3.629   4.561 -1.0823 -0.0701 -1.4283
 6091SOL     OW29731   1.850   4.200   2.585 -0.2593 -0.2707  0.1093
 6091SOL    HW129732   1.856   4.115   2.630  0.7422 -2.1200 -3.5197
 6091SOL    HW229733   1.932   4.240   2.614 -0.5310  2.5199 -3.0219
 6092SOL     OW29734   3.234   2.281   6.464 -0.0367  0.0892  0.0832
 6092SOL    HW129735   3.303   2.319   6.518  1.3481 -3.2638  0.6396
 6092SOL    HW229736   3.275   2.270   6.378  0.9547  0.2338  0.5344
 6093SOL     OW29737   1.589   2.745   8.504  0.1220 -0.2658 -0.0198
 6093SOL    HW129738   1.649   2.811   8.540  2.6140 -2.1003 -0.8274
 6093SOL    HW229739   1.639   2.691   8.442 -2.7238 -0.3035 -2.3123
 6094SOL     OW29740   1.583   0.499   5.139 -0.2259  0.0350  0.1596
 6094SOL    HW129741   1.664   0.454   5.112  1.5900  2.3719  1.7179
 6094SOL    HW229742   1.561   0.445   5.214  0.4165  1.3403  1.2793
 6095SOL     OW29743   4.068   2.133   7.436 -0.4598 -0.6976  0.3077
 6095SOL    HW129744   4.078   2.065   7.370  0.4736 -1.7618  1.5564
 6095SOL    HW229745   3.982   2.170   7.417  0.1122  1.0599  1.1595
 6096SOL     OW29746   0.003   3.261   4.183 -0.0126  0.8579 -0.2324
 6096SOL    HW129747   4.696   3.220   4.102  2.4970  0.6636 -1.1015
 6096SOL    HW229748   4.650   3.310   4.211 -0.2993 -0.1797  0.7926
 6097SOL     OW29749   1.980   4.153   4.176  0.4300  0.4432  0.0008
 6097SOL    HW129750   1.941   4.131   4.091  0.7924 -0.5194  0.0846
 6097SOL    HW229751   1.929   4.101   4.239 -0.0459  1.3835  0.4013
 6098SOL     OW29752   4.636   1.259   5.154 -0.3245 -0.7363 -0.5651
 6098SOL    HW129753   4.557   1.312   5.152  0.0650 -0.1071  0.8785
 6098SOL    HW229754   4.612   1.168   5.137 -0.0398 -0.5183 -2.1280
 6099SOL     OW29755   4.417   1.987   2.028 -0.5733  0.9424 -0.3297
 6099SOL    HW129756   4.409   1.897   1.998  0.1725  0.7786 -0.0297
 6099SOL    HW229757   4.509   1.998   2.006 -0.9861  2.5376 -1.3201
 6100SOL     OW29758   1.495   0.437   4.107 -0.0423  0.3365  0.1006
 6100SOL    HW129759   1.432   0.368   4.085  1.2577 -0.5616 -0.8207
 6100SOL    HW229760   1.504   0.417   4.200  1.7606  0.1738 -0.0982
 6101SOL     OW29761   2.650   1.191   8.770 -0.2671  0.3895  0.6126
 6101SOL    HW129762   2.639   1.219   8.679  1.0911  0.0475  0.3578
 6101SOL    HW229763   2.587   1.119   8.768 -1.8654  1.8770 -3.2851
 6102SOL     OW29764   0.105   4.132   4.115  0.0500 -0.0715 -0.7552
 6102SOL    HW129765   0.183   4.181   4.140  1.8714 -2.4302 -1.8452
 6102SOL    HW229766   0.031   4.169   4.164 -0.3302 -0.1224 -1.2913
 6103SOL     OW29767   1.203   4.230   4.026 -0.5228  0.1160  0.3641
 6103SOL    HW129768   1.242   4.173   4.093  1.7424 -0.5125 -1.4922
 6103SOL    HW229769   1.267   4.235   3.956  1.8500  0.9216  2.6091
 6104SOL     OW29770   0.318   0.208   8.292 -0.1304  0.6202  0.5729
 6104SOL    HW129771   0.331   0.267   8.367  0.3482  2.2977 -0.8275
 6104SOL    HW229772   0.301   0.276   8.227  0.6040 -0.9561 -1.2705
 6105SOL     OW29773   0.954   1.253   8.752  0.2291 -0.2214 -0.1487
 6105SOL    HW129774   1.007   1.300   8.817 -1.8378  0.3935  1.0920
 6105SOL    HW229775   0.990   1.165   8.753  1.1819  0.1470 -2.0034
 6106SOL     OW29776   3.568   3.618   3.808 -0.3889 -0.7478 -0.4187
 6106SOL    HW129777   3.622   3.694   3.790  1.6228 -2.0868 -0.0938
 6106SOL    HW229778   3.605   3.597   3.894 -1.3586  3.8967  1.0981
 6107SOL     OW29779   2.039   0.494   6.621 -0.0940 -0.3723  0.3243
 6107SOL    HW129780   1.985   0.572   6.615  0.3494  0.0220  1.4086
 6107SOL    HW229781   2.116   0.540   6.655  0.1761 -0.4620 -0.1653
 6108SOL     OW29782   0.717   3.977  13.606 -0.1202  0.1216  0.2396
 6108SOL    HW129783   0.668   3.956  13.685  0.6595  2.5042  1.3699
 6108SOL    HW229784   0.683   4.065  13.594 -0.4294 -0.0542 -0.1729
 6109SOL     OW29785   0.441   4.216  11.308  0.5277  0.0136 -0.3544
 6109SOL    HW129786   0.395   4.296  11.284 -0.2281  0.4069  2.3997
 6109SOL    HW229787   0.510   4.236  11.371  0.2713 -1.9016  0.5502
 6110SOL     OW29788   4.107   0.843   0.955  0.2058 -0.2590  0.3469
 6110SOL    HW129789   4.096   0.847   1.050 -0.5859 -5.7169  0.4662
 6110SOL    HW229790   4.017   0.847   0.922 -0.4357 -2.0324  1.8779
 6111SOL     OW29791   0.847   3.497  16.598 -0.1976 -0.0716 -0.4753
 6111SOL    HW129792   0.836   3.583  16.638 -4.6584 -0.1554 -1.5762
 6111SOL    HW229793   0.778   3.495  16.532 -0.0805  0.0774 -0.6024
 6112SOL     OW29794   1.885   0.258   4.024 -0.0505 -0.2438  0.4160
 6112SOL    HW129795   1.974   0.238   3.994  0.1926 -0.9839  1.6043
 6112SOL    HW229796   1.828   0.271   3.948  0.4390  0.0777  0.1069
 6113SOL     OW29797   1.862   2.669   4.052 -0.2681  0.0759 -0.0058
 6113SOL    HW129798   1.805   2.744   4.035  0.0727  0.5048  0.7470
 6113SOL    HW229799   1.945   2.699   4.015  0.7779 -0.3255  2.0454
 6114SOL     OW29800   1.697   2.147   8.630  0.8787  0.3902  0.6544
 6114SOL    HW129801   1.724   2.238   8.626 -2.5861  1.4576  1.7363
 6114SOL    HW229802   1.609   2.165   8.665  0.1066 -1.7148 -0.2194
 6115SOL     OW29803   3.627   4.336   1.197 -0.4917 -0.0202 -0.1929
 6115SOL    HW129804   3.700   4.286   1.160 -0.2699  0.5874 -0.5816
 6115SOL    HW229805   3.579   4.341   1.114 -1.7272  2.5759  0.6856
 6116SOL     OW29806   2.670   3.912   3.749  0.3802  0.4052  0.4944
 6116SOL    HW129807   2.762   3.893   3.763 -0.0679 -1.0278  1.4991
 6116SOL    HW229808   2.668   4.007   3.745  1.2335  0.3943 -0.1285
 6117SOL     OW29809   2.820   0.009   0.500 -0.8239 -0.6639 -0.3002
 6117SOL    HW129810   2.881   4.664   0.527 -0.5402  0.3221  1.5656
 6117SOL    HW229811   2.770   4.691   0.430 -0.2677 -2.3174  0.2990
 6118SOL     OW29812   4.459   4.177   8.664  0.8106  0.3454 -0.0606
 6118SOL    HW129813   4.476   4.089   8.699 -0.7927  0.0318 -0.0799
 6118SOL    HW229814   4.457   4.238   8.738 -0.8078  1.1767 -0.7860
 6119SOL     OW29815   4.014   3.313   7.870 -0.2139  0.0918 -0.0888
 6119SOL    HW129816   3.956   3.261   7.926  0.4939 -0.5621  0.0371
 6119SOL    HW229817   4.070   3.244   7.834  0.8338  1.0836 -0.3452
 6120SOL     OW29818   0.463   0.195   5.192 -0.2811  0.2286 -0.2012
 6120SOL    HW129819   0.473   0.101   5.208 -3.3852 -0.3642 -1.6081
 6120SOL    HW229820   0.555   0.216   5.200 -0.5609  1.2476  0.3003
 6121SOL     OW29821   2.016   0.928   6.270 -0.5722  0.2586  0.4674
 6121SOL    HW129822   1.988   0.933   6.361  0.1770  1.5605  0.6227
 6121SOL    HW229823   1.944   0.966   6.221 -0.4376  1.3751  1.1388
 6122SOL     OW29824   1.005   2.480   8.508 -0.0629 -0.3107  0.3100
 6122SOL    HW129825   1.099   2.495   8.513  0.1714 -1.1999 -1.2971
 6122SOL    HW229826   0.981   2.417   8.576  0.6491 -0.3147  0.5511
 6123SOL     OW29827   3.123   1.559   4.069 -0.0717 -0.7109 -0.1919
 6123SOL    HW129828   3.199   1.501   4.057 -0.3987 -0.6355 -2.6674
 6123SOL    HW229829   3.097   1.538   4.159  0.4017 -1.2370 -0.1731
 6124SOL     OW29830   1.427   0.893   6.302 -0.0060 -0.1471 -1.1486
 6124SOL    HW129831   1.375   0.819   6.334  0.5960 -0.0483  0.0514
 6124SOL    HW229832   1.508   0.842   6.298  0.2209  0.1408 -0.2450
 6125SOL     OW29833   3.794   3.312  15.940  0.0980  0.0517  0.2217
 6125SOL    HW129834   3.877   3.305  15.987 -0.8061 -0.7469  1.7046
 6125SOL    HW229835   3.751   3.227  15.954 -0.6172  0.4540  0.4733
 6126SOL     OW29836   1.987   2.305  13.252  0.3678  0.5468 -0.1239
 6126SOL    HW129837   1.899   2.275  13.274  1.2900 -0.8512  1.6162
 6126SOL    HW229838   2.022   2.323  13.339  2.2028  0.2999 -0.8096
 6127SOL     OW29839   3.774   2.228   7.449 -0.9583  0.0031 -0.5755
 6127SOL    HW129840   3.761   2.203   7.540 -1.0975  1.2739 -0.2423
 6127SOL    HW229841   3.719   2.166   7.401  0.1314 -0.0315 -1.7709
 6128SOL     OW29842   4.621   2.154   7.608  0.3655  0.1871  0.5774
 6128SOL    HW129843   4.682   2.084   7.632  2.2872  2.0028  0.8924
 6128SOL    HW229844   4.575   2.109   7.537 -1.8792  1.0023  1.5152
 6129SOL     OW29845   2.701   0.016   8.062 -0.1516  0.0288  0.4722
 6129SOL    HW129846   2.781   0.040   8.109  0.3889  1.3653 -1.1433
 6129SOL    HW229847   2.664   4.699   8.141  2.0184 -0.3076  1.3209
 6130SOL     OW29848   0.456   1.899   4.323 -0.5851  0.3828 -0.1950
 6130SOL    HW129849   0.445   1.857   4.409 -0.4895 -0.2556 -0.5005
 6130SOL    HW229850   0.466   1.820   4.269 -0.8649  1.6597 -2.1032
 6131SOL     OW29851   0.134   4.299   6.408 -0.1900 -0.1075  0.0720
 6131SOL    HW129852   0.083   4.312   6.328  0.1176 -0.8428 -0.2405
 6131SOL    HW229853   0.159   4.207   6.406  1.4686  0.3989 -2.8991
 6132SOL     OW29854   0.061   2.134   6.226 -0.2621 -0.4165 -0.4668
 6132SOL    HW129855   4.698   2.124   6.186 -0.6689  2.1872 -0.2807
 6132SOL    HW229856   0.103   2.054   6.195  2.1008  0.4201  0.5718
 6133SOL     OW29857   1.225   2.576   3.743  0.2352 -0.2323  0.6410
 6133SOL    HW129858   1.163   2.629   3.693  1.6868  0.5214 -0.3731
 6133SOL    HW229859   1.300   2.632   3.762  0.4934 -0.1534 -0.5912
 6134SOL     OW29860   0.749   1.425   8.683  0.1602 -0.1682 -0.1088
 6134SOL    HW129861   0.810   1.485   8.639 -2.1753  0.1717 -2.9025
 6134SOL    HW229862   0.813   1.355   8.694  0.1808 -0.1759 -0.2711
 6135SOL     OW29863   3.560   0.168   1.184 -0.2926 -0.2032 -0.3501
 6135SOL    HW129864   3.626   0.125   1.130 -0.1104  1.1528 -1.2059
 6135SOL    HW229865   3.601   0.199   1.264 -0.9236  1.9811 -0.8751
 6136SOL     OW29866   2.654   3.830   9.192  0.1464  0.5454  0.3448
 6136SOL    HW129867   2.578   3.819   9.249  1.9161  1.5520  2.8715
 6136SOL    HW229868   2.673   3.743   9.157 -0.6963 -0.7805  3.1745
 6137SOL     OW29869   4.310   1.571   6.303  0.4521 -0.0273 -0.2131
 6137SOL    HW129870   4.291   1.509   6.233  2.0408 -0.4993 -0.2146
 6137SOL    HW229871   4.245   1.641   6.299  0.5942 -0.0325 -2.4024
 6138SOL     OW29872   0.564   4.601   1.311 -0.1508 -0.6681  0.0702
 6138SOL    HW129873   0.542   4.535   1.245  1.6587  0.3130 -1.5126
 6138SOL    HW229874   0.597   4.547   1.384 -0.0555 -0.5401  0.1214
 6139SOL     OW29875   0.955   2.292   2.498  0.3641 -0.4955 -0.3171
 6139SOL    HW129876   0.982   2.274   2.408 -1.5710  1.2807 -1.2344
 6139SOL    HW229877   1.028   2.336   2.541  0.2995 -0.1349 -0.5836
 6140SOL     OW29878   0.813   0.731   5.384  0.3478  0.0399  0.6158
 6140SOL    HW129879   0.863   0.806   5.351  0.5746 -1.0082 -1.4337
 6140SOL    HW229880   0.869   0.666   5.341  0.2233 -0.0692  0.6186
 6141SOL     OW29881   3.163   3.733   7.133  0.3624 -0.2242 -0.1267
 6141SOL    HW129882   3.139   3.804   7.072 -0.0553  0.9393  1.3838
 6141SOL    HW229883   3.256   3.736   7.109  0.5393  0.2116  0.6164
 6142SOL     OW29884   0.087   1.364  16.655  0.1133  0.1375 -0.3152
 6142SOL    HW129885   0.131   1.297  16.602 -2.3550 -0.4323 -1.6623
 6142SOL    HW229886   0.048   1.316  16.727  0.5120 -1.4643 -1.1780
 6143SOL     OW29887   0.283   4.638  16.601  0.1761 -0.2108  0.0179
 6143SOL    HW129888   0.360   4.588  16.573  0.5274  1.0831 -1.3184
 6143SOL    HW229889   0.296   4.631  16.696 -0.5599 -0.5423  0.0951
 6144SOL     OW29890   0.412   3.077   1.353 -0.1797 -0.4180  0.4676
 6144SOL    HW129891   0.500   3.040   1.349 -0.5881 -1.3068 -0.4244
 6144SOL    HW229892   0.360   2.997   1.364 -1.0880  0.1299  0.1162
 6145SOL     OW29893   4.361   1.702  10.481 -0.5917 -0.2940  0.5194
 6145SOL    HW129894   4.286   1.725  10.536 -0.7538 -1.8555  0.9630
 6145SOL    HW229895   4.353   1.609  10.463 -0.0099 -0.4076  0.8329
 6146SOL     OW29896   1.474   0.515   5.694 -0.0028  0.1573 -0.4116
 6146SOL    HW129897   1.378   0.510   5.686  0.0896  0.0810 -1.4585
 6146SOL    HW229898   1.484   0.457   5.770 -0.3743  1.7294  0.8437
 6147SOL     OW29899   0.427   0.504   5.838 -0.5568 -0.2272  0.1802
 6147SOL    HW129900   0.405   0.523   5.929 -0.0603  0.7772  0.0861
 6147SOL    HW229901   0.521   0.521   5.847 -0.3935 -0.6956 -0.6922
 6148SOL     OW29902   1.896   2.180   4.186  0.4163 -0.7302 -0.3450
 6148SOL    HW129903   1.985   2.153   4.162  0.4179 -3.3973  2.7737
 6148SOL    HW229904   1.852   2.225   4.113 -1.4625  0.0159  1.2661
 6149SOL     OW29905   2.686   2.084  15.265 -0.1312 -0.4489  0.1369
 6149SOL    HW129906   2.727   2.010  15.310  0.4419 -0.4046 -0.3149
 6149SOL    HW229907   2.604   2.097  15.312 -0.9834  0.5768 -1.6595
 6150SOL     OW29908   4.399   1.366  15.184  0.0484 -1.1018 -0.1817
 6150SOL    HW129909   4.415   1.303  15.255  1.6301 -1.9016 -1.2526
 6150SOL    HW229910   4.478   1.362  15.131  0.9151  1.0370  0.9709
 6151SOL     OW29911   3.387   3.348  16.898 -0.6023 -0.0670  0.1683
 6151SOL    HW129912   3.340   3.269  16.871 -1.0277 -0.2375  1.4482
 6151SOL    HW229913   3.335   3.411  16.848  1.3420  0.1591 -1.5870
 6152SOL     OW29914   4.295   2.326   6.475  0.2071  0.1343  0.0281
 6152SOL    HW129915   4.294   2.334   6.380 -0.2512  0.5796  0.0707
 6152SOL    HW229916   4.381   2.285   6.487  0.3060  0.1790 -0.5599
 6153SOL     OW29917   3.365   1.002   7.775  0.3114 -0.0777 -0.1424
 6153SOL    HW129918   3.372   0.909   7.796 -1.5181 -0.2152 -0.2135
 6153SOL    HW229919   3.431   1.009   7.706 -0.2528  1.0627 -0.5595
 6154SOL     OW29920   1.152   1.314   7.995  0.1372 -0.0281  0.2246
 6154SOL    HW129921   1.183   1.372   8.065  0.9925  1.1361 -1.1108
 6154SOL    HW229922   1.108   1.382   7.945  1.9285  1.5415  0.7786
 6155SOL     OW29923   2.813   0.798   6.354 -0.2413  0.0722  0.6629
 6155SOL    HW129924   2.782   0.885   6.379  2.1297  1.1899 -0.3115
 6155SOL    HW229925   2.846   0.764   6.438  0.6843  1.0858  0.7043
 6156SOL     OW29926   3.924   3.513   3.411 -0.6359  0.0495 -0.7918
 6156SOL    HW129927   3.892   3.423   3.420  1.4924 -0.7160 -0.8653
 6156SOL    HW229928   4.018   3.508   3.430 -0.9280 -0.8176  0.5140
 6157SOL     OW29929   4.431   2.290  14.460  0.2623  0.4069 -0.4142
 6157SOL    HW129930   4.437   2.307  14.366 -1.2204  1.0493 -0.3906
 6157SOL    HW229931   4.512   2.249  14.490 -0.8612 -0.6019  1.2085
 6158SOL     OW29932   2.698   2.466  17.336  0.1524  0.6594 -0.3647
 6158SOL    HW129933   2.612   2.506  17.351  0.0632  0.4089 -0.2146
 6158SOL    HW229934   2.729   2.532  17.274 -1.4490 -0.0848 -1.9446
 6159SOL     OW29935   2.158   1.026  10.909 -0.5177 -0.4391 -0.0379
 6159SOL    HW129936   2.183   0.980  10.829 -0.0402  1.7970 -1.1570
 6159SOL    HW229937   2.063   1.037  10.899 -0.3506  0.6931 -0.3796
 6160SOL     OW29938   2.091   4.034   0.429  0.3552  0.7620 -0.1513
 6160SOL    HW129939   2.102   3.946   0.465  4.0691  1.7076  1.0172
 6160SOL    HW229940   2.142   4.025   0.348  0.5883  0.2979  0.0426
 6161SOL     OW29941   4.430   3.586   3.671 -0.0700 -0.0531  0.4238
 6161SOL    HW129942   4.365   3.656   3.680 -0.9855 -0.7295 -0.8090
 6161SOL    HW229943   4.407   3.551   3.584  1.2249  0.2406 -0.0364
 6162SOL     OW29944   3.543   4.326   4.733 -0.0559  0.5984 -0.7442
 6162SOL    HW129945   3.619   4.313   4.789 -0.6243  0.5819  0.0187
 6162SOL    HW229946   3.529   4.420   4.738  0.9147  0.8674 -2.9695
 6163SOL     OW29947   1.323   3.540  12.077  0.1584  0.5747  0.2573
 6163SOL    HW129948   1.307   3.521  12.169  1.8669 -0.3715  0.3717
 6163SOL    HW229949   1.314   3.634  12.062 -2.8170  0.0998 -0.9299
 6164SOL     OW29950   3.551   2.148   9.298 -0.2010 -0.2993  1.0134
 6164SOL    HW129951   3.630   2.172   9.348  1.1252 -0.4323 -1.0104
 6164SOL    HW229952   3.508   2.094   9.364 -0.4672 -0.6189  0.5702
 6165SOL     OW29953   1.481   1.525  10.256  0.2760  0.5388 -0.5355
 6165SOL    HW129954   1.461   1.448  10.310 -0.4943  0.7199 -0.5651
 6165SOL    HW229955   1.507   1.595  10.315  2.8564  0.2163 -1.3052
 6166SOL     OW29956   1.763   3.438   4.465 -0.1002 -0.3463 -0.4392
 6166SOL    HW129957   1.777   3.517   4.413  2.0128 -0.5438 -0.1806
 6166SOL    HW229958   1.708   3.387   4.406 -2.1942  0.5293  0.7814
 6167SOL     OW29959   3.511   1.289   6.609 -0.2385 -0.2096 -0.2378
 6167SOL    HW129960   3.535   1.376   6.641 -2.4818  0.5678 -0.6465
 6167SOL    HW229961   3.597   1.269   6.573  0.9084  3.5371  0.4815
 6168SOL     OW29962   3.581   2.444   8.550  0.3022  0.0968  0.0180
 6168SOL    HW129963   3.517   2.456   8.620  1.9969  0.9912  1.4077
 6168SOL    HW229964   3.548   2.496   8.477 -0.7673  1.1620  1.2466
 6169SOL     OW29965   3.270   1.609   7.272  0.3644 -0.3491 -0.0552
 6169SOL    HW129966   3.264   1.600   7.367  0.6023  0.2201  0.0133
 6169SOL    HW229967   3.199   1.552   7.242  0.1889  0.6072 -1.4642
 6170SOL     OW29968   2.349   0.754   5.468  0.1511  0.4367  0.7732
 6170SOL    HW129969   2.350   0.727   5.376 -0.8704  0.6142  0.7102
 6170SOL    HW229970   2.357   0.849   5.460 -1.6054  0.3921 -1.4164
 6171SOL     OW29971   4.553   1.715   2.751  0.1617  0.9199  0.0977
 6171SOL    HW129972   4.461   1.705   2.775 -0.4353  3.4471 -1.1957
 6171SOL    HW229973   4.544   1.698   2.658 -0.4695 -1.6076  0.6082
 6172SOL     OW29974   3.089   1.486  12.946  0.4331 -0.4026 -0.0753
 6172SOL    HW129975   3.161   1.432  12.977  0.5006  0.1217  0.6817
 6172SOL    HW229976   3.020   1.460  13.007 -0.2331  0.5051 -0.4324
 6173SOL     OW29977   2.668   1.610   5.117  0.5205 -0.2209 -0.6399
 6173SOL    HW129978   2.752   1.641   5.084  1.4428 -0.1769  1.7417
 6173SOL    HW229979   2.662   1.519   5.088 -3.0239 -0.3056  0.4022
 6174SOL     OW29980   3.772   1.907   8.452 -0.2917  0.0499  1.0430
 6174SOL    HW129981   3.766   1.936   8.361 -1.5727  1.1143  1.4709
 6174SOL    HW229982   3.736   1.818   8.449  0.3964 -0.2401  1.2287
 6175SOL     OW29983   1.433   4.030   3.134 -0.5631 -0.4474 -0.0237
 6175SOL    HW129984   1.481   3.952   3.160 -1.3722 -0.3995  1.5867
 6175SOL    HW229985   1.366   4.038   3.202  0.1789  0.6495  0.5846
 6176SOL     OW29986   0.023   0.556   3.913  0.6887 -0.6618  0.5003
 6176SOL    HW129987   4.663   0.543   3.958  1.0012 -0.9143  0.9960
 6176SOL    HW229988   0.065   0.609   3.980 -0.0833 -1.4864  1.6389
 6177SOL     OW29989   0.329   1.604   3.348 -0.6413 -0.4993 -0.0793
 6177SOL    HW129990   0.249   1.647   3.379 -1.8606 -1.7306 -1.5311
 6177SOL    HW229991   0.322   1.619   3.254  0.8761 -1.0011 -0.2636
 6178SOL     OW29992   4.482   2.473   0.207  0.2781 -0.1989 -0.1080
 6178SOL    HW129993   4.521   2.389   0.229 -0.1005 -0.1122  0.8702
 6178SOL    HW229994   4.486   2.476   0.111  1.0773 -1.9660 -0.1439
 6179SOL     OW29995   4.390   2.551   1.501 -0.0955  0.4338  0.3671
 6179SOL    HW129996   4.353   2.476   1.547 -1.4846  1.3949  0.7980
 6179SOL    HW229997   4.471   2.511   1.470 -0.7510 -0.0293 -0.7636
 6180SOL     OW29998   0.888   0.858   2.565  0.0263 -0.5170 -0.0131
 6180SOL    HW129999   0.909   0.874   2.473  1.1934  0.6050  0.4614
 6180SOL    HW230000   0.914   0.767   2.576  0.8524 -0.4651 -1.5687
 6181SOL     OW30001   1.076   0.640  13.631  0.1739 -0.1670  0.5745
 6181SOL    HW130002   1.130   0.717  13.616 -1.8543  1.3983  1.2328
 6181SOL    HW230003   1.130   0.580  13.682 -2.1582  0.2071  3.4854
 6182SOL     OW30004   1.623   1.286   2.783  0.1790 -0.2012  0.1186
 6182SOL    HW130005   1.674   1.241   2.716  1.6073  1.5729  0.0132
 6182SOL    HW230006   1.660   1.254   2.865 -1.5711 -1.0381  0.5882
 6183SOL     OW30007   2.898   3.488   8.835  0.7437 -0.5345  0.5958
 6183SOL    HW130008   2.915   3.571   8.790 -1.8915 -0.9689 -1.1823
 6183SOL    HW230009   2.883   3.426   8.764 -0.3035 -2.0613  2.1550
 6184SOL     OW30010   2.649   2.852   3.611  0.3322 -0.6246  0.2767
 6184SOL    HW130011   2.655   2.786   3.542 -1.1327 -0.2495 -0.2084
 6184SOL    HW230012   2.679   2.814   3.693 -2.8060  1.7914  2.5496
 6185SOL     OW30013   1.545   4.196   2.621  0.3136 -0.8809  0.2939
 6185SOL    HW130014   1.532   4.124   2.559 -3.0963  0.8598 -1.0227
 6185SOL    HW230015   1.605   4.161   2.687 -1.6969 -0.9229  2.0812
 6186SOL     OW30016   0.077   4.087   7.361 -0.1041  0.2904 -0.0304
 6186SOL    HW130017   0.032   4.169   7.339 -0.1799  0.1483 -0.3990
 6186SOL    HW230018   0.017   4.020   7.329 -0.0828 -0.3733  1.3040
 6187SOL     OW30019   1.010   4.092   8.641  0.0227  0.6988 -0.0727
 6187SOL    HW130020   1.099   4.120   8.665 -0.3616  0.9453  1.0881
 6187SOL    HW230021   1.020   4.009   8.596 -2.1019 -1.1216  2.7711
 6188SOL     OW30022   1.386   1.249   2.192  0.4211 -0.3541 -0.0558
 6188SOL    HW130023   1.467   1.232   2.143  0.0786  0.7337 -0.9990
 6188SOL    HW230024   1.349   1.161   2.182 -1.0934  0.1507  1.1853
 6189SOL     OW30025   2.417   2.764   1.961 -0.2246  0.1328  0.6896
 6189SOL    HW130026   2.393   2.749   2.052  1.5092 -0.7621  0.9873
 6189SOL    HW230027   2.342   2.734   1.909  2.0942 -3.1257 -0.7868
 6190SOL     OW30028   0.828   4.180   6.328  0.1540  0.8088  0.2073
 6190SOL    HW130029   0.877   4.201   6.249 -2.1962  2.8780 -0.6944
 6190SOL    HW230030   0.747   4.231   6.324 -1.4797 -1.7339  1.0442
 6191SOL     OW30031   3.245   1.178   4.226 -0.4009 -0.0397 -0.1279
 6191SOL    HW130032   3.273   1.156   4.315  2.5216 -2.6688 -1.6933
 6191SOL    HW230033   3.322   1.156   4.174  0.7366 -2.6275  2.6739
 6192SOL     OW30034   2.763   2.641  15.088  0.7884 -0.3331 -0.8792
 6192SOL    HW130035   2.682   2.601  15.055  0.6008  0.6485 -1.6192
 6192SOL    HW230036   2.750   2.655  15.182  0.0800  1.7142 -1.2906
 6193SOL     OW30037   2.040   0.171   3.117 -0.2505  0.0211 -0.1948
 6193SOL    HW130038   2.110   0.235   3.102  1.2336 -1.6248 -0.2711
 6193SOL    HW230039   1.968   0.197   3.059 -1.2905 -0.4629  0.8969
 6194SOL     OW30040   4.320   1.502   8.274  0.0066 -0.5882  0.1621
 6194SOL    HW130041   4.406   1.482   8.238  0.2968 -1.9165  1.6037
 6194SOL    HW230042   4.280   1.416   8.285  0.2940 -0.6693  0.5339
 6195SOL     OW30043   1.372   1.323   2.472 -0.1188  0.4513  0.2740
 6195SOL    HW130044   1.381   1.240   2.425  0.1138  0.6314 -0.0035
 6195SOL    HW230045   1.306   1.371   2.421  1.5694  0.2584 -2.1043
 6196SOL     OW30046   2.591   1.036   2.508 -0.7731  0.4244  0.0282
 6196SOL    HW130047   2.587   1.132   2.511  0.4410  0.6390 -4.3313
 6196SOL    HW230048   2.676   1.029   2.464 -0.5205 -2.9099  1.0506
 6197SOL     OW30049   0.416   2.680   8.174  0.4000 -0.0563 -0.4582
 6197SOL    HW130050   0.420   2.755   8.114  1.1530  0.9165  0.7893
 6197SOL    HW230051   0.501   2.638   8.164 -0.3164 -2.0396  1.6678
 6198SOL     OW30052   2.125   3.525  11.282 -0.0184  0.2004 -0.0705
 6198SOL    HW130053   2.098   3.580  11.209  2.7552 -1.5914 -2.4581
 6198SOL    HW230054   2.115   3.583  11.357  0.1101 -0.9121  0.8033
 6199SOL     OW30055   1.410   0.083  16.963 -0.0975  0.0530 -0.2882
 6199SOL    HW130056   1.389   0.175  16.946  0.8339  0.5110  1.0504
 6199SOL    HW230057   1.481   0.103  17.023 -0.9034  0.0520  0.6700
 6200SOL     OW30058   1.913   3.590   8.169 -0.0206 -0.4659 -0.0981
 6200SOL    HW130059   1.852   3.586   8.243 -0.0030  0.1429 -0.0574
 6200SOL    HW230060   1.976   3.659   8.189  0.3289 -1.2321  1.4351
 6201SOL     OW30061   2.283   2.635   5.894 -0.1918  0.1404  0.3563
 6201SOL    HW130062   2.370   2.652   5.929 -0.2845 -1.8705  1.5204
 6201SOL    HW230063   2.278   2.714   5.840  0.2674  2.0109  3.0314
 6202SOL     OW30064   0.960   2.296   8.703 -0.2515 -0.4233 -0.0827
 6202SOL    HW130065   0.930   2.205   8.707 -0.5052 -0.3661 -0.6787
 6202SOL    HW230066   1.055   2.282   8.698 -0.1610  0.1074  0.1158
 6203SOL     OW30067   1.154   4.261  14.654 -0.6651 -0.0422  0.2684
 6203SOL    HW130068   1.109   4.267  14.570  1.3446 -0.0274 -0.8095
 6203SOL    HW230069   1.227   4.323  14.656  0.7714 -1.6957 -1.4220
 6204SOL     OW30070   4.235   0.324   7.391  0.0820  0.0315 -0.0687
 6204SOL    HW130071   4.148   0.364   7.381  0.7657  1.0412 -1.9835
 6204SOL    HW230072   4.240   0.273   7.310  1.9346 -1.7813  1.1958
 6205SOL     OW30073   3.784   2.489   9.126 -0.1294 -0.3384 -0.0111
 6205SOL    HW130074   3.790   2.402   9.088  0.3848 -1.1291  1.8722
 6205SOL    HW230075   3.810   2.455   9.212 -0.6874  0.2828  0.4059
 6206SOL     OW30076   4.275   2.869   4.197 -0.3500 -0.1302  0.2026
 6206SOL    HW130077   4.249   2.893   4.108  0.8067  0.0343 -0.0992
 6206SOL    HW230078   4.271   2.954   4.241  0.6866  0.1060 -0.1537
 6207SOL     OW30079   0.062   0.613  10.363 -0.1862  0.4268 -0.0535
 6207SOL    HW130080   4.695   0.618  10.390 -1.0778 -1.4745 -2.7373
 6207SOL    HW230081   0.088   0.705  10.354  0.0836  0.1608 -1.9572
 6208SOL     OW30082   3.038   1.192   6.683  0.0670  0.4530  0.1358
 6208SOL    HW130083   3.069   1.218   6.770  0.6274  1.9402 -0.5152
 6208SOL    HW230084   3.122   1.186   6.636 -0.1687 -0.4454 -0.1767
 6209SOL     OW30085   3.260   0.170  13.404  0.4756 -0.3737  0.0600
 6209SOL    HW130086   3.235   0.099  13.462  0.8198 -0.2115  0.4054
 6209SOL    HW230087   3.253   0.123  13.321  1.0895 -1.5945  0.7144
 6210SOL     OW30088   1.908   0.297   7.034 -0.6572  0.2055  0.1196
 6210SOL    HW130089   1.826   0.277   6.988  0.7319 -0.3520 -2.1016
 6210SOL    HW230090   1.963   0.320   6.959  1.1864 -0.7827  1.1679
 6211SOL     OW30091   0.592   2.466   8.750 -0.8835  0.3406  0.4539
 6211SOL    HW130092   0.650   2.491   8.678 -0.5409 -3.4854 -0.5904
 6211SOL    HW230093   0.574   2.381   8.711 -0.9231  0.5310  0.0537
 6212SOL     OW30094   4.041   3.406   6.805  0.1588 -0.1532  0.2760
 6212SOL    HW130095   3.961   3.427   6.756  0.6955  0.2325 -0.4343
 6212SOL    HW230096   4.094   3.482   6.780 -0.2175 -0.4485 -1.4362
 6213SOL     OW30097   1.053   3.651   2.268  0.1171  0.5418 -0.6326
 6213SOL    HW130098   1.041   3.617   2.179 -2.0257 -0.4178  0.0366
 6213SOL    HW230099   1.081   3.740   2.248 -0.8523  1.0558  0.3159
 6214SOL     OW30100   0.030   4.367   3.163 -0.4046 -0.4512  0.0334
 6214SOL    HW130101   0.063   4.287   3.123  0.7772 -0.5893  1.3170
 6214SOL    HW230102   4.717   4.402   3.082 -0.0376 -0.9461 -0.3393
 6215SOL     OW30103   4.512   1.764   7.734 -0.1156  0.0420 -0.1405
 6215SOL    HW130104   4.490   1.856   7.747  0.9061  0.3319 -0.4701
 6215SOL    HW230105   4.448   1.720   7.791  0.1437  0.4926  0.4971
 6216SOL     OW30106   3.257   1.334   5.596 -0.6603  0.3895  0.2178
 6216SOL    HW130107   3.305   1.373   5.524  0.7111 -0.2544  0.7844
 6216SOL    HW230108   3.226   1.412   5.641 -1.7526 -0.5790  1.1607
 6217SOL     OW30109   0.904   0.459   4.635  0.0318  0.3364 -0.2548
 6217SOL    HW130110   0.983   0.448   4.688  0.6147  2.6067 -0.6123
 6217SOL    HW230111   0.953   0.516   4.576  1.5839 -1.9741 -1.1795
 6218SOL     OW30112   0.914   0.396   9.358 -0.5077 -0.0597 -0.5438
 6218SOL    HW130113   0.977   0.419   9.289  2.8016 -0.3087  2.3744
 6218SOL    HW230114   0.969   0.383   9.435  0.3243  0.9768 -0.9514
 6219SOL     OW30115   0.178   2.923   0.934  0.0704  0.6065  0.0845
 6219SOL    HW130116   0.183   2.827   0.930 -1.0538  0.5703 -0.6483
 6219SOL    HW230117   0.250   2.950   0.877 -1.5431  3.2515 -0.7019
 6220SOL     OW30118   3.802   1.906   6.386  0.2008  0.1130  0.1097
 6220SOL    HW130119   3.807   1.823   6.339 -1.9480 -0.6202  1.2037
 6220SOL    HW230120   3.852   1.885   6.465 -0.0770 -0.4565  0.1322
 6221SOL     OW30121   2.029   1.330   7.285 -0.4067  1.2988 -0.1823
 6221SOL    HW130122   2.054   1.407   7.336 -1.1192  1.9430 -0.8017
 6221SOL    HW230123   2.119   1.318   7.254 -0.4272 -0.8664  0.6071
 6222SOL     OW30124   4.410   2.166  16.289  0.3180  0.8612  0.1107
 6222SOL    HW130125   4.439   2.081  16.319  0.4931 -0.0280 -2.5775
 6222SOL    HW230126   4.487   2.191  16.238  0.5063  0.2105  0.0890
 6223SOL     OW30127   2.459   0.754   5.702  0.5214  0.4267  0.0872
 6223SOL    HW130128   2.411   0.746   5.620 -2.4033  3.2170  1.5129
 6223SOL    HW230129   2.519   0.680   5.692  1.4282  0.8650  2.2268
 6224SOL     OW30130   2.609   3.991   5.629 -0.1148  0.4458  0.4640
 6224SOL    HW130131   2.602   3.926   5.699  2.2855  1.5349  1.6881
 6224SOL    HW230132   2.703   4.004   5.620 -0.0084 -1.6928 -1.7888
 6225SOL     OW30133   0.809   0.578  15.153 -0.1919  0.2860  0.1771
 6225SOL    HW130134   0.821   0.657  15.100 -1.4047  0.6087  0.3793
 6225SOL    HW230135   0.715   0.565  15.142  0.0796 -1.9680  0.5935
 6226SOL     OW30136   4.675   3.786   3.560 -0.5175 -0.5388  0.1515
 6226SOL    HW130137   0.011   3.858   3.580  0.0283 -1.2031  0.9514
 6226SOL    HW230138   4.680   3.724   3.633  2.7549  1.4458  1.5935
 6227SOL     OW30139   2.967   3.870   7.898 -0.6304  0.4272  0.0250
 6227SOL    HW130140   2.981   3.890   7.805 -1.6879  2.2486  0.2581
 6227SOL    HW230141   2.877   3.901   7.910 -0.0140  2.8068 -1.5257
 6228SOL     OW30142   0.227   0.591   2.720 -0.0431  0.1043 -0.5570
 6228SOL    HW130143   0.267   0.656   2.778 -2.8317  0.7131  0.6887
 6228SOL    HW230144   0.255   0.642   2.644  1.9165  1.4207  1.0456
 6229SOL     OW30145   4.475   4.108  15.161 -0.1674  0.2921 -0.5550
 6229SOL    HW130146   4.560   4.096  15.205 -0.3634 -2.9797 -1.0710
 6229SOL    HW230147   4.425   4.028  15.176 -0.4505  0.2916 -1.5467
 6230SOL     OW30148   2.042   0.098   4.474  0.3503  0.6213  0.0611
 6230SOL    HW130149   2.131   0.083   4.440 -0.9072 -0.8000 -2.5863
 6230SOL    HW230150   2.053   0.067   4.564  1.2559  2.3784  0.5659
 6231SOL     OW30151   3.004   1.369  16.167 -0.6165 -0.1010 -0.2486
 6231SOL    HW130152   2.966   1.444  16.121  1.7767  0.8186 -0.7519
 6231SOL    HW230153   3.081   1.405  16.212  0.5283 -1.5722 -1.0445
 6232SOL     OW30154   1.762   0.239   5.122 -0.6501  0.3233  1.0478
 6232SOL    HW130155   1.673   0.222   5.154 -0.6671 -1.0633  0.2398
 6232SOL    HW230156   1.816   0.192   5.185  0.2495 -0.7652 -0.5463
 6233SOL     OW30157   0.323   3.824   9.751  0.2700  0.3713  0.2996
 6233SOL    HW130158   0.332   3.907   9.797  2.4883 -0.5395  1.5000
 6233SOL    HW230159   0.328   3.759   9.820  0.7470  1.0819  0.9307
 6234SOL     OW30160   2.983   1.722  16.998 -0.7238 -0.2518 -0.0788
 6234SOL    HW130161   3.068   1.763  17.010 -0.6033 -0.3156 -0.7238
 6234SOL    HW230162   3.008   1.678  16.917  0.0236  1.6890 -0.9124
 6235SOL     OW30163   3.970   0.896  16.649 -0.0445  1.0326 -0.1776
 6235SOL    HW130164   3.953   0.984  16.614 -1.5517  0.6734 -0.3564
 6235SOL    HW230165   3.968   0.846  16.567  0.2337 -1.1463  1.1509
 6236SOL     OW30166   1.466   3.727   7.737  0.2317 -0.1654 -0.3180
 6236SOL    HW130167   1.375   3.707   7.715  0.1722  0.6443 -0.8066
 6236SOL    HW230168   1.507   3.665   7.678  0.7106 -2.0195  1.9657
 6237SOL     OW30169   4.059   2.281   9.281 -0.3387  0.4680 -0.1348
 6237SOL    HW130170   4.120   2.334   9.333  0.4257 -1.0700  0.5212
 6237SOL    HW230171   4.113   2.266   9.204 -1.4815 -1.6350 -0.5251
 6238SOL     OW30172   4.480   2.230   5.562 -0.0571  0.4161 -0.0101
 6238SOL    HW130173   4.548   2.255   5.625 -0.1338  1.1417 -0.2113
 6238SOL    HW230174   4.406   2.196   5.612 -2.4613  0.7755 -3.3243
 6239SOL     OW30175   2.832   3.482   5.420 -0.1711  0.5268  0.0378
 6239SOL    HW130176   2.909   3.538   5.424 -0.3708  0.7699  0.5861
 6239SOL    HW230177   2.838   3.433   5.502  0.2174 -0.2876 -0.4819
 6240SOL     OW30178   2.391   4.122   8.911 -0.1077 -0.2890 -0.4938
 6240SOL    HW130179   2.350   4.046   8.953 -1.5473  1.0146  0.4379
 6240SOL    HW230180   2.418   4.071   8.835  1.6093 -1.6979  1.0302
 6241SOL     OW30181   4.518   1.287   1.847 -0.7267  0.1178  1.0315
 6241SOL    HW130182   4.545   1.338   1.771 -1.8308 -0.4107  0.2924
 6241SOL    HW230183   4.496   1.202   1.809 -1.2673  0.3922  0.7303
 6242SOL     OW30184   2.617   0.636   7.015 -0.1160 -0.0085 -0.2208
 6242SOL    HW130185   2.607   0.542   7.000  1.6424 -0.2066 -0.1189
 6242SOL    HW230186   2.705   0.658   6.985 -0.4915 -1.0573 -2.0665
 6243SOL     OW30187   2.072   2.456   2.458 -0.6989 -0.2991  1.0709
 6243SOL    HW130188   2.104   2.470   2.369  2.3232 -0.2010  2.1791
 6243SOL    HW230189   2.044   2.364   2.464  0.8440 -0.9095 -0.9733
 6244SOL     OW30190   1.686   3.561  17.448  0.8205  0.0264 -0.4734
 6244SOL    HW130191   1.699   3.574  17.542 -1.4533  0.8487 -0.2821
 6244SOL    HW230192   1.598   3.522  17.449  1.3481 -1.2035 -1.7268
 6245SOL     OW30193   2.084   0.535   4.255 -0.3282 -0.3854 -0.0058
 6245SOL    HW130194   2.011   0.473   4.246 -0.9320  0.5745 -1.8219
 6245SOL    HW230195   2.064   0.599   4.186 -3.7531 -1.3315  0.0707
 6246SOL     OW30196   4.120   2.989   2.753 -0.5864  0.7124  0.1583
 6246SOL    HW130197   4.167   3.021   2.676 -0.5101  1.6931  0.6172
 6246SOL    HW230198   4.116   3.067   2.808 -1.1880  2.2091 -2.0064
 6247SOL     OW30199   2.727   0.174   0.709  0.3348 -0.0741 -0.7712
 6247SOL    HW130200   2.647   0.195   0.662  0.7943  1.8475 -0.6816
 6247SOL    HW230201   2.774   0.120   0.645  0.6568 -0.4773 -0.1994
 6248SOL     OW30202   3.768   2.410   6.476  0.3833  0.1828 -0.6800
 6248SOL    HW130203   3.854   2.368   6.471  0.2027  0.0791 -3.2080
 6248SOL    HW230204   3.779   2.488   6.420  2.1276  0.0690 -0.5060
 6249SOL     OW30205   2.952   3.768  15.665 -0.0779 -0.6812 -0.0681
 6249SOL    HW130206   2.963   3.817  15.746  1.2181  1.6408 -1.6451
 6249SOL    HW230207   2.875   3.798  15.618  1.2007  0.3719 -1.5194
 6250SOL     OW30208   1.824   0.732   2.304 -0.1211 -0.0404  0.6925
 6250SOL    HW130209   1.901   0.785   2.285 -0.0240 -0.4107  0.0584
 6250SOL    HW230210   1.829   0.672   2.230 -0.3144  2.4942 -1.3820
 6251SOL     OW30211   4.500   0.926   5.698 -0.0101  0.0693  0.1351
 6251SOL    HW130212   4.579   0.879   5.727  0.6584  1.9435  1.3541
 6251SOL    HW230213   4.466   0.948   5.784 -4.1541  1.5806 -1.9239
 6252SOL     OW30214   2.948   0.069   9.035  0.1296 -0.0636 -0.7349
 6252SOL    HW130215   2.901   0.101   9.112 -1.5433 -1.2749 -1.2420
 6252SOL    HW230216   3.037   0.043   9.060 -0.3442 -1.4388 -0.4832
 6253SOL     OW30217   3.108   4.696   4.621 -0.4915  0.3717 -0.2983
 6253SOL    HW130218   3.017   4.687   4.650 -0.4646  3.0957  0.6590
 6253SOL    HW230219   3.104   0.052   4.570 -0.0332 -1.3664 -3.0368
 6254SOL     OW30220   0.936   4.645   5.858  0.5783  0.3541  0.4530
 6254SOL    HW130221   0.907   4.668   5.770  1.6969 -0.4722 -0.1347
 6254SOL    HW230222   0.973   4.558   5.842  0.6738  0.5775 -0.4961
 6255SOL     OW30223   0.255   0.066   6.322 -0.3652  0.0564  0.3538
 6255SOL    HW130224   0.211   0.115   6.252  0.9084 -0.5364 -0.8857
 6255SOL    HW230225   0.184   0.020   6.367  0.6531  0.4014  2.2860
 6256SOL     OW30226   0.674   3.235   6.385 -0.0917  0.3570  0.6162
 6256SOL    HW130227   0.668   3.326   6.356  1.7183  0.8482  1.7441
 6256SOL    HW230228   0.762   3.220   6.350 -0.7509  1.3958 -1.4751
 6257SOL     OW30229   0.197   1.419   4.474 -0.0023 -0.3389 -0.8652
 6257SOL    HW130230   0.279   1.372   4.459 -0.1108 -0.5464 -0.8049
 6257SOL    HW230231   0.134   1.356   4.509 -2.0749  1.9089 -0.5212
 6258SOL     OW30232   0.810   4.027   7.341 -0.1145 -0.0944 -0.0372
 6258SOL    HW130233   0.878   4.086   7.310  0.1976  0.2406  1.3121
 6258SOL    HW230234   0.747   4.021   7.268 -0.3132 -2.9211  0.3570
 6259SOL     OW30235   2.435   4.180   5.127 -0.1929  0.0023 -0.3838
 6259SOL    HW130236   2.462   4.266   5.159  1.2840  0.0987 -1.8842
 6259SOL    HW230237   2.363   4.201   5.067  0.3835 -0.2836 -1.1743
 6260SOL     OW30238   2.816   3.270  11.485 -0.3204 -0.2364  0.4922
 6260SOL    HW130239   2.785   3.324  11.412  2.3429  1.7109  0.7918
 6260SOL    HW230240   2.787   3.183  11.458  0.0003  0.0962 -0.9458
 6261SOL     OW30241   3.380   0.642   4.505 -0.6507 -0.1774  0.4882
 6261SOL    HW130242   3.386   0.550   4.478  0.3623  0.8823 -2.7965
 6261SOL    HW230243   3.321   0.646   4.581  0.5322  2.5993  1.2397
 6262SOL     OW30244   3.822   3.680   5.781 -0.1790  0.0363  0.8394
 6262SOL    HW130245   3.768   3.701   5.705  1.4242  0.1452 -0.2647
 6262SOL    HW230246   3.872   3.614   5.732  1.9177  2.1325  0.1525
 6263SOL     OW30247   3.347   3.921   1.675 -0.3157 -0.0057 -0.4845
 6263SOL    HW130248   3.332   3.831   1.646  1.2381 -0.0763 -1.0410
 6263SOL    HW230249   3.350   3.965   1.590 -2.3052 -0.7862 -0.9656
 6264SOL     OW30250   4.637   0.806   3.639  0.0514  0.3767 -0.0153
 6264SOL    HW130251   4.581   0.749   3.587  0.7648  0.9528 -1.4126
 6264SOL    HW230252   4.588   0.808   3.722 -0.8665 -1.9204 -0.4968
 6265SOL     OW30253   4.354   0.301   6.228 -0.2145  0.3886 -0.2925
 6265SOL    HW130254   4.328   0.392   6.221 -1.4622  0.1286  1.0520
 6265SOL    HW230255   4.409   0.290   6.150  0.7773 -0.4218  0.5224
 6266SOL     OW30256   0.260   3.473   5.348  0.2841  0.0062 -0.3562
 6266SOL    HW130257   0.283   3.544   5.408  0.7321  0.3485 -0.9306
 6266SOL    HW230258   0.309   3.396   5.380  1.2200  1.1174  0.8755
 6267SOL     OW30259   0.265   0.972   5.057  0.4535  0.2552  0.0573
 6267SOL    HW130260   0.219   1.047   5.095  0.1079 -0.9773  2.0665
 6267SOL    HW230261   0.251   0.898   5.116 -0.7086  0.3639 -0.0859
 6268SOL     OW30262   3.525   2.818  11.596 -0.0795 -0.1704  1.0472
 6268SOL    HW130263   3.527   2.723  11.587 -1.4483 -0.1208  0.1678
 6268SOL    HW230264   3.574   2.848  11.518 -0.5205 -1.5239  0.2540
 6269SOL     OW30265   2.038   2.429  13.697 -0.5598 -0.2916  0.1534
 6269SOL    HW130266   2.115   2.481  13.721  2.0076 -3.5492 -1.0799
 6269SOL    HW230267   2.046   2.409  13.603 -0.5829  0.9862 -0.1290
 6270SOL     OW30268   4.115   4.713   5.939 -0.3666  0.3357  0.3973
 6270SOL    HW130269   4.035   0.033   5.910  0.2990 -0.0571 -2.0616
 6270SOL    HW230270   4.130   0.022   6.027  0.0040 -1.5221  1.0162
 6271SOL     OW30271   3.819   0.943   1.179 -0.2224 -0.2468  0.0654
 6271SOL    HW130272   3.876   1.015   1.206 -1.9351  0.4180  1.9035
 6271SOL    HW230273   3.841   0.933   1.086  0.9865  1.8825  0.1254
 6272SOL     OW30274   2.275   3.435   5.804 -0.0396 -0.1368  0.0504
 6272SOL    HW130275   2.268   3.437   5.708 -1.6983  0.9199  0.1900
 6272SOL    HW230276   2.232   3.518   5.822  1.2498  0.7501 -0.9699
 6273SOL     OW30277   2.534   0.498   6.688  0.2062  0.0148  0.1212
 6273SOL    HW130278   2.596   0.571   6.695 -0.6685  0.8007 -0.4110
 6273SOL    HW230279   2.517   0.508   6.594 -1.6719 -0.6797  0.3907
 6274SOL     OW30280   1.444   2.830   1.122  0.1947  0.3400  0.3655
 6274SOL    HW130281   1.533   2.864   1.112 -0.1013 -0.4425 -5.0273
 6274SOL    HW230282   1.428   2.868   1.208  0.2612  1.7096 -0.2253
 6275SOL     OW30283   1.933   1.808  15.866  0.4410  0.2617 -0.1589
 6275SOL    HW130284   1.905   1.827  15.776 -2.4659  0.1317  0.7117
 6275SOL    HW230285   1.857   1.770  15.911  0.5207  1.6862  1.1828
 6276SOL     OW30286   3.464   3.060   3.316 -0.3225 -0.0518  0.1351
 6276SOL    HW130287   3.368   3.068   3.321 -0.4239  0.0748 -2.0709
 6276SOL    HW230288   3.486   3.115   3.391 -1.3281  2.1479 -1.1758
 6277SOL     OW30289   1.441   2.549   2.120  0.0423  0.5119  0.4112
 6277SOL    HW130290   1.514   2.493   2.094 -1.9926 -2.3745  0.8147
 6277SOL    HW230291   1.471   2.637   2.099  2.4646 -0.5685 -0.6729
 6278SOL     OW30292   2.275   1.319   7.222 -0.1504  0.2322 -0.4393
 6278SOL    HW130293   2.322   1.236   7.231 -1.7359 -0.6467 -0.2102
 6278SOL    HW230294   2.347   1.381   7.210  2.0153 -1.7895  1.7471
 6279SOL     OW30295   0.403   0.811   2.833  0.1550 -0.4059 -0.4605
 6279SOL    HW130296   0.458   0.760   2.893  0.0211 -0.8857 -0.7474
 6279SOL    HW230297   0.469   0.873   2.803 -0.8227  1.4788  1.2190
 6280SOL     OW30298   2.326   0.007   1.543 -0.0909 -0.2761  0.6884
 6280SOL    HW130299   2.403   0.052   1.510 -2.0698  1.7910 -1.1467
 6280SOL    HW230300   2.256   0.073   1.539  1.5842  1.4568 -0.1498
 6281SOL     OW30301   4.712   0.464   9.160  0.2206  0.0830  0.3557
 6281SOL    HW130302   4.619   0.450   9.140  0.7369 -0.1255 -1.9652
 6281SOL    HW230303   0.006   0.384   9.208 -0.4884  0.4342  1.2037
 6282SOL     OW30304   1.149   4.717   5.110 -0.0029 -0.1415  0.0066
 6282SOL    HW130305   1.144   4.624   5.134  0.6362 -0.2623 -0.3380
 6282SOL    HW230306   1.090   0.035   5.174  0.3576 -1.1270  0.9764
 6283SOL     OW30307   2.495   1.387   3.469 -0.3697  0.3441  0.0576
 6283SOL    HW130308   2.470   1.479   3.460 -1.0443  0.0656 -0.9325
 6283SOL    HW230309   2.410   1.349   3.490 -0.4395 -0.0467 -0.9746
 6284SOL     OW30310   4.623   3.684   3.843  0.0627 -0.0212  0.0262
 6284SOL    HW130311   4.558   3.656   3.779 -1.2140  1.0816  0.8491
 6284SOL    HW230312   4.688   3.616   3.829 -0.3893 -0.1443 -1.5110
 6285SOL     OW30313   1.420   0.793   9.407 -0.1799 -0.0438 -0.1280
 6285SOL    HW130314   1.496   0.826   9.454 -0.0037  1.1425 -1.2428
 6285SOL    HW230315   1.436   0.699   9.403 -3.3319 -0.6498  1.8957
 6286SOL     OW30316   3.020   2.180   7.351  0.2749 -0.2387  0.0031
 6286SOL    HW130317   3.064   2.256   7.390  0.1173 -1.1076  1.8991
 6286SOL    HW230318   3.001   2.204   7.261 -0.1749 -0.2405  0.0948
 6287SOL     OW30319   4.106   3.385   1.486  0.5026  0.1771 -0.0787
 6287SOL    HW130320   4.078   3.311   1.433 -0.1019  0.3114  0.0601
 6287SOL    HW230321   4.053   3.368   1.563 -0.5675  1.0384 -0.6182
 6288SOL     OW30322   3.355   4.455   0.160 -0.4947  0.2633  0.2378
 6288SOL    HW130323   3.379   4.478   0.070 -0.1704 -3.1477 -0.5494
 6288SOL    HW230324   3.439   4.472   0.202 -0.7896  0.6921  0.6623
 6289SOL     OW30325   1.691   1.517   6.475  0.3401 -0.0249  0.7490
 6289SOL    HW130326   1.719   1.427   6.458  2.8033  0.9885 -0.5066
 6289SOL    HW230327   1.742   1.564   6.410 -2.7739 -1.0851 -2.4384
 6290SOL     OW30328   3.692   4.617   4.428  0.2439  0.0652  0.1646
 6290SOL    HW130329   3.670   4.710   4.437 -2.2024 -0.3647 -1.6735
 6290SOL    HW230330   3.743   4.604   4.509 -0.5557  1.2953  0.8675
 6291SOL     OW30331   0.626   1.851  14.757 -0.4826 -0.2224 -0.2976
 6291SOL    HW130332   0.641   1.945  14.771  2.4090 -0.5285 -1.4102
 6291SOL    HW230333   0.587   1.826  14.841  0.9329 -1.4446  0.0003
 6292SOL     OW30334   3.660   3.094   5.265 -0.0540 -0.1591 -0.3217
 6292SOL    HW130335   3.580   3.041   5.263  0.5726 -1.3446  4.6565
 6292SOL    HW230336   3.673   3.110   5.172  2.3036  0.0974  0.0473
 6293SOL     OW30337   2.290   1.116   4.116  0.2841 -0.6577  0.5961
 6293SOL    HW130338   2.338   1.075   4.044  1.8282  1.8491  0.1653
 6293SOL    HW230339   2.269   1.043   4.173  0.8930 -0.9273  0.4696
 6294SOL     OW30340   0.008   2.064   1.348 -0.0398  0.0808  0.0871
 6294SOL    HW130341   4.723   2.097   1.258 -0.2711  0.4398  0.2403
 6294SOL    HW230342   4.670   1.991   1.344 -1.3385  1.0803  1.5676
 6295SOL     OW30343   3.185   4.006   2.094  0.4872 -0.0116 -0.3019
 6295SOL    HW130344   3.094   4.026   2.076  0.5653  1.0829  0.5045
 6295SOL    HW230345   3.215   4.051   2.173 -0.3097 -2.2936  1.2979
 6296SOL     OW30346   4.477   1.821   4.618 -0.4801  0.2235 -0.4489
 6296SOL    HW130347   4.441   1.894   4.567 -1.3228  1.0263  1.2935
 6296SOL    HW230348   4.462   1.751   4.555 -2.2380 -1.2174  1.5891
 6297SOL     OW30349   4.215   4.630  15.311 -0.4187 -0.0681  0.1587
 6297SOL    HW130350   4.157   4.555  15.297 -1.2757  0.4008  1.2081
 6297SOL    HW230351   4.298   4.585  15.294 -1.1089 -1.4226  0.3360
 6298SOL     OW30352   2.370   2.647   4.590 -0.1101  0.2709  0.0125
 6298SOL    HW130353   2.281   2.657   4.625 -0.0664 -1.5886  0.6454
 6298SOL    HW230354   2.358   2.581   4.522 -2.0529 -0.1928  0.8030
 6299SOL     OW30355   2.780   4.486   6.882  0.2205  0.3166 -0.0568
 6299SOL    HW130356   2.823   4.435   6.813  2.2571 -0.2720  1.6483
 6299SOL    HW230357   2.773   4.425   6.955  0.3901 -0.8259 -0.9993
 6300SOL     OW30358   1.487   4.678   6.581  0.6212 -0.4930  0.3848
 6300SOL    HW130359   1.466   4.584   6.584 -1.3738 -0.0722 -0.7860
 6300SOL    HW230360   1.573   4.671   6.623  0.6276 -1.9502  0.1468
 6301SOL     OW30361   0.775   0.298   4.424  0.5567 -0.0891 -0.0891
 6301SOL    HW130362   0.806   0.339   4.505  1.3143 -1.0761  0.1242
 6301SOL    HW230363   0.762   0.368   4.360 -1.2834 -1.4738 -1.2359
 6302SOL     OW30364   2.997   1.556  10.819 -0.0777  0.0087 -0.1534
 6302SOL    HW130365   3.035   1.633  10.861  2.3172 -0.5236 -1.3475
 6302SOL    HW230366   3.043   1.551  10.736  1.5605 -0.1125  0.7520
 6303SOL     OW30367   0.896   0.995   0.078  0.1223 -0.3870  0.3561
 6303SOL    HW130368   0.842   0.974   0.002  0.0622  0.0430  0.2834
 6303SOL    HW230369   0.857   1.081   0.089  0.1380 -0.3197 -0.1275
 6304SOL     OW30370   4.546   3.859   6.202 -0.4892 -0.4706  0.0463
 6304SOL    HW130371   4.478   3.804   6.162  0.5402 -0.6198 -1.4746
 6304SOL    HW230372   4.549   3.929   6.138  0.8505 -1.5901 -1.1013
 6305SOL     OW30373   3.084   0.024  13.789 -0.1564  0.7366 -0.3626
 6305SOL    HW130374   3.061   0.115  13.769  0.6731  1.3839  1.6295
 6305SOL    HW230375   3.122   4.713  13.708  0.3241 -0.7905  0.5249
 6306SOL     OW30376   0.315   0.691   3.858  0.2117  0.5459  0.0013
 6306SOL    HW130377   0.266   0.706   3.777  1.7178 -0.7418 -1.1392
 6306SOL    HW230378   0.353   0.779   3.859 -0.9836  1.0553  1.3417
 6307SOL     OW30379   2.529   0.460  13.918  0.3557  0.5237  0.1547
 6307SOL    HW130380   2.494   0.430  13.834 -0.0898 -0.0121  0.5254
 6307SOL    HW230381   2.568   0.541  13.886 -1.9620  1.6039  0.0937
 6308SOL     OW30382   4.341   2.170   6.739  0.3407 -0.1507  0.0922
 6308SOL    HW130383   4.387   2.093   6.772  2.3529  0.5864 -0.9591
 6308SOL    HW230384   4.413   2.233   6.735 -0.9386  1.3047 -0.2662
 6309SOL     OW30385   0.468   0.303   2.228 -0.1899  0.7214 -0.1960
 6309SOL    HW130386   0.464   0.318   2.133 -1.0058  3.0597  0.1971
 6309SOL    HW230387   0.555   0.327   2.259 -0.6925  0.9761  1.0032
 6310SOL     OW30388   2.927   3.803   4.921 -0.1383  0.3764  0.1565
 6310SOL    HW130389   2.911   3.794   4.827 -0.1729 -0.5779  0.2618
 6310SOL    HW230390   2.856   3.753   4.961  0.9210 -2.4574 -1.5483
 6311SOL     OW30391   3.563   3.305   2.057 -0.8052 -0.2412  0.6969
 6311SOL    HW130392   3.580   3.357   1.979 -1.4075  0.2889  0.9220
 6311SOL    HW230393   3.503   3.359   2.108 -0.8686 -0.7940  1.2110
 6312SOL     OW30394   0.657   4.417   3.750  0.1072 -0.3420 -0.1146
 6312SOL    HW130395   0.714   4.354   3.706 -0.3433 -0.8765  0.0723
 6312SOL    HW230396   0.709   4.497   3.752 -1.5105  0.6702  1.5151
 6313SOL     OW30397   1.044   0.671   9.391 -0.2921 -0.3753  0.0308
 6313SOL    HW130398   0.964   0.719   9.413  1.4734  3.2696 -1.4758
 6313SOL    HW230399   1.006   0.616   9.323  0.0279  0.0006 -0.4462
 6314SOL     OW30400   4.025   3.542   2.584  0.2898 -0.9036  0.1112
 6314SOL    HW130401   3.957   3.490   2.542 -0.8857  1.6059 -1.0740
 6314SOL    HW230402   4.005   3.541   2.677 -0.3396 -2.1526 -0.0415
 6315SOL     OW30403   3.315   0.221  16.424  0.4992 -0.3173 -0.0160
 6315SOL    HW130404   3.239   0.175  16.457 -0.5472  2.0065  0.7878
 6315SOL    HW230405   3.317   0.225  16.328  0.7519 -0.7696 -0.0294
 6316SOL     OW30406   4.680   3.984   8.642  0.6416  0.2899  0.2583
 6316SOL    HW130407   4.689   4.069   8.685 -0.0788  0.5296 -0.0704
 6316SOL    HW230408   4.661   3.999   8.550 -2.4549  0.6977  0.9706
 6317SOL     OW30409   1.656   0.757  13.950  0.0466 -0.2655  0.2378
 6317SOL    HW130410   1.748   0.731  13.946 -0.2888 -0.4972 -5.0743
 6317SOL    HW230411   1.620   0.698  13.885 -1.2451  0.6613  0.1200
 6318SOL     OW30412   4.577   1.159  11.420 -0.0198 -0.4510  0.6584
 6318SOL    HW130413   4.506   1.222  11.411  0.8838  0.5389  0.4011
 6318SOL    HW230414   4.524   1.099  11.472  0.4439 -0.9841  0.5081
 6319SOL     OW30415   1.703   0.595   5.575 -0.3950  0.3259 -0.2011
 6319SOL    HW130416   1.682   0.680   5.536  1.0613  0.4481 -0.7103
 6319SOL    HW230417   1.609   0.580   5.590 -0.3012 -1.1876 -1.0613
 6320SOL     OW30418   2.802   3.246   3.211  0.2756  1.0002 -0.2953
 6320SOL    HW130419   2.779   3.310   3.143 -0.8652  1.8183  0.8749
 6320SOL    HW230420   2.737   3.283   3.271  0.4282 -0.6419  0.8698
 6321SOL     OW30421   2.347   4.573  10.605  0.4444 -0.9550 -0.0482
 6321SOL    HW130422   2.262   4.598  10.643  0.9285 -1.8815  1.6181
 6321SOL    HW230423   2.408   4.603  10.672  0.2514 -0.1436 -0.2328
 6322SOL     OW30424   2.649   4.457  15.057 -0.0031 -0.2399  0.4945
 6322SOL    HW130425   2.742   4.477  15.068 -0.1548  1.6064 -1.4891
 6322SOL    HW230426   2.609   4.510  15.126  1.3878 -0.7830  1.7043
 6323SOL     OW30427   3.610   0.843   7.005  0.2441  0.2422 -0.4401
 6323SOL    HW130428   3.527   0.885   6.983  0.2968  0.6638  0.1741
 6323SOL    HW230429   3.647   0.836   6.917 -0.9642  1.4008 -1.0388
 6324SOL     OW30430   4.125   4.003   3.365  0.6352 -0.6334  0.1672
 6324SOL    HW130431   4.183   3.998   3.441  1.0877  1.1658 -0.0630
 6324SOL    HW230432   4.072   3.923   3.369  0.2803 -0.5204 -1.8747
 6325SOL     OW30433   0.182   0.973   6.934 -0.1469 -0.4996 -0.2474
 6325SOL    HW130434   0.262   1.022   6.913  0.7623 -1.6952  0.4253
 6325SOL    HW230435   0.135   1.054   6.954 -0.6758 -0.9525  0.3244
 6326SOL     OW30436   1.250   3.271   9.123  0.1876  0.1992  0.0432
 6326SOL    HW130437   1.194   3.336   9.079 -2.2964 -0.6894  1.8783
 6326SOL    HW230438   1.230   3.286   9.216 -1.6928 -0.7871 -0.2023
 6327SOL     OW30439   1.557   1.218   0.245 -0.4865 -0.1639  0.6126
 6327SOL    HW130440   1.580   1.169   0.323 -0.7086 -0.4667  0.4848
 6327SOL    HW230441   1.600   1.177   0.170  4.7609 -0.0984  3.5754
 6328SOL     OW30442   3.873   1.165   7.922 -0.1156  0.8897  0.2520
 6328SOL    HW130443   3.859   1.202   7.835 -2.0969 -2.4063 -0.8206
 6328SOL    HW230444   3.957   1.207   7.941  0.2078  0.2977  0.1168
 6329SOL     OW30445   2.710   0.660  17.525  0.1910 -0.4114 -0.6702
 6329SOL    HW130446   2.674   0.747  17.503  0.7694 -0.0816 -0.3169
 6329SOL    HW230447   2.740   0.626  17.441  0.4520 -0.7236 -0.4461
 6330SOL     OW30448   0.378   1.106  12.357 -0.1707 -0.6074 -0.7143
 6330SOL    HW130449   0.355   1.014  12.372 -0.3278 -0.3981  0.3540
 6330SOL    HW230450   0.468   1.099  12.325 -0.0775  1.5880 -0.9216
 6331SOL     OW30451   3.624   2.412   9.553 -0.0910 -0.1022  0.1941
 6331SOL    HW130452   3.589   2.495   9.584  1.9436  0.2005  1.6695
 6331SOL    HW230453   3.711   2.432   9.517  0.8463 -0.6823  2.1221
 6332SOL     OW30454   1.886   0.201   9.033  0.3864  0.1081 -0.5048
 6332SOL    HW130455   1.918   0.252   8.959 -1.0428  0.9322 -0.5490
 6332SOL    HW230456   1.971   0.180   9.071 -0.2332  1.6146  1.7335
 6333SOL     OW30457   1.920   1.519  14.816 -0.3934 -0.0410 -0.9900
 6333SOL    HW130458   1.951   1.590  14.760 -0.2095  0.7303  0.0917
 6333SOL    HW230459   1.841   1.556  14.856  0.4516 -0.0381  0.6650
 6334SOL     OW30460   4.375   1.612   7.918  0.2879 -0.1035  0.0457
 6334SOL    HW130461   4.289   1.619   7.876  0.0919 -0.6045  0.3737
 6334SOL    HW230462   4.379   1.688   7.976  0.0475  1.2330 -1.6755
 6335SOL     OW30463   4.539   0.611   2.874 -0.0327 -0.3144  0.7014
 6335SOL    HW130464   4.466   0.552   2.895 -0.3466 -0.6688 -1.4759
 6335SOL    HW230465   4.594   0.589   2.949 -0.5408  0.0797  1.1940
 6336SOL     OW30466   2.668   4.208   2.276  0.1456 -0.4585 -0.0808
 6336SOL    HW130467   2.678   4.301   2.256  0.2516 -0.4505  0.0069
 6336SOL    HW230468   2.596   4.184   2.218 -1.4273  0.3843  1.5105
 6337SOL     OW30469   4.303   3.817  15.094  0.0354  0.0075 -0.1129
 6337SOL    HW130470   4.257   3.764  15.160 -0.4686 -1.1291 -1.3725
 6337SOL    HW230471   4.392   3.787  15.114  0.4593  1.5259  0.2420
 6338SOL     OW30472   2.574   0.542   2.730 -0.0749  0.8565  0.4443
 6338SOL    HW130473   2.550   0.545   2.637  0.2017  0.1911  0.3507
 6338SOL    HW230474   2.653   0.596   2.734  0.5138 -0.0144  0.5464
 6339SOL     OW30475   1.945   3.682   0.477  0.2086 -0.0505 -0.2648
 6339SOL    HW130476   1.947   3.609   0.540 -0.2580 -0.8393 -1.1660
 6339SOL    HW230477   1.857   3.716   0.492 -0.8324 -2.8105  0.0239
 6340SOL     OW30478   0.439   3.150   6.028  0.0547  0.0733  0.3802
 6340SOL    HW130479   0.386   3.172   6.105  2.1264  0.1609  1.7831
 6340SOL    HW230480   0.369   3.108   5.978  1.2284  2.1851 -2.9919
 6341SOL     OW30481   3.690   3.221   5.826  0.2014 -0.7774 -0.1406
 6341SOL    HW130482   3.759   3.219   5.893 -0.0512 -1.6920  0.0857
 6341SOL    HW230483   3.613   3.247   5.876 -0.7710 -1.3779 -1.3287
 6342SOL     OW30484   1.495   2.325   0.698 -0.2104 -0.0699 -0.1024
 6342SOL    HW130485   1.489   2.230   0.709  2.0980 -0.3188 -1.1322
 6342SOL    HW230486   1.530   2.344   0.785  0.2769 -1.4076 -0.0105
 6343SOL     OW30487   2.498   1.454   8.724 -0.1516 -0.2362  0.4990
 6343SOL    HW130488   2.572   1.397   8.746 -0.1588 -0.0117  1.1244
 6343SOL    HW230489   2.423   1.395   8.727  0.6004 -1.1810  0.8888
 6344SOL     OW30490   0.073   3.472   6.059 -0.0265 -0.7786  0.8886
 6344SOL    HW130491   0.077   3.523   5.978 -0.6122 -3.0696 -0.5803
 6344SOL    HW230492   0.151   3.419   6.047 -0.4813 -1.1202 -0.5647
 6345SOL     OW30493   2.683   3.008   7.851 -0.0281  0.1229 -0.3503
 6345SOL    HW130494   2.648   2.920   7.834  2.8125 -1.2696  0.9460
 6345SOL    HW230495   2.658   3.057   7.773 -0.9533 -0.4516 -0.4175
 6346SOL     OW30496   1.788   1.887   5.025  0.3243  0.3605 -0.2338
 6346SOL    HW130497   1.799   1.847   5.111  1.4328  0.5470 -0.2983
 6346SOL    HW230498   1.801   1.981   5.034  2.1919  0.1216 -0.4859
 6347SOL     OW30499   3.668   2.171   2.907 -0.2247 -0.1974 -0.3979
 6347SOL    HW130500   3.736   2.234   2.883  0.5108  0.3010  3.0109
 6347SOL    HW230501   3.719   2.095   2.937 -1.2458 -1.2609 -1.3864
 6348SOL     OW30502   3.153   1.732   2.949  0.0434 -0.7732  0.0508
 6348SOL    HW130503   3.118   1.775   2.871  0.0021  0.9746  1.0254
 6348SOL    HW230504   3.243   1.738   2.917  0.2265 -0.6872  0.5736
 6349SOL     OW30505   3.720   1.807   1.540  0.8090  0.0927  0.3149
 6349SOL    HW130506   3.746   1.895   1.567 -1.4055  0.5302  0.9929
 6349SOL    HW230507   3.625   1.811   1.547  0.8173 -2.2225  1.7572
 6350SOL     OW30508   2.424   0.794  15.452 -0.9003  0.7070 -0.7112
 6350SOL    HW130509   2.416   0.793  15.547  1.3505 -3.0847 -0.5678
 6350SOL    HW230510   2.502   0.842  15.424 -1.4510  2.2500  0.4242
 6351SOL     OW30511   0.703   3.587   0.782  0.2164 -0.1122 -0.1794
 6351SOL    HW130512   0.608   3.581   0.772  0.0700  0.9308  0.6413
 6351SOL    HW230513   0.718   3.681   0.788 -0.2623 -0.0992  0.8584
 6352SOL     OW30514   4.111   2.980   6.250  0.3109 -0.3126 -0.5686
 6352SOL    HW130515   4.160   2.900   6.234  0.8961 -0.0878  0.1387
 6352SOL    HW230516   4.148   3.038   6.183  3.5152 -2.6345 -0.7785
 6353SOL     OW30517   0.699   0.419  15.972  0.3781  0.1863  0.4971
 6353SOL    HW130518   0.673   0.327  15.970 -0.0446  0.3471 -1.1471
 6353SOL    HW230519   0.772   0.419  15.911  2.2623 -2.5652  2.7486
 6354SOL     OW30520   3.069   3.605   6.613  0.0106  0.3170  0.1292
 6354SOL    HW130521   3.070   3.644   6.700 -1.1706  1.7938 -0.5134
 6354SOL    HW230522   2.974   3.598   6.601 -0.2418  2.0492  0.9874
 6355SOL     OW30523   0.203   1.395  16.926 -0.3355 -0.5133  0.1651
 6355SOL    HW130524   0.197   1.484  16.893  0.2388 -1.2326 -1.8752
 6355SOL    HW230525   0.268   1.362  16.864 -1.2516  1.2188 -1.7075
 6356SOL     OW30526   0.176   3.546   8.248 -0.0812 -0.4805  0.3194
 6356SOL    HW130527   0.093   3.513   8.215  0.1369 -0.1118 -0.5827
 6356SOL    HW230528   0.233   3.480   8.209  0.0795  0.3271 -0.7860
 6357SOL     OW30529   0.421   2.034   4.084  0.3641  0.0537 -0.1282
 6357SOL    HW130530   0.423   1.991   4.169 -0.4437  1.3333  0.5423
 6357SOL    HW230531   0.406   2.123   4.116  2.5311  0.4263 -0.1653
 6358SOL     OW30532   0.774   0.800   4.159  0.3509  0.2448  0.0290
 6358SOL    HW130533   0.752   0.744   4.084 -0.4479  1.5600 -0.7231
 6358SOL    HW230534   0.836   0.856   4.112 -0.8639  2.1125  0.6733
 6359SOL     OW30535   3.864   3.600  10.948  0.0595 -0.9210  0.2528
 6359SOL    HW130536   3.812   3.599  11.029 -0.4262  1.5735 -0.0450
 6359SOL    HW230537   3.866   3.505  10.931 -0.7100 -0.5832 -1.7218
 6360SOL     OW30538   4.304   0.540   4.978 -0.3647 -0.9058 -0.3191
 6360SOL    HW130539   4.315   0.595   4.901 -0.0809  0.6285  0.8083
 6360SOL    HW230540   4.228   0.576   5.024 -0.3508 -0.7399 -0.4261
 6361SOL     OW30541   0.270   1.757   3.647  0.4305 -0.2852 -0.3044
 6361SOL    HW130542   0.291   1.674   3.604  2.0948 -0.0713  0.0725
 6361SOL    HW230543   0.312   1.813   3.581  1.3536 -1.3106 -0.5863
 6362SOL     OW30544   1.468   0.079   7.990  0.2932 -0.2633  0.2161
 6362SOL    HW130545   1.379   0.043   7.989  0.2181  0.0717 -3.9512
 6362SOL    HW230546   1.442   0.166   7.959 -1.8537 -1.4939 -1.4177
 6363SOL     OW30547   4.173   0.406   0.623  0.0952  0.0022  0.0026
 6363SOL    HW130548   4.254   0.357   0.635 -1.1434 -1.8119  1.0979
 6363SOL    HW230549   4.116   0.330   0.608  1.2573 -1.3292  2.2112
 6364SOL     OW30550   3.495   0.880   1.443 -0.3525 -0.1933 -0.5384
 6364SOL    HW130551   3.478   0.811   1.507 -3.1565  0.8065 -0.2162
 6364SOL    HW230552   3.551   0.926   1.504 -0.7316 -1.2551  0.6181
 6365SOL     OW30553   2.212   3.880   0.871  0.1051 -0.7039 -0.6183
 6365SOL    HW130554   2.299   3.841   0.881  0.6406  0.7897  0.5629
 6365SOL    HW230555   2.201   3.868   0.777  0.1023  0.4055 -0.7567
 6366SOL     OW30556   0.426   0.371  11.220 -0.3330 -0.1819  0.0991
 6366SOL    HW130557   0.336   0.363  11.252 -0.0883  1.7294  1.2377
 6366SOL    HW230558   0.476   0.413  11.289 -0.4305  1.5298 -0.8727
 6367SOL     OW30559   1.027   0.544   0.555 -0.2404  0.2104  0.9501
 6367SOL    HW130560   0.995   0.561   0.466 -1.1552 -0.2494  1.1925
 6367SOL    HW230561   1.007   0.630   0.592  3.1342  0.6828  1.6673
 6368SOL     OW30562   3.544   1.932   5.155 -0.1900 -0.0611 -0.6641
 6368SOL    HW130563   3.471   1.958   5.098 -0.4908  0.2295 -0.1453
 6368SOL    HW230564   3.618   1.941   5.095  2.1352 -0.0086  2.2129
 6369SOL     OW30565   3.772   0.514   0.965 -0.2032  0.0435 -0.5931
 6369SOL    HW130566   3.798   0.590   0.914  0.3123 -0.1385 -0.6074
 6369SOL    HW230567   3.702   0.550   1.018  0.6854 -0.0196  0.6406
 6370SOL     OW30568   2.979   1.212  10.940 -0.2683 -0.4217 -0.3422
 6370SOL    HW130569   2.965   1.120  10.962 -2.1192  0.0441  0.3768
 6370SOL    HW230570   3.051   1.211  10.877  1.9551 -0.7335  2.1931
 6371SOL     OW30571   3.986   0.900   2.963 -0.1336  0.6544 -0.5807
 6371SOL    HW130572   3.924   0.888   2.891  0.0912 -0.6035 -0.5723
 6371SOL    HW230573   4.061   0.857   2.924 -0.6117 -1.0389  0.3458
 6372SOL     OW30574   3.426   0.588   9.893 -0.5603  0.3568 -0.6421
 6372SOL    HW130575   3.465   0.505   9.865 -0.2147  0.4195 -0.3414
 6372SOL    HW230576   3.464   0.643   9.824  1.2113 -1.8132 -1.4017
 6373SOL     OW30577   4.613   3.813   4.350 -0.2938  0.3639  0.5701
 6373SOL    HW130578   4.650   3.742   4.403  1.3199  0.5976 -0.2340
 6373SOL    HW230579   4.626   3.787   4.258 -1.4939 -0.0728  0.5224
 6374SOL     OW30580   2.455   0.971  16.306  0.3934  0.0928 -0.4594
 6374SOL    HW130581   2.386   0.922  16.261  3.1846 -3.1367 -1.2069
 6374SOL    HW230582   2.471   1.050  16.255  1.0082  1.2944  1.6068
 6375SOL     OW30583   2.823   0.393   4.317  0.2935  0.1295 -0.1287
 6375SOL    HW130584   2.856   0.424   4.402  0.8884  2.3237 -1.1603
 6375SOL    HW230585   2.747   0.337   4.334  0.6336  0.2177  1.7308
 6376SOL     OW30586   3.893   4.065  14.862  0.3886 -0.3427  0.7202
 6376SOL    HW130587   3.811   4.106  14.890 -0.9880 -2.5686 -0.0577
 6376SOL    HW230588   3.922   4.118  14.787  1.0331 -0.2626  1.0309
 6377SOL     OW30589   0.133   0.660   6.046 -0.1805 -0.4322 -0.2456
 6377SOL    HW130590   0.052   0.642   6.093 -2.2197 -0.2894 -3.7191
 6377SOL    HW230591   0.162   0.732   6.102 -1.6063  0.2432 -0.3745
 6378SOL     OW30592   1.980   3.516   9.652  0.3129  0.2991  0.1320
 6378SOL    HW130593   2.061   3.525   9.602 -0.2389 -1.4457 -1.0706
 6378SOL    HW230594   1.919   3.530   9.579  1.2333 -0.1702 -0.7237
 6379SOL     OW30595   1.667   0.217   5.508 -0.2970 -0.3318 -0.1261
 6379SOL    HW130596   1.626   0.149   5.563 -2.2773  1.1497  0.2381
 6379SOL    HW230597   1.719   0.262   5.574  1.6312  0.1178 -1.9752
 6380SOL     OW30598   0.082   3.675   4.773  0.2387 -0.0136 -0.6419
 6380SOL    HW130599   0.118   3.761   4.796 -0.3612  0.1500 -0.3048
 6380SOL    HW230600   0.067   3.683   4.678  0.3346 -1.4260 -0.7711
 6381SOL     OW30601   0.515   3.966   7.493  0.1844 -0.2453  0.4474
 6381SOL    HW130602   0.522   3.872   7.507  0.4894 -0.1821  0.7306
 6381SOL    HW230603   0.542   3.975   7.402 -0.0714  2.0789  0.5990
 6382SOL     OW30604   2.273   3.250  15.421  0.0150 -0.1810 -0.0052
 6382SOL    HW130605   2.279   3.173  15.364 -0.6457 -1.4845  1.7183
 6382SOL    HW230606   2.329   3.217  15.491 -0.8730  2.8935  2.1597
 6383SOL     OW30607   2.303   4.366   9.012  0.4626  0.1769  0.1665
 6383SOL    HW130608   2.344   4.287   8.974 -1.1355  0.1297 -1.4925
 6383SOL    HW230609   2.316   4.346   9.104  0.4872  0.9533  0.3270
 6384SOL     OW30610   0.752   4.467   9.159  0.2653 -0.0053  0.1362
 6384SOL    HW130611   0.777   4.377   9.137  1.0208  0.0290  0.8456
 6384SOL    HW230612   0.830   4.516   9.133  0.5739 -0.3186  0.4740
 6385SOL     OW30613   0.429   3.168   6.815  0.3109  0.1306  0.5347
 6385SOL    HW130614   0.478   3.230   6.762  0.4682  1.9664  2.8477
 6385SOL    HW230615   0.491   3.095   6.817  0.7458  0.4598 -0.8958
 6386SOL     OW30616   1.584   4.131   8.922  0.0005  0.2202 -0.0036
 6386SOL    HW130617   1.629   4.196   8.868 -1.3508  1.2019  0.0637
 6386SOL    HW230618   1.638   4.053   8.907 -0.5114 -0.4476  1.6214
 6387SOL     OW30619   1.821   1.784  16.661  0.4381  0.6028 -0.2350
 6387SOL    HW130620   1.816   1.785  16.566  1.9703 -0.6946 -0.3240
 6387SOL    HW230621   1.885   1.714  16.678  0.1875  0.8723  1.8944
 6388SOL     OW30622   3.304   3.758   9.860 -0.1400  0.1800  0.1639
 6388SOL    HW130623   3.255   3.719   9.933 -0.3240  0.9896  0.4730
 6388SOL    HW230624   3.339   3.681   9.815  0.0572 -0.0454  0.7079
 6389SOL     OW30625   1.993   2.984   9.489  0.2739 -0.0446 -0.3512
 6389SOL    HW130626   2.034   2.924   9.551  2.7567 -0.1014 -2.0262
 6389SOL    HW230627   2.000   3.069   9.533 -0.9444 -0.3398  0.4132
 6390SOL     OW30628   1.574   1.084   6.757  0.2036  0.1891 -0.7737
 6390SOL    HW130629   1.489   1.103   6.718 -0.0108 -1.1237 -0.9376
 6390SOL    HW230630   1.628   1.087   6.678  0.5218  0.0862 -0.5633
 6391SOL     OW30631   3.889   1.856   6.028 -0.3825 -0.3354  0.3180
 6391SOL    HW130632   3.951   1.795   5.988  0.3209  0.4026  0.2779
 6391SOL    HW230633   3.933   1.936   6.001  0.6641 -0.9093  0.3183
 6392SOL     OW30634   4.694   3.464  16.400  0.4045 -0.2442 -0.6503
 6392SOL    HW130635   4.700   3.524  16.474 -1.2278 -2.8396  1.5778
 6392SOL    HW230636   4.606   3.483  16.366 -0.9206  0.4568  3.2483
 6393SOL     OW30637   1.475   4.141   5.529 -0.0876 -0.1027  0.2088
 6393SOL    HW130638   1.560   4.110   5.560 -0.3520 -0.2200  0.8063
 6393SOL    HW230639   1.436   4.054   5.521  0.7553 -0.5167  0.6812
 6394SOL     OW30640   3.079   3.914  11.593 -0.2502  0.2446  0.0249
 6394SOL    HW130641   3.134   3.974  11.543 -0.7313  1.6562  1.1737
 6394SOL    HW230642   3.039   3.856  11.528 -0.8274 -0.1747  0.7625
 6395SOL     OW30643   1.055   2.132   5.541  0.2430  0.3832 -0.1073
 6395SOL    HW130644   1.113   2.202   5.572  1.7855 -0.5871 -0.8160
 6395SOL    HW230645   1.088   2.128   5.451 -1.6640  0.4008 -0.8156
 6396SOL     OW30646   4.443   4.397   2.561  0.1974  0.1868 -0.4475
 6396SOL    HW130647   4.354   4.425   2.584  0.4931  0.0933  0.8070
 6396SOL    HW230648   4.492   4.463   2.610  2.8913 -1.3843 -1.0536
 6397SOL     OW30649   1.354   2.210   9.234  0.1886 -0.0550 -0.0993
 6397SOL    HW130650   1.402   2.290   9.210 -1.2105  0.3267 -1.7033
 6397SOL    HW230651   1.269   2.246   9.207 -0.4373 -1.9825 -0.6524
 6398SOL     OW30652   3.180   0.115  14.823  0.3860  0.2480  0.6087
 6398SOL    HW130653   3.262   0.104  14.871  1.2226 -1.3934 -1.1949
 6398SOL    HW230654   3.120   0.061  14.875  1.7309 -1.3309  0.5035
 6399SOL     OW30655   0.917   3.816   4.174  0.4536 -0.4107 -0.2195
 6399SOL    HW130656   0.852   3.867   4.126 -0.1374 -0.4971  0.5077
 6399SOL    HW230657   0.876   3.734   4.201 -3.1446  0.3389 -3.3806
 6400SOL     OW30658   0.140   0.605   7.146 -0.1505  0.1479 -0.6991
 6400SOL    HW130659   0.227   0.638   7.122 -0.2218  0.2320 -0.8371
 6400SOL    HW230660   0.098   0.616   7.061 -1.3458 -0.5887 -0.2064
 6401SOL     OW30661   4.165   0.236   2.933  0.4367  0.3167 -0.1005
 6401SOL    HW130662   4.239   0.184   2.964  1.1762  0.4329 -1.6534
 6401SOL    HW230663   4.107   0.171   2.894  0.7865  1.0376 -1.8509
 6402SOL     OW30664   0.130   2.737   6.173 -0.5138  0.4558  0.3183
 6402SOL    HW130665   0.109   2.691   6.254 -0.3758 -0.6212 -0.2508
 6402SOL    HW230666   0.217   2.705   6.152 -0.1227  0.9128  1.2531
 6403SOL     OW30667   2.733   4.487   2.046  0.0180  0.6713 -0.0076
 6403SOL    HW130668   2.660   4.548   2.050 -0.5701 -0.2165  2.7657
 6403SOL    HW230669   2.720   4.460   1.955 -1.5206 -0.3038  0.4980
 6404SOL     OW30670   4.044   3.914   8.726 -0.3428  0.3107 -0.1363
 6404SOL    HW130671   4.123   3.927   8.674  0.6705 -1.6458  0.9032
 6404SOL    HW230672   4.009   3.829   8.698  3.5289 -0.4719 -2.6491
 6405SOL     OW30673   1.561   2.224   5.546  0.1073 -0.2780  0.6582
 6405SOL    HW130674   1.594   2.309   5.574 -0.7000  0.2225  0.0555
 6405SOL    HW230675   1.639   2.170   5.535  0.4286  0.5436 -1.0457
 6406SOL     OW30676   2.894   3.992   3.492  0.4097  0.4241 -0.2327
 6406SOL    HW130677   2.915   3.984   3.585 -0.3431 -1.2201 -0.2042
 6406SOL    HW230678   2.803   4.023   3.494  0.6429  0.9645  1.5916
 6407SOL     OW30679   0.765   3.224  10.487  0.4375  0.6874 -0.3035
 6407SOL    HW130680   0.858   3.207  10.501 -0.4222 -3.9350 -0.1108
 6407SOL    HW230681   0.742   3.300  10.540 -1.0606  0.7155 -0.9844
 6408SOL     OW30682   3.487   2.326   6.386  0.2393  0.2560 -0.1579
 6408SOL    HW130683   3.505   2.234   6.370  2.5206  0.6313  0.1024
 6408SOL    HW230684   3.572   2.362   6.413 -0.1795  1.0928  0.0646
 6409SOL     OW30685   2.818   2.537   9.614  0.5018 -0.0581  0.1663
 6409SOL    HW130686   2.908   2.560   9.637  0.8417 -1.6318  0.4114
 6409SOL    HW230687   2.775   2.614   9.650  0.2160 -0.0372 -0.2230
 6410SOL     OW30688   3.352   0.028   9.471 -0.1280  0.2267 -0.1851
 6410SOL    HW130689   3.308   4.672   9.441  0.1313 -0.6240  1.6782
 6410SOL    HW230690   3.340   0.036   9.565 -1.8498  1.1955 -0.4819
 6411SOL     OW30691   3.495   2.533   1.268  0.0271 -0.1411  0.2617
 6411SOL    HW130692   3.482   2.532   1.363 -1.6272  1.5138  0.0344
 6411SOL    HW230693   3.538   2.616   1.247  3.1191 -1.6569  0.5680
 6412SOL     OW30694   0.468   0.539  11.458  0.5825  0.4243  0.2510
 6412SOL    HW130695   0.387   0.505  11.496 -0.2349 -1.0752 -2.8121
 6412SOL    HW230696   0.435   0.628  11.450 -0.5038 -0.1609 -1.7803
 6413SOL     OW30697   4.011   4.659   9.360 -0.1243 -0.3561  0.3837
 6413SOL    HW130698   4.018   0.017   9.310  1.0279  0.0905  1.2566
 6413SOL    HW230699   3.927   4.660   9.405 -0.8774 -3.5732 -0.9348
 6414SOL     OW30700   3.929   3.446   7.647 -0.0728  0.1946 -0.1709
 6414SOL    HW130701   3.926   3.410   7.736 -1.9225 -0.1531 -0.3782
 6414SOL    HW230702   4.020   3.477   7.643  0.8842 -2.4806  0.7041
 6415SOL     OW30703   2.220   2.885  17.202  0.2908  0.0543  0.2627
 6415SOL    HW130704   2.186   2.965  17.242 -1.9951 -0.2488 -1.0578
 6415SOL    HW230705   2.301   2.926  17.171 -0.9530  1.2175 -1.4467
 6416SOL     OW30706   0.571   4.630   8.841 -0.4158  0.5513 -0.4732
 6416SOL    HW130707   0.644   4.692   8.847  0.0857 -0.0872 -0.0462
 6416SOL    HW230708   0.614   4.562   8.790 -0.8900 -0.6565  0.7352
 6417SOL     OW30709   0.385   1.617  17.041 -0.6317 -0.0999  0.1255
 6417SOL    HW130710   0.326   1.618  17.116 -3.9743 -0.6144 -2.4808
 6417SOL    HW230711   0.381   1.708  17.009 -2.2336  0.2236  1.2729
 6418SOL     OW30712   3.952   1.309   7.654  0.4079 -0.1027 -0.5395
 6418SOL    HW130713   3.889   1.319   7.584  1.1561  0.7186 -1.0912
 6418SOL    HW230714   3.945   1.397   7.691 -0.4569  0.5398 -2.2607
 6419SOL     OW30715   2.260   3.280   9.833  0.2262  0.6101 -0.1738
 6419SOL    HW130716   2.266   3.253   9.925 -3.6852  0.2447 -0.0249
 6419SOL    HW230717   2.316   3.357   9.828  2.4914 -0.8643  1.7965
 6420SOL     OW30718   3.933   4.525   3.964 -0.8214  0.4123  0.3114
 6420SOL    HW130719   3.856   4.520   3.908 -1.2968 -2.1675  1.1873
 6420SOL    HW230720   3.921   4.433   3.986 -3.9861  0.9515  0.8455
 6421SOL     OW30721   0.508   2.004   8.462  0.1716  0.1489  0.0045
 6421SOL    HW130722   0.548   1.959   8.387  0.0476 -0.1435  0.1174
 6421SOL    HW230723   0.444   1.939   8.490 -1.2488  0.6314 -2.1888
 6422SOL     OW30724   4.421   2.292   2.702  0.4397 -0.4515 -0.1301
 6422SOL    HW130725   4.370   2.348   2.644  1.7277  1.5859  0.7179
 6422SOL    HW230726   4.485   2.244   2.649  0.8160 -0.0326 -0.0515
 6423SOL     OW30727   2.381   1.734   2.240 -0.2339 -0.0922 -0.1107
 6423SOL    HW130728   2.335   1.666   2.191  0.1146 -0.2982 -0.1585
 6423SOL    HW230729   2.453   1.687   2.284 -2.2780 -1.5773  1.6656
 6424SOL     OW30730   0.462   0.633  15.029  0.0615  0.4894  0.7595
 6424SOL    HW130731   0.504   0.579  15.096  0.2553  0.5749  0.7049
 6424SOL    HW230732   0.516   0.608  14.954  1.1119 -0.6624  1.8972
 6425SOL     OW30733   1.623   3.078   1.829 -0.4924 -0.2876 -0.7036
 6425SOL    HW130734   1.650   3.110   1.742 -0.2085 -0.9259 -0.8517
 6425SOL    HW230735   1.537   3.116   1.845 -0.1583  0.1894 -0.0316
 6426SOL     OW30736   2.262   0.885   4.295  0.2188 -0.6980  0.3487
 6426SOL    HW130737   2.232   0.794   4.289 -1.1641 -0.3920  2.5378
 6426SOL    HW230738   2.222   0.904   4.380  2.0431  0.8178  0.8586
 6427SOL     OW30739   2.309   0.116  16.425 -0.5371  0.3257 -0.2011
 6427SOL    HW130740   2.385   0.130  16.369  0.8699 -0.3194  1.5463
 6427SOL    HW230741   2.272   0.203  16.435  2.0728  1.4214 -0.1582
 6428SOL     OW30742   3.050   4.013   0.929 -0.1277  0.6327  0.0542
 6428SOL    HW130743   3.097   3.936   0.959 -1.4020 -0.0199  0.3775
 6428SOL    HW230744   3.024   3.986   0.841  2.4864 -1.0454 -0.2096
 6429SOL     OW30745   2.989   3.509   1.672  0.2467  0.0088 -0.0370
 6429SOL    HW130746   2.903   3.499   1.711 -0.5099 -0.5300 -1.8529
 6429SOL    HW230747   3.005   3.602   1.661  2.0883 -0.2089  0.6667
 6430SOL     OW30748   0.832   1.244   4.327 -0.0572  0.7829  0.4397
 6430SOL    HW130749   0.817   1.219   4.236  1.4536 -2.6455  1.1130
 6430SOL    HW230750   0.761   1.304   4.351  0.7484  1.5076  0.9829
 6431SOL     OW30751   2.249   0.684  12.647 -0.0642  0.0698 -0.6002
 6431SOL    HW130752   2.155   0.695  12.632 -0.0728  0.6808 -0.1033
 6431SOL    HW230753   2.280   0.738  12.574 -2.4088  1.6575 -0.4121
 6432SOL     OW30754   1.801   0.288   6.002  0.5638 -0.2029 -0.6343
 6432SOL    HW130755   1.752   0.271   6.082  0.2175  0.6783 -0.6611
 6432SOL    HW230756   1.885   0.314   6.040  1.1022 -2.6957 -0.1231
 6433SOL     OW30757   4.648   1.664   1.841 -0.4303  0.8036 -0.0895
 6433SOL    HW130758   4.676   1.574   1.828 -1.9998  0.8540 -3.6969
 6433SOL    HW230759   0.007   1.711   1.826 -0.4552  0.5380 -1.0634
 6434SOL     OW30760   3.208   0.219   5.517  0.0811  0.4749 -0.0288
 6434SOL    HW130761   3.250   0.222   5.604 -0.9153  0.3641  0.4504
 6434SOL    HW230762   3.119   0.207   5.549 -0.3117  0.6709 -1.0593
 6435SOL     OW30763   1.782   1.087   3.394 -0.1679  0.7734 -0.2238
 6435SOL    HW130764   1.865   1.082   3.441 -0.5527 -0.9633  0.2750
 6435SOL    HW230765   1.765   1.180   3.403  0.3973  0.9704 -1.1883
 6436SOL     OW30766   0.298   3.353   1.814 -0.0079  0.1628 -0.6661
 6436SOL    HW130767   0.284   3.283   1.750 -0.0097 -0.7754  0.3637
 6436SOL    HW230768   0.391   3.360   1.791 -0.0289  0.0767 -0.7775
 6437SOL     OW30769   0.651   2.315  16.533  0.2668 -0.7127 -1.0432
 6437SOL    HW130770   0.702   2.330  16.613  0.0059 -2.0998 -0.6196
 6437SOL    HW230771   0.563   2.300  16.566  0.0667 -0.7372 -1.5797
 6438SOL     OW30772   3.054   3.699  11.414  0.3018  0.2702  0.2798
 6438SOL    HW130773   3.044   3.646  11.335 -0.5350  0.2376  0.4133
 6438SOL    HW230774   3.142   3.735  11.397  0.3300  0.0157 -0.1033
 6439SOL     OW30775   0.198   4.427  16.438 -0.6076  0.4803  0.0672
 6439SOL    HW130776   0.214   4.490  16.507 -1.4280 -0.6056  1.2422
 6439SOL    HW230777   0.252   4.351  16.460  0.3033  0.8686 -0.8313
 6440SOL     OW30778   3.580   0.122   1.618 -0.0507  0.5350  0.7396
 6440SOL    HW130779   3.617   0.134   1.706 -0.3692  0.5637  0.8676
 6440SOL    HW230780   3.509   0.065   1.648 -0.6053 -0.7055 -2.9566
 6441SOL     OW30781   0.357   3.028   3.679 -0.9257  0.1328 -0.0537
 6441SOL    HW130782   0.318   3.065   3.758 -0.3777 -1.7604  1.0876
 6441SOL    HW230783   0.321   2.940   3.667 -0.5174  0.0670 -0.8568
 6442SOL     OW30784   2.531   0.592  14.951 -0.0295  0.5430 -0.0708
 6442SOL    HW130785   2.567   0.614  14.865 -1.1424 -1.3471 -1.0026
 6442SOL    HW230786   2.543   0.672  15.002  0.9159  0.3468  0.0295
 6443SOL     OW30787   1.011   3.110   6.849  0.2322  0.1633 -0.0461
 6443SOL    HW130788   1.046   3.030   6.890  0.6113  1.5335  2.3252
 6443SOL    HW230789   1.058   3.108   6.766  0.8813  1.2260  0.2948
 6444SOL     OW30790   3.184   1.318   7.437  0.0877 -0.7093 -0.4387
 6444SOL    HW130791   3.184   1.241   7.494 -1.1637 -0.8808 -0.6719
 6444SOL    HW230792   3.100   1.305   7.392  0.1856 -1.2210 -0.4792
 6445SOL     OW30793   2.255   0.753  11.850  0.2320 -0.0944  0.1141
 6445SOL    HW130794   2.278   0.695  11.923 -0.8013  0.1003  0.5890
 6445SOL    HW230795   2.302   0.711  11.778 -0.0576 -3.2995  1.7828
 6446SOL     OW30796   2.925   0.818   1.708  0.2964 -0.0538  0.0569
 6446SOL    HW130797   2.906   0.893   1.765  0.5137 -0.3146  0.4700
 6446SOL    HW230798   2.915   0.747   1.770 -0.5165  0.7743  0.8795
 6447SOL     OW30799   2.972   1.663   3.524 -0.3930  0.1576 -0.1281
 6447SOL    HW130800   2.919   1.607   3.581  1.0976 -1.7906 -0.6768
 6447SOL    HW230801   2.910   1.705   3.464 -0.6094 -1.1162 -0.7926
 6448SOL     OW30802   1.678   2.465   9.274 -0.0854 -0.3762 -0.5224
 6448SOL    HW130803   1.711   2.537   9.221 -2.7961 -0.6962 -2.6403
 6448SOL    HW230804   1.600   2.448   9.222 -2.1042  1.9421  1.7065
 6449SOL     OW30805   3.539   2.805  12.490 -0.1602 -0.5034 -0.4672
 6449SOL    HW130806   3.538   2.750  12.568  0.4681  1.3915  0.8831
 6449SOL    HW230807   3.448   2.794  12.463 -0.8535 -2.2479  2.5947
 6450SOL     OW30808   2.604   2.977   9.381  0.1174 -0.2334 -0.1637
 6450SOL    HW130809   2.513   2.996   9.356 -0.5334 -0.3394  2.1123
 6450SOL    HW230810   2.599   2.898   9.434  2.1897 -0.8528 -0.9183
 6451SOL     OW30811   1.480   4.253   2.982  0.3914 -0.4212  0.2195
 6451SOL    HW130812   1.522   4.237   2.898  2.4060  0.1943  1.0953
 6451SOL    HW230813   1.489   4.169   3.026 -0.3792  0.1114  1.4162
 6452SOL     OW30814   2.819   2.835   4.558  0.2985 -0.3804  0.0531
 6452SOL    HW130815   2.758   2.762   4.569 -2.2279  1.1720 -3.5381
 6452SOL    HW230816   2.831   2.826   4.463  0.2622  0.7542 -0.0536
 6453SOL     OW30817   0.732   0.250   6.324  0.4842  0.3635 -0.1201
 6453SOL    HW130818   0.640   0.237   6.346  1.3611 -1.2167  2.5969
 6453SOL    HW230819   0.724   0.277   6.233 -0.7584 -2.4723 -0.8499
 6454SOL     OW30820   4.173   0.222  13.084  0.5489 -0.0650 -0.1121
 6454SOL    HW130821   4.084   0.214  13.050 -1.1655  5.0825  3.2447
 6454SOL    HW230822   4.212   0.196  13.001  0.3964 -1.0378  0.1149
 6455SOL     OW30823   1.700   2.207  14.129  0.6460  0.2757 -0.2029
 6455SOL    HW130824   1.679   2.301  14.126  1.9767  0.5307 -1.3804
 6455SOL    HW230825   1.705   2.171  14.041 -2.4201 -1.6295  0.3866
 6456SOL     OW30826   3.598   0.336   9.998 -0.0396 -0.0024  0.0852
 6456SOL    HW130827   3.648   0.378  10.068 -0.8414 -1.6598  1.6298
 6456SOL    HW230828   3.514   0.327  10.043  1.7823 -0.8878  3.2942
 6457SOL     OW30829   3.216   3.955   4.499 -0.3864 -0.0639  0.3019
 6457SOL    HW130830   3.287   4.002   4.543 -1.6288 -0.2082  2.4483
 6457SOL    HW230831   3.203   3.887   4.565  0.6673  0.0672  0.6529
 6458SOL     OW30832   0.797   1.800   8.625 -0.5491  0.6404 -0.1886
 6458SOL    HW130833   0.892   1.800   8.631 -0.6079  1.8317  0.6729
 6458SOL    HW230834   0.786   1.765   8.536  2.2706  0.0337 -0.2847
 6459SOL     OW30835   0.112   1.414   8.120  0.1400  0.3166  0.7758
 6459SOL    HW130836   0.093   1.356   8.046 -2.8596  0.3270  1.5271
 6459SOL    HW230837   0.173   1.475   8.079 -0.9989 -0.8620 -2.7106
 6460SOL     OW30838   2.851   1.240   3.449  0.4740  0.4364  0.1167
 6460SOL    HW130839   2.804   1.297   3.388  0.4456  1.3941  1.0257
 6460SOL    HW230840   2.804   1.158   3.445 -0.8450  1.2112 -0.2301
 6461SOL     OW30841   1.971   2.642   2.733 -0.1393 -0.5793  0.1850
 6461SOL    HW130842   1.945   2.552   2.752  2.0599 -1.8198 -2.8157
 6461SOL    HW230843   1.920   2.653   2.653  0.6589  0.1212 -0.2318
 6462SOL     OW30844   3.654   0.245   3.553 -0.2634  0.3571  0.0375
 6462SOL    HW130845   3.682   0.303   3.482 -1.3724  3.3032  2.0168
 6462SOL    HW230846   3.692   0.287   3.630  0.9276  0.6350 -0.6961
 6463SOL     OW30847   4.470   3.928   3.408 -0.1341  0.2730  0.6040
 6463SOL    HW130848   4.461   3.865   3.337 -2.4591  1.5733 -0.2653
 6463SOL    HW230849   4.541   3.890   3.460 -0.3330 -1.3445 -0.3230
 6464SOL     OW30850   0.611   1.539   3.630  0.7022 -0.3268 -0.1167
 6464SOL    HW130851   0.524   1.515   3.663  0.8463  2.1212  2.0635
 6464SOL    HW230852   0.631   1.461   3.578 -0.1439  1.9514 -3.8066
 6465SOL     OW30853   0.089   3.865   4.056 -0.1257  0.2053 -0.5933
 6465SOL    HW130854   0.137   3.858   3.973 -0.5138 -0.9694 -0.7165
 6465SOL    HW230855   0.120   3.951   4.085  0.2262  0.7247 -2.4684
 6466SOL     OW30856   4.683   2.211   6.702 -0.3798  0.1751  0.3268
 6466SOL    HW130857   4.715   2.282   6.757  1.1262 -1.7250  1.8877
 6466SOL    HW230858   4.622   2.257   6.645 -0.1949 -2.6829 -2.1585
 6467SOL     OW30859   0.040   1.724   8.696  0.0070  0.4279 -0.0923
 6467SOL    HW130860   4.711   1.646   8.679 -2.4853  1.7422  1.6943
 6467SOL    HW230861   0.096   1.697   8.769 -0.9698  1.4779  1.0306
 6468SOL     OW30862   1.524   4.311   4.749  0.6435 -0.9792  0.5000
 6468SOL    HW130863   1.507   4.229   4.704 -1.7048 -0.5749  0.6491
 6468SOL    HW230864   1.437   4.351   4.753  1.2232  0.2059  1.3156
 6469SOL     OW30865   3.781   3.403   2.519  0.0332 -0.1428  0.3235
 6469SOL    HW130866   3.749   3.316   2.498  0.3492 -0.6430  1.8824
 6469SOL    HW230867   3.775   3.434   2.429 -0.2263  1.6965  0.9729
 6470SOL     OW30868   4.415   2.208   9.178  0.2201  0.0616  1.3144
 6470SOL    HW130869   4.427   2.132   9.120 -1.2242  0.8235  0.0053
 6470SOL    HW230870   4.334   2.245   9.143  0.0728 -1.6207 -0.1574
 6471SOL     OW30871   0.904   2.203  13.744  0.1454 -0.5664 -0.4309
 6471SOL    HW130872   0.901   2.245  13.830  3.7717 -0.1207 -0.5130
 6471SOL    HW230873   0.993   2.221  13.713 -0.6075  0.8013 -1.7504
 6472SOL     OW30874   1.745   4.526  12.977  0.6997  0.1986 -0.4868
 6472SOL    HW130875   1.828   4.542  12.931  0.2355  0.3575 -1.2634
 6472SOL    HW230876   1.698   4.606  12.952  1.5213  0.9959  0.4927
 6473SOL     OW30877   1.473   0.348   5.360  0.2209 -0.8467  0.3659
 6473SOL    HW130878   1.516   0.291   5.423  0.3786 -1.1215  0.0120
 6473SOL    HW230879   1.384   0.312   5.361  0.3781 -1.1786  1.7302
 6474SOL     OW30880   0.125   3.198  13.255  0.8590 -0.5221 -0.4514
 6474SOL    HW130881   0.059   3.174  13.321  1.2080  1.0087  0.4579
 6474SOL    HW230882   0.189   3.238  13.313  1.1284 -1.1201 -0.3358
 6475SOL     OW30883   3.035   2.031   4.604 -0.5299  0.4983  0.0408
 6475SOL    HW130884   3.089   2.086   4.546 -1.5739  0.0582 -1.3519
 6475SOL    HW230885   3.083   1.950   4.621 -1.3132  0.3105  1.3256
 6476SOL     OW30886   4.504   3.902   3.952 -0.2780 -0.2221 -0.0968
 6476SOL    HW130887   4.590   3.944   3.947 -0.3822  0.0772  0.5483
 6476SOL    HW230888   4.519   3.821   3.904  0.2625 -0.2864  0.1768
 6477SOL     OW30889   3.000   2.344   9.768  0.0368  0.2313 -0.0915
 6477SOL    HW130890   3.064   2.297   9.821  0.7906  0.4436 -0.8360
 6477SOL    HW230891   3.055   2.352   9.691 -1.2636 -0.7620 -1.1246
 6478SOL     OW30892   2.833   0.132   6.341 -0.3938 -0.1774  0.5075
 6478SOL    HW130893   2.773   0.058   6.350 -2.4486  1.5066  0.6022
 6478SOL    HW230894   2.916   0.085   6.335  0.2563  0.9765  0.3786
 6479SOL     OW30895   3.378   2.965   2.187  0.1162 -0.3825  0.0260
 6479SOL    HW130896   3.468   2.939   2.165  0.0915  0.3157 -0.9344
 6479SOL    HW230897   3.392   3.021   2.263  0.1082  1.5841 -1.4082
 6480SOL     OW30898   4.721   1.654   7.068 -0.1599  0.0099  0.1169
 6480SOL    HW130899   0.010   1.632   6.976  0.2696 -0.5291  0.3069
 6480SOL    HW230900   4.680   1.575   7.105  1.5477 -1.6775 -1.6075
 6481SOL     OW30901   1.973   2.796   1.396 -0.0021  0.0107 -0.6662
 6481SOL    HW130902   1.955   2.758   1.482 -0.9451  2.1072  0.0543
 6481SOL    HW230903   1.896   2.766   1.347  0.6737 -0.6221 -1.3557
 6482SOL     OW30904   1.198   4.425   6.245 -0.4473 -0.3454 -0.1494
 6482SOL    HW130905   1.287   4.428   6.209 -0.8609 -1.1272 -1.2476
 6482SOL    HW230906   1.150   4.459   6.170 -1.6241 -0.6398  0.4693
 6483SOL     OW30907   2.648   2.985  13.563 -0.0445  0.0089  0.4004
 6483SOL    HW130908   2.581   2.920  13.542 -0.3745  0.8871 -1.3152
 6483SOL    HW230909   2.610   3.040  13.632 -0.6137  0.2193 -0.0787
 6484SOL     OW30910   0.317   0.116   0.759  0.4802 -0.4433 -0.1045
 6484SOL    HW130911   0.400   0.090   0.719  0.1121 -0.0605 -1.1218
 6484SOL    HW230912   0.258   0.052   0.720  1.2907 -2.3777  1.8743
 6485SOL     OW30913   2.006   2.542  15.983 -0.0417 -0.3311 -0.2132
 6485SOL    HW130914   1.916   2.525  15.956 -0.5603  0.3830  1.0700
 6485SOL    HW230915   2.000   2.632  16.016 -2.6746 -0.2959 -0.7931
 6486SOL     OW30916   3.048   2.492   6.343  0.2997  0.0102 -0.2811
 6486SOL    HW130917   3.109   2.424   6.367 -0.7116 -0.9221 -0.3537
 6486SOL    HW230918   3.055   2.492   6.247 -1.0965  0.2206 -0.3986
 6487SOL     OW30919   2.247   2.522   3.101 -0.1579 -0.2853  0.7664
 6487SOL    HW130920   2.248   2.495   3.193 -1.6127  0.2944  0.9557
 6487SOL    HW230921   2.211   2.442   3.063 -0.6885 -0.9560  2.6575
 6488SOL     OW30922   3.843   1.577   3.737  0.6291  0.3016  0.3311
 6488SOL    HW130923   3.781   1.598   3.807  0.7603  2.7895 -0.3124
 6488SOL    HW230924   3.917   1.546   3.790  1.5096  0.5485 -0.7663
 6489SOL     OW30925   1.194   2.543   1.965  0.4398 -0.1099 -0.1715
 6489SOL    HW130926   1.236   2.521   1.881 -0.0311 -0.4084 -0.3280
 6489SOL    HW230927   1.269   2.558   2.023  0.7117 -0.0398 -0.5377
 6490SOL     OW30928   3.146   0.593   5.638 -0.2445  0.1249 -0.0288
 6490SOL    HW130929   3.130   0.574   5.730 -2.2377 -2.1712 -0.8442
 6490SOL    HW230930   3.218   0.657   5.639 -1.3718  1.3698  0.6478
 6491SOL     OW30931   0.904   4.161   3.489 -0.1695  0.0944 -0.1634
 6491SOL    HW130932   0.865   4.248   3.480 -2.8404 -1.1035  0.1092
 6491SOL    HW230933   0.967   4.184   3.558 -1.8715 -0.8373  1.7023
 6492SOL     OW30934   1.013   0.745   8.496  0.0803 -0.0224  0.4215
 6492SOL    HW130935   1.024   0.695   8.415 -0.7730 -1.9907  1.5171
 6492SOL    HW230936   1.095   0.793   8.508  0.2045 -0.6785  2.1020
 6493SOL     OW30937   3.762   2.129   7.692  0.2166 -0.3171  0.0304
 6493SOL    HW130938   3.705   2.065   7.734  1.0527 -1.1205 -0.0904
 6493SOL    HW230939   3.842   2.136   7.743 -0.0843  1.3716  0.2854
 6494SOL     OW30940   4.053   3.413   9.079 -0.2320 -0.1414  0.3018
 6494SOL    HW130941   3.965   3.431   9.112 -0.4949  1.8953 -1.4582
 6494SOL    HW230942   4.086   3.503   9.085  1.0978 -0.5886 -0.4834
 6495SOL     OW30943   0.772   3.858   2.407 -0.6142  0.1989 -0.0612
 6495SOL    HW130944   0.858   3.901   2.404  0.2614 -1.4728  0.8999
 6495SOL    HW230945   0.800   3.768   2.424  0.0087  0.2715 -0.6965
 6496SOL     OW30946   3.007   0.629   9.290 -0.0041  0.0749  0.0580
 6496SOL    HW130947   3.034   0.671   9.372  0.9883  0.3456 -0.4141
 6496SOL    HW230948   2.920   0.666   9.273 -0.8468 -2.0939 -0.4460
 6497SOL     OW30949   3.805   0.470   9.192  0.4462 -0.2955 -0.4303
 6497SOL    HW130950   3.769   0.551   9.154  1.7734  0.7111  0.4761
 6497SOL    HW230951   3.843   0.424   9.117  1.1610  0.8770 -0.7979
 6498SOL     OW30952   0.443   1.967   2.069 -0.0539 -0.0504  0.5653
 6498SOL    HW130953   0.429   1.914   2.147 -0.3888 -1.5797 -0.5238
 6498SOL    HW230954   0.511   1.915   2.025 -0.9366 -0.4386 -0.3317
 6499SOL     OW30955   3.215   1.190  10.048 -0.0511  0.0366 -0.2289
 6499SOL    HW130956   3.178   1.273  10.020  1.4561  0.4636 -0.9831
 6499SOL    HW230957   3.302   1.195  10.008 -0.0523  1.5242 -0.0246
 6500SOL     OW30958   0.733   1.666   0.636  0.3898 -0.5610 -0.3878
 6500SOL    HW130959   0.704   1.685   0.726 -2.1870  0.5241 -1.4511
 6500SOL    HW230960   0.655   1.666   0.581  0.1920 -0.2354 -0.1068
 6501SOL     OW30961   1.692   2.737   6.976 -0.0610 -0.7364  0.4538
 6501SOL    HW130962   1.702   2.727   6.882 -0.2620 -0.5364  0.4111
 6501SOL    HW230963   1.626   2.806   6.975 -0.6958 -1.3293  1.4522
 6502SOL     OW30964   2.550   2.799   8.106  0.1770  0.2870  0.2386
 6502SOL    HW130965   2.599   2.738   8.051 -0.3472 -1.0365  1.2386
 6502SOL    HW230966   2.470   2.806   8.055 -0.0158  2.5081  0.8300
 6503SOL     OW30967   0.451   1.200  16.296  0.2573  0.4035  0.0047
 6503SOL    HW130968   0.519   1.227  16.235  0.0520  3.4453  1.1211
 6503SOL    HW230969   0.408   1.130  16.247  1.1003 -0.2785  0.2390
 6504SOL     OW30970   4.216   3.596   3.452 -0.0047  0.3603 -0.1703
 6504SOL    HW130971   4.198   3.689   3.442 -1.5184 -0.0976 -1.6056
 6504SOL    HW230972   4.248   3.563   3.368 -0.2327  0.2256 -0.2049
 6505SOL     OW30973   0.951   1.764   2.599 -0.4643 -0.1121  0.5990
 6505SOL    HW130974   0.903   1.704   2.541  0.5376 -0.6594  0.3326
 6505SOL    HW230975   1.026   1.712   2.625  1.0885  1.6183 -0.4562
 6506SOL     OW30976   2.317   1.262   8.515 -0.2636  0.3309  0.3030
 6506SOL    HW130977   2.223   1.280   8.519 -0.4733 -0.1244 -2.9771
 6506SOL    HW230978   2.327   1.237   8.607  1.7234 -1.5141 -0.4043
 6507SOL     OW30979   0.466   1.471   6.451 -0.2791 -0.2632 -0.1687
 6507SOL    HW130980   0.504   1.404   6.507  0.0354  0.5853  0.6231
 6507SOL    HW230981   0.530   1.542   6.447  1.7642 -1.9935  2.0276
 6508SOL     OW30982   4.193   1.003   6.600 -0.1035  0.3684  0.0539
 6508SOL    HW130983   4.220   0.961   6.682 -0.5710 -1.1758 -0.5818
 6508SOL    HW230984   4.098   1.001   6.610 -0.1868  2.6979 -0.1808
 6509SOL     OW30985   4.268   1.643  14.812 -0.1610  0.3070 -0.5512
 6509SOL    HW130986   4.241   1.552  14.811 -1.4527  0.7325 -3.5368
 6509SOL    HW230987   4.309   1.652  14.898  0.1053  0.5875 -0.7104
 6510SOL     OW30988   2.304   4.247  11.592 -0.5628  0.0412 -0.0800
 6510SOL    HW130989   2.373   4.191  11.558 -0.3398 -0.7215  1.6354
 6510SOL    HW230990   2.234   4.181  11.594  1.3754 -1.9117  1.9728
 6511SOL     OW30991   1.293   1.915   3.479 -0.6159 -0.5784  0.4094
 6511SOL    HW130992   1.384   1.939   3.460 -0.3224 -2.5436 -0.6505
 6511SOL    HW230993   1.241   1.986   3.442  2.2242  1.7471  0.8645
 6512SOL     OW30994   3.379   4.368  12.020 -0.3791  0.0896  0.9715
 6512SOL    HW130995   3.423   4.320  12.090  0.7290 -3.4334 -2.1648
 6512SOL    HW230996   3.406   4.458  12.037  1.1002 -0.4654  1.5406
 6513SOL     OW30997   1.825   4.020   4.365  0.0405  0.6161  0.5064
 6513SOL    HW130998   1.793   3.977   4.286  2.2586 -0.9380  0.4404
 6513SOL    HW230999   1.759   4.085   4.389  0.1303  0.7886  0.2869
 6514SOL     OW31000   2.245   2.445  14.315 -0.3071 -0.3563 -0.1825
 6514SOL    HW131001   2.290   2.385  14.256 -1.3562 -1.9320  0.6046
 6514SOL    HW231002   2.158   2.443  14.275 -1.2894  1.4244  1.8581
 6515SOL     OW31003   0.397   0.445   7.706 -0.2472 -0.1363 -0.3629
 6515SOL    HW131004   0.305   0.421   7.710 -0.3970  0.5713  0.3732
 6515SOL    HW231005   0.383   0.538   7.721  1.1286 -0.1140  0.8243
 6516SOL     OW31006   2.157   2.297   8.035  0.1159  0.1985 -0.3816
 6516SOL    HW131007   2.108   2.365   8.083  0.4842  1.4788 -1.8091
 6516SOL    HW231008   2.154   2.334   7.947 -1.2161 -1.8273 -1.1797
 6517SOL     OW31009   4.495   2.752  15.331  0.2430  0.1550 -0.2937
 6517SOL    HW131010   4.446   2.805  15.394 -0.2871  0.5877 -1.0700
 6517SOL    HW231011   4.478   2.799  15.249 -1.2905 -0.8810 -0.5484
 6518SOL     OW31012   2.866   2.730   2.282 -0.3287  0.5249 -0.2192
 6518SOL    HW131013   2.778   2.718   2.245 -0.9612 -2.2521  2.2273
 6518SOL    HW231014   2.840   2.743   2.373 -0.8488  0.5153 -0.3663
 6519SOL     OW31015   2.879   3.365   1.986  0.0274  0.2319  0.2980
 6519SOL    HW131016   2.896   3.456   2.010  0.0389  0.4318 -0.4514
 6519SOL    HW231017   2.840   3.360   1.898  3.0264 -0.9900 -0.9824
 6520SOL     OW31018   4.374   2.720   6.347  0.6655  0.1296  1.0014
 6520SOL    HW131019   4.464   2.707   6.376  1.2885  0.3323 -0.8400
 6520SOL    HW231020   4.394   2.698   6.256  0.2086  2.8149  0.2351
 6521SOL     OW31021   0.419   3.046   4.464 -0.0212  0.7205  0.4956
 6521SOL    HW131022   0.331   3.054   4.428  0.8681  2.2178 -1.3665
 6521SOL    HW231023   0.394   3.026   4.554  0.3943 -0.4704  0.3548
 6522SOL     OW31024   2.828   2.335   8.426 -0.4863  0.3954 -0.3396
 6522SOL    HW131025   2.843   2.421   8.464 -0.0848  0.6817 -1.1668
 6522SOL    HW231026   2.886   2.286   8.485 -2.7216 -1.4486  0.3260
 6523SOL     OW31027   3.504   0.512   4.939  0.6624 -0.2707 -0.0340
 6523SOL    HW131028   3.531   0.478   4.853  0.1105 -0.1850 -0.2440
 6523SOL    HW231029   3.473   0.426   4.969 -2.2632  0.4884 -0.9022
 6524SOL     OW31030   1.086   3.435  11.088 -0.0005  0.4970  0.0044
 6524SOL    HW131031   1.123   3.513  11.046  1.1014  0.8601  1.6509
 6524SOL    HW231032   1.053   3.469  11.170  0.2295 -0.6414  0.5693
 6525SOL     OW31033   0.677   4.027   9.961 -0.6736  0.2381 -0.2848
 6525SOL    HW131034   0.664   4.092  10.030  0.5943 -0.5197  0.6588
 6525SOL    HW231035   0.696   3.948  10.010 -1.0390 -0.3780 -1.1248
 6526SOL     OW31036   3.198   3.155   8.102  0.0424  0.3481  0.4833
 6526SOL    HW131037   3.259   3.124   8.035 -1.7510 -0.2742 -0.8509
 6526SOL    HW231038   3.261   3.157   8.174  0.0778  0.9074  0.4345
 6527SOL     OW31039   2.617   1.710   9.787 -0.2678 -0.1614  0.3952
 6527SOL    HW131040   2.596   1.771   9.716  0.0933 -0.0009  0.4301
 6527SOL    HW231041   2.710   1.696   9.771 -0.1343 -0.0562  1.0862
 6528SOL     OW31042   4.670   1.754   1.568 -0.0889 -0.0705  0.6892
 6528SOL    HW131043   4.627   1.809   1.502  2.7522 -1.6583 -2.4929
 6528SOL    HW231044   4.603   1.747   1.636 -0.4597  0.4606  0.3806
 6529SOL     OW31045   1.356   4.608   0.146  0.4481 -0.2539  0.1746
 6529SOL    HW131046   1.425   4.542   0.150 -0.2041 -0.8447  2.1416
 6529SOL    HW231047   1.394   4.674   0.089 -1.8176  0.2697 -0.7176
 6530SOL     OW31048   3.652   1.770   5.808 -0.1166  0.1047 -0.1475
 6530SOL    HW131049   3.642   1.831   5.882 -1.8425 -0.7857  0.3388
 6530SOL    HW231050   3.677   1.825   5.735 -1.3624 -0.7262 -1.1918
 6531SOL     OW31051   4.038   3.093   9.442  0.0774 -0.5788  0.5484
 6531SOL    HW131052   3.965   3.155   9.443 -1.5302 -2.4428  0.7193
 6531SOL    HW231053   4.034   3.052   9.355 -0.6021  2.2913 -0.7557
 6532SOL     OW31054   3.367   4.257   5.653 -0.0510  0.4849 -0.5479
 6532SOL    HW131055   3.316   4.319   5.601 -0.7837  1.6800  1.5893
 6532SOL    HW231056   3.449   4.266   5.604  1.9764 -1.4139  2.4960
 6533SOL     OW31057   2.693   0.360   3.918 -0.7416 -0.0786 -0.0238
 6533SOL    HW131058   2.718   0.400   3.835  3.2880  2.2590  2.3216
 6533SOL    HW231059   2.777   0.366   3.963 -1.8212  0.4916  1.9390
 6534SOL     OW31060   2.603   1.872   5.471 -0.2666  0.2958  0.1511
 6534SOL    HW131061   2.533   1.874   5.406 -0.2832  1.9324  0.2106
 6534SOL    HW231062   2.586   1.800   5.532  1.1142 -1.4814 -1.5741
 6535SOL     OW31063   1.348   4.133  14.278 -0.0368 -0.3712 -0.8422
 6535SOL    HW131064   1.431   4.179  14.277 -0.8497  1.2638  3.5766
 6535SOL    HW231065   1.372   4.042  14.295  2.4428  0.7809  1.9125
 6536SOL     OW31066   3.760   4.581   5.520 -0.1456 -0.0791  0.5226
 6536SOL    HW131067   3.698   4.642   5.480  0.9645  0.6628 -0.0906
 6536SOL    HW231068   3.717   4.556   5.601 -0.2850 -0.8483  0.2035
 6537SOL     OW31069   3.860   3.893   7.799  0.0293  0.0085  0.0959
 6537SOL    HW131070   3.839   3.900   7.891  1.8944 -1.2736  0.6359
 6537SOL    HW231071   3.851   3.984   7.773 -2.3466 -0.2431  0.0854
 6538SOL     OW31072   3.119   0.309   6.640  0.2648 -0.5370  0.3730
 6538SOL    HW131073   3.094   0.341   6.727  0.2677 -0.6316  0.4090
 6538SOL    HW231074   3.041   0.327   6.588  1.4020  0.4954 -0.9569
 6539SOL     OW31075   2.449   2.329   7.750 -0.0029  0.3166 -0.4168
 6539SOL    HW131076   2.450   2.281   7.833  0.7315  1.4955  0.2454
 6539SOL    HW231077   2.532   2.288   7.724  0.0076 -0.7465  1.2661
 6540SOL     OW31078   0.704   0.545   5.841 -0.0475  0.1065 -0.1664
 6540SOL    HW131079   0.706   0.586   5.754  1.4967 -1.3630 -0.8240
 6540SOL    HW231080   0.685   0.624   5.892 -0.9698 -0.3858  0.2321
 6541SOL     OW31081   3.081   1.141   4.965  0.1311 -0.0544  0.1280
 6541SOL    HW131082   3.143   1.168   5.033  2.0540 -0.1926 -1.5944
 6541SOL    HW231083   3.099   1.047   4.964 -0.4513 -0.1809  0.9893
 6542SOL     OW31084   2.366   4.477  11.701 -0.2896 -0.5661 -0.2884
 6542SOL    HW131085   2.337   4.390  11.673 -0.8235  0.3631 -2.6148
 6542SOL    HW231086   2.301   4.538  11.664 -0.8731  0.5453  2.6002
 6543SOL     OW31087   3.922   3.027   4.648  0.4039  0.1601 -1.0617
 6543SOL    HW131088   3.840   2.985   4.621  0.2849  1.2080 -2.3012
 6543SOL    HW231089   3.916   3.110   4.602  0.2259  1.1887  0.8435
 6544SOL     OW31090   3.762   3.721  14.540 -0.2452 -0.3201  0.2281
 6544SOL    HW131091   3.706   3.773  14.483 -0.9098 -0.7204  0.5151
 6544SOL    HW231092   3.845   3.738  14.497  0.5140 -1.6521  1.1463
 6545SOL     OW31093   4.659   2.518   5.950  0.0936  0.2372  0.3200
 6545SOL    HW131094   0.010   2.510   6.009  2.5801 -1.1814 -2.9962
 6545SOL    HW231095   4.704   2.552   5.872  2.0325  0.4691  1.5360
 6546SOL     OW31096   0.198   1.455  11.731 -0.2459 -0.3466 -0.6664
 6546SOL    HW131097   0.153   1.422  11.654  1.6043  0.8446 -2.2408
 6546SOL    HW231098   0.285   1.417  11.725  0.1552  0.2114  1.3791
 6547SOL     OW31099   1.502   3.197   1.319 -0.4983  0.4890  0.3140
 6547SOL    HW131100   1.566   3.268   1.309  0.5487 -0.5820 -0.6123
 6547SOL    HW231101   1.458   3.213   1.403 -1.8650  1.0025 -0.5094
 6548SOL     OW31102   3.866   1.774   3.554  0.1027 -0.4037  0.0164
 6548SOL    HW131103   3.861   1.702   3.617  1.7383  0.6320  1.3202
 6548SOL    HW231104   3.826   1.837   3.613  0.9226  0.0956  0.0287
 6549SOL     OW31105   3.654   4.539   7.056  0.5706 -0.2415 -0.1772
 6549SOL    HW131106   3.682   4.609   6.997 -0.8559  1.4319  1.1662
 6549SOL    HW231107   3.718   4.551   7.126 -1.6533 -0.2035  1.8406
 6550SOL     OW31108   3.590   1.887   4.155  0.6357 -0.5305 -0.8918
 6550SOL    HW131109   3.516   1.839   4.191  0.5031  0.9172  0.7441
 6550SOL    HW231110   3.551   1.921   4.074 -0.3099 -2.6918 -1.3640
 6551SOL     OW31111   3.366   1.811   6.457 -0.1977  0.4093 -0.1391
 6551SOL    HW131112   3.412   1.730   6.480 -0.0569  0.3968 -0.4714
 6551SOL    HW231113   3.312   1.819   6.536 -0.4553  0.7995 -0.3584
 6552SOL     OW31114   3.691   0.246   0.610 -0.5225 -0.5439  0.4197
 6552SOL    HW131115   3.623   0.208   0.665 -0.0182 -2.8238 -0.5134
 6552SOL    HW231116   3.757   0.272   0.674 -2.0384 -2.2461  2.6266
 6553SOL     OW31117   2.323   4.474   1.426 -0.3891  0.4808 -0.3849
 6553SOL    HW131118   2.278   4.551   1.458 -0.1502  0.6146 -0.3668
 6553SOL    HW231119   2.256   4.412   1.453  0.7808 -0.8384 -0.4878
 6554SOL     OW31120   0.591   0.390   6.886  0.4523  0.1143  0.3865
 6554SOL    HW131121   0.540   0.333   6.942  0.8550 -0.8756 -0.2415
 6554SOL    HW231122   0.619   0.329   6.818 -1.4673  0.2931 -0.5537
 6555SOL     OW31123   3.450   4.467   5.157 -0.2690  0.6798 -0.2607
 6555SOL    HW131124   3.431   4.376   5.182  1.4394 -0.3751 -2.7980
 6555SOL    HW231125   3.403   4.475   5.074  1.2820 -1.7336 -1.3707
 6556SOL     OW31126   3.355   4.031   4.273  0.0697 -0.0692 -0.2426
 6556SOL    HW131127   3.308   4.005   4.352 -0.6622  0.1782 -0.6010
 6556SOL    HW231128   3.283   4.062   4.219 -0.8543 -2.1925 -0.2281
 6557SOL     OW31129   0.126   0.118   0.419  0.2000 -0.1377  0.1150
 6557SOL    HW131130   0.132   0.114   0.323 -0.2267 -2.8500  0.1865
 6557SOL    HW231131   0.165   0.203   0.438  2.2457 -0.7585 -1.2658
 6558SOL     OW31132   1.537   3.303   3.529 -0.9712  0.1436 -0.1756
 6558SOL    HW131133   1.562   3.228   3.477 -0.3140 -2.2980  3.6421
 6558SOL    HW231134   1.452   3.311   3.486 -1.4179  1.3854  0.9176
 6559SOL     OW31135   0.727   1.127   6.493  0.0029 -0.3982 -0.1254
 6559SOL    HW131136   0.783   1.157   6.421  0.6135  1.7126  1.2144
 6559SOL    HW231137   0.765   1.043   6.519  2.2063  0.7990  0.5585
 6560SOL     OW31138   2.936   0.122   3.073  0.0589  0.3538  0.5802
 6560SOL    HW131139   2.893   0.141   3.156  0.1072  0.2873  0.6204
 6560SOL    HW231140   2.873   0.065   3.029 -0.2441  1.6992 -0.7050
 6561SOL     OW31141   0.795   0.751   9.481  0.1907 -0.1282  0.5070
 6561SOL    HW131142   0.821   0.783   9.568  1.6300 -0.9166  0.3619
 6561SOL    HW231143   0.712   0.705   9.499  1.1257 -2.0356 -0.0741
 6562SOL     OW31144   3.301   1.828   7.100 -0.1944 -0.2940  0.2527
 6562SOL    HW131145   3.303   1.745   7.147 -2.4456  0.4454  1.6966
 6562SOL    HW231146   3.217   1.868   7.124 -0.0055  0.0403  0.3556
 6563SOL     OW31147   0.136   0.444   2.277  0.2525  0.2161 -0.7023
 6563SOL    HW131148   0.184   0.412   2.201  2.2530  0.2579  0.5364
 6563SOL    HW231149   0.173   0.531   2.292  2.6814 -1.0200  0.6857
 6564SOL     OW31150   0.571   0.219  15.330 -0.0357  0.0866  0.5259
 6564SOL    HW131151   0.618   0.220  15.246 -1.0179  1.0358 -0.0287
 6564SOL    HW231152   0.511   0.145  15.319 -1.2165  1.3578 -1.7578
 6565SOL     OW31153   0.817   1.125   1.752 -0.1314  0.7837  0.4650
 6565SOL    HW131154   0.819   1.153   1.661  2.7316  0.7991  0.5384
 6565SOL    HW231155   0.794   1.207   1.794 -2.3713  0.8857 -0.9632
 6566SOL     OW31156   4.280   4.179  14.784 -0.2145 -0.3444  0.1478
 6566SOL    HW131157   4.271   4.266  14.745  0.1616 -0.7276 -0.7969
 6566SOL    HW231158   4.198   4.169  14.833 -0.1380  0.4232  0.4205
 6567SOL     OW31159   1.235   3.672   4.317  0.0813 -0.4382 -0.0407
 6567SOL    HW131160   1.311   3.729   4.323  0.1416 -0.3160 -1.8572
 6567SOL    HW231161   1.254   3.638   4.229  2.4314  0.0016  0.3084
 6568SOL     OW31162   3.639   0.545   3.116  0.3943  0.5892 -0.4663
 6568SOL    HW131163   3.607   0.490   3.044 -1.7666  0.2337  0.7600
 6568SOL    HW231164   3.664   0.625   3.069 -0.1459  0.9633 -0.1248
 6569SOL     OW31165   1.727   2.785   8.240  0.1749 -0.8969 -0.0190
 6569SOL    HW131166   1.813   2.820   8.262  0.1246 -1.7231  1.4609
 6569SOL    HW231167   1.732   2.690   8.251  0.8779 -1.1122 -2.0384
 6570SOL     OW31168   2.150   3.096   8.792  0.0475  0.1708 -0.2653
 6570SOL    HW131169   2.105   3.151   8.857  0.7477 -0.9032  1.1050
 6570SOL    HW231170   2.159   3.026   8.856 -2.1644  2.2775  2.3676
 6571SOL     OW31171   3.239   3.131   7.531  0.1226  0.0951  0.1040
 6571SOL    HW131172   3.243   3.057   7.471 -1.2731  1.0997 -1.2262
 6571SOL    HW231173   3.333   3.137   7.546  0.0830  1.2577 -0.0949
 6572SOL     OW31174   1.409   2.096   5.727 -0.1598 -0.4690  0.6682
 6572SOL    HW131175   1.479   2.133   5.673  0.3653  1.7620  2.8877
 6572SOL    HW231176   1.443   2.020   5.773 -0.0404 -0.5869  0.3817
 6573SOL     OW31177   1.733   0.818   3.402  0.0662  0.0856 -0.1597
 6573SOL    HW131178   1.730   0.912   3.389 -0.5386 -0.4111 -3.8339
 6573SOL    HW231179   1.793   0.804   3.328  1.4481  2.2718  0.5665
 6574SOL     OW31180   1.895   0.268   2.919 -0.1727 -0.2900 -0.0968
 6574SOL    HW131181   1.910   0.352   2.876  0.4199  0.6625  1.9549
 6574SOL    HW231182   1.900   0.198   2.853 -0.5179 -0.6771  0.2786
 6575SOL     OW31183   2.273   1.683   0.635 -0.2686  0.3524  0.1093
 6575SOL    HW131184   2.360   1.692   0.673  0.5031 -0.4909 -1.4900
 6575SOL    HW231185   2.238   1.767   0.665 -2.8596 -0.1487 -1.4944
 6576SOL     OW31186   3.289   2.769   6.357  0.1957  0.0122  0.3469
 6576SOL    HW131187   3.213   2.758   6.300  0.6174  0.5753 -0.3286
 6576SOL    HW231188   3.251   2.819   6.429  2.0445  1.1816  0.5224
 6577SOL     OW31189   4.683   4.263  11.407 -0.2213  0.0442 -0.0331
 6577SOL    HW131190   0.037   4.240  11.458 -1.2913 -1.3967  0.9527
 6577SOL    HW231191   4.629   4.184  11.410  1.2729 -1.0098 -1.0509
 6578SOL     OW31192   0.761   3.557  12.854 -0.0001  0.2474 -0.1325
 6578SOL    HW131193   0.816   3.613  12.909  0.3781  0.3716 -0.6451
 6578SOL    HW231194   0.718   3.493  12.912 -0.3056  0.0554 -0.5690
 6579SOL     OW31195   0.368   0.420   8.435  0.5792  0.2877 -0.1275
 6579SOL    HW131196   0.293   0.420   8.495  1.6552 -2.0169  1.2521
 6579SOL    HW231197   0.441   0.446   8.492 -0.5772 -2.7441  2.7655
 6580SOL     OW31198   1.670   2.525   2.527  0.1377 -0.0612 -0.5055
 6580SOL    HW131199   1.689   2.583   2.454  2.5866 -0.6542 -0.3244
 6580SOL    HW231200   1.578   2.525   2.502  0.3596 -0.2020 -1.2994
 6581SOL     OW31201   3.339   0.800   8.369  0.1749 -0.4923 -0.0333
 6581SOL    HW131202   3.422   0.826   8.409 -0.9335  2.9376  0.0003
 6581SOL    HW231203   3.313   0.885   8.335  0.8241 -0.0459  0.6063
 6582SOL     OW31204   3.778   3.126   3.686 -0.5453  0.0227 -0.7114
 6582SOL    HW131205   3.756   3.035   3.664 -1.4480 -0.3057  1.6313
 6582SOL    HW231206   3.776   3.164   3.598 -0.1742 -0.1470 -0.7920
 6583SOL     OW31207   1.375   4.245   3.799  0.4993 -0.1045  0.2262
 6583SOL    HW131208   1.454   4.241   3.853  1.3305 -0.1660 -1.0192
 6583SOL    HW231209   1.346   4.337   3.805  0.4529 -0.1351  0.4664
 6584SOL     OW31210   3.394   1.770   9.082  0.3510  0.4962 -0.4041
 6584SOL    HW131211   3.434   1.854   9.061  2.3828 -0.6031 -0.9508
 6584SOL    HW231212   3.469   1.713   9.063  0.3651  0.1293  0.7233
 6585SOL     OW31213   1.024   1.121   7.731 -0.1729 -0.6952 -0.2782
 6585SOL    HW131214   1.118   1.107   7.715  0.9476  2.4666  3.4975
 6585SOL    HW231215   1.010   1.040   7.781 -0.2864 -0.0106  0.7890
 6586SOL     OW31216   4.499   0.869   3.888 -0.0051  0.0463  0.2559
 6586SOL    HW131217   4.407   0.849   3.908  0.1523  0.2311  1.1710
 6586SOL    HW231218   4.548   0.837   3.964 -0.6011 -0.2540  0.5188
 6587SOL     OW31219   2.828   0.643   7.488  0.2961 -0.4327  0.2872
 6587SOL    HW131220   2.906   0.685   7.525  0.7158 -1.8604  1.0079
 6587SOL    HW231221   2.857   0.553   7.501  2.6592  0.2066 -0.5307
 6588SOL     OW31222   4.401   3.774   2.080  0.0837 -0.0501 -0.0953
 6588SOL    HW131223   4.357   3.738   2.003 -0.3868 -0.2223  0.2528
 6588SOL    HW231224   4.480   3.719   2.077 -0.4539 -0.9083  1.3070
 6589SOL     OW31225   3.065   4.247   2.621  0.1023 -0.2937  0.2311
 6589SOL    HW131226   3.104   4.334   2.632 -0.6470 -0.2643  2.6959
 6589SOL    HW231227   3.002   4.272   2.554 -2.0761 -0.3559  2.2290
 6590SOL     OW31228   0.802   1.852   2.260  0.0125 -0.3135 -0.0488
 6590SOL    HW131229   0.800   1.768   2.307 -0.3985 -0.0977  0.3202
 6590SOL    HW231230   0.889   1.872   2.292 -0.3128  0.7127  0.1765
 6591SOL     OW31231   0.722   3.889  13.340 -0.4912  0.1247 -0.5234
 6591SOL    HW131232   0.734   3.795  13.347 -1.1444  0.0775 -0.0098
 6591SOL    HW231233   0.728   3.912  13.433  1.2927 -0.5023 -0.4848
 6592SOL     OW31234   3.211   1.038   6.321 -0.0345  0.3177 -0.0748
 6592SOL    HW131235   3.189   1.077   6.405 -1.0655  0.1327 -0.2515
 6592SOL    HW231236   3.304   1.019   6.326 -0.2661 -0.6328  0.6629
 6593SOL     OW31237   1.813   1.573   7.049  0.3989 -0.5100  0.0354
 6593SOL    HW131238   1.759   1.647   7.021 -1.0417 -1.0341  1.4352
 6593SOL    HW231239   1.898   1.589   7.007  0.1838 -2.3199 -1.0947
 6594SOL     OW31240   0.880   0.942  16.643 -0.2288 -0.3597 -0.3207
 6594SOL    HW131241   0.825   0.961  16.568 -0.7760  2.1765  0.7249
 6594SOL    HW231242   0.965   0.974  16.611 -0.5447  0.4680 -0.3406
 6595SOL     OW31243   3.883   3.186  17.088 -0.1932  0.5729  0.2714
 6595SOL    HW131244   3.905   3.259  17.147  1.3414  1.1745 -1.0492
 6595SOL    HW231245   3.840   3.127  17.150 -0.2053  0.8785  0.5559
 6596SOL     OW31246   4.296   3.300   5.434 -0.2511 -1.0103 -0.5919
 6596SOL    HW131247   4.342   3.217   5.442  0.0145 -0.6853  1.3261
 6596SOL    HW231248   4.219   3.274   5.383 -2.1594  0.5075  1.5127
 6597SOL     OW31249   1.210   1.404   8.577  0.2950 -0.3297 -0.4464
 6597SOL    HW131250   1.269   1.410   8.652 -0.7263  1.1531  0.2338
 6597SOL    HW231251   1.238   1.324   8.532  1.2982 -2.0006  3.2017
 6598SOL     OW31252   1.970   2.637  11.606 -0.5042  0.4166 -0.2867
 6598SOL    HW131253   1.959   2.547  11.575 -1.6172  0.2808  0.4955
 6598SOL    HW231254   2.004   2.686  11.531 -1.0556 -0.1683 -0.9169
 6599SOL     OW31255   3.408   3.186   7.879 -0.3700 -0.1588  0.1704
 6599SOL    HW131256   3.447   3.204   7.793  0.2087  0.2172  0.5104
 6599SOL    HW231257   3.361   3.104   7.865  1.1184 -0.9741 -0.0955
 6600SOL     OW31258   2.330   3.351   1.993 -0.0669 -0.0450  0.5396
 6600SOL    HW131259   2.311   3.261   1.967 -1.2031  0.6702 -1.0376
 6600SOL    HW231260   2.423   3.342   2.012 -0.1257 -1.0730  0.3167
 6601SOL     OW31261   3.117   1.470   8.643 -0.4032 -0.3598  0.6770
 6601SOL    HW131262   3.049   1.460   8.576 -1.7958  2.0144  1.7298
 6601SOL    HW231263   3.118   1.381   8.677  0.1174 -0.8838 -0.6947
 6602SOL     OW31264   3.073   1.840   8.211  0.0746  0.6338 -0.4239
 6602SOL    HW131265   2.992   1.888   8.193 -0.5613  0.4315  1.7822
 6602SOL    HW231266   3.047   1.753   8.181 -1.9113  0.8000  0.7933
 6603SOL     OW31267   3.406   3.605   7.336 -0.4739  0.6563  0.0136
 6603SOL    HW131268   3.366   3.591   7.423  0.0296  1.3450  0.3534
 6603SOL    HW231269   3.486   3.650   7.363 -0.0235  0.2831 -0.7210
 6604SOL     OW31270   4.714   3.852   2.305  0.4235 -0.2241 -0.3978
 6604SOL    HW131271   4.676   3.789   2.244 -2.7109  1.7429 -0.5315
 6604SOL    HW231272   0.062   3.797   2.334  0.1216 -0.6097 -0.3868
 6605SOL     OW31273   0.657   0.405   8.579 -0.0544 -0.0421  0.1326
 6605SOL    HW131274   0.731   0.452   8.538  1.5057 -1.7252  1.0273
 6605SOL    HW231275   0.693   0.317   8.568 -1.8945 -0.7659  0.0104
 6606SOL     OW31276   0.612   0.307   1.737  0.0373  0.2804  0.4163
 6606SOL    HW131277   0.565   0.227   1.712  0.5622 -0.3045  1.3240
 6606SOL    HW231278   0.545   0.375   1.725 -0.2941 -0.4574 -1.9506
 6607SOL     OW31279   2.811   2.410  13.300 -0.7172 -0.5681 -0.4682
 6607SOL    HW131280   2.884   2.412  13.362 -0.0174 -1.0189 -1.2851
 6607SOL    HW231281   2.822   2.327  13.253  1.9090  0.4123 -1.6179
 6608SOL     OW31282   4.288   1.039   7.909 -0.0074 -0.5002  0.1047
 6608SOL    HW131283   4.221   1.107   7.895  2.4001  1.6875 -0.7133
 6608SOL    HW231284   4.314   1.049   8.001  0.2385 -1.1495  0.1044
 6609SOL     OW31285   1.999   3.807   0.263 -0.1232  0.2879 -1.2476
 6609SOL    HW131286   1.904   3.807   0.250 -0.3668 -1.0327  0.5849
 6609SOL    HW231287   2.004   3.765   0.349  0.5380  2.8667 -0.0331
 6610SOL     OW31288   0.928   0.258  13.670 -0.2135  0.1027 -0.4830
 6610SOL    HW131289   0.860   0.322  13.687  0.9226  0.5258  2.4366
 6610SOL    HW231290   0.947   0.289  13.581 -2.0353 -0.1500 -0.9552
 6611SOL     OW31291   3.669   2.996   2.619  0.6231 -0.4812  0.0520
 6611SOL    HW131292   3.681   2.953   2.534 -1.6594 -1.9082  0.4639
 6611SOL    HW231293   3.622   3.073   2.589 -1.5256 -1.9342 -0.3183
 6612SOL     OW31294   3.421   0.319   1.987 -0.0678  0.0645  0.8056
 6612SOL    HW131295   3.355   0.267   1.940 -1.4316  1.1884  1.4822
 6612SOL    HW231296   3.486   0.252   2.009  0.1272 -0.5503 -1.6774
 6613SOL     OW31297   1.746   1.706  16.060 -0.1266  0.2770  0.5402
 6613SOL    HW131298   1.714   1.786  16.100 -0.9266 -0.1328  0.7235
 6613SOL    HW231299   1.695   1.641  16.108 -2.1980  0.6815 -1.1070
 6614SOL     OW31300   4.603   0.534   2.365  0.3084 -0.0684 -0.1785
 6614SOL    HW131301   4.559   0.458   2.326  2.2396 -0.4050 -1.7182
 6614SOL    HW231302   4.695   0.508   2.360 -0.2967 -1.8515 -2.2131
 6615SOL     OW31303   3.384   3.830   2.950  0.3652 -0.1749 -0.1595
 6615SOL    HW131304   3.461   3.861   2.997  0.0297 -1.2989  1.1333
 6615SOL    HW231305   3.381   3.741   2.984  3.3666 -0.5746 -1.0350
 6616SOL     OW31306   1.510   1.333   4.695 -0.0158  0.1654 -0.2731
 6616SOL    HW131307   1.476   1.423   4.693  0.0109  0.1650 -0.7914
 6616SOL    HW231308   1.604   1.348   4.706 -0.6161  0.4393  4.2294
 6617SOL     OW31309   2.532   1.749   4.636  0.2354  0.3695 -0.1573
 6617SOL    HW131310   2.513   1.842   4.648 -1.1549  0.0135  0.4522
 6617SOL    HW231311   2.558   1.736   4.728 -0.8206 -2.5472 -0.2772
 6618SOL     OW31312   3.959   2.514   4.807  0.4072 -0.0326 -0.1250
 6618SOL    HW131313   4.052   2.534   4.801  0.5395 -0.7307 -0.4528
 6618SOL    HW231314   3.967   2.433   4.756 -0.1550 -0.7609  0.9393
 6619SOL     OW31315   1.002   3.970   2.432 -0.1278  0.3418  0.2740
 6619SOL    HW131316   1.066   3.962   2.502  1.2051 -0.3646 -1.0361
 6619SOL    HW231317   1.058   3.986   2.356  0.8606 -2.0441  0.5348
 6620SOL     OW31318   1.443   4.349   1.820 -0.3064 -0.4163  0.6496
 6620SOL    HW131319   1.488   4.335   1.736  1.2369 -2.0975  1.7482
 6620SOL    HW231320   1.400   4.434   1.809  1.8742  0.5481 -0.5099
 6621SOL     OW31321   3.425   1.994   9.514  0.2664 -0.1473  0.1590
 6621SOL    HW131322   3.443   2.054   9.587  2.1959  0.0311 -0.4761
 6621SOL    HW231323   3.329   1.998   9.509  0.3815  0.7870 -1.3032
 6622SOL     OW31324   1.163   0.122   2.669 -0.3861  0.1496 -0.9906
 6622SOL    HW131325   1.246   0.158   2.701  0.1196 -0.1530 -1.9466
 6622SOL    HW231326   1.179   0.028   2.664 -0.4670  0.1360 -0.9849
 6623SOL     OW31327   4.382   3.779  12.005  0.1511  0.3091 -0.2275
 6623SOL    HW131328   4.376   3.774  11.910  3.1485  0.4498 -0.3981
 6623SOL    HW231329   4.322   3.852  12.022  0.8744  0.7665  0.3463
 6624SOL     OW31330   2.285   3.098   8.029  0.1480 -0.0264 -0.2467
 6624SOL    HW131331   2.344   3.153   7.977 -1.1131 -0.5820 -2.2518
 6624SOL    HW231332   2.325   3.103   8.116 -3.3538  0.1989  1.3598
 6625SOL     OW31333   3.123   4.097   4.177  0.3999  0.1053  0.4189
 6625SOL    HW131334   3.081   4.181   4.196 -0.7840 -0.7937  1.7312
 6625SOL    HW231335   3.090   4.085   4.088 -0.2387 -1.9182  0.9287
 6626SOL     OW31336   0.457   2.424   5.834 -0.5346 -0.3398 -0.0961
 6626SOL    HW131337   0.515   2.499   5.827 -0.4097 -0.4374 -0.1088
 6626SOL    HW231338   0.374   2.466   5.809  1.0733  0.9075 -3.3694
 6627SOL     OW31339   1.236   3.574   9.172 -0.0788  0.6392  0.2596
 6627SOL    HW131340   1.219   3.660   9.210 -0.7420 -0.5973  2.7208
 6627SOL    HW231341   1.230   3.511   9.243  0.0195 -1.3899 -1.5102
 6628SOL     OW31342   0.413   4.027   8.763  0.4602  0.6607  0.7034
 6628SOL    HW131343   0.498   3.999   8.727  0.6340 -0.6889  2.1703
 6628SOL    HW231344   0.369   3.943   8.753 -0.2974  1.1072  0.3154
 6629SOL     OW31345   4.198   4.606   3.932 -0.4652  0.0812  0.0417
 6629SOL    HW131346   4.254   4.537   3.968 -1.6091 -0.9068 -0.0972
 6629SOL    HW231347   4.109   4.571   3.939 -0.1608 -1.0263 -1.4770
 6630SOL     OW31348   2.969   3.538  15.782 -0.2226  0.2257  0.3427
 6630SOL    HW131349   3.059   3.505  15.779 -0.4620 -0.2998 -1.4825
 6630SOL    HW231350   2.973   3.619  15.731  1.1581 -0.5073 -0.6998
 6631SOL     OW31351   3.580   0.932  14.017 -0.4473  0.2175 -0.0923
 6631SOL    HW131352   3.667   0.917  13.980 -0.4943  1.3695 -0.6699
 6631SOL    HW231353   3.563   0.848  14.060  0.2276  1.1288  1.9521
 6632SOL     OW31354   2.565   0.150   6.941  0.1227 -0.2300  0.1773
 6632SOL    HW131355   2.629   0.138   6.871 -1.0619 -0.4128 -0.8559
 6632SOL    HW231356   2.527   0.062   6.946 -2.4426  0.8540 -0.1168
 6633SOL     OW31357   2.816   0.607   4.134 -0.0917  0.3394 -0.0834
 6633SOL    HW131358   2.863   0.548   4.075  1.3073  2.3640 -0.9945
 6633SOL    HW231359   2.820   0.548   4.210  2.0460  1.0574  0.3674
 6634SOL     OW31360   3.396   1.579  10.746  0.0495  0.7490  0.3115
 6634SOL    HW131361   3.478   1.622  10.723  0.3863 -0.3072 -0.4773
 6634SOL    HW231362   3.414   1.565  10.839  2.7365  0.6607 -0.2227
 6635SOL     OW31363   3.413   2.478  14.770  0.6334  0.9006 -0.6624
 6635SOL    HW131364   3.405   2.485  14.675  0.3549  0.4916 -0.6694
 6635SOL    HW231365   3.467   2.550  14.803  0.0853  0.8008  0.4723
 6636SOL     OW31366   1.359   1.148   3.787  0.2884 -0.3230 -0.2567
 6636SOL    HW131367   1.344   1.224   3.844 -1.7997 -1.5272  0.8334
 6636SOL    HW231368   1.417   1.187   3.723 -1.6226  1.0718 -1.1192
 6637SOL     OW31369   0.426   3.234  16.002  0.2239  0.0053  0.5408
 6637SOL    HW131370   0.373   3.259  16.077 -0.0245 -0.9664  0.6983
 6637SOL    HW231371   0.362   3.207  15.936  0.5684 -1.4379  0.7936
 6638SOL     OW31372   2.033   4.032   5.824 -0.2573 -0.0171 -0.3855
 6638SOL    HW131373   2.070   4.045   5.736  0.9696 -0.6509  0.0396
 6638SOL    HW231374   2.035   4.112   5.876  0.3494 -1.7818  2.2939
 6639SOL     OW31375   0.104   0.693   6.886  0.4735  0.0323  0.3148
 6639SOL    HW131376   0.124   0.783   6.912 -1.3032 -0.0042  1.7575
 6639SOL    HW231377   0.180   0.664   6.836  0.7772  0.8932  0.2665
 6640SOL     OW31378   3.103   1.959   9.004 -0.1572  0.1885  0.8704
 6640SOL    HW131379   3.047   1.896   8.959  2.0550 -0.7182 -0.6408
 6640SOL    HW231380   3.125   1.917   9.087  1.2592  0.3504  0.5886
 6641SOL     OW31381   4.090   3.942   1.022  0.2054  0.1355  0.3095
 6641SOL    HW131382   4.143   3.966   0.945 -1.5386  1.7393 -0.3896
 6641SOL    HW231383   4.018   3.901   0.974 -0.0174  0.3825  0.4347
 6642SOL     OW31384   3.132   0.067  16.551 -0.6413 -0.3768 -0.3660
 6642SOL    HW131385   3.128   4.695  16.550  0.4432 -0.4167 -0.9387
 6642SOL    HW231386   3.102   0.079  16.641 -0.5140 -0.2048 -0.3472
 6643SOL     OW31387   3.992   4.215   8.060  0.4766  0.3147  0.4177
 6643SOL    HW131388   4.049   4.272   8.008 -0.3283 -0.7423 -1.6031
 6643SOL    HW231389   4.030   4.209   8.148  0.7183 -0.3859  0.2608
 6644SOL     OW31390   0.341   2.492   6.779 -0.3234  0.0489  0.0389
 6644SOL    HW131391   0.375   2.405   6.756  1.0989  0.7767 -0.5942
 6644SOL    HW231392   0.368   2.492   6.871  3.4480 -0.4719 -1.0910
 6645SOL     OW31393   4.023   1.458   4.876  0.0837 -0.3935 -0.5666
 6645SOL    HW131394   4.012   1.425   4.965  1.1153  1.7077  0.3480
 6645SOL    HW231395   4.117   1.444   4.862  0.6107  0.0818  2.4444
 6646SOL     OW31396   2.267   1.786   8.292 -0.2851  0.2560 -0.0212
 6646SOL    HW131397   2.268   1.778   8.387  0.6098  1.7005  0.0967
 6646SOL    HW231398   2.239   1.696   8.274 -2.0410  1.2123 -2.1809
 6647SOL     OW31399   1.651   4.623  14.851  0.6134  0.7175 -0.5223
 6647SOL    HW131400   1.691   4.633  14.765 -0.7024  0.6176 -1.1388
 6647SOL    HW231401   1.721   4.577  14.898 -1.5261 -2.2636 -0.2759
 6648SOL     OW31402   1.975   1.935   9.929  0.2688 -0.0860  0.1002
 6648SOL    HW131403   1.984   2.027   9.954 -0.6059 -0.3181  1.2774
 6648SOL    HW231404   1.910   1.893   9.985  0.3757 -0.2896  0.0732
 6649SOL     OW31405   0.454   3.908  11.504 -0.4646  0.0846 -0.1012
 6649SOL    HW131406   0.470   4.001  11.486  2.3378  0.0625  2.1694
 6649SOL    HW231407   0.533   3.887  11.555  0.7497  1.4509 -1.4135
 6650SOL     OW31408   0.948   2.083  11.251  0.0836 -0.1780 -0.0535
 6650SOL    HW131409   0.926   2.167  11.293  2.4967 -0.8409  2.5822
 6650SOL    HW231410   0.867   2.040  11.225  0.2260  0.4145 -1.4677
 6651SOL     OW31411   3.990   4.290   0.133 -0.4065 -0.2825  0.0782
 6651SOL    HW131412   4.066   4.310   0.186 -0.0601  1.5639 -1.0949
 6651SOL    HW231413   3.915   4.323   0.183 -0.8013  1.1583 -1.4247
 6652SOL     OW31414   0.657   3.909   8.682  0.0576  0.0398  0.0602
 6652SOL    HW131415   0.737   3.904   8.734  1.5135  0.8465 -2.1182
 6652SOL    HW231416   0.670   3.972   8.611 -0.0459 -0.0272 -0.0190
 6653SOL     OW31417   3.119   4.013   5.127 -0.0514  0.3827 -0.2852
 6653SOL    HW131418   3.111   3.938   5.186 -1.5736 -0.0048 -1.0013
 6653SOL    HW231419   3.037   4.060   5.145  0.9113  1.6267  0.9034
 6654SOL     OW31420   0.685   3.997   1.932 -1.1455  0.8354  0.7081
 6654SOL    HW131421   0.661   3.904   1.928  1.9119  0.0950 -0.4032
 6654SOL    HW231422   0.663   4.019   2.022  0.0957 -2.0195  1.7097
 6655SOL     OW31423   1.673   3.818  13.857  0.9214 -0.3470  0.0489
 6655SOL    HW131424   1.739   3.750  13.870  1.7769 -0.0008 -2.4901
 6655SOL    HW231425   1.641   3.826  13.947 -1.0774  0.2109 -0.6992
 6656SOL     OW31426   2.710   1.519   8.272  0.3894  0.4256 -0.2476
 6656SOL    HW131427   2.626   1.490   8.308  1.4721 -0.4250  1.5985
 6656SOL    HW231428   2.762   1.544   8.349  0.2923 -1.8306  0.5293
 6657SOL     OW31429   0.496   2.140   6.980 -0.6414  0.3336  0.6476
 6657SOL    HW131430   0.416   2.165   6.935  0.7457  1.9652 -0.9371
 6657SOL    HW231431   0.537   2.226   6.990 -0.6266  0.4096 -0.0831
 6658SOL     OW31432   1.157   0.170  16.722 -0.1135 -0.2042  0.7285
 6658SOL    HW131433   1.245   0.189  16.690 -0.5860  0.1292 -0.3722
 6658SOL    HW231434   1.168   0.094  16.779  2.3963 -1.3956 -1.3334
 6659SOL     OW31435   2.022   4.510  11.902  0.3315  0.0012 -0.1440
 6659SOL    HW131436   1.946   4.567  11.906 -0.6208 -1.2290 -0.7146
 6659SOL    HW231437   2.065   4.521  11.817  1.3144 -3.1912 -0.0925
 6660SOL     OW31438   4.031   0.908  17.542 -0.1717 -0.1162 -0.5179
 6660SOL    HW131439   4.043   0.814  17.530 -1.2692 -0.2925 -0.2017
 6660SOL    HW231440   4.043   0.938  17.451 -0.6494  0.4053 -0.4108
 6661SOL     OW31441   3.619   4.152   6.246  0.8292 -0.1475 -0.1135
 6661SOL    HW131442   3.710   4.128   6.265  0.1335 -0.8658  2.3505
 6661SOL    HW231443   3.639   4.226   6.189  0.9422 -0.1097 -0.0225
 6662SOL     OW31444   0.047   3.940  12.054 -0.1337  0.3067 -0.4036
 6662SOL    HW131445   0.119   3.994  12.021  0.2988  0.4366  0.7633
 6662SOL    HW231446   4.707   3.999  12.094  0.2197 -0.6454  1.5332
 6663SOL     OW31447   0.739   2.942   4.771  0.4226 -0.2673  0.3682
 6663SOL    HW131448   0.726   3.016   4.831 -0.3917 -0.1246  0.0194
 6663SOL    HW231449   0.831   2.923   4.785  1.1553  0.8974 -2.8826
 6664SOL     OW31450   1.534   4.276  12.369  0.1613 -0.3018  0.7976
 6664SOL    HW131451   1.566   4.187  12.383  0.8931 -0.0889  0.4863
 6664SOL    HW231452   1.545   4.287  12.275  0.5889  3.2256  1.2628
 6665SOL     OW31453   4.670   0.499   8.647 -0.6357 -0.2500  0.3917
 6665SOL    HW131454   4.649   0.548   8.726  1.5808 -1.3540  1.6742
 6665SOL    HW231455   4.586   0.474   8.609 -0.2484 -0.0361 -0.6041
 6666SOL     OW31456   4.110   1.636  10.622  0.3349  0.2767  0.1053
 6666SOL    HW131457   4.057   1.705  10.582  1.5112  1.7465  1.0985
 6666SOL    HW231458   4.084   1.641  10.714 -1.3129 -1.9645 -0.2144
 6667SOL     OW31459   4.227   0.026  11.579  0.0566  0.3662 -0.6242
 6667SOL    HW131460   4.147   4.714  11.615  0.0754  1.0121  0.0530
 6667SOL    HW231461   4.213   0.057  11.489  1.3805 -0.4565 -1.1171
 6668SOL     OW31462   2.976   3.652   2.990  0.2985  0.2518  0.4316
 6668SOL    HW131463   3.009   3.639   3.078  0.1764  0.8956  0.5704
 6668SOL    HW231464   3.055   3.653   2.936 -1.1866  0.0269 -1.7686
 6669SOL     OW31465   1.144   3.651  13.883  0.2613 -0.7356  0.5592
 6669SOL    HW131466   1.201   3.672  13.957 -0.1919  1.0552  0.3972
 6669SOL    HW231467   1.073   3.615  13.935  0.8168 -0.0617  1.7948
 6670SOL     OW31468   4.526   4.423   2.256 -0.2251  0.4116  0.4494
 6670SOL    HW131469   4.534   4.465   2.171 -1.8445  0.2949  0.2420
 6670SOL    HW231470   4.598   4.462   2.306  0.5776 -0.9599  0.3968
 6671SOL     OW31471   4.434   3.254   8.644  0.0266 -0.4235 -0.1014
 6671SOL    HW131472   4.392   3.246   8.558 -2.7012  1.9132  1.0106
 6671SOL    HW231473   4.496   3.183   8.627  0.2107 -0.1399 -0.6037
 6672SOL     OW31474   3.640   2.237   5.718  0.1389 -0.1522 -0.7646
 6672SOL    HW131475   3.640   2.320   5.670 -1.5118 -0.1229 -0.7215
 6672SOL    HW231476   3.729   2.253   5.748  0.1284 -0.8784 -0.3373
 6673SOL     OW31477   0.941   2.139  14.947 -0.3299  0.3105 -0.8105
 6673SOL    HW131478   0.854   2.100  14.952  0.9797 -2.1560  2.2194
 6673SOL    HW231479   0.997   2.070  14.912 -1.2157 -1.5349  1.4348
 6674SOL     OW31480   3.274   2.670   2.710 -0.4931 -0.0476  0.1934
 6674SOL    HW131481   3.209   2.740   2.705  0.5600  0.8397 -1.1034
 6674SOL    HW231482   3.349   2.723   2.738 -1.1085  0.8511  0.1435
 6675SOL     OW31483   2.275   1.911   5.041  0.2651  0.4327 -0.3077
 6675SOL    HW131484   2.222   1.833   5.028  1.3940 -0.4721  0.5502
 6675SOL    HW231485   2.288   1.950   4.955  1.9664 -0.3588 -0.4071
 6676SOL     OW31486   1.218   1.695   6.187 -0.3073  0.3538 -0.8756
 6676SOL    HW131487   1.211   1.600   6.189 -0.1855  0.3480 -0.7451
 6676SOL    HW231488   1.309   1.712   6.163  0.2850  0.0874  1.1353
 6677SOL     OW31489   3.146   0.536   6.255  0.0866  0.0627  0.1497
 6677SOL    HW131490   3.142   0.529   6.160 -1.4125  1.1817  0.1338
 6677SOL    HW231491   3.052   0.545   6.269  0.1589 -1.0362  1.4135
 6678SOL     OW31492   3.561   0.229   9.755  0.3404  0.4208 -0.0591
 6678SOL    HW131493   3.582   0.291   9.826 -0.2082  0.2136  0.2823
 6678SOL    HW231494   3.598   0.274   9.680  2.0080 -0.4196  0.2579
 6679SOL     OW31495   1.871   3.447   1.749  0.0382 -0.0522  0.3439
 6679SOL    HW131496   1.881   3.355   1.724 -0.6521  0.1786 -0.7768
 6679SOL    HW231497   1.797   3.439   1.810  1.4940  1.0189  2.2311
 6680SOL     OW31498   1.854   2.117   7.052  0.1383 -0.2132 -0.1096
 6680SOL    HW131499   1.808   2.034   7.045 -1.4199  0.6690 -0.3154
 6680SOL    HW231500   1.876   2.124   7.145  1.0930  1.0498 -0.4270
 6681SOL     OW31501   0.850   0.686   7.565 -0.1411 -0.1322 -0.2587
 6681SOL    HW131502   0.776   0.641   7.524 -1.1920 -0.5547  2.1167
 6681SOL    HW231503   0.867   0.632   7.641 -1.5360  0.8771  0.7816
 6682SOL     OW31504   1.762   0.077  10.709 -0.3731 -0.1741  0.9952
 6682SOL    HW131505   1.696   0.087  10.777  1.0145  1.7150  2.0379
 6682SOL    HW231506   1.830   0.135  10.743 -1.1137 -0.6602  3.2574
 6683SOL     OW31507   3.654   3.799   1.718  0.0031 -0.4603  0.7323
 6683SOL    HW131508   3.614   3.886   1.718  0.4846 -0.2410 -0.7417
 6683SOL    HW231509   3.578   3.746   1.696 -0.7931  1.4046 -0.9669
 6684SOL     OW31510   0.381   0.692  15.405  0.1849 -0.4872  0.2201
 6684SOL    HW131511   0.359   0.649  15.488  1.0926  2.2417  1.8757
 6684SOL    HW231512   0.294   0.717  15.375 -0.4338 -0.0309  2.3497
 6685SOL     OW31513   4.286   0.604   3.918 -0.3158 -0.2673 -0.0287
 6685SOL    HW131514   4.378   0.605   3.893 -0.2044 -0.7911  0.3754
 6685SOL    HW231515   4.288   0.657   3.997 -0.9328 -0.2895  0.0010
 6686SOL     OW31516   4.273   4.105   8.451 -0.0824 -0.4029  0.4382
 6686SOL    HW131517   4.273   4.015   8.483 -1.4307 -0.6186 -0.1534
 6686SOL    HW231518   4.333   4.146   8.512  2.6704 -1.4125 -1.5944
 6687SOL     OW31519   2.788   3.801   8.250 -0.3328 -0.3455 -0.1785
 6687SOL    HW131520   2.773   3.718   8.296  1.5672 -1.1279 -0.9840
 6687SOL    HW231521   2.828   3.771   8.168  3.7265  1.4104  1.1531
 6688SOL     OW31522   0.127   3.076  12.801  0.0961 -0.3978  0.1601
 6688SOL    HW131523   0.177   3.104  12.725  0.4565 -2.0339 -0.2002
 6688SOL    HW231524   0.147   3.145  12.864 -0.5786  0.9387 -1.0990
 6689SOL     OW31525   1.072   3.472   7.478  0.0488 -0.0601  0.5103
 6689SOL    HW131526   0.993   3.499   7.525 -1.2063 -0.9872 -1.1042
 6689SOL    HW231527   1.045   3.463   7.387 -0.0766 -1.5670  0.7010
 6690SOL     OW31528   2.158   2.060  15.803 -0.4116  0.2559  0.6003
 6690SOL    HW131529   2.115   2.119  15.742  0.0969 -0.3390 -0.3415
 6690SOL    HW231530   2.242   2.078  15.761 -0.4421 -1.0120 -0.0167
 6691SOL     OW31531   1.681   0.939  13.302 -0.4502 -0.2691  0.2422
 6691SOL    HW131532   1.757   0.883  13.290  0.2390  1.4623 -3.2372
 6691SOL    HW231533   1.660   0.970  13.214  0.5525 -2.3195 -0.7249
 6692SOL     OW31534   4.519   0.366   2.182  0.4565  0.5959  0.3649
 6692SOL    HW131535   4.588   0.363   2.116 -1.3145 -0.1209 -1.4232
 6692SOL    HW231536   4.462   0.303   2.138  1.3873  1.4750 -2.0433
 6693SOL     OW31537   3.837   3.319   6.073  0.7452  0.3653  0.3162
 6693SOL    HW131538   3.900   3.340   6.142  1.5961 -0.7885 -0.0845
 6693SOL    HW231539   3.798   3.406   6.065  2.6855  1.1988 -0.1222
 6694SOL     OW31540   0.442   4.117   2.345 -0.1461 -0.0757  0.1465
 6694SOL    HW131541   0.380   4.163   2.288 -1.5671  0.9318  2.5036
 6694SOL    HW231542   0.514   4.178   2.361 -1.2473  1.4255 -0.5926
 6695SOL     OW31543   3.960   1.984   2.222 -0.2697  0.0893 -0.5303
 6695SOL    HW131544   3.883   2.042   2.215 -0.8879 -0.4098  2.1772
 6695SOL    HW231545   3.978   1.991   2.129  2.1904 -1.0571 -0.1287
 6696SOL     OW31546   0.083   1.512   0.312  0.6535  0.5189 -0.5234
 6696SOL    HW131547   0.129   1.430   0.296 -0.8155 -0.5370  0.7592
 6696SOL    HW231548   0.093   1.517   0.407 -0.0903 -0.5499 -0.4000
 6697SOL     OW31549   2.988   3.836   9.749  0.0205 -0.5668  0.1930
 6697SOL    HW131550   3.035   3.919   9.743  0.3136 -0.7060  0.5265
 6697SOL    HW231551   2.900   3.870   9.767  0.4993  0.8628 -0.2207
 6698SOL     OW31552   3.803   3.685   7.590 -0.6311 -0.2662  0.0788
 6698SOL    HW131553   3.795   3.741   7.667  3.1374 -0.4827  0.6332
 6698SOL    HW231554   3.839   3.606   7.630 -1.3318 -0.5953  0.0546
 6699SOL     OW31555   2.977   4.437   2.166 -0.1809  0.4349  0.2312
 6699SOL    HW131556   3.046   4.487   2.122  1.8039 -2.2675  0.2578
 6699SOL    HW231557   2.894   4.478   2.143  0.1472  1.0803  0.1783
 6700SOL     OW31558   1.675   4.396   2.507 -0.3978  0.2393  0.7749
 6700SOL    HW131559   1.599   4.352   2.544 -1.1115 -0.3491 -1.3981
 6700SOL    HW231560   1.748   4.335   2.522 -1.4369 -1.0682  0.5176
 6701SOL     OW31561   1.170   1.442   5.919  0.0358  0.1721  0.4251
 6701SOL    HW131562   1.263   1.462   5.930  0.2901 -1.7829  1.9360
 6701SOL    HW231563   1.153   1.408   6.007 -1.7280  0.2317  0.1156
 6702SOL     OW31564   1.708   0.702   6.401 -0.0616 -0.4252  0.3355
 6702SOL    HW131565   1.785   0.734   6.353 -1.8742  1.8135 -1.0711
 6702SOL    HW231566   1.692   0.615   6.366 -3.0697  0.2237  0.1251
 6703SOL     OW31567   2.636   3.548   7.956  0.1129  0.3386 -0.3602
 6703SOL    HW131568   2.725   3.583   7.954  0.1266  0.1439 -3.8704
 6703SOL    HW231569   2.623   3.540   8.050  0.4021  0.0002 -0.3495
 6704SOL     OW31570   2.608   0.217   7.917 -0.3124 -0.1526  0.5947
 6704SOL    HW131571   2.631   0.134   7.959 -1.0560  0.0383  1.3669
 6704SOL    HW231572   2.693   0.240   7.880  1.1413 -4.3825  1.2679
 6705SOL     OW31573   1.759   2.502  10.437 -0.7604 -0.0165  0.6189
 6705SOL    HW131574   1.776   2.425  10.382 -1.1129  1.6400 -1.7552
 6705SOL    HW231575   1.677   2.481  10.482 -1.0437 -0.9988 -0.3773
 6706SOL     OW31576   0.067   1.076   9.166 -0.0758  0.1912  0.2965
 6706SOL    HW131577   0.020   1.159   9.155 -0.5684  0.2218  2.7157
 6706SOL    HW231578   0.156   1.104   9.145 -0.2535  0.2437 -0.3904
 6707SOL     OW31579   1.108   4.362   7.694 -0.0771 -0.1996 -0.5552
 6707SOL    HW131580   1.154   4.278   7.686  0.8008  0.3149 -0.9263
 6707SOL    HW231581   1.035   4.351   7.632 -1.2226 -1.2946  0.9783
 6708SOL     OW31582   2.789   1.099   4.412 -0.2010 -0.0149 -0.0729
 6708SOL    HW131583   2.800   1.155   4.336  0.3955 -0.1118 -0.0614
 6708SOL    HW231584   2.698   1.069   4.411 -0.7136  1.4798  2.2525
 6709SOL     OW31585   2.177   4.547  12.598  0.1544  0.6223 -0.0702
 6709SOL    HW131586   2.248   4.490  12.628 -1.2796 -1.7845 -1.2870
 6709SOL    HW231587   2.164   4.514  12.509  0.7906  3.4393 -1.2166
 6710SOL     OW31588   2.745   0.843  13.088  0.1104  0.7462 -1.0392
 6710SOL    HW131589   2.698   0.911  13.039 -0.2914 -0.4703 -2.3254
 6710SOL    HW231590   2.726   0.855  13.181 -0.3227 -1.2346 -0.8731
 6711SOL     OW31591   4.077   0.426  16.767  0.4600 -0.1430 -0.2759
 6711SOL    HW131592   4.042   0.451  16.682  0.3211  2.1541  0.4611
 6711SOL    HW231593   4.107   0.338  16.743  0.2765  0.3500 -2.2931
 6712SOL     OW31594   3.307   0.131  16.873  0.7814  0.5075 -0.2797
 6712SOL    HW131595   3.370   0.176  16.929 -0.1953 -0.0981  1.2943
 6712SOL    HW231596   3.283   0.203  16.814  0.9993 -0.3685 -1.4422
 6713SOL     OW31597   2.465   1.016   5.799 -0.3945  0.3943 -0.0176
 6713SOL    HW131598   2.467   0.924   5.771  1.9824 -0.1236  1.8301
 6713SOL    HW231599   2.491   1.059   5.718  0.3915  1.6521  0.9051
 6714SOL     OW31600   0.901   4.537   6.652  0.0511 -0.4151  0.6153
 6714SOL    HW131601   0.843   4.485   6.708  0.3310 -0.3163  0.9957
 6714SOL    HW231602   0.937   4.476   6.587 -1.0224 -0.3659 -0.0180
 6715SOL     OW31603   3.297   4.367   1.500  0.5676  0.0862  0.4743
 6715SOL    HW131604   3.279   4.431   1.568  0.7494  0.9884 -0.3381
 6715SOL    HW231605   3.257   4.290   1.541  0.8335 -0.4560 -0.2820
 6716SOL     OW31606   4.266   3.410   0.581  0.3862 -0.4746  0.1926
 6716SOL    HW131607   4.343   3.380   0.533  1.3298  1.9900  0.1830
 6716SOL    HW231608   4.202   3.340   0.569 -0.0078  0.0033 -0.4533
 6717SOL     OW31609   2.813   2.440  10.002 -0.1245 -0.6176 -0.1630
 6717SOL    HW131610   2.823   2.403   9.914 -0.3389 -0.1370 -0.3914
 6717SOL    HW231611   2.837   2.531   9.984 -1.0840 -0.5088 -0.8871
 6718SOL     OW31612   1.349   2.969  12.061 -0.4513  0.2657 -0.2881
 6718SOL    HW131613   1.286   3.018  12.113 -1.3602 -0.4529 -0.7071
 6718SOL    HW231614   1.388   2.916  12.131  0.5474  0.1686 -0.9142
 6719SOL     OW31615   3.160   3.042   2.047 -0.4352  0.4046  0.5457
 6719SOL    HW131616   3.079   3.020   2.094 -1.1250  1.8696  0.0621
 6719SOL    HW231617   3.231   3.014   2.104 -1.4223 -1.4100  0.9063
 6720SOL     OW31618   3.516   0.511   8.073 -0.4866  0.2961  0.1761
 6720SOL    HW131619   3.574   0.484   8.143  0.0281  0.8240 -0.0530
 6720SOL    HW231620   3.432   0.518   8.119 -0.4844 -1.1879  0.4171
 6721SOL     OW31621   0.094   4.448  11.781 -0.3118 -0.2349  0.0976
 6721SOL    HW131622   0.036   4.395  11.727 -1.6166  1.1530  0.1246
 6721SOL    HW231623   0.170   4.458  11.723 -0.2860 -1.1589 -0.0281
 6722SOL     OW31624   1.430   4.454   3.187 -0.4678 -0.1783 -0.3669
 6722SOL    HW131625   1.448   4.412   3.102 -0.6909  0.0910 -0.5476
 6722SOL    HW231626   1.430   4.538   3.141 -2.1085 -0.2416 -0.4639
 6723SOL     OW31627   1.830   3.733   9.745 -0.5253 -0.2312 -0.0884
 6723SOL    HW131628   1.890   3.663   9.720 -0.6846 -0.0032 -1.1079
 6723SOL    HW231629   1.887   3.807   9.722  0.5275 -0.6854  1.0695
 6724SOL     OW31630   0.456   1.533   2.595 -0.2123 -0.1100  0.0685
 6724SOL    HW131631   0.462   1.613   2.542  1.5628 -0.0757  0.3264
 6724SOL    HW231632   0.455   1.570   2.683 -0.0956  1.1581 -0.4612
 6725SOL     OW31633   0.116   4.100   7.634 -0.2681  0.3262  0.1691
 6725SOL    HW131634   0.105   4.085   7.540  2.5443 -2.5637  0.2855
 6725SOL    HW231635   0.115   4.195   7.632  1.5805  0.3793  1.4959
 6726SOL     OW31636   2.500   2.745  12.011 -0.3257 -0.5096 -0.1978
 6726SOL    HW131637   2.515   2.724  11.918 -0.5183  0.3639 -0.4297
 6726SOL    HW231638   2.498   2.841  12.010 -1.6949 -0.5405  2.0822
 6727SOL     OW31639   0.435   0.289   7.241 -0.1440  0.3036  0.4772
 6727SOL    HW131640   0.471   0.227   7.304 -0.8524  0.0327  0.6191
 6727SOL    HW231641   0.510   0.341   7.214  1.1847 -1.6093  0.5390
 6728SOL     OW31642   0.292   3.033   4.719  0.2967  0.0678 -0.0167
 6728SOL    HW131643   0.381   3.050   4.750  0.1913  0.1175  0.2639
 6728SOL    HW231644   0.231   3.086   4.771  0.6688  2.0410 -1.5982
 6729SOL     OW31645   0.966   3.886   1.782  0.1317  0.6505  0.2625
 6729SOL    HW131646   1.037   3.832   1.748 -0.9369 -2.1459  2.4041
 6729SOL    HW231647   1.006   3.937   1.852  0.9661  0.8767 -0.3870
 6730SOL     OW31648   4.496   4.662  11.425  0.8710 -0.3790  0.3291
 6730SOL    HW131649   4.505   4.602  11.351  1.4317 -0.7050  0.6685
 6730SOL    HW231650   4.519   4.604  11.497 -1.0178  0.0917  1.3148
 6731SOL     OW31651   2.911   0.714   8.007  0.5434  0.0493 -0.1853
 6731SOL    HW131652   2.861   0.635   8.029  0.3554  0.2235  0.0286
 6731SOL    HW231653   2.835   0.773   8.002  1.7660  1.5252 -1.0547
 6732SOL     OW31654   0.224   3.800   0.028  0.4069 -0.0008 -0.2599
 6732SOL    HW131655   0.166   3.763   0.094 -0.5134  1.1985 -0.4041
 6732SOL    HW231656   0.215   3.892   0.053  1.8551  0.3629 -1.0604
 6733SOL     OW31657   3.244   1.270   8.168 -0.0667 -0.2586  0.8468
 6733SOL    HW131658   3.205   1.346   8.211  0.7821  0.6859 -0.0706
 6733SOL    HW231659   3.305   1.308   8.105  1.1206 -1.6186  1.1920
 6734SOL     OW31660   2.559   3.766  10.845 -0.4622 -0.6647 -0.6503
 6734SOL    HW131661   2.556   3.672  10.826 -1.0290 -0.6023 -0.8935
 6734SOL    HW231662   2.649   3.780  10.817 -0.8824  0.5183 -1.4409
 6735SOL     OW31663   2.752   0.194   6.053 -0.0877  0.0029  0.3767
 6735SOL    HW131664   2.810   0.180   6.128  0.6622 -2.0819 -0.5915
 6735SOL    HW231665   2.794   0.146   5.981 -0.1828 -1.3391  1.2096
 6736SOL     OW31666   3.726   2.724   1.687  0.1869  0.2767  0.4132
 6736SOL    HW131667   3.815   2.720   1.653  0.5434  0.7193  1.2782
 6736SOL    HW231668   3.678   2.752   1.610 -0.9185 -2.7053  0.0384
 6737SOL     OW31669   3.624   4.474   7.452  0.0202  0.1821 -0.2651
 6737SOL    HW131670   3.555   4.533   7.423  1.5437  1.7890 -0.6405
 6737SOL    HW231671   3.694   4.538   7.464 -0.8504  1.0501  0.1045
 6738SOL     OW31672   2.189   4.232   1.983 -0.2011 -0.0890 -0.0715
 6738SOL    HW131673   2.229   4.273   1.907 -2.7544  0.4077 -1.1340
 6738SOL    HW231674   2.144   4.163   1.935 -0.2804  0.2044 -0.4100
 6739SOL     OW31675   3.210   2.195   4.818  0.3062 -0.5517 -0.1823
 6739SOL    HW131676   3.127   2.178   4.862  1.5612 -0.6390  2.1306
 6739SOL    HW231677   3.190   2.274   4.769  3.0368 -0.2877 -0.8727
 6740SOL     OW31678   3.614   3.118   2.891  1.0051  0.2693  0.5648
 6740SOL    HW131679   3.652   3.130   2.804  1.5562  2.2794  1.0719
 6740SOL    HW231680   3.688   3.123   2.950  0.2854 -0.9894  1.5567
 6741SOL     OW31681   4.207   4.352   1.391  0.3530  0.1615 -0.7627
 6741SOL    HW131682   4.270   4.333   1.323 -0.6191  0.9691 -1.9002
 6741SOL    HW231683   4.129   4.343   1.335 -0.7657 -0.5001  0.8973
 6742SOL     OW31684   3.082   0.906  13.736  0.4736 -0.0778 -0.1112
 6742SOL    HW131685   3.175   0.897  13.757  0.4226 -0.0957  0.1083
 6742SOL    HW231686   3.048   0.851  13.806 -0.1344  0.6829  0.1951
 6743SOL     OW31687   3.537   1.170   0.269  0.0619  0.3324 -0.2970
 6743SOL    HW131688   3.553   1.085   0.310  0.1550  1.7550  2.6596
 6743SOL    HW231689   3.614   1.186   0.214 -1.2866 -0.2797 -2.3703
 6744SOL     OW31690   0.300   1.333  17.533  0.3955 -0.3786  0.3299
 6744SOL    HW131691   0.249   1.411  17.554  2.4516  0.9471  0.4761
 6744SOL    HW231692   0.323   1.358  17.444  0.4037  2.0480  1.0005
 6745SOL     OW31693   2.930   0.083  15.596  0.4031 -0.1767  0.5740
 6745SOL    HW131694   2.884   0.034  15.664 -0.5647 -0.2790 -0.1593
 6745SOL    HW231695   2.946   0.015  15.532  0.4459  0.6323 -0.2701
 6746SOL     OW31696   4.599   1.657  14.547  0.0461  0.3761 -0.0735
 6746SOL    HW131697   4.611   1.568  14.514  0.4854  0.1796  0.6162
 6746SOL    HW231698   4.645   1.643  14.629 -2.3259 -1.5234  0.9281
 6747SOL     OW31699   4.687   3.743   8.793  0.0943  0.2117 -0.8472
 6747SOL    HW131700   4.688   3.823   8.739  1.7366 -0.9429 -2.5432
 6747SOL    HW231701   0.048   3.734   8.838  0.2096  0.8898 -0.9241
 6748SOL     OW31702   2.451   1.726   8.687  0.1357 -0.0391 -0.9421
 6748SOL    HW131703   2.475   1.636   8.708  0.2550  0.7682  2.3218
 6748SOL    HW231704   2.360   1.729   8.657  0.0791  0.6718 -0.7014
 6749SOL     OW31705   2.847   3.496   7.597 -0.4652  0.9539 -0.0931
 6749SOL    HW131706   2.878   3.423   7.543  0.6882 -0.1855  2.1073
 6749SOL    HW231707   2.932   3.519   7.634 -0.8948  1.8772  0.3139
 6750SOL     OW31708   1.317   3.825   8.123 -0.6115  0.4261  0.3041
 6750SOL    HW131709   1.304   3.836   8.029 -0.2962  0.0212  0.2116
 6750SOL    HW231710   1.242   3.770   8.148  0.1476 -1.4088 -1.4519
 6751SOL     OW31711   1.398   2.093  13.461 -0.2310 -0.1566  0.2227
 6751SOL    HW131712   1.380   2.157  13.393 -0.9069 -0.3916  0.1732
 6751SOL    HW231713   1.360   2.131  13.540 -1.6936 -0.5782 -0.2738
 6752SOL     OW31714   3.917   3.723   7.228 -0.3703  0.5306  0.1626
 6752SOL    HW131715   3.948   3.633   7.214 -1.3599 -0.0224  1.4976
 6752SOL    HW231716   3.824   3.704   7.215 -0.2347  0.1275 -0.2343
 6753SOL     OW31717   0.739   0.710  17.095  0.0760 -0.0308 -0.4749
 6753SOL    HW131718   0.794   0.679  17.024  0.8188 -1.8235  0.8786
 6753SOL    HW231719   0.729   0.630  17.147  0.8501 -0.3036 -0.7521
 6754SOL     OW31720   3.661   2.550   4.375 -0.7247 -0.7576 -0.3958
 6754SOL    HW131721   3.630   2.505   4.454 -0.6250  0.0945  0.1382
 6754SOL    HW231722   3.748   2.511   4.364 -0.7912 -0.6220 -1.3410
 6755SOL     OW31723   3.775   0.174   2.923 -0.2853  0.0176 -0.1193
 6755SOL    HW131724   3.801   0.266   2.911 -1.6984  0.4561  0.2250
 6755SOL    HW231725   3.691   0.180   2.968 -0.0629  0.9421  0.1702
 6756SOL     OW31726   3.968   1.356   5.124  0.1356 -0.0558 -0.1053
 6756SOL    HW131727   3.891   1.332   5.174  2.4456 -1.2979  2.8473
 6756SOL    HW231728   4.001   1.267   5.111 -1.5979 -0.7168  0.0474
 6757SOL     OW31729   3.319   1.415   7.054  0.7797 -0.7819 -0.1621
 6757SOL    HW131730   3.276   1.360   6.989  1.4030 -0.8119 -0.5391
 6757SOL    HW231731   3.245   1.444   7.109  1.5548  0.7653  0.0810
 6758SOL     OW31732   3.487   1.178  14.108  0.2626  0.1469  0.2734
 6758SOL    HW131733   3.503   1.088  14.079 -0.5632  0.9496 -2.6454
 6758SOL    HW231734   3.438   1.216  14.035 -0.1202 -1.1704 -0.1642
 6759SOL     OW31735   3.001   1.095   5.836 -0.5352  0.1367 -0.2494
 6759SOL    HW131736   3.092   1.095   5.804  0.4777  1.7907  2.7200
 6759SOL    HW231737   3.025   1.101   5.928  0.0132 -0.4601 -0.3497
 6760SOL     OW31738   1.256   3.030   1.861 -0.2676 -0.5497 -0.0857
 6760SOL    HW131739   1.200   3.106   1.851  1.3201  0.7440  0.9222
 6760SOL    HW231740   1.187   2.964   1.871 -1.7609  0.6232 -2.5856
 6761SOL     OW31741   0.144   4.458   4.208  0.1418  0.4085 -0.5687
 6761SOL    HW131742   0.069   4.449   4.267  0.1053  0.9728 -0.5338
 6761SOL    HW231743   0.110   4.514   4.139  0.5215 -0.6238 -1.5962
 6762SOL     OW31744   1.840   0.073   2.729  0.2293 -0.1941  0.1634
 6762SOL    HW131745   1.795   4.715   2.710 -1.8500  1.1352 -0.6064
 6762SOL    HW231746   1.927   0.035   2.739 -0.0119 -1.3925 -2.2873
 6763SOL     OW31747   4.305   0.611  13.866  0.3487 -0.7925  0.3103
 6763SOL    HW131748   4.339   0.548  13.802  0.4969 -0.1306 -0.2506
 6763SOL    HW231749   4.388   0.630  13.910  0.0005  0.4152  0.4478
 6764SOL     OW31750   4.447   1.564  17.268 -0.4243  0.1894  0.2225
 6764SOL    HW131751   4.361   1.604  17.254 -0.0409  1.5845  1.8432
 6764SOL    HW231752   4.427   1.509  17.343  0.4053  1.9232  1.7159
 6765SOL     OW31753   4.214   0.384   8.949 -0.0188 -0.3502  0.1360
 6765SOL    HW131754   4.141   0.379   8.887 -0.2668 -1.1432  0.4970
 6765SOL    HW231755   4.268   0.306   8.942  0.8361  0.2486  0.0478
 6766SOL     OW31756   1.649   1.584  17.209  0.2397  0.0136  0.5959
 6766SOL    HW131757   1.605   1.499  17.212  2.5905 -1.2090  0.3427
 6766SOL    HW231758   1.707   1.563  17.283 -0.5816  0.3419  1.3352
 6767SOL     OW31759   3.498   0.595   1.883 -0.5896 -0.5026  0.3876
 6767SOL    HW131760   3.487   0.500   1.889 -0.0258 -0.6528 -0.9320
 6767SOL    HW231761   3.434   0.625   1.818 -0.7847 -0.3932  0.6304
 6768SOL     OW31762   1.633   1.582   4.078 -0.3219 -0.4536 -0.5588
 6768SOL    HW131763   1.579   1.657   4.104  1.8345  1.3603 -1.3604
 6768SOL    HW231764   1.570   1.509   4.082 -0.6348 -0.0283  2.7372
 6769SOL     OW31765   1.998   1.465   5.709  0.0404 -0.4103 -0.0231
 6769SOL    HW131766   2.089   1.465   5.740 -0.2768  1.4969  0.9172
 6769SOL    HW231767   1.966   1.381   5.676  0.8998  0.4438 -3.0819
 6770SOL     OW31768   2.705   0.389   6.977  0.1164 -0.9387  0.9324
 6770SOL    HW131769   2.785   0.405   7.026  0.0332 -0.4277  0.9023
 6770SOL    HW231770   2.729   0.349   6.893 -0.8367  0.3843  0.0243
 6771SOL     OW31771   1.584   4.315  13.364 -0.2220  0.0535  0.0538
 6771SOL    HW131772   1.521   4.384  13.387  1.6150  1.7665  0.0482
 6771SOL    HW231773   1.567   4.254  13.435  1.7237 -0.0599  0.4343
 6772SOL     OW31774   0.313   4.068   3.010 -0.1359 -0.3197 -0.1896
 6772SOL    HW131775   0.263   4.117   2.945 -1.2951 -1.4513 -0.1588
 6772SOL    HW231776   0.392   4.042   2.961 -1.8420 -1.7583 -2.1539
 6773SOL     OW31777   3.943   2.311  16.489 -0.0008  0.3712  0.2737
 6773SOL    HW131778   4.029   2.269  16.496 -0.1025 -0.0110 -0.7280
 6773SOL    HW231779   3.879   2.244  16.513  1.7733 -1.0808  0.9207
 6774SOL     OW31780   0.121   2.784   5.775  0.2306  0.0596 -0.3502
 6774SOL    HW131781   0.193   2.721   5.768  0.5529  0.6326 -2.2347
 6774SOL    HW231782   0.057   2.731   5.726  0.2526 -0.3557  0.0754
 6775SOL     OW31783   3.621   1.123   0.868  0.2958 -0.4676 -0.5041
 6775SOL    HW131784   3.695   1.164   0.914 -2.8839  1.7483  2.6993
 6775SOL    HW231785   3.544   1.178   0.883 -2.1762 -3.9106 -0.6519
 6776SOL     OW31786   2.193   2.787   5.450  0.3752 -0.5182  0.2834
 6776SOL    HW131787   2.214   2.824   5.364 -1.0111  1.7346  0.9148
 6776SOL    HW231788   2.213   2.851   5.518 -1.0391  0.6650 -0.4133
 6777SOL     OW31789   2.840   4.519   7.438  0.2884 -0.0237  0.1220
 6777SOL    HW131790   2.839   4.474   7.522  0.0306  1.9900  1.2048
 6777SOL    HW231791   2.788   4.595   7.464  0.6440  0.4015 -0.4001
 6778SOL     OW31792   4.215   2.486   7.881 -0.2363  0.5069  0.3477
 6778SOL    HW131793   4.180   2.511   7.967  0.1982  1.9586  0.0964
 6778SOL    HW231794   4.286   2.550   7.888 -0.9779  1.2947  0.7956
 6779SOL     OW31795   0.316   3.783   8.626 -0.3289  0.1026  0.0094
 6779SOL    HW131796   0.269   3.721   8.682  0.7855 -2.4834 -1.9755
 6779SOL    HW231797   0.344   3.721   8.559 -0.7040  1.6428 -1.5633
 6780SOL     OW31798   2.351   4.719  16.675  0.9744 -0.3071  0.2475
 6780SOL    HW131799   2.420   0.061  16.662 -1.7951  2.6252  0.1424
 6780SOL    HW231800   2.309   0.008  16.590 -0.4264 -1.2402  0.8125
 6781SOL     OW31801   3.669   2.818   7.448 -0.1847 -0.2633  0.1865
 6781SOL    HW131802   3.762   2.832   7.464 -0.1405  0.2526 -0.5179
 6781SOL    HW231803   3.664   2.865   7.365 -0.0690 -1.1169 -0.3033
 6782SOL     OW31804   4.001   1.392   8.844  0.0154  0.0650 -0.1295
 6782SOL    HW131805   4.093   1.367   8.837  0.6421  2.2881  0.5711
 6782SOL    HW231806   3.983   1.407   8.936  0.6862  3.9301 -0.6604
 6783SOL     OW31807   2.997   0.968   3.273 -0.0042 -0.0956  0.0131
 6783SOL    HW131808   3.016   1.022   3.196 -0.2116 -1.8487 -1.2779
 6783SOL    HW231809   3.062   0.898   3.267  0.3742  0.1922  0.8254
 6784SOL     OW31810   1.397   1.284  16.789  0.4364  0.2871 -0.1585
 6784SOL    HW131811   1.415   1.225  16.862  0.5220  1.0620  0.4549
 6784SOL    HW231812   1.348   1.355  16.832  0.2856  0.3660 -0.4637
 6785SOL     OW31813   0.926   3.300  11.863 -0.6850 -0.3576  0.1373
 6785SOL    HW131814   0.925   3.219  11.812 -0.4687 -1.1457  1.4068
 6785SOL    HW231815   1.003   3.287  11.919 -0.4111 -2.8660 -0.8138
 6786SOL     OW31816   3.546   3.814   7.766 -0.6843 -0.1139 -0.4021
 6786SOL    HW131817   3.457   3.787   7.744 -1.2919  0.3862  1.4003
 6786SOL    HW231818   3.527   3.908   7.765 -1.6171 -0.2979 -0.7217
 6787SOL     OW31819   0.210   2.673   8.962 -0.5027  0.2782  0.4077
 6787SOL    HW131820   0.302   2.661   8.986 -0.2105  0.0253 -0.8593
 6787SOL    HW231821   0.207   2.760   8.921 -0.2653 -0.1758 -0.5834
 6788SOL     OW31822   4.673   2.235  10.359  0.6654  0.7355  0.7645
 6788SOL    HW131823   4.624   2.269  10.435 -0.2987  0.5128  0.2367
 6788SOL    HW231824   0.034   2.221  10.401  0.1831 -1.0139  1.1485
 6789SOL     OW31825   2.546   1.997   9.952  0.1765  0.0378 -0.0074
 6789SOL    HW131826   2.504   2.044   9.880  0.1596 -1.1645 -0.7833
 6789SOL    HW231827   2.491   1.919   9.956 -0.0939  0.2040 -0.5476
 6790SOL     OW31828   2.047   0.400   9.247  0.4339  0.7016  0.0871
 6790SOL    HW131829   1.958   0.388   9.281  0.3875  3.0386  0.8316
 6790SOL    HW231830   2.073   0.309   9.231 -1.8659 -0.3698  2.5236
 6791SOL     OW31831   0.538   2.120   2.705  0.6700 -0.2352  0.7707
 6791SOL    HW131832   0.559   2.075   2.623 -1.6315  1.1416 -0.5672
 6791SOL    HW231833   0.587   2.202   2.699  1.9909 -1.1000 -0.2196
 6792SOL     OW31834   4.504   3.712   0.962  1.0618 -0.2514  0.3120
 6792SOL    HW131835   4.466   3.645   0.904  1.1753  1.4535 -1.7645
 6792SOL    HW231836   4.443   3.786   0.954  0.6115 -0.7099 -0.5491
 6793SOL     OW31837   3.172   1.783   4.301 -0.6792 -0.2760  1.3738
 6793SOL    HW131838   3.091   1.746   4.336 -1.8081  0.4804 -0.4407
 6793SOL    HW231839   3.168   1.868   4.344  1.5102 -0.5537  2.0908
 6794SOL     OW31840   3.941   1.436   0.026 -0.2866 -0.8476  0.4498
 6794SOL    HW131841   3.847   1.435   0.045  0.1604 -0.1155  2.6372
 6794SOL    HW231842   3.974   1.524   0.042  0.0340 -0.8142 -0.4078
 6795SOL     OW31843   3.575   4.611   4.176 -0.2216 -0.4755 -0.3189
 6795SOL    HW131844   3.499   4.561   4.205 -1.6288  1.5206 -0.5414
 6795SOL    HW231845   3.635   4.539   4.156 -0.4454 -1.1934  1.6510
 6796SOL     OW31846   4.643   3.661   2.145  0.8172 -0.1208 -0.2841
 6796SOL    HW131847   0.005   3.651   2.104  0.8324  0.8167 -0.4857
 6796SOL    HW231848   4.627   3.569   2.164  2.1619 -0.2034  0.4738
 6797SOL     OW31849   0.626   3.191   4.999 -0.1538  0.7039 -0.2522
 6797SOL    HW131850   0.557   3.241   5.042  1.0746  2.0693  0.1291
 6797SOL    HW231851   0.625   3.115   5.058  2.5864  0.9968  0.1989
 6798SOL     OW31852   3.417   3.385   2.411  0.1985  0.1372  0.1460
 6798SOL    HW131853   3.338   3.428   2.443  0.1964  0.8730 -0.8426
 6798SOL    HW231854   3.431   3.414   2.320 -0.7486  1.6983  0.5046
 6799SOL     OW31855   3.903   0.978   3.326 -1.0129  0.3553 -0.6147
 6799SOL    HW131856   3.944   0.901   3.286  0.3063 -0.6771  2.6840
 6799SOL    HW231857   3.849   1.006   3.253 -2.5223  1.1872  0.8297
 6800SOL     OW31858   3.210   3.719   0.348 -0.7126 -0.4288 -0.4141
 6800SOL    HW131859   3.261   3.669   0.412  0.7170 -0.0733 -1.2721
 6800SOL    HW231860   3.182   3.640   0.302 -1.0800 -0.6281  0.1534
 6801SOL     OW31861   2.928   4.574   7.817  0.3642 -0.1098 -0.0053
 6801SOL    HW131862   2.986   4.499   7.803 -1.1879 -1.3325  0.0994
 6801SOL    HW231863   2.980   4.624   7.881  0.6142 -1.6353  0.9861
 6802SOL     OW31864   2.959   2.616   8.929 -0.0201 -0.5627  0.1137
 6802SOL    HW131865   2.987   2.688   8.873 -0.2727  0.4856  1.3173
 6802SOL    HW231866   2.989   2.645   9.016 -0.8137  1.5069 -0.2812
 6803SOL     OW31867   0.198   1.377  12.331 -0.0600  0.3294  0.4695
 6803SOL    HW131868   0.223   1.424  12.251  0.5232  1.3291  1.2311
 6803SOL    HW231869   0.254   1.300  12.321 -0.9409 -0.2516  0.0405
 6804SOL     OW31870   2.085   0.442   5.165  0.2255  0.2174 -0.0711
 6804SOL    HW131871   2.051   0.480   5.246  0.4371  0.0608  0.0944
 6804SOL    HW231872   2.053   0.504   5.100  0.7465 -1.9648 -2.3945
 6805SOL     OW31873   0.069   4.566   3.971  0.2973 -0.5142 -0.9239
 6805SOL    HW131874   4.718   4.506   3.966 -0.2654  0.1377 -0.3834
 6805SOL    HW231875   0.049   4.619   3.894  1.6295  0.4703 -0.5771
 6806SOL     OW31876   0.446   0.427   3.286 -0.4316  0.0356  0.2892
 6806SOL    HW131877   0.381   0.427   3.356 -1.5617 -2.7395 -0.7501
 6806SOL    HW231878   0.521   0.456   3.337  1.0944 -1.5852 -1.0314
 6807SOL     OW31879   0.324   4.221   2.660  0.1769  1.0662 -0.2811
 6807SOL    HW131880   0.409   4.230   2.617  0.6132  2.0603  0.7790
 6807SOL    HW231881   0.268   4.270   2.600 -1.7632 -3.0148 -1.8102
 6808SOL     OW31882   4.175   0.452  11.694  0.1601  0.4009 -0.5077
 6808SOL    HW131883   4.131   0.527  11.653 -1.5489  0.8318  2.1761
 6808SOL    HW231884   4.155   0.481  11.783  0.2735  0.5501 -0.5309
 6809SOL     OW31885   4.635   2.354   3.623  0.4491  0.5091  0.4780
 6809SOL    HW131886   4.708   2.308   3.665  0.7690  1.6656  1.1997
 6809SOL    HW231887   4.574   2.288   3.591  0.8558  0.5849 -0.4649
 6810SOL     OW31888   0.450   3.270  13.083  0.3633  0.7204  0.0901
 6810SOL    HW131889   0.484   3.203  13.142 -0.2555 -2.3323 -3.1047
 6810SOL    HW231890   0.514   3.341  13.094 -0.0911  1.2679 -0.7818
 6811SOL     OW31891   3.926   1.649   3.297 -0.2713  0.0755  0.0523
 6811SOL    HW131892   3.845   1.603   3.275 -0.8641  1.0410  0.2023
 6811SOL    HW231893   3.907   1.692   3.381 -1.3551 -1.4879  0.6051
 6812SOL     OW31894   1.447   4.403  13.127  0.2500 -0.4732 -0.1782
 6812SOL    HW131895   1.417   4.409  13.036  1.2740 -0.9514 -0.5437
 6812SOL    HW231896   1.374   4.361  13.172 -0.8900  0.6007 -0.9915
 6813SOL     OW31897   2.324   2.589   8.450 -0.1764  0.2171 -0.0502
 6813SOL    HW131898   2.408   2.589   8.495 -0.4852  0.2447  0.5197
 6813SOL    HW231899   2.263   2.579   8.523 -0.7363  0.3004 -0.5044
 6814SOL     OW31900   4.455   4.672  11.721  0.0947  0.0660  0.5497
 6814SOL    HW131901   4.385   4.670  11.656  0.4937 -0.7566  0.1498
 6814SOL    HW231902   4.489   4.586  11.698 -0.1568 -0.0638  0.6695
 6815SOL     OW31903   0.151   3.466   7.500 -0.2314 -0.0107 -0.1685
 6815SOL    HW131904   0.228   3.442   7.550 -1.4220 -2.1719  0.6397
 6815SOL    HW231905   0.091   3.420   7.559  1.1930  0.0315  1.3045
 6816SOL     OW31906   3.175   3.185   6.344  0.0993 -0.1157  0.0614
 6816SOL    HW131907   3.270   3.186   6.334  0.3775 -1.6473  2.6048
 6816SOL    HW231908   3.151   3.275   6.320  2.3504  0.9930  2.0511
 6817SOL     OW31909   0.756   2.554  12.432 -0.1504  0.4955 -0.2106
 6817SOL    HW131910   0.732   2.466  12.461 -1.1236  1.2929  1.4290
 6817SOL    HW231911   0.782   2.583  12.519  0.1204 -0.2791 -0.0343
 6818SOL     OW31912   4.489   4.543  15.929  0.1403  0.5228  0.6549
 6818SOL    HW131913   4.575   4.584  15.931 -0.0146  0.9251 -1.4648
 6818SOL    HW231914   4.492   4.527  16.023 -0.9169 -0.2223  0.5674
 6819SOL     OW31915   3.952   1.112   6.282 -0.5076 -0.6055 -0.0519
 6819SOL    HW131916   3.858   1.098   6.292 -0.8227  0.5446 -1.3579
 6819SOL    HW231917   3.986   1.023   6.282 -2.4477 -1.3431 -1.3269
 6820SOL     OW31918   3.241   4.612  10.828  0.0322 -0.1713  0.0726
 6820SOL    HW131919   3.146   4.622  10.826  0.0746  0.3245  0.3186
 6820SOL    HW231920   3.256   4.595  10.921  1.7198  1.3606  0.0852
 6821SOL     OW31921   0.045   4.267   8.757  0.1093  0.2074 -0.4907
 6821SOL    HW131922   0.128   4.272   8.806 -1.7341  0.9807  2.6060
 6821SOL    HW231923   0.040   4.350   8.710  0.9168 -1.1012 -2.8652
 6822SOL     OW31924   3.332   0.625   8.569 -0.2379  0.1856  0.2467
 6822SOL    HW131925   3.308   0.688   8.502  0.8038  0.0611 -0.2402
 6822SOL    HW231926   3.329   0.551   8.508  2.0858 -1.7120  2.4151
 6823SOL     OW31927   2.171   0.782   7.153 -0.1529 -0.2244 -0.2119
 6823SOL    HW131928   2.258   0.764   7.118  0.6759  3.1313  0.1094
 6823SOL    HW231929   2.134   0.695   7.167 -1.2704 -0.5222 -4.9407
 6824SOL     OW31930   0.579   2.705   3.416  0.1031  0.1787 -0.1538
 6824SOL    HW131931   0.484   2.698   3.416  0.1592 -0.5918  2.9869
 6824SOL    HW231932   0.591   2.755   3.335  0.8872  0.5703  0.1972
 6825SOL     OW31933   4.146   0.441   0.248 -0.1337 -0.6858 -0.6149
 6825SOL    HW131934   4.224   0.421   0.197  1.7538  2.8108  0.9491
 6825SOL    HW231935   4.096   0.502   0.194  0.7830  0.4389 -0.1904
 6826SOL     OW31936   1.280   1.285   4.411  0.2651 -0.2153  0.5784
 6826SOL    HW131937   1.201   1.232   4.421 -0.6249  1.2213  1.1744
 6826SOL    HW231938   1.342   1.229   4.365  1.8798  2.2248 -0.1926
 6827SOL     OW31939   0.364   4.433  13.336  0.3640 -0.2703  0.0970
 6827SOL    HW131940   0.327   4.519  13.356  0.4051 -0.6552  1.8663
 6827SOL    HW231941   0.328   4.404  13.252 -0.0291  0.8095 -0.1045
 6828SOL     OW31942   2.523   2.118   5.714  0.8883 -0.2398  0.3671
 6828SOL    HW131943   2.599   2.169   5.744  1.3117 -0.2465 -0.7194
 6828SOL    HW231944   2.547   2.034   5.754  1.4243  0.0157  0.5858
 6829SOL     OW31945   1.349   1.914   5.212  0.0988  0.1503 -0.5377
 6829SOL    HW131946   1.371   1.996   5.255 -3.3115 -0.5734  2.6945
 6829SOL    HW231947   1.344   1.937   5.120  1.4975 -1.3878 -1.0047
 6830SOL     OW31948   2.197   0.609   2.523  0.4895  0.1612  0.4427
 6830SOL    HW131949   2.273   0.668   2.520  1.3665 -1.1109 -2.5594
 6830SOL    HW231950   2.218   0.558   2.445 -0.0807 -0.9313  1.0084
 6831SOL     OW31951   0.941   0.372   8.581  0.4355 -0.2391  0.6332
 6831SOL    HW131952   0.890   0.300   8.545  0.2631  0.5536 -0.7048
 6831SOL    HW231953   0.915   0.446   8.527  0.0726 -0.2305  0.8172
 6832SOL     OW31954   2.035   4.262  12.593  0.4605 -0.6208  1.0649
 6832SOL    HW131955   2.086   4.305  12.524 -0.7250  1.3129  1.3907
 6832SOL    HW231956   2.111   4.268  12.651  0.7369  1.3396  0.4768
 6833SOL     OW31957   3.657   2.090   0.052 -0.1748  0.1512  0.1995
 6833SOL    HW131958   3.721   2.109  17.680  0.4543 -0.1449  0.7142
 6833SOL    HW231959   3.714   2.114   0.125  0.1306  1.1942 -0.3843
 6834SOL     OW31960   3.253   3.842   2.400 -0.4447  0.5378  0.7563
 6834SOL    HW131961   3.286   3.791   2.326  0.2222  0.5562  1.0436
 6834SOL    HW231962   3.330   3.894   2.420 -0.0838  0.2313  0.1859
 6835SOL     OW31963   2.774   2.560   9.352 -0.7525  0.5220 -0.0099
 6835SOL    HW131964   2.757   2.549   9.445 -0.5754 -0.2103 -0.0638
 6835SOL    HW231965   2.819   2.645   9.350 -1.6130  1.0187  2.1552
 6836SOL     OW31966   0.517   2.739   6.823 -0.2049  0.3245  0.5468
 6836SOL    HW131967   0.451   2.691   6.772  0.7279  1.0805 -1.3757
 6836SOL    HW231968   0.495   2.828   6.794  1.5754  0.3191 -0.8080
 6837SOL     OW31969   0.056   1.948   3.576  0.2917  0.2757 -0.2740
 6837SOL    HW131970   0.113   2.020   3.548 -0.7185  0.5964 -1.4916
 6837SOL    HW231971   0.115   1.888   3.621  0.6499  0.6397 -0.2532
 6838SOL     OW31972   3.832   3.625   4.587  0.1931  0.3117  0.0305
 6838SOL    HW131973   3.797   3.691   4.646  1.6045 -0.7026  2.0041
 6838SOL    HW231974   3.771   3.630   4.514 -0.2716 -1.1960  0.3094
 6839SOL     OW31975   0.512   4.178   1.823 -0.5915  0.8789 -0.2928
 6839SOL    HW131976   0.461   4.165   1.903 -0.2911 -2.8852 -0.7279
 6839SOL    HW231977   0.590   4.130   1.851 -1.7178 -0.3787  0.6628
 6840SOL     OW31978   1.575   3.175  10.300 -0.1910 -0.4918  0.2049
 6840SOL    HW131979   1.590   3.113  10.372  1.1906 -1.5123 -0.9788
 6840SOL    HW231980   1.533   3.251  10.341 -1.1261 -1.8041  1.7194
 6841SOL     OW31981   4.119   3.745  10.814 -0.3188  0.1325 -0.1108
 6841SOL    HW131982   4.175   3.788  10.749  2.4420 -3.7757 -0.3248
 6841SOL    HW231983   4.162   3.661  10.826  0.9761  0.8529  0.3042
 6842SOL     OW31984   3.212   3.843   9.328  0.3260 -0.3023  0.3858
 6842SOL    HW131985   3.209   3.752   9.357  3.9781 -0.5157  0.0603
 6842SOL    HW231986   3.117   3.857   9.325  0.7070  2.2417  0.0244
 6843SOL     OW31987   2.833   4.369   4.639  0.2857 -0.1842  0.3507
 6843SOL    HW131988   2.874   4.309   4.701 -2.3954  0.0597  2.3658
 6843SOL    HW231989   2.869   4.323   4.563 -1.3647  2.7693 -2.2499
 6844SOL     OW31990   3.744   2.869  17.660 -0.2545  0.5552 -0.7789
 6844SOL    HW131991   3.790   2.896   0.043  1.1391 -0.5736 -1.2125
 6844SOL    HW231992   3.802   2.809  17.614  1.9203  1.5538  0.6543
 6845SOL     OW31993   2.097   3.481   2.576 -0.0119 -0.2149 -0.2159
 6845SOL    HW131994   2.100   3.575   2.558  0.8559 -0.1072  0.5096
 6845SOL    HW231995   2.008   3.477   2.611  0.8375 -0.3225  1.9519
 6846SOL     OW31996   0.536   2.542   1.959 -0.1758  0.1434 -0.5435
 6846SOL    HW131997   0.624   2.504   1.967 -1.5976 -2.9650  0.3755
 6846SOL    HW231998   0.493   2.467   2.001  0.5956  0.7018  1.2246
 6847SOL     OW31999   2.155   0.934  15.926 -0.4005 -0.5113  0.0023
 6847SOL    HW132000   2.165   1.028  15.938 -0.2337 -0.7057  1.3949
 6847SOL    HW232001   2.066   0.914  15.955 -0.1682 -0.9256  0.4344
 6848SOL     OW32002   0.291   3.772   8.041  0.1265 -0.2280 -0.5080
 6848SOL    HW132003   0.204   3.780   8.079 -0.2144 -1.0856 -1.1196
 6848SOL    HW232004   0.270   3.719   7.964 -0.7095 -0.6996  0.0384
 6849SOL     OW32005   0.796   4.254   7.976  0.2613 -0.0127 -0.0867
 6849SOL    HW132006   0.784   4.336   7.928  0.9580 -0.2339 -0.6540
 6849SOL    HW232007   0.770   4.201   7.901 -0.3300  0.9328 -0.5453
 6850SOL     OW32008   0.784   2.577   6.042  0.0867  0.2758 -0.1586
 6850SOL    HW132009   0.757   2.485   6.051  1.5251 -0.0374  0.9803
 6850SOL    HW232010   0.869   2.564   6.084  0.1223 -2.0931 -0.9626
 6851SOL     OW32011   0.992   1.990   4.433  0.1825  0.2269  0.5531
 6851SOL    HW132012   0.925   1.965   4.369  1.2270 -0.3091 -0.3216
 6851SOL    HW232013   1.008   1.907   4.477  0.8689 -0.5928 -1.2845
 6852SOL     OW32014   2.929   1.657  15.792 -0.5178  0.6287 -0.2798
 6852SOL    HW132015   3.016   1.685  15.766  0.2537 -0.2360  1.3294
 6852SOL    HW232016   2.880   1.710  15.729 -1.3574  1.4172  1.0129
 6853SOL     OW32017   0.175   2.896  16.440  0.3501  0.3883 -0.1520
 6853SOL    HW132018   0.151   2.896  16.532 -0.3431 -0.7722 -0.3293
 6853SOL    HW232019   0.193   2.802  16.429  0.6585  0.5014 -0.6592
 6854SOL     OW32020   3.268   2.980   7.767 -0.2361 -0.1431 -0.2210
 6854SOL    HW132021   3.285   2.891   7.735 -0.7746 -0.5783  0.6956
 6854SOL    HW232022   3.268   3.035   7.688 -2.0421 -0.4745 -0.4540
 6855SOL     OW32023   2.218   3.631   1.150 -0.0469  0.3120 -0.5083
 6855SOL    HW132024   2.284   3.647   1.083  1.3432 -0.2498  0.7134
 6855SOL    HW232025   2.261   3.569   1.208  0.5612 -0.0449 -1.3440
 6856SOL     OW32026   2.690   0.135   2.313 -0.1626 -0.5501  0.0235
 6856SOL    HW132027   2.655   0.210   2.266  4.5866  1.0451 -0.9276
 6856SOL    HW232028   2.652   0.170   2.394 -1.8422  1.8051 -1.7855
 6857SOL     OW32029   1.064   3.844  15.111 -0.6238 -0.1422  0.0534
 6857SOL    HW132030   1.031   3.906  15.175 -0.1414 -0.5695  0.7223
 6857SOL    HW232031   1.149   3.883  15.095 -2.0989  1.7027 -3.1965
 6858SOL     OW32032   0.991   4.407   6.430  0.5924 -0.3126 -0.2740
 6858SOL    HW132033   0.969   4.320   6.397  1.2712 -0.5580 -0.0683
 6858SOL    HW232034   1.074   4.410   6.382 -0.6681  0.5544 -2.4283
 6859SOL     OW32035   3.717   0.075  17.003 -0.5267  0.0755 -0.4890
 6859SOL    HW132036   3.637   0.068  17.056 -1.6584  2.8179 -1.8256
 6859SOL    HW232037   3.769   0.133  17.059  0.7842 -2.1927  0.6618
 6860SOL     OW32038   3.214   3.194  16.184  0.6116 -0.1339 -0.0444
 6860SOL    HW132039   3.214   3.099  16.186  1.5881 -0.0849  2.0153
 6860SOL    HW232040   3.304   3.217  16.162  1.0168 -0.6425  1.0902
 6861SOL     OW32041   0.656   2.918  11.192  0.2115 -0.2094 -0.2745
 6861SOL    HW132042   0.615   2.944  11.109 -1.5828 -0.0374  0.6609
 6861SOL    HW232043   0.682   3.001  11.231  1.1305  0.8025 -3.0657
 6862SOL     OW32044   2.615   0.236   4.429 -0.2670  0.2109  0.3500
 6862SOL    HW132045   2.561   0.163   4.398 -0.8415  0.0391  1.7837
 6862SOL    HW232046   2.646   0.191   4.508  0.7141  0.6749  0.2309
 6863SOL     OW32047   4.140   3.895   7.552 -0.2386 -0.4333 -0.3627
 6863SOL    HW132048   4.195   3.833   7.504  1.4988  0.3223  0.6539
 6863SOL    HW232049   4.079   3.925   7.485 -0.4240 -1.1971 -0.5333
 6864SOL     OW32050   2.900   1.507  12.559  0.1713 -0.7122 -0.7203
 6864SOL    HW132051   2.814   1.546  12.576  1.0766  0.7202  0.5088
 6864SOL    HW232052   2.936   1.512  12.647 -2.1750  1.1233  0.1182
 6865SOL     OW32053   3.484   3.656   3.222  0.6443  0.2461 -0.5311
 6865SOL    HW132054   3.484   3.584   3.285  0.9017  2.1449  1.6287
 6865SOL    HW232055   3.397   3.698   3.223  0.9032  0.6846  2.7634
 6866SOL     OW32056   0.746   2.567   8.558 -0.3955 -0.3798  0.1974
 6866SOL    HW132057   0.717   2.659   8.555  1.4156  0.2241  0.8675
 6866SOL    HW232058   0.834   2.572   8.520 -1.1752 -1.0842 -1.6896
 6867SOL     OW32059   2.925   3.424   7.294 -0.1301 -0.1027  0.1778
 6867SOL    HW132060   2.983   3.489   7.333 -0.1002 -0.9816  1.6045
 6867SOL    HW232061   2.979   3.345   7.298 -1.5421 -1.3483 -5.2483
 6868SOL     OW32062   4.374   1.386  17.481 -0.1419 -0.1648 -0.1847
 6868SOL    HW132063   4.283   1.377  17.451 -0.6106 -1.6131  1.6380
 6868SOL    HW232064   4.378   1.307  17.534 -0.4607  0.5628  0.9324
 6869SOL     OW32065   3.038   2.601  11.949  0.1276 -0.0672 -0.2324
 6869SOL    HW132066   2.951   2.626  11.916 -0.4362  1.0705  2.1130
 6869SOL    HW232067   3.038   2.656  12.028 -0.0461 -1.5004  0.7681
 6870SOL     OW32068   1.308   4.042   9.723 -0.1643  0.4568 -0.2574
 6870SOL    HW132069   1.259   4.107   9.772  2.1483  1.7269  0.3607
 6870SOL    HW232070   1.237   3.993   9.680 -1.3078  2.7338 -0.9734
 6871SOL     OW32071   3.808   2.264   1.965  0.1908  0.3712 -0.4553
 6871SOL    HW132072   3.751   2.317   1.909  0.1219  1.1753  0.3757
 6871SOL    HW232073   3.857   2.207   1.906  1.6368  0.1245  0.9823
 6872SOL     OW32074   3.645   3.432   1.149 -0.0300  0.0469 -0.3627
 6872SOL    HW132075   3.731   3.464   1.176  0.6056  0.7826 -3.1534
 6872SOL    HW232076   3.674   3.346   1.120  0.1728  0.0934 -0.2981
 6873SOL     OW32077   4.000   0.380   3.148  0.2226  0.0164  0.1096
 6873SOL    HW132078   4.061   0.343   3.084 -0.7493  0.6807 -1.1954
 6873SOL    HW232079   4.045   0.464   3.161 -1.4689  0.6758  1.6235
 6874SOL     OW32080   0.155   0.099  11.433 -0.1026 -0.7190 -0.3646
 6874SOL    HW132081   0.198   0.063  11.510 -0.4985  0.6673  0.5062
 6874SOL    HW232082   0.162   0.026  11.372  1.2395 -1.5904  0.8566
 6875SOL     OW32083   3.959   2.610   9.786  0.0579 -0.3155  0.3637
 6875SOL    HW132084   3.935   2.558   9.863 -0.5402  2.3371  1.9362
 6875SOL    HW232085   3.939   2.694   9.827 -1.7468 -0.1376 -0.8883
 6876SOL     OW32086   3.680   2.647   2.325  0.1570 -1.0463 -0.2119
 6876SOL    HW132087   3.706   2.629   2.416  3.2119  4.1487 -0.0304
 6876SOL    HW232088   3.598   2.693   2.345  0.3904 -0.7476  0.0608
 6877SOL     OW32089   2.812   3.651   6.914  0.0361 -0.4755  0.4411
 6877SOL    HW132090   2.776   3.656   7.002  0.8350 -0.2143  0.7522
 6877SOL    HW232091   2.873   3.577   6.922  0.1902 -0.2353  1.4574
 6878SOL     OW32092   4.335   4.686  10.965  0.0393 -0.2034 -0.6513
 6878SOL    HW132093   4.396   4.679  10.892  0.7752 -1.1618  0.0577
 6878SOL    HW232094   4.370   4.637  11.039  0.0329 -0.2367 -0.6705
 6879SOL     OW32095   2.647   4.691   8.568 -0.2345 -0.1441 -0.2346
 6879SOL    HW132096   2.639   4.642   8.486 -1.1651 -2.6560  1.3317
 6879SOL    HW232097   2.692   0.039   8.523  0.6939 -0.7210 -0.2263
 6880SOL     OW32098   2.206   3.829   5.325 -0.5695 -0.3349 -0.3386
 6880SOL    HW132099   2.269   3.758   5.338 -2.2773 -1.9070 -0.5047
 6880SOL    HW232100   2.232   3.864   5.240  1.2391 -1.6848 -0.3265
 6881SOL     OW32101   2.911   4.219   7.357  0.3071 -0.3631 -0.1947
 6881SOL    HW132102   2.885   4.190   7.445 -0.3826  1.0742  0.0798
 6881SOL    HW232103   2.850   4.292   7.360 -0.5893 -1.0978 -0.3288
 6882SOL     OW32104   4.459   1.434   8.927 -0.3830 -0.0088 -0.6630
 6882SOL    HW132105   4.376   1.475   8.905 -0.2333  0.1727 -0.8805
 6882SOL    HW232106   4.480   1.397   8.841 -1.4823 -1.0777 -0.4699
 6883SOL     OW32107   0.250   2.468   2.063 -0.3375  0.0476 -0.5896
 6883SOL    HW132108   0.155   2.460   2.067 -0.2248 -1.5298 -1.0378
 6883SOL    HW232109   0.280   2.377   2.071 -3.6065 -1.0496 -0.8220
 6884SOL     OW32110   2.258   0.979   3.514  0.1910 -0.0573  0.1108
 6884SOL    HW132111   2.337   1.008   3.468  1.1737 -1.1783  1.0866
 6884SOL    HW232112   2.268   0.996   3.608  1.5636  0.1151 -0.0577
 6885SOL     OW32113   2.643   2.641   4.603  0.0529  0.3964 -0.0131
 6885SOL    HW132114   2.625   2.566   4.547  0.5297 -1.0752  1.8319
 6885SOL    HW232115   2.558   2.685   4.594  0.3211  0.4996 -2.1050
 6886SOL     OW32116   1.872   2.650   6.176 -0.6336 -0.0996  0.3374
 6886SOL    HW132117   1.871   2.746   6.176  1.1486 -0.0896 -0.6828
 6886SOL    HW232118   1.936   2.623   6.110 -1.0514  0.0715 -0.1329
 6887SOL     OW32119   2.879   4.341   3.480  0.0649 -0.3735 -0.2644
 6887SOL    HW132120   2.891   4.435   3.493 -0.6718 -0.7099  2.9572
 6887SOL    HW232121   2.920   4.329   3.395  0.2485 -0.8188 -0.1156
 6888SOL     OW32122   4.102   3.920  17.039 -0.1067  0.1494 -0.7295
 6888SOL    HW132123   4.040   3.993  17.041  0.4585  0.5966  0.6048
 6888SOL    HW232124   4.163   3.945  17.109 -1.3022 -0.8960  0.6851
 6889SOL     OW32125   3.835   2.858   1.045  0.0496  0.6467  0.0849
 6889SOL    HW132126   3.755   2.898   1.012 -0.1787  1.8974  2.1517
 6889SOL    HW232127   3.827   2.773   1.001  1.6926  1.3762 -1.6421
 6890SOL     OW32128   0.474   0.567   7.979 -0.5823 -0.4756  0.8113
 6890SOL    HW132129   0.507   0.494   7.926 -1.5809 -0.5543  0.3000
 6890SOL    HW232130   0.458   0.630   7.909 -1.1025 -0.8323  0.6104
 6891SOL     OW32131   4.248   2.447   4.487  0.0864  0.2090 -0.4043
 6891SOL    HW132132   4.200   2.524   4.456 -1.1069  0.0847  1.1604
 6891SOL    HW232133   4.338   2.476   4.468  0.9585 -0.7055  2.1970
 6892SOL     OW32134   4.083   1.925  13.617 -0.1809  0.2095  0.2405
 6892SOL    HW132135   3.993   1.937  13.588  0.3053  0.3444 -1.2421
 6892SOL    HW232136   4.088   1.830  13.627  3.7939  0.0832 -2.9701
 6893SOL     OW32137   4.270   3.730   4.273  0.3485 -0.0539  0.3009
 6893SOL    HW132138   4.183   3.763   4.298  0.2980  0.2995 -0.3277
 6893SOL    HW232139   4.335   3.797   4.293  0.5259  0.0229 -0.5609
 6894SOL     OW32140   3.490   4.560   9.785 -0.0691 -0.2751  1.0375
 6894SOL    HW132141   3.559   4.622   9.761  0.6958 -1.4785  0.1461
 6894SOL    HW232142   3.419   4.624   9.794  1.6738  1.6872  0.8294
 6895SOL     OW32143   2.659   1.308   5.195 -0.0177 -0.5766  0.4643
 6895SOL    HW132144   2.711   1.229   5.210  1.3227  0.4579  1.2835
 6895SOL    HW232145   2.697   1.335   5.112  1.0088 -1.8780  0.5156
 6896SOL     OW32146   2.607   4.369  12.824 -0.4055  0.8096  0.0079
 6896SOL    HW132147   2.690   4.345  12.865  0.3128  0.6898 -1.5419
 6896SOL    HW232148   2.549   4.381  12.899 -0.0682  0.4817  0.3225
 6897SOL     OW32149   3.734   1.808   8.815 -0.0619  0.6914 -0.4396
 6897SOL    HW132150   3.775   1.734   8.769 -1.1907  0.9792 -1.9222
 6897SOL    HW232151   3.647   1.809   8.776 -0.2770 -1.3495 -0.0196
 6898SOL     OW32152   4.418   2.999   1.515 -0.5131 -0.2889  0.0781
 6898SOL    HW132153   4.408   3.071   1.453 -3.2297 -0.8738 -0.1909
 6898SOL    HW232154   4.330   2.998   1.553 -0.8187 -0.4337 -0.6268
 6899SOL     OW32155   2.457   1.195  14.245 -0.1991 -0.2421 -0.5109
 6899SOL    HW132156   2.413   1.205  14.330 -0.7643  0.8801 -0.9310
 6899SOL    HW232157   2.412   1.263  14.195  0.3971  0.8118  0.3985
 6900SOL     OW32158   3.898   4.126  17.083 -0.4433  0.5986 -1.0045
 6900SOL    HW132159   3.897   4.166  17.170  0.3255 -0.4937 -0.4971
 6900SOL    HW232160   3.806   4.103  17.073 -0.2919 -0.3869 -0.0176
 6901SOL     OW32161   0.153   2.280   3.758 -0.5129  0.5131  0.1194
 6901SOL    HW132162   0.190   2.353   3.806  1.9835  0.1560 -1.2529
 6901SOL    HW232163   0.232   2.235   3.728 -1.1697 -1.1583  0.8619
 6902SOL     OW32164   4.180   3.839  14.867 -0.3667  0.8955  0.0430
 6902SOL    HW132165   4.219   3.854  14.954 -0.0353  2.3010 -0.3472
 6902SOL    HW232166   4.130   3.761  14.888 -0.9185  1.6165  1.4334
 6903SOL     OW32167   3.332   0.438  17.621  0.5028  0.0641 -0.2688
 6903SOL    HW132168   3.424   0.417  17.602  0.3992 -0.2936 -0.3632
 6903SOL    HW232169   3.290   0.414  17.539 -0.4755 -0.8300  0.4993
 6904SOL     OW32170   3.850   4.214   3.122 -0.2806 -0.0140  0.3455
 6904SOL    HW132171   3.937   4.179   3.101 -0.3986  0.1256 -0.3850
 6904SOL    HW232172   3.838   4.168   3.205  0.2896  1.1313  1.0554
 6905SOL     OW32173   3.263   2.425   3.688  0.1130  0.1058 -0.0934
 6905SOL    HW132174   3.332   2.474   3.644  1.0790 -0.4984  0.7589
 6905SOL    HW232175   3.225   2.485   3.752 -0.1588 -0.8499  0.6396
 6906SOL     OW32176   3.993   2.896   4.335  0.3615 -0.4622  0.0639
 6906SOL    HW132177   4.076   2.939   4.355 -0.5252  2.0837 -1.7216
 6906SOL    HW232178   3.991   2.856   4.422 -0.6808 -1.1423 -0.2708
 6907SOL     OW32179   1.397   0.746   2.750 -0.6989 -0.1845 -0.0709
 6907SOL    HW132180   1.420   0.825   2.702 -1.6071  1.2456  1.8649
 6907SOL    HW232181   1.474   0.744   2.807  0.3199  1.1581 -1.3935
 6908SOL     OW32182   1.220   3.824  16.804 -0.1536 -0.2975  0.6768
 6908SOL    HW132183   1.265   3.874  16.736  0.1577 -1.9559 -0.3238
 6908SOL    HW232184   1.286   3.757  16.822  0.4632  0.4426  1.1810
 6909SOL     OW32185   0.806   3.912   6.247 -0.4807 -0.0795  0.0823
 6909SOL    HW132186   0.886   3.881   6.290 -0.0078  0.9167 -0.0757
 6909SOL    HW232187   0.805   4.001   6.283 -0.0585  0.6280 -1.6580
 6910SOL     OW32188   0.005   0.005  11.821  0.1081 -0.0870  0.1225
 6910SOL    HW132189   0.032   4.640  11.796  0.0774  0.8824 -3.3556
 6910SOL    HW232190   4.642   0.017  11.783 -1.0077  0.0736  2.7280
 6911SOL     OW32191   3.829   3.565   3.157 -0.4999 -0.9422 -0.0069
 6911SOL    HW132192   3.854   3.550   3.248  2.0748  1.2981 -0.3205
 6911SOL    HW232193   3.837   3.660   3.149 -1.3639 -0.5873  3.6898
 6912SOL     OW32194   3.794   0.692  17.088  0.3986 -0.5393 -0.3503
 6912SOL    HW132195   3.814   0.691  17.181  1.2076 -2.3622 -0.5320
 6912SOL    HW232196   3.808   0.598  17.074 -2.2164 -1.0994  0.7982
 6913SOL     OW32197   1.825   4.217   9.390 -0.2329  0.8557  1.2211
 6913SOL    HW132198   1.743   4.215   9.439 -2.2957 -2.8278 -2.4248
 6913SOL    HW232199   1.797   4.221   9.299 -1.3235 -1.1452  1.4598
 6914SOL     OW32200   2.724   3.811  14.608 -1.0307 -0.0966  0.2219
 6914SOL    HW132201   2.740   3.748  14.538  1.8232  0.4620  0.3948
 6914SOL    HW232202   2.746   3.893  14.563  2.5514 -0.8835  0.5766
 6915SOL     OW32203   4.640   1.487   3.567 -0.3737  0.2386 -0.0340
 6915SOL    HW132204   4.571   1.484   3.633  0.2648  1.1449  0.6748
 6915SOL    HW232205   4.589   1.517   3.492 -1.9512 -1.5994  0.3102
 6916SOL     OW32206   3.815   4.511   7.775  0.0763  0.1237 -0.1201
 6916SOL    HW132207   3.804   4.416   7.764 -2.4370  0.3938  0.0611
 6916SOL    HW232208   3.908   4.517   7.797  0.3867 -0.4183 -1.2854
 6917SOL     OW32209   2.400   0.458   3.774  0.2691 -0.0308 -0.0607
 6917SOL    HW132210   2.405   0.429   3.683  2.3296  0.1065  0.0149
 6917SOL    HW232211   2.413   0.373   3.815 -2.4421  0.1440  1.1748
 6918SOL     OW32212   3.292   1.475  10.334  0.4683  0.0354  0.2236
 6918SOL    HW132213   3.217   1.526  10.301  0.0545 -0.7306 -0.0336
 6918SOL    HW232214   3.355   1.508  10.270  1.6780  1.5006  2.1361
 6919SOL     OW32215   3.902   2.339   0.697  0.0126 -0.7519  0.0573
 6919SOL    HW132216   3.886   2.245   0.701 -2.3881 -0.2916  1.5386
 6919SOL    HW232217   3.991   2.335   0.733  0.4457  0.1181 -0.9296
 6920SOL     OW32218   4.490   1.450   4.549  0.1446 -0.5280 -0.1555
 6920SOL    HW132219   4.553   1.482   4.484 -2.2598 -0.1677 -2.3004
 6920SOL    HW232220   4.550   1.436   4.622  0.0691 -1.3208 -0.2426
 6921SOL     OW32221   4.273   0.209   8.139 -0.2289 -0.7103 -0.0328
 6921SOL    HW132222   4.291   0.201   8.045 -2.0919  1.2773 -0.5582
 6921SOL    HW232223   4.229   0.125   8.155 -0.8230 -0.1916  1.0269
 6922SOL     OW32224   2.394   1.740   6.446  0.8653 -0.5294  0.1421
 6922SOL    HW132225   2.338   1.816   6.433  0.3884 -0.7975  0.6223
 6922SOL    HW232226   2.369   1.732   6.538  0.2582 -4.2288 -0.3682
 6923SOL     OW32227   0.484   1.377  12.300 -0.1875 -0.4874  0.2306
 6923SOL    HW132228   0.438   1.450  12.342  1.1812  1.1306 -1.1205
 6923SOL    HW232229   0.533   1.347  12.376  2.2858 -0.2852 -1.2971
 6924SOL     OW32230   0.250   4.437   5.520 -0.2519 -0.2121  0.3199
 6924SOL    HW132231   0.236   4.487   5.600  3.9416  1.7152 -0.1580
 6924SOL    HW232232   0.343   4.419   5.531 -0.0261 -0.0190 -1.2128
 6925SOL     OW32233   2.366   0.230   8.638 -0.8513  0.1783  0.2062
 6925SOL    HW132234   2.410   0.236   8.554  0.7285  2.2063  1.1639
 6925SOL    HW232235   2.443   0.257   8.688 -1.6206  1.5238  0.6653
 6926SOL     OW32236   0.475   3.307   9.073 -0.3929 -0.3669  0.3084
 6926SOL    HW132237   0.496   3.283   9.163  2.0900 -1.2824 -0.5284
 6926SOL    HW232238   0.510   3.238   9.016 -0.5078 -0.6180  0.5379
 6927SOL     OW32239   3.052   1.956   2.253  0.3104 -0.1401 -0.8189
 6927SOL    HW132240   3.007   1.873   2.243 -0.2749  0.1203 -0.2818
 6927SOL    HW232241   3.142   1.925   2.240  0.1476 -0.9331  0.0140
 6928SOL     OW32242   1.427   2.739  15.813 -0.9388 -0.6333  0.1959
 6928SOL    HW132243   1.470   2.776  15.736 -0.8989  1.7895  1.3825
 6928SOL    HW232244   1.411   2.820  15.861  0.6189 -0.7947  1.0112
 6929SOL     OW32245   4.701   3.405   8.108 -0.0502  0.1928 -0.1928
 6929SOL    HW132246   4.710   3.460   8.031 -2.6618  0.7613 -0.0892
 6929SOL    HW232247   4.713   3.322   8.062 -0.5942  1.1794 -2.1173
 6930SOL     OW32248   3.129   2.155   1.968  0.2128  0.0584 -1.0720
 6930SOL    HW132249   3.087   2.238   1.944  1.9447  0.9680 -0.9168
 6930SOL    HW232250   3.063   2.091   1.943  0.0326 -0.6130  1.1355
 6931SOL     OW32251   3.794   2.315   7.129  0.6648  0.2229 -0.5904
 6931SOL    HW132252   3.873   2.328   7.182  2.2395 -2.4533 -2.2695
 6931SOL    HW232253   3.735   2.381   7.165  0.9419  0.5179 -0.6805
 6932SOL     OW32254   0.823   0.667   9.783  0.0621 -0.1267 -0.0198
 6932SOL    HW132255   0.889   0.648   9.849  1.8774  1.9722 -1.2525
 6932SOL    HW232256   0.769   0.588   9.774  0.5533 -0.5896  1.1159
 6933SOL     OW32257   3.836   0.804   2.330 -0.2250  0.0423  0.2421
 6933SOL    HW132258   3.826   0.877   2.391 -2.2697 -1.3943  1.6141
 6933SOL    HW232259   3.841   0.731   2.391  0.4498  0.3110  0.5064
 6934SOL     OW32260   1.907   0.384   8.270  0.2707 -0.1579  0.4077
 6934SOL    HW132261   1.910   0.397   8.365  1.3791  2.3621  0.0467
 6934SOL    HW232262   1.847   0.453   8.243  0.4718  0.1255  0.6756
 6935SOL     OW32263   3.238   0.894   5.062 -0.3441 -0.0447  0.0904
 6935SOL    HW132264   3.144   0.886   5.046 -0.4661 -0.6560  1.0419
 6935SOL    HW232265   3.238   0.843   5.144 -0.1997 -1.0998 -0.5663
 6936SOL     OW32266   2.098   1.190   5.331  0.6370 -0.8247  0.3829
 6936SOL    HW132267   2.189   1.199   5.360  0.1721  2.1926  0.9114
 6936SOL    HW232268   2.053   1.181   5.415 -0.3778 -0.8353 -0.1579
 6937SOL     OW32269   1.478   1.616   2.179 -0.1071  0.0832 -0.3811
 6937SOL    HW132270   1.468   1.711   2.181 -0.0774  0.0794  0.0988
 6937SOL    HW232271   1.391   1.588   2.210 -0.1829 -0.6094 -1.1983
 6938SOL     OW32272   2.460   3.694   7.595  0.2921 -0.6843  0.3134
 6938SOL    HW132273   2.377   3.740   7.583  1.1916  0.4013 -1.6128
 6938SOL    HW232274   2.480   3.695   7.689  0.4410  0.7724  0.2666
 6939SOL     OW32275   0.985   3.613   1.973 -0.1399  0.3879  0.3517
 6939SOL    HW132276   0.915   3.554   1.946  0.3164 -0.2137  0.4976
 6939SOL    HW232277   0.971   3.683   1.909  0.9112  0.4222  0.1737
 6940SOL     OW32278   2.623   1.330   7.444 -0.5893 -0.3112 -0.4663
 6940SOL    HW132279   2.662   1.281   7.516 -0.0695  0.3237 -0.3134
 6940SOL    HW232280   2.555   1.380   7.490  1.2532 -0.0544  1.9655
 6941SOL     OW32281   4.355   1.306   2.317  0.1633 -0.1296 -0.0851
 6941SOL    HW132282   4.368   1.328   2.224 -2.5097  1.8970  0.0165
 6941SOL    HW232283   4.376   1.380   2.374 -0.9150  0.2171 -0.1391
 6942SOL     OW32284   3.704   3.773  13.386 -0.1246 -0.0525  0.4407
 6942SOL    HW132285   3.633   3.742  13.329  0.8875 -0.7374 -0.4492
 6942SOL    HW232286   3.750   3.832  13.326 -0.1804 -0.2921  0.1593
 6943SOL     OW32287   3.843   2.944   1.331  0.2639 -0.8894 -0.2580
 6943SOL    HW132288   3.849   2.888   1.408 -0.0939  0.0612  0.4613
 6943SOL    HW232289   3.817   2.878   1.266  1.2963 -0.3746 -1.1976
 6944SOL     OW32290   1.519   1.833  11.569 -0.2266 -0.0546 -0.0618
 6944SOL    HW132291   1.542   1.922  11.598 -1.5378  1.2143 -2.9353
 6944SOL    HW232292   1.535   1.831  11.475 -0.5172  1.4726 -0.1513
 6945SOL     OW32293   4.674   4.062   6.890 -0.4527  0.4010  0.1474
 6945SOL    HW132294   0.021   4.094   6.834 -0.3630 -1.3915 -0.7881
 6945SOL    HW232295   4.702   3.978   6.928  0.1909  0.0331 -1.1514
 6946SOL     OW32296   1.413   4.533   5.176 -0.1154  0.4050  0.1197
 6946SOL    HW132297   1.319   4.532   5.159 -0.2600 -0.5499  0.9718
 6946SOL    HW232298   1.424   4.455   5.231  1.7272 -0.1260 -0.9854
 6947SOL     OW32299   1.618   4.146  13.602 -0.5354  0.2300 -0.4472
 6947SOL    HW132300   1.540   4.194  13.629 -0.4258 -0.9154  1.8876
 6947SOL    HW232301   1.674   4.152  13.679  0.7670  1.2848 -1.4697
 6948SOL     OW32302   0.846   0.498   8.974 -0.3696 -0.2207  0.5855
 6948SOL    HW132303   0.937   0.481   8.947 -0.6497 -1.1974  0.2804
 6948SOL    HW232304   0.838   0.436   9.046 -0.3291 -0.8919  0.0082
 6949SOL     OW32305   2.271   1.051   2.458 -0.3561  0.1972  0.2900
 6949SOL    HW132306   2.345   1.111   2.455 -0.8636  0.7491 -1.2507
 6949SOL    HW232307   2.197   1.108   2.478 -2.3542 -1.2459 -3.0967
 6950SOL     OW32308   1.737   2.335   9.519  0.4090 -0.5790  0.2658
 6950SOL    HW132309   1.710   2.391   9.446 -2.0199 -0.1384  1.5048
 6950SOL    HW232310   1.825   2.307   9.492 -0.5600 -0.9336 -2.5140
 6951SOL     OW32311   0.445   0.375  13.179  0.6638 -0.5878 -0.0654
 6951SOL    HW132312   0.400   0.320  13.244  1.3368 -1.7881 -0.6185
 6951SOL    HW232313   0.521   0.391  13.234  0.1725  0.3060  0.3555
 6952SOL     OW32314   3.601   0.277   0.141 -0.1513  0.3322  0.1339
 6952SOL    HW132315   3.673   0.339   0.134  1.4298 -1.3815  1.5300
 6952SOL    HW232316   3.623   0.212   0.074  0.1045  2.2320 -1.6413
 6953SOL     OW32317   2.745   2.533   6.304 -0.2100 -0.0141  0.0992
 6953SOL    HW132318   2.837   2.529   6.281 -0.2275 -1.3967  0.2507
 6953SOL    HW232319   2.745   2.612   6.358  1.9608 -2.4712  3.7172
 6954SOL     OW32320   3.366   2.096   3.343  0.6829 -0.4248 -0.0626
 6954SOL    HW132321   3.348   2.093   3.249  1.6998 -2.7531 -0.1805
 6954SOL    HW232322   3.425   2.171   3.350 -1.7273  1.5486 -0.8611
 6955SOL     OW32323   1.147   1.128   8.333  0.1110 -0.2746 -0.3189
 6955SOL    HW132324   1.065   1.140   8.379  0.5849  0.5643  0.2951
 6955SOL    HW232325   1.215   1.156   8.394 -0.5461  0.4427  0.0741
 6956SOL     OW32326   1.425   3.635  13.092 -0.0833 -0.0676 -0.0736
 6956SOL    HW132327   1.431   3.544  13.122  1.4169 -0.1561 -0.6849
 6956SOL    HW232328   1.510   3.645  13.051 -0.6049 -1.2723 -1.4707
 6957SOL     OW32329   4.628   4.216   4.816  0.6700  0.0886  0.7507
 6957SOL    HW132330   4.586   4.279   4.758  0.7654 -0.0496  0.5314
 6957SOL    HW232331   4.555   4.200   4.875  0.2163  2.0937  0.7218
 6958SOL     OW32332   3.424   1.399  11.585 -0.1898  0.0342  0.1333
 6958SOL    HW132333   3.509   1.414  11.626  1.1246 -0.2535 -2.4320
 6958SOL    HW232334   3.366   1.422  11.657 -0.0116  2.3850 -0.4784
 6959SOL     OW32335   2.651   1.571   4.458 -0.7573 -0.5952 -0.3808
 6959SOL    HW132336   2.613   1.629   4.524 -2.6675 -1.4559 -0.7146
 6959SOL    HW232337   2.616   1.490   4.496  0.7488 -0.1946  1.8948
 6960SOL     OW32338   2.187   1.236  16.586 -1.0581  0.1586  0.2594
 6960SOL    HW132339   2.133   1.168  16.544  1.9502 -2.8672  1.2525
 6960SOL    HW232340   2.239   1.175  16.639  0.1422  1.6738  0.8235
 6961SOL     OW32341   4.017   1.902   7.254 -0.4014 -0.5406  0.1434
 6961SOL    HW132342   4.083   1.833   7.266  2.2610  1.5528 -2.6632
 6961SOL    HW232343   4.004   1.914   7.160  2.0190 -0.5235 -0.1907
 6962SOL     OW32344   3.224   0.645   8.145 -0.2900 -0.6221 -0.3610
 6962SOL    HW132345   3.181   0.705   8.084 -1.5178 -0.3845  0.7367
 6962SOL    HW232346   3.272   0.707   8.200  0.7588 -0.8616 -1.0034
 6963SOL     OW32347   2.145   4.302   2.376  0.6433 -0.0741 -0.1265
 6963SOL    HW132348   2.082   4.321   2.446 -0.4327  0.8473 -1.3321
 6963SOL    HW232349   2.133   4.381   2.322  0.9223 -1.2924 -1.9535
 6964SOL     OW32350   4.141   1.843   3.953  0.0841  0.0621  0.3846
 6964SOL    HW132351   4.171   1.778   3.890  1.5227  1.1708 -0.0842
 6964SOL    HW232352   4.130   1.779   4.024 -1.6340 -0.1194 -0.0608
 6965SOL     OW32353   1.006   0.225   2.417 -0.0958  0.4421  0.3531
 6965SOL    HW132354   1.082   0.182   2.457 -1.8597 -1.6943  1.4610
 6965SOL    HW232355   0.957   0.269   2.487  1.7659  0.5730  1.5634
 6966SOL     OW32356   0.549   2.886   5.871  0.8692  0.0839  0.5622
 6966SOL    HW132357   0.512   2.962   5.916  0.7151  0.9299 -1.0089
 6966SOL    HW232358   0.546   2.826   5.946 -0.7988 -2.4152 -1.4939
 6967SOL     OW32359   4.573   2.283   4.555  0.0663 -0.1474 -0.0343
 6967SOL    HW132360   4.564   2.360   4.499 -1.3572 -1.3650 -1.5058
 6967SOL    HW232361   4.642   2.304   4.617  1.1646  0.3894 -1.4542
 6968SOL     OW32362   3.907   3.936   6.004 -0.1804 -0.1577 -0.4966
 6968SOL    HW132363   3.944   3.859   5.961 -1.4621 -0.2886 -1.3551
 6968SOL    HW232364   3.860   3.973   5.929 -1.9885 -2.0717 -0.2866
 6969SOL     OW32365   2.777   4.556   5.886  0.0059 -0.3168 -0.1409
 6969SOL    HW132366   2.771   4.513   5.800 -1.6219 -1.3020  0.4712
 6969SOL    HW232367   2.826   4.492   5.939  0.0393  0.4614  0.7588
 6970SOL     OW32368   0.528   2.488   2.342 -0.1127 -0.1074  0.2525
 6970SOL    HW132369   0.444   2.441   2.342 -0.6761  0.9286 -1.0786
 6970SOL    HW232370   0.543   2.486   2.437  0.6855 -0.6704  0.1138
 6971SOL     OW32371   3.787   3.775  10.035 -0.1285  0.2363  0.2463
 6971SOL    HW132372   3.696   3.792  10.014  0.7154  1.4497 -2.4859
 6971SOL    HW232373   3.791   3.813  10.123 -1.3229 -0.9489  0.8094
 6972SOL     OW32374   3.767   2.172   6.007 -0.0342 -0.2097  0.3278
 6972SOL    HW132375   3.792   2.256   6.046 -0.8366  0.1817 -0.0059
 6972SOL    HW232376   3.803   2.174   5.918 -0.1217 -0.2998  0.2898
 6973SOL     OW32377   4.086   2.575   1.982  0.2804  0.6440  0.7504
 6973SOL    HW132378   4.011   2.600   2.037 -0.1770  2.3113 -0.6376
 6973SOL    HW232379   4.129   2.660   1.980  0.4265  0.5200 -2.0324
 6974SOL     OW32380   2.481   4.050   8.574  0.3207  0.6304  1.0332
 6974SOL    HW132381   2.536   4.127   8.566  1.7548 -0.8253 -3.1263
 6974SOL    HW232382   2.546   3.981   8.586  1.4228  1.2968 -1.3009
 6975SOL     OW32383   3.559   1.255   9.983  0.5105  0.0461 -1.2265
 6975SOL    HW132384   3.615   1.182  10.010  2.3440  1.5032 -1.0393
 6975SOL    HW232385   3.495   1.204   9.935  0.6407  0.4916 -1.8696
 6976SOL     OW32386   3.023   3.091   1.465 -0.0768  0.9343 -0.1066
 6976SOL    HW132387   3.033   3.113   1.558  0.1151  1.9411 -0.3728
 6976SOL    HW232388   2.933   3.060   1.468  0.8030 -1.4089  2.2084
 6977SOL     OW32389   2.181   1.164  11.874  0.2368  0.5581 -0.1796
 6977SOL    HW132390   2.199   1.219  11.950 -2.0135 -1.4247  1.7841
 6977SOL    HW232391   2.258   1.192  11.825  1.1818 -2.5066 -0.4320
 6978SOL     OW32392   2.691   0.136   0.998  0.6838 -0.5248  0.1220
 6978SOL    HW132393   2.694   0.132   0.902 -0.9348 -1.5292  0.1283
 6978SOL    HW232394   2.773   0.094   1.025  0.8291  1.0849  2.2350
 6979SOL     OW32395   3.740   1.318   1.097  0.1775  0.3503 -0.6144
 6979SOL    HW132396   3.772   1.389   1.153 -0.9433 -0.3113  0.8777
 6979SOL    HW232397   3.645   1.321   1.110 -0.0564  1.3030 -2.6211
 6980SOL     OW32398   2.691   3.222   1.358  0.3204  0.0028 -0.1145
 6980SOL    HW132399   2.714   3.309   1.389 -0.6510  0.2096  0.0214
 6980SOL    HW232400   2.695   3.166   1.435 -0.6252 -1.5382 -1.1835
 6981SOL     OW32401   3.675   3.185   6.587 -0.3217  0.0738  0.0495
 6981SOL    HW132402   3.757   3.141   6.608 -1.7207 -2.4891  0.1354
 6981SOL    HW232403   3.634   3.104   6.557  3.4388 -1.4598 -0.9451
 6982SOL     OW32404   3.206   0.631   7.330  0.0579 -0.8241 -0.5003
 6982SOL    HW132405   3.283   0.630   7.273  0.7928 -0.3504  0.4775
 6982SOL    HW232406   3.230   0.713   7.375 -1.1038 -1.6903  1.6812
 6983SOL     OW32407   0.459   2.255   2.051  0.3858 -1.2606  0.2934
 6983SOL    HW132408   0.539   2.268   2.103  0.0088  1.4610  0.2203
 6983SOL    HW232409   0.445   2.161   2.055 -1.6089 -0.9460  0.5871
 6984SOL     OW32410   0.134   3.606   9.126 -0.0903  0.6480  0.0651
 6984SOL    HW132411   0.061   3.562   9.168  0.3337 -0.2359 -0.1248
 6984SOL    HW232412   0.104   3.696   9.143 -1.8281 -0.6462  3.7686
 6985SOL     OW32413   2.270   1.427  16.413  0.2104  0.1327  0.7344
 6985SOL    HW132414   2.333   1.368  16.372 -1.4812 -1.2699  0.1459
 6985SOL    HW232415   2.223   1.371  16.474 -2.8239  0.7949 -0.9890
 6986SOL     OW32416   4.262   2.888   8.848 -0.5702  0.2927 -0.0939
 6986SOL    HW132417   4.198   2.957   8.863  1.4389  2.8083 -3.0362
 6986SOL    HW232418   4.202   2.814   8.859  0.3393 -0.4247  0.0316
 6987SOL     OW32419   0.330   0.158   5.648  0.8251  0.5342 -0.0309
 6987SOL    HW132420   0.262   0.159   5.581  0.0775 -3.2123  0.6812
 6987SOL    HW232421   0.389   0.220   5.606  0.8437  0.6298  0.1318
 6988SOL     OW32422   2.415   4.021  13.918  0.5021  0.4435 -0.6961
 6988SOL    HW132423   2.374   4.101  13.952  1.0767  0.8488 -0.9529
 6988SOL    HW232424   2.506   4.051  13.919  0.4803  0.5492 -2.5376
 6989SOL     OW32425   2.142   1.602   2.146 -0.1266 -0.9178 -0.2297
 6989SOL    HW132426   2.156   1.574   2.056 -1.9403  1.0600 -1.1330
 6989SOL    HW232427   2.047   1.602   2.154 -0.0163  0.2445  1.1465
 6990SOL     OW32428   4.525   4.577  12.069  0.4645 -0.0765 -0.4714
 6990SOL    HW132429   4.458   4.568  12.137  0.7071 -1.4699 -0.4136
 6990SOL    HW232430   4.565   4.490  12.077  1.1156  0.3814  1.2389
 6991SOL     OW32431   3.147   2.778   9.939  0.5666  0.0782 -0.2079
 6991SOL    HW132432   3.197   2.769  10.021 -0.8543  0.3297  0.6829
 6991SOL    HW232433   3.066   2.802   9.983  0.0573  1.0690 -1.6747
 6992SOL     OW32434   3.510   2.234   4.118  0.0963 -0.7635 -0.1495
 6992SOL    HW132435   3.525   2.326   4.094 -1.4156 -0.0094  1.7869
 6992SOL    HW232436   3.525   2.221   4.212  4.8364 -0.2224 -0.8425
 6993SOL     OW32437   1.915   1.560   4.090  0.5408 -0.3076  0.1535
 6993SOL    HW132438   1.826   1.591   4.072 -0.1578 -1.2700  2.0130
 6993SOL    HW232439   1.900   1.467   4.107 -0.1377 -0.1458  0.4409
 6994SOL     OW32440   0.570   2.274   8.194  0.2122 -0.1835 -0.2639
 6994SOL    HW132441   0.559   2.223   8.113  1.9216 -1.5416  0.3554
 6994SOL    HW232442   0.578   2.199   8.253 -1.8237  0.1759  0.4520
 6995SOL     OW32443   1.673   4.091   2.839 -0.3523 -0.8136 -0.0990
 6995SOL    HW132444   1.728   4.014   2.821 -0.8222 -1.0399 -0.5748
 6995SOL    HW232445   1.731   4.136   2.900  0.2474 -0.6875 -0.7599
 6996SOL     OW32446   2.429   3.189   1.316 -0.4930 -0.1166 -0.9263
 6996SOL    HW132447   2.520   3.219   1.315 -0.4689 -0.1654  2.0536
 6996SOL    HW232448   2.430   3.100   1.279  4.0005  0.4569 -2.2632
 6997SOL     OW32449   4.548   1.760   9.683  0.0192 -0.0170 -0.3097
 6997SOL    HW132450   4.494   1.776   9.606 -0.3431 -0.8415 -0.2325
 6997SOL    HW232451   4.530   1.666   9.694  0.8425 -0.0767  0.6151
 6998SOL     OW32452   3.657   4.554   1.420  0.0193 -0.5454  0.2768
 6998SOL    HW132453   3.734   4.587   1.374  0.6717 -0.5022  1.3768
 6998SOL    HW232454   3.651   4.461   1.400 -0.8404 -0.9377  2.2534
 6999SOL     OW32455   2.292   0.855  15.224  0.2932 -0.2407 -0.2208
 6999SOL    HW132456   2.300   0.829  15.316 -1.1226  1.3558  0.3484
 6999SOL    HW232457   2.376   0.815  15.200  0.4069  0.0681 -0.3414
 7000SOL     OW32458   4.533   0.979   5.204  0.0446  0.3146 -0.2182
 7000SOL    HW132459   4.502   0.938   5.284 -2.2829 -0.1739 -1.3694
 7000SOL    HW232460   4.478   0.944   5.134 -1.7272  1.2284  0.7170
 7001SOL     OW32461   3.877   0.291   8.992  0.1018 -0.1757  0.1123
 7001SOL    HW132462   3.909   0.297   8.902  1.8466 -0.3704  0.7280
 7001SOL    HW232463   3.785   0.280   8.968  0.1771 -2.6148  0.9043
 7002SOL     OW32464   3.073   0.910   5.384 -0.3205 -0.4491  0.6497
 7002SOL    HW132465   3.126   0.929   5.461  0.5201  1.0600 -0.2769
 7002SOL    HW232466   3.072   0.816   5.398 -0.5434 -0.2802  1.7431
 7003SOL     OW32467   2.624   0.785   8.209 -0.2508  0.0579  0.1210
 7003SOL    HW132468   2.531   0.771   8.227 -0.7573  1.2077 -1.5027
 7003SOL    HW232469   2.653   0.705   8.252  3.0537  0.4175 -1.4442
 7004SOL     OW32470   2.215   1.814   2.419  0.0888  0.3384  0.5145
 7004SOL    HW132471   2.217   1.908   2.401  2.4439 -0.3043 -2.5585
 7004SOL    HW232472   2.282   1.783   2.357 -1.0296 -0.2126 -0.4136
 7005SOL     OW32473   2.459   0.718  13.316  0.6517  1.0349 -0.5810
 7005SOL    HW132474   2.380   0.688  13.269 -0.7331  1.0888  1.7188
 7005SOL    HW232475   2.494   0.635  13.347 -2.4564 -0.9873 -2.4560
 7006SOL     OW32476   3.137   4.289   3.722 -0.0261  0.3887  0.0796
 7006SOL    HW132477   3.125   4.259   3.632  0.4354 -1.0916  0.5121
 7006SOL    HW232478   3.066   4.354   3.729  1.6614  1.8225  3.8836
 7007SOL     OW32479   4.477   3.171   5.137  0.1606  0.2255 -0.1619
 7007SOL    HW132480   4.406   3.153   5.076 -0.3090 -0.1922  0.5039
 7007SOL    HW232481   4.436   3.234   5.197  0.2839  0.2330 -0.0852
 7008SOL     OW32482   3.361   1.479   4.015  0.3557 -0.0867  0.0851
 7008SOL    HW132483   3.385   1.387   4.030  1.6954 -0.2083 -2.6723
 7008SOL    HW232484   3.431   1.518   3.962 -1.1245 -0.8165 -2.4142
 7009SOL     OW32485   2.356   4.684  15.452 -0.4774  0.2513 -0.1213
 7009SOL    HW132486   2.448   4.658  15.439 -0.0201 -0.2280  4.2261
 7009SOL    HW232487   2.304   4.622  15.400  0.8599 -1.1954  0.2633
 7010SOL     OW32488   0.366   2.334  16.399 -0.0337  0.9295 -0.3625
 7010SOL    HW132489   0.348   2.300  16.486 -0.8267 -0.2072 -0.9746
 7010SOL    HW232490   0.279   2.329  16.359  1.6664 -0.8889 -3.8126
 7011SOL     OW32491   4.115   1.611   2.933 -0.4802  0.0859 -0.9762
 7011SOL    HW132492   4.191   1.589   2.880 -0.5984  1.4010 -1.6966
 7011SOL    HW232493   4.045   1.568   2.884 -1.9676 -1.0684  2.1288
 7012SOL     OW32494   3.095   0.473   6.880 -0.0438  0.0887 -0.4253
 7012SOL    HW132495   3.174   0.526   6.888  0.7113 -1.4051  1.9619
 7012SOL    HW232496   3.042   0.538   6.835  0.6902  0.5379 -0.6391
 7013SOL     OW32497   1.275   2.794   4.050 -0.2085  0.5214 -0.3499
 7013SOL    HW132498   1.210   2.835   3.993 -0.4164  3.4145  2.0029
 7013SOL    HW232499   1.329   2.740   3.992  1.2473  0.7664  0.7861
 7014SOL     OW32500   1.083   4.420  11.191  0.5172  0.4224 -0.3160
 7014SOL    HW132501   1.117   4.482  11.255  0.0453 -2.0618  2.2936
 7014SOL    HW232502   1.065   4.347  11.250  1.2271  0.2380 -0.3244
 7015SOL     OW32503   4.514   2.294   1.446 -0.6424 -0.0243  0.0454
 7015SOL    HW132504   4.466   2.271   1.366  0.9124 -0.3292 -0.7912
 7015SOL    HW232505   4.490   2.233   1.516 -1.9153  0.9715  0.4876
 7016SOL     OW32506   0.097   2.948   6.972  0.0537 -0.4550 -0.2510
 7016SOL    HW132507   0.135   2.865   7.001 -0.5407 -0.5703  0.2088
 7016SOL    HW232508   0.007   2.924   6.949 -0.1348 -0.2238  0.2534
 7017SOL     OW32509   2.842   0.067   3.824 -0.0456 -0.1702 -0.4053
 7017SOL    HW132510   2.832   0.116   3.742 -1.6619 -0.5236 -0.4249
 7017SOL    HW232511   2.929   0.094   3.852 -0.4214 -1.0132  1.5662
 7018SOL     OW32512   0.344   2.959   2.880  0.2508 -0.1307  0.1601
 7018SOL    HW132513   0.297   3.039   2.858 -1.4026 -0.5321  2.3300
 7018SOL    HW232514   0.427   3.001   2.901 -0.3953  1.2907 -0.1516
 7019SOL     OW32515   2.711   3.383   6.224  0.3207  0.4548 -0.2262
 7019SOL    HW132516   2.744   3.450   6.285  0.6153 -2.3948  2.7197
 7019SOL    HW232517   2.767   3.308   6.242  0.8255  0.7177 -0.6964
 7020SOL     OW32518   4.208   1.258   6.412 -0.1562 -0.1601  0.4616
 7020SOL    HW132519   4.204   1.175   6.460 -1.2116  0.0936  0.8225
 7020SOL    HW232520   4.205   1.223   6.323  1.6957 -0.5606  0.5581
 7021SOL     OW32521   2.090   4.145  13.737 -0.1977  0.2254  0.3211
 7021SOL    HW132522   2.097   4.063  13.786 -0.1197  0.0231 -0.0273
 7021SOL    HW232523   2.050   4.207  13.798  0.3990 -1.7745  2.7524
 7022SOL     OW32524   3.433   1.456   5.382 -0.3618  0.4841 -0.0849
 7022SOL    HW132525   3.381   1.441   5.304 -0.3210  1.5207 -0.3085
 7022SOL    HW232526   3.451   1.549   5.374 -3.0778  0.9285 -0.8824
 7023SOL     OW32527   0.693   1.861   5.646  0.4986  0.5138 -0.2512
 7023SOL    HW132528   0.687   1.778   5.694  1.1862  1.9067  2.1918
 7023SOL    HW232529   0.612   1.853   5.596 -0.5253 -1.4882  1.7042
 7024SOL     OW32530   3.531   0.682   9.659 -0.3409  0.8377 -0.0006
 7024SOL    HW132531   3.513   0.767   9.620 -1.7679  1.7300  2.6227
 7024SOL    HW232532   3.482   0.620   9.606 -1.9805  0.2349  2.2452
 7025SOL     OW32533   1.928   3.686   4.811 -0.5163 -0.1078  0.8541
 7025SOL    HW132534   1.867   3.615   4.790  1.3038 -2.0466  2.0213
 7025SOL    HW232535   1.934   3.735   4.730 -0.6254 -2.4439 -0.5825
 7026SOL     OW32536   0.968   3.115  11.439 -0.0164  0.5195  0.2490
 7026SOL    HW132537   1.035   3.166  11.393 -1.0465  0.7931 -0.9610
 7026SOL    HW232538   0.996   3.026  11.422 -2.8122 -0.4146  0.5155
 7027SOL     OW32539   3.673   1.489   3.296  0.1590 -0.3967 -0.2356
 7027SOL    HW132540   3.637   1.454   3.378 -1.6949  1.5730 -0.1802
 7027SOL    HW232541   3.698   1.411   3.247  1.3503 -0.3591  0.3173
 7028SOL     OW32542   1.990   0.312   5.538 -0.2767  0.4591  0.4108
 7028SOL    HW132543   1.924   0.340   5.600 -0.4972  1.1846 -0.1430
 7028SOL    HW232544   2.010   0.223   5.566  1.6482  0.3596 -1.2223
 7029SOL     OW32545   2.192   1.003   6.059 -0.2645 -0.4964 -0.0880
 7029SOL    HW132546   2.122   0.991   6.122  1.2704 -1.5776  1.4210
 7029SOL    HW232547   2.187   0.926   6.002 -0.9295 -0.6614  0.1946
 7030SOL     OW32548   1.238   3.276   6.524  0.5376  0.1530  0.0772
 7030SOL    HW132549   1.201   3.191   6.547 -1.7386  1.8098  2.4787
 7030SOL    HW232550   1.280   3.259   6.439  0.8297 -0.3209  0.3189
 7031SOL     OW32551   0.225   3.350   9.014 -0.1234  0.2641 -0.5208
 7031SOL    HW132552   0.204   3.417   9.078  0.8386 -0.4394  0.5329
 7031SOL    HW232553   0.321   3.356   9.018 -0.2203 -0.1009  1.9493
 7032SOL     OW32554   0.211   2.253  10.460 -0.0013 -0.4209  0.4497
 7032SOL    HW132555   0.184   2.235  10.551 -1.3151 -0.8508 -0.0235
 7032SOL    HW232556   0.300   2.268  10.491  0.0236  0.6507 -0.1290
 7033SOL     OW32557   2.140   2.448  15.757  0.0339 -0.3013 -0.1349
 7033SOL    HW132558   2.105   2.455  15.845  0.3976  0.7462 -0.0705
 7033SOL    HW232559   2.213   2.510  15.761 -0.5634  0.2733  1.6349
 7034SOL     OW32560   2.526   2.137  12.648 -0.3508 -0.2103 -0.2737
 7034SOL    HW132561   2.569   2.051  12.647  0.9726  0.4445  1.2177
 7034SOL    HW232562   2.604   2.189  12.664 -1.3173  1.0421  0.3894
 7035SOL     OW32563   3.700   0.121   7.845  0.2242 -0.3739  0.0346
 7035SOL    HW132564   3.686   0.216   7.853  0.7844 -0.3320  0.5308
 7035SOL    HW232565   3.795   0.124   7.846  0.2159 -0.0122  0.1020
 7036SOL     OW32566   1.797   0.151   7.574 -0.6289 -0.4397  0.2067
 7036SOL    HW132567   1.823   0.144   7.482 -0.5649  0.0866  0.1810
 7036SOL    HW232568   1.847   0.230   7.597 -2.7902  1.0484 -0.1126
 7037SOL     OW32569   2.161   2.085   8.211 -0.1042 -0.3539  0.3482
 7037SOL    HW132570   2.159   2.152   8.143  0.1803 -0.9124 -0.2091
 7037SOL    HW232571   2.235   2.035   8.178  0.7905  2.1906 -1.5021
 7038SOL     OW32572   0.455   3.263   4.797  0.7193 -0.0182 -0.5018
 7038SOL    HW132573   0.520   3.244   4.865 -0.7389 -1.2257  0.5750
 7038SOL    HW232574   0.380   3.293   4.848 -0.6671 -0.5445 -2.2458
 7039SOL     OW32575   2.437   3.775   4.473 -0.1860 -1.2282 -0.5142
 7039SOL    HW132576   2.366   3.736   4.524 -0.5816  0.4671  0.2625
 7039SOL    HW232577   2.407   3.750   4.386  1.3182 -0.2556 -1.3154
 7040SOL     OW32578   0.113   0.429   7.762  0.3437 -0.4874  0.5903
 7040SOL    HW132579   0.026   0.423   7.723  0.3225  0.2831  0.5245
 7040SOL    HW232580   0.107   0.366   7.833 -0.4292  1.0775  1.9057
 7041SOL     OW32581   3.706   1.383   3.550 -0.4191  0.0874 -0.3902
 7041SOL    HW132582   3.727   1.446   3.619  1.5240 -0.0830 -0.8305
 7041SOL    HW232583   3.792   1.341   3.542  0.4717  1.9581 -0.6831
 7042SOL     OW32584   3.323   1.063   4.468 -0.0612  0.9054 -0.0037
 7042SOL    HW132585   3.298   1.004   4.540 -0.7310 -0.0388 -1.0160
 7042SOL    HW232586   3.290   1.146   4.504  0.6451  1.1227  0.1325
 7043SOL     OW32587   4.177   2.068   3.834 -0.3625 -0.2595 -1.1502
 7043SOL    HW132588   4.271   2.077   3.846 -0.8164  1.8847  0.9725
 7043SOL    HW232589   4.156   1.983   3.872  0.5075 -0.2386 -0.6246
 7044SOL     OW32590   0.654   3.214   1.803  0.3075 -0.4404  0.2346
 7044SOL    HW132591   0.684   3.156   1.733  1.2210  1.1586 -0.6693
 7044SOL    HW232592   0.581   3.164   1.841 -0.3549  2.1050  2.2774
 7045SOL     OW32593   3.612   1.857  16.997 -0.0042  0.2761 -0.2633
 7045SOL    HW132594   3.527   1.821  17.024  1.4337 -0.2613  3.6652
 7045SOL    HW232595   3.679   1.788  16.996  1.1508  1.3764  1.0291
 7046SOL     OW32596   1.588   2.786   1.729  0.3225 -0.3552 -0.2175
 7046SOL    HW132597   1.518   2.818   1.672  0.4821 -1.0685 -0.8178
 7046SOL    HW232598   1.654   2.852   1.705  0.5019  0.0122  1.2997
 7047SOL     OW32599   1.082   0.496   9.662  0.1684 -0.5509  0.2973
 7047SOL    HW132600   1.071   0.401   9.653 -2.2708 -0.4759  2.3951
 7047SOL    HW232601   1.062   0.513   9.754 -0.6420 -1.9104  0.3739
 7048SOL     OW32602   2.181   3.162   6.852 -0.1348 -0.1482 -0.1623
 7048SOL    HW132603   2.202   3.237   6.908 -1.4302  0.3093 -0.2764
 7048SOL    HW232604   2.163   3.094   6.917  0.7837 -1.2141 -1.0199
 7049SOL     OW32605   2.082   3.388  15.727  0.0300  0.1385  0.1757
 7049SOL    HW132606   1.989   3.375  15.710  0.4468 -2.8540  0.2440
 7049SOL    HW232607   2.103   3.317  15.787  1.6583  0.2777 -0.2415
 7050SOL     OW32608   2.090   0.198   3.845 -0.0328 -0.5072 -0.1877
 7050SOL    HW132609   2.158   0.180   3.779 -1.0345  2.9850 -2.1606
 7050SOL    HW232610   2.018   0.150   3.805 -0.6028 -0.1344  0.4004
 7051SOL     OW32611   2.815   2.697   9.950 -0.0590  0.3366  0.4901
 7051SOL    HW132612   2.783   2.709   9.860  3.6567 -3.5206 -1.3776
 7051SOL    HW232613   2.837   2.787   9.974  3.9985  0.3971 -3.4604
 7052SOL     OW32614   0.082   1.940  17.327 -0.3017  0.2055  0.1266
 7052SOL    HW132615   0.040   2.022  17.351  1.9160  1.2753  0.2816
 7052SOL    HW232616   0.023   1.875  17.367  3.7938 -2.0873  2.4978
 7053SOL     OW32617   0.025   3.353   5.320  0.8154  0.1532  0.1293
 7053SOL    HW132618   0.107   3.402   5.312  1.6283 -1.0474  0.9988
 7053SOL    HW232619   4.702   3.407   5.383  0.1910  0.9999 -1.0540
 7054SOL     OW32620   1.598   2.496   7.748  0.2681 -0.0390 -0.0757
 7054SOL    HW132621   1.568   2.458   7.830  0.7000  2.2015  1.1211
 7054SOL    HW232622   1.660   2.560   7.782  2.1493  0.2969 -4.0542
 7055SOL     OW32623   0.034   0.593  16.316 -0.0752  0.3992  0.5535
 7055SOL    HW132624   4.689   0.622  16.377  0.3700 -1.2779  1.8507
 7055SOL    HW232625   0.088   0.540  16.374  0.1646 -0.0847 -0.1287
 7056SOL     OW32626   1.303   4.219   2.068 -0.2346 -0.0589  0.2797
 7056SOL    HW132627   1.268   4.237   2.156 -1.4092 -0.8712 -0.0198
 7056SOL    HW232628   1.338   4.304   2.043 -0.8791  0.7548  2.0950
 7057SOL     OW32629   0.030   0.576   1.448 -0.0172 -0.3961  0.3339
 7057SOL    HW132630   0.092   0.516   1.490 -0.6947 -2.0408 -1.0580
 7057SOL    HW232631   0.056   0.574   1.356 -1.5265  2.2188 -0.1425
 7058SOL     OW32632   1.357   1.073   4.254 -0.2126  0.0645  0.2855
 7058SOL    HW132633   1.265   1.047   4.253 -1.0048  2.8453  1.3478
 7058SOL    HW232634   1.375   1.013   4.326  1.0152 -0.7485 -0.6937
 7059SOL     OW32635   2.913   0.932   8.987 -0.5691  0.3238  0.1057
 7059SOL    HW132636   2.924   0.869   9.058  2.1806  1.2691  0.5249
 7059SOL    HW232637   2.861   1.000   9.030  0.8820  1.2409  0.4006
 7060SOL     OW32638   1.257   0.856   8.573 -0.3860  0.0205 -0.1073
 7060SOL    HW132639   1.323   0.808   8.623  0.0239  1.1999  0.4812
 7060SOL    HW232640   1.300   0.858   8.487  0.5083  1.7947  0.3778
 7061SOL     OW32641   3.599   2.518   5.471  0.2729  0.0478 -0.0449
 7061SOL    HW132642   3.537   2.471   5.416  0.7030 -0.2900 -0.2452
 7061SOL    HW232643   3.582   2.610   5.450 -0.7557  0.3161  1.9968
 7062SOL     OW32644   4.191   1.095   4.798  0.3242 -0.0956  0.0667
 7062SOL    HW132645   4.245   1.156   4.849  2.5646 -0.5142 -1.8158
 7062SOL    HW232646   4.247   1.091   4.720  0.3087  0.7522  0.0134
 7063SOL     OW32647   1.768   3.892   2.022 -0.2270 -0.0967 -0.0164
 7063SOL    HW132648   1.749   3.985   2.018 -1.2058 -0.3030 -0.3136
 7063SOL    HW232649   1.762   3.867   1.929 -0.7740 -0.0784  0.0117
 7064SOL     OW32650   4.399   1.889   8.052 -0.3263 -0.1874  0.2830
 7064SOL    HW132651   4.426   1.958   8.112 -0.1629 -0.9452  1.0888
 7064SOL    HW232652   4.422   1.935   7.972  0.9439  0.1419  0.8353
 7065SOL     OW32653   3.996   2.226   3.701  0.4768 -0.1119  0.1302
 7065SOL    HW132654   4.056   2.165   3.745  3.0996  1.7135 -0.9071
 7065SOL    HW232655   4.061   2.294   3.684  0.6996 -0.5446 -0.7419
 7066SOL     OW32656   0.034   3.255   4.584  0.2083  0.2810 -0.7735
 7066SOL    HW132657   0.048   3.189   4.517 -0.0183  0.1657 -0.7088
 7066SOL    HW232658   0.083   3.222   4.659 -2.3738  0.9971  1.2340
 7067SOL     OW32659   2.667   0.262   8.276 -0.4012  0.3560 -0.2708
 7067SOL    HW132660   2.703   0.226   8.357 -0.2280 -1.2155 -1.0333
 7067SOL    HW232661   2.724   0.212   8.216 -0.0320 -0.6525  0.9129
 7068SOL     OW32662   4.063   1.935  16.435  0.0476  0.2877 -0.3957
 7068SOL    HW132663   3.998   1.969  16.374 -2.1741 -0.4616  1.5449
 7068SOL    HW232664   4.110   1.869  16.385 -3.8136 -1.5747 -1.5704
 7069SOL     OW32665   4.247   2.587   8.426 -0.1515  0.4130  0.1892
 7069SOL    HW132666   4.171   2.640   8.447 -1.0937 -0.9200  0.1256
 7069SOL    HW232667   4.295   2.591   8.509  3.2421  0.2381 -1.7206
 7070SOL     OW32668   4.062   0.751   5.195 -0.1337 -0.8101  0.2337
 7070SOL    HW132669   4.090   0.803   5.119 -2.7357 -0.5717 -0.5692
 7070SOL    HW232670   4.144   0.757   5.244 -0.5068  0.7192  0.6646
 7071SOL     OW32671   0.107   1.337   1.520 -0.1638  0.2905  0.5773
 7071SOL    HW132672   0.200   1.353   1.506 -0.2542 -0.5653 -1.0613
 7071SOL    HW232673   0.088   1.288   1.440 -0.6049 -0.4212  1.1147
 7072SOL     OW32674   3.757   3.303   0.209 -0.4872 -0.5319  0.2482
 7072SOL    HW132675   3.728   3.334   0.123 -0.2327 -1.6007 -0.2303
 7072SOL    HW232676   3.850   3.305   0.186 -0.3634 -0.6420  0.7470
 7073SOL     OW32677   3.493   0.585   6.624 -0.1749 -0.0577 -0.3796
 7073SOL    HW132678   3.545   0.627   6.556 -0.8244 -1.6212 -1.8367
 7073SOL    HW232679   3.413   0.569   6.574 -1.0945  1.9142  0.4382
 7074SOL     OW32680   3.034   0.673   9.961 -0.1315 -0.1385  0.1622
 7074SOL    HW132681   2.966   0.699  10.023  0.0562 -0.2338  0.4103
 7074SOL    HW232682   3.114   0.710   9.999 -0.3057  0.9806 -0.5892
 7075SOL     OW32683   1.936   1.233   4.448  0.2198 -0.3439 -0.0751
 7075SOL    HW132684   1.971   1.169   4.509  0.6563  0.9000  0.9740
 7075SOL    HW232685   2.003   1.301   4.440 -0.1789  0.1539  0.8514
 7076SOL     OW32686   4.463   0.562   4.570 -0.2162 -0.3852 -0.6130
 7076SOL    HW132687   4.507   0.480   4.594 -0.0605  0.2517  1.3054
 7076SOL    HW232688   4.513   0.615   4.633 -0.9806 -0.7517  0.3023
 7077SOL     OW32689   2.833   1.106   4.841  0.1762 -0.4914  0.0103
 7077SOL    HW132690   2.861   1.116   4.750  0.8041  0.9053  0.3677
 7077SOL    HW232691   2.919   1.108   4.884 -0.3751  2.2051  0.9553
 7078SOL     OW32692   0.686   2.739   7.439 -0.1490  0.3573  0.0701
 7078SOL    HW132693   0.634   2.811   7.403 -1.8308 -1.0614 -0.3379
 7078SOL    HW232694   0.646   2.725   7.524 -0.7571  1.0196 -0.1057
 7079SOL     OW32695   2.940   0.477   5.017  0.5538 -0.1390  0.5235
 7079SOL    HW132696   2.909   0.547   4.960  1.9318  1.7641  2.1081
 7079SOL    HW232697   3.033   0.474   4.995  0.6345 -0.7859  0.9447
 7080SOL     OW32698   3.457   1.496  10.106  0.1154  0.1579 -0.0316
 7080SOL    HW132699   3.406   1.556  10.052  0.4071 -0.8300 -1.4192
 7080SOL    HW232700   3.466   1.426  10.041  0.5423 -0.7660  1.0214
 7081SOL     OW32701   3.109   0.575  17.204 -0.2570  0.1419  0.6840
 7081SOL    HW132702   3.136   0.651  17.153 -0.0744 -0.3862 -0.0083
 7081SOL    HW232703   3.126   0.511  17.134 -2.2618  0.5283 -0.1554
 7082SOL     OW32704   3.244   1.679   1.262  0.3039  0.7620 -0.2532
 7082SOL    HW132705   3.294   1.625   1.201  0.0570 -0.2344  0.4354
 7082SOL    HW232706   3.206   1.749   1.208 -2.5693 -0.4092  0.2506
 7083SOL     OW32707   3.815   1.342   0.350  0.0183  0.2607  0.0429
 7083SOL    HW132708   3.764   1.369   0.274  0.0341  2.2891  0.7611
 7083SOL    HW232709   3.875   1.276   0.314 -0.4209  0.2843 -0.7317
 7084SOL     OW32710   2.378   3.796  16.128  0.2430 -0.0838  0.1813
 7084SOL    HW132711   2.473   3.788  16.139  0.3075  0.7904  0.2877
 7084SOL    HW232712   2.367   3.886  16.096  0.6655 -0.6114 -1.4600
 7085SOL     OW32713   3.419   0.366   1.670 -0.1001  0.4086  0.2490
 7085SOL    HW132714   3.423   0.291   1.610  0.6833  0.7135 -0.0848
 7085SOL    HW232715   3.514   0.371   1.682 -0.0106 -1.4145  0.3337
 7086SOL     OW32716   0.909   1.631   7.670  0.4728 -0.1245  0.0331
 7086SOL    HW132717   0.948   1.549   7.701  1.3624 -1.0606 -3.4739
 7086SOL    HW232718   0.828   1.638   7.721  0.4958  2.1465 -0.2218
 7087SOL     OW32719   4.257   1.052  10.651  0.0183 -0.5503 -0.3766
 7087SOL    HW132720   4.277   1.145  10.658  3.4230 -1.3441  0.5463
 7087SOL    HW232721   4.164   1.059  10.671 -0.4245 -1.6432 -2.0931
 7088SOL     OW32722   4.645   1.909   6.489  0.4825 -0.2991  0.2457
 7088SOL    HW132723   4.644   1.908   6.393 -0.6721 -1.2123  0.2679
 7088SOL    HW232724   4.598   1.827   6.502 -0.1462  0.0951  0.4869
 7089SOL     OW32725   0.683   2.595   2.587 -0.2331  0.0515  0.1573
 7089SOL    HW132726   0.683   2.659   2.515  1.3501  0.5980  0.6268
 7089SOL    HW232727   0.758   2.640   2.628 -0.6780  1.3232 -0.4092
 7090SOL     OW32728   1.455   0.906  15.710 -0.5918 -0.3469  0.8171
 7090SOL    HW132729   1.476   0.829  15.763  0.6435 -1.0668 -0.7262
 7090SOL    HW232730   1.450   0.980  15.771 -1.6611  0.7051 -0.5484
 7091SOL     OW32731   1.855   1.295  17.335  0.0025 -0.1285  0.1530
 7091SOL    HW132732   1.915   1.229  17.300  0.1570 -0.1346  0.4348
 7091SOL    HW232733   1.794   1.317  17.264  2.8166  0.7657 -1.9713
 7092SOL     OW32734   0.449   2.337   8.999 -0.1056  0.0311 -0.0760
 7092SOL    HW132735   0.457   2.254   8.951 -2.1452 -0.8816  1.1675
 7092SOL    HW232736   0.428   2.404   8.934  1.0567  0.0578 -0.4294
 7093SOL     OW32737   4.201   3.824  17.361 -0.5259 -0.3745 -0.2571
 7093SOL    HW132738   4.266   3.881  17.320  0.1630 -0.3365  0.8984
 7093SOL    HW232739   4.202   3.848  17.454  1.6484 -0.7775 -0.1732
 7094SOL     OW32740   0.086   1.655   1.303  0.5868 -0.2634  0.2617
 7094SOL    HW132741   0.055   1.648   1.393  0.2788  0.9052  0.2559
 7094SOL    HW232742   0.003   1.669   1.258  1.2914  0.6705 -0.7538
 7095SOL     OW32743   0.832   0.570   7.807  0.2766  0.1783 -0.3932
 7095SOL    HW132744   0.749   0.524   7.821 -0.3441  1.2770 -0.5071
 7095SOL    HW232745   0.891   0.503   7.843 -0.4996  0.1150  0.7551
 7096SOL     OW32746   4.374   0.731   8.728  0.0940 -0.1765  0.0559
 7096SOL    HW132747   4.465   0.702   8.735 -0.5313 -1.8146  1.4462
 7096SOL    HW232748   4.347   0.736   8.820 -0.1058 -1.1378  0.0523
 7097SOL     OW32749   3.811   0.534   7.247 -0.5446 -0.1072  0.2128
 7097SOL    HW132750   3.884   0.562   7.302 -0.7214  1.5981 -0.3973
 7097SOL    HW232751   3.812   0.603   7.180  2.8737 -0.2902  0.0990
 7098SOL     OW32752   4.633   0.659   8.848 -0.3182 -0.4582  0.2753
 7098SOL    HW132753   4.721   0.656   8.887  0.3597 -2.5410 -1.4676
 7098SOL    HW232754   4.598   0.742   8.883  1.1704 -0.1314  1.0072
 7099SOL     OW32755   2.177   1.230   0.834  0.0034 -0.3248  0.1819
 7099SOL    HW132756   2.152   1.154   0.780 -1.5334  0.6930 -0.5526
 7099SOL    HW232757   2.169   1.301   0.769 -0.0480  1.2100  1.8778
 7100SOL     OW32758   3.394   1.459   6.187  0.1714  0.2302 -0.7856
 7100SOL    HW132759   3.385   1.552   6.167 -0.2491  0.2213 -0.6511
 7100SOL    HW232760   3.303   1.438   6.209  0.1770  0.0105 -0.9756
 7101SOL     OW32761   0.954   1.481   0.670 -0.1527 -0.2521  0.1336
 7101SOL    HW132762   0.897   1.412   0.704 -1.2182 -0.1856 -1.5487
 7101SOL    HW232763   0.899   1.521   0.603  1.7495  1.3913 -0.4458
 7102SOL     OW32764   1.013   1.154   2.175  0.1580 -0.7344 -0.1128
 7102SOL    HW132765   0.983   1.100   2.102  2.0647 -0.5519 -1.0211
 7102SOL    HW232766   0.984   1.240   2.145  2.3739 -0.3403 -1.1541
 7103SOL     OW32767   2.141   3.019  12.778 -0.0492  0.1851 -0.7399
 7103SOL    HW132768   2.144   3.033  12.683 -0.2887  0.2791 -0.7328
 7103SOL    HW232769   2.210   3.077  12.809 -0.4491 -0.1599  0.7648
 7104SOL     OW32770   1.135   4.601   9.759 -0.7575  0.3472 -0.1252
 7104SOL    HW132771   1.053   4.604   9.808 -1.5713 -0.6319 -1.4327
 7104SOL    HW232772   1.125   4.526   9.701  1.6427  0.8946 -1.2760
 7105SOL     OW32773   1.521   0.692   6.135  0.2275 -0.0193  0.4615
 7105SOL    HW132774   1.597   0.635   6.121  0.2152  0.2737 -0.7846
 7105SOL    HW232775   1.559   0.766   6.088 -2.8867  0.7917 -0.7805
 7106SOL     OW32776   1.710   1.573   7.613 -0.3160 -0.6210 -0.1407
 7106SOL    HW132777   1.643   1.529   7.664 -1.2191  0.0113 -0.7616
 7106SOL    HW232778   1.771   1.500   7.609  0.1227 -0.3036  0.9529
 7107SOL     OW32779   4.668   3.964   7.793 -0.3500  0.2332  0.7021
 7107SOL    HW132780   0.005   3.983   7.721  0.4513  0.2325  1.3764
 7107SOL    HW232781   4.705   4.019   7.862 -0.0697  1.7704 -0.6554
 7108SOL     OW32782   1.204   3.078  11.810  0.3197  1.0543 -0.4039
 7108SOL    HW132783   1.113   3.057  11.789 -0.3994  2.3837  1.4481
 7108SOL    HW232784   1.202   3.138  11.884  2.5516  0.9779 -0.2797
 7109SOL     OW32785   3.755   2.602   2.565  0.0350  0.3326 -0.3732
 7109SOL    HW132786   3.793   2.541   2.628 -0.3509 -0.9489 -1.3699
 7109SOL    HW232787   3.817   2.674   2.575 -0.5137  0.6015  1.0906
 7110SOL     OW32788   2.666   2.188   2.302  0.2443 -0.0119  0.2874
 7110SOL    HW132789   2.595   2.252   2.300 -0.7817 -1.1261  1.5098
 7110SOL    HW232790   2.639   2.115   2.246  0.1215 -1.1244  1.8086
 7111SOL     OW32791   2.351   1.047  16.722 -0.3074 -0.3296  0.3266
 7111SOL    HW132792   2.430   1.100  16.714  1.0816 -2.4336  0.1263
 7111SOL    HW232793   2.318   1.080  16.806 -1.7312  1.4903 -0.9502
 7112SOL     OW32794   4.011   3.456   9.419  0.2697 -0.2448  0.0273
 7112SOL    HW132795   3.972   3.488   9.337  0.3065 -1.1228 -0.3372
 7112SOL    HW232796   3.976   3.368   9.431 -0.9482  0.0946 -1.0416
 7113SOL     OW32797   0.488   3.593   2.693  0.1303  0.2963 -0.8344
 7113SOL    HW132798   0.445   3.668   2.652 -2.0716 -0.5254 -0.0210
 7113SOL    HW232799   0.577   3.627   2.700 -0.1342  0.3276  2.1266
 7114SOL     OW32800   0.309   4.692  11.948  0.3997  0.3118  0.7387
 7114SOL    HW132801   0.350   0.054  11.961  0.7609  0.1233  0.8241
 7114SOL    HW232802   0.252   4.696  12.025 -2.8250 -2.1773 -1.5428
 7115SOL     OW32803   0.188   0.291   2.512  0.2119  0.1806  0.2720
 7115SOL    HW132804   0.168   0.352   2.441 -0.6336 -0.1965  0.1866
 7115SOL    HW232805   0.231   0.219   2.466  1.6656  0.4447  1.2401
 7116SOL     OW32806   1.886   2.168   2.935 -0.0472 -0.2354  0.6096
 7116SOL    HW132807   1.829   2.151   2.861  0.3286  0.5314  0.1404
 7116SOL    HW232808   1.866   2.101   3.001 -0.1544 -0.4624  0.3449
 7117SOL     OW32809   1.267   3.961  13.540  0.7120  0.1437  0.4744
 7117SOL    HW132810   1.253   3.993  13.628  1.2387 -0.0228  0.6204
 7117SOL    HW232811   1.176   3.967  13.512  0.8400 -1.3393 -0.2753
 7118SOL     OW32812   1.254   1.959   3.128  0.1807 -0.5482  0.1734
 7118SOL    HW132813   1.287   2.045   3.102 -0.9044  0.2861  1.5702
 7118SOL    HW232814   1.188   1.983   3.193  0.1774  0.5384 -0.2258
 7119SOL     OW32815   3.347   2.631  13.217 -0.2114 -0.0109  0.6848
 7119SOL    HW132816   3.378   2.580  13.292  0.9325 -1.7270 -0.9376
 7119SOL    HW232817   3.395   2.713  13.223 -0.1356  0.0578 -0.7908
 7120SOL     OW32818   4.615   4.294   7.330 -0.1403 -0.1163 -0.3634
 7120SOL    HW132819   4.569   4.248   7.400 -1.2711 -0.4685 -1.3321
 7120SOL    HW232820   4.567   4.263   7.253  0.1768 -0.1628 -0.5436
 7121SOL     OW32821   2.250   3.587   7.278  0.0374  0.3277  0.4239
 7121SOL    HW132822   2.180   3.601   7.214 -1.3753 -3.2124  1.1762
 7121SOL    HW232823   2.322   3.559   7.222 -0.3394 -2.2344  1.1851
 7122SOL     OW32824   4.719   2.131   3.924  0.3002  0.0365 -0.3318
 7122SOL    HW132825   0.005   2.212   3.974 -0.5079  0.9757 -1.7234
 7122SOL    HW232826   0.047   2.145   3.845 -0.2476 -1.4843 -0.9486
 7123SOL     OW32827   0.110   2.343  17.696 -0.5646  0.3884 -0.4648
 7123SOL    HW132828   0.145   2.309   0.082 -1.0904 -2.6189 -1.5043
 7123SOL    HW232829   0.193   2.370  17.656  1.3070 -1.1783  2.3722
 7124SOL     OW32830   4.654   4.015  14.566 -0.2839  0.1085  0.3020
 7124SOL    HW132831   4.637   4.054  14.651  0.2356  2.2399 -0.5666
 7124SOL    HW232832   4.592   3.943  14.560 -1.3020  0.8479  2.0702
 7125SOL     OW32833   2.961   1.111   2.810  0.1584 -0.4847 -0.6929
 7125SOL    HW132834   2.920   1.045   2.866  1.1502  1.0865  1.8630
 7125SOL    HW232835   3.024   1.142   2.875 -1.8920  2.0321  0.1167
 7126SOL     OW32836   1.531   3.440   9.708  0.6396 -0.2553 -0.0149
 7126SOL    HW132837   1.474   3.392   9.768  0.8155  0.4315  0.7172
 7126SOL    HW232838   1.501   3.529   9.730 -0.5652 -0.8322  0.7049
 7127SOL     OW32839   1.877   1.461   2.104  0.5647 -0.3786 -0.0360
 7127SOL    HW132840   1.914   1.463   2.016  1.3884  0.9792  0.3403
 7127SOL    HW232841   1.783   1.462   2.089  0.4741 -0.8058  0.5278
 7128SOL     OW32842   4.209   1.245   0.391 -0.8564 -0.2783 -0.7490
 7128SOL    HW132843   4.235   1.297   0.315 -1.7309  0.8725 -0.2622
 7128SOL    HW232844   4.259   1.164   0.381  1.2922  0.9676 -0.2858
 7129SOL     OW32845   2.957   4.335   0.028 -0.1459  0.4386 -0.4025
 7129SOL    HW132846   2.991   4.288  17.648  0.0461  0.4127 -0.3002
 7129SOL    HW232847   2.873   4.373   0.001  0.2124 -0.3812 -2.6727
 7130SOL     OW32848   2.687   3.813   5.959 -0.1956  0.2556 -0.2123
 7130SOL    HW132849   2.599   3.775   5.951  0.5592 -1.2860 -1.1234
 7130SOL    HW232850   2.731   3.748   5.905  1.3030  1.3930 -0.3526
 7131SOL     OW32851   0.306   2.185   2.513 -0.0586  0.9117 -0.3762
 7131SOL    HW132852   0.316   2.232   2.596 -0.5402 -1.3045  0.9126
 7131SOL    HW232853   0.392   2.192   2.471  0.1600 -1.9521 -0.3974
 7132SOL     OW32854   2.175   1.667  16.281  1.6696  0.1321  0.1807
 7132SOL    HW132855   2.188   1.586  16.330  2.2061 -0.4161 -0.8648
 7132SOL    HW232856   2.155   1.734  16.346 -1.6039 -1.7580  1.1442
 7133SOL     OW32857   2.256   3.139   1.820 -0.6788  0.6979 -0.2564
 7133SOL    HW132858   2.238   3.164   1.730 -2.9461 -1.0723 -0.2885
 7133SOL    HW232859   2.232   3.046   1.817 -0.5971  0.6605  0.2073
 7134SOL     OW32860   1.077   3.455   8.992  0.1401  0.0081  0.3352
 7134SOL    HW132861   1.127   3.516   9.046  0.8291  0.9178 -1.3377
 7134SOL    HW232862   1.123   3.453   8.908 -0.4648 -0.4355  0.0092
 7135SOL     OW32863   1.573   3.088   5.752 -0.4434 -0.4542  0.3538
 7135SOL    HW132864   1.594   3.129   5.668 -0.7420 -2.2368 -0.5831
 7135SOL    HW232865   1.635   3.015   5.750 -0.4040 -0.3716 -1.6263
 7136SOL     OW32866   0.917   3.067  10.993  0.0555  0.2813 -0.4513
 7136SOL    HW132867   0.829   3.078  10.957 -0.8463 -1.7670  1.1202
 7136SOL    HW232868   0.898   3.089  11.084 -0.9744 -0.8811 -0.3872
 7137SOL     OW32869   3.739   3.764   8.449  0.7376  0.6980 -0.1241
 7137SOL    HW132870   3.719   3.848   8.408 -0.8300  0.2546 -0.3062
 7137SOL    HW232871   3.658   3.735   8.493  2.5565 -0.4463  2.4564
 7138SOL     OW32872   1.801   1.011   1.506  0.0301  0.1290 -0.3381
 7138SOL    HW132873   1.794   0.917   1.493  0.3347  0.1480 -0.6303
 7138SOL    HW232874   1.867   1.022   1.575 -0.2306 -1.1970  0.1088
 7139SOL     OW32875   0.273   0.896   6.183 -0.1887  0.0476 -0.3611
 7139SOL    HW132876   0.349   0.913   6.239 -0.1846 -0.8805 -0.0929
 7139SOL    HW232877   0.208   0.946   6.233 -0.5708 -0.7329 -0.0718
 7140SOL     OW32878   2.542   4.365  13.091  0.4491  0.3021 -0.4971
 7140SOL    HW132879   2.538   4.282  13.138  0.5202  1.0355  0.7991
 7140SOL    HW232880   2.554   4.432  13.158  1.1741  1.7127 -2.0343
 7141SOL     OW32881   3.110   3.936   0.444  0.1079  0.0576  0.1486
 7141SOL    HW132882   3.083   3.984   0.366 -1.1878  0.3671  0.8026
 7141SOL    HW232883   3.144   3.853   0.409  1.0003  1.3275 -1.9919
 7142SOL     OW32884   0.288   0.509   1.005  0.0497 -0.2426  0.2650
 7142SOL    HW132885   0.335   0.431   0.973  1.3948  1.0107 -0.8282
 7142SOL    HW232886   0.362   0.545   1.054  1.4631  0.0786 -2.0960
 7143SOL     OW32887   0.121   2.046   7.865 -0.0835  0.3642  0.2565
 7143SOL    HW132888   0.046   2.103   7.881 -1.9828 -2.0332 -0.1080
 7143SOL    HW232889   0.121   1.989   7.941  1.3876  0.3772  0.2668
 7144SOL     OW32890   3.354   2.704   3.032  0.0403  0.2250 -0.3364
 7144SOL    HW132891   3.381   2.792   3.004  0.9018  0.1590  0.2774
 7144SOL    HW232892   3.414   2.651   2.979 -0.1482 -0.7734  0.4539
 7145SOL     OW32893   4.583   2.429   1.081  0.0114  0.3637 -0.0425
 7145SOL    HW132894   4.531   2.365   1.129 -0.2644 -0.7226 -1.7983
 7145SOL    HW232895   4.667   2.429   1.127 -0.1943 -1.1071  0.3189
 7146SOL     OW32896   3.028   4.167   5.458  0.3326 -0.1521  0.2305
 7146SOL    HW132897   2.971   4.160   5.382  0.3080 -0.0736  0.2417
 7146SOL    HW232898   3.109   4.171   5.408  0.1166 -2.4653 -0.3393
 7147SOL     OW32899   3.262   0.925  11.379  0.1151 -0.2654  0.0202
 7147SOL    HW132900   3.182   0.908  11.330 -0.2619  2.2996 -0.2637
 7147SOL    HW232901   3.326   0.869  11.335  1.5641  2.1281 -0.9547
 7148SOL     OW32902   3.089   0.065   7.942  0.2072  0.2129 -0.2053
 7148SOL    HW132903   3.180   0.087   7.921 -0.1589  0.1142 -1.9436
 7148SOL    HW232904   3.117   0.019   8.021 -0.8875 -1.0351 -0.5465
 7149SOL     OW32905   2.039   0.264   8.785  0.3288  0.1322  0.2626
 7149SOL    HW132906   2.092   0.186   8.771  1.1786  0.9303 -0.9922
 7149SOL    HW232907   2.107   0.319   8.823 -1.2979  2.4676 -0.1664
 7150SOL     OW32908   3.978   0.648   0.092 -0.4337 -0.4281  0.2164
 7150SOL    HW132909   4.024   0.635   0.009 -0.3826 -0.4717  0.2522
 7150SOL    HW232910   3.938   0.733   0.068  1.6710  0.8391  1.2480
 7151SOL     OW32911   0.985   2.401   4.469 -0.3495  0.3270 -0.0203
 7151SOL    HW132912   0.991   2.322   4.522 -1.3054 -0.7635 -1.5605
 7151SOL    HW232913   0.895   2.428   4.490 -0.8826  0.1561 -2.1474
 7152SOL     OW32914   2.463   4.171   3.339  0.2491 -0.3465  0.4398
 7152SOL    HW132915   2.524   4.157   3.412 -0.0825 -0.8072  0.6303
 7152SOL    HW232916   2.506   4.128   3.265  0.6053  0.2000  0.3279
 7153SOL     OW32917   0.317   1.152   8.399 -0.1832 -0.0304 -0.3056
 7153SOL    HW132918   0.284   1.097   8.469 -1.0785 -0.3306 -0.9632
 7153SOL    HW232919   0.400   1.181   8.436  0.1655  1.6363 -2.3686
 7154SOL     OW32920   4.678   0.475   6.905  0.2934 -0.1300 -0.1104
 7154SOL    HW132921   0.009   0.532   6.851  0.4313  0.1435  0.3207
 7154SOL    HW232922   4.590   0.481   6.868  0.6016 -0.6797 -0.9488
 7155SOL     OW32923   0.135   4.305   4.916  0.3501 -0.4792 -0.2100
 7155SOL    HW132924   0.119   4.322   5.009  1.7299  1.4902 -0.3194
 7155SOL    HW232925   0.045   4.299   4.885  0.7858 -0.0552 -1.5818
 7156SOL     OW32926   0.991   1.776   0.705  0.1684 -0.3945 -0.0611
 7156SOL    HW132927   1.051   1.726   0.649  0.0355  0.8376 -1.3073
 7156SOL    HW232928   0.907   1.731   0.690 -0.7111  1.7290 -1.4992
 7157SOL     OW32929   3.732   1.793   7.257  0.1745  0.5955  0.1822
 7157SOL    HW132930   3.820   1.778   7.292  0.1105  1.9406  0.9355
 7157SOL    HW232931   3.719   1.887   7.273 -1.2079  0.3720  0.4491
 7158SOL     OW32932   3.435   4.719   5.248 -0.2718  0.3887  0.0616
 7158SOL    HW132933   3.456   4.703   5.340  1.6262  1.1324 -0.2428
 7158SOL    HW232934   3.453   4.630   5.216 -2.2271  1.0734 -2.9356
 7159SOL     OW32935   3.894   2.729   4.557  0.0005  0.1553  0.5392
 7159SOL    HW132936   3.890   2.644   4.515 -1.3084 -0.2544  1.4619
 7159SOL    HW232937   3.837   2.718   4.634 -1.6271  0.6842 -0.5754
 7160SOL     OW32938   2.496   4.175  16.530  0.0003  0.7431  0.3419
 7160SOL    HW132939   2.586   4.176  16.562  0.1538 -2.4306 -0.0181
 7160SOL    HW232940   2.457   4.256  16.562  1.3356  1.1178  1.0345
 7161SOL     OW32941   1.100   2.424   3.530  0.3244 -0.3650 -0.3485
 7161SOL    HW132942   1.082   2.516   3.513 -0.8166 -0.5187  0.0861
 7161SOL    HW232943   1.162   2.424   3.603  0.7970 -1.5336 -0.7355
 7162SOL     OW32944   2.538   4.313   4.313  0.0595  0.1212 -0.1190
 7162SOL    HW132945   2.481   4.326   4.389 -1.4668  2.0861 -1.6157
 7162SOL    HW232946   2.574   4.225   4.327 -2.6085 -0.9667  0.0505
 7163SOL     OW32947   0.496   3.445   2.003  0.6004 -0.1113 -0.4273
 7163SOL    HW132948   0.555   3.371   2.018  0.2119 -0.4604 -0.5789
 7163SOL    HW232949   0.508   3.456   1.908 -0.5174  0.5775 -0.4856
 7164SOL     OW32950   0.673   4.482   4.213  0.3915 -0.4466 -0.5564
 7164SOL    HW132951   0.636   4.417   4.153 -0.8907 -0.4231  0.1961
 7164SOL    HW232952   0.600   4.537   4.243  0.6702 -1.5108  2.0399
 7165SOL     OW32953   1.863   3.109  12.741 -0.4093  0.3412 -0.0168
 7165SOL    HW132954   1.952   3.075  12.746 -0.1690  0.8661 -0.7969
 7165SOL    HW232955   1.886   3.199  12.716 -0.4171  0.8324  1.7234
 7166SOL     OW32956   3.874   2.392   3.092 -0.2269 -0.1885  0.4418
 7166SOL    HW132957   3.908   2.328   3.029  0.9481 -0.9524  1.8561
 7166SOL    HW232958   3.808   2.338   3.135  0.2696 -0.2913  1.0702
 7167SOL     OW32959   2.691   1.107  10.997 -0.5980 -0.8318 -0.0316
 7167SOL    HW132960   2.717   1.109  11.089  1.1979 -0.8786 -0.5395
 7167SOL    HW232961   2.686   1.013  10.982 -1.6178 -1.0953  2.0101
 7168SOL     OW32962   4.016   1.279   8.502 -0.0385  0.3848 -0.3000
 7168SOL    HW132963   4.038   1.187   8.493 -1.2297  0.1609 -0.8965
 7168SOL    HW232964   4.091   1.318   8.546 -0.9041 -0.4290  1.9020
 7169SOL     OW32965   4.655   4.072   8.367  0.2823 -0.0382 -0.3996
 7169SOL    HW132966   4.566   4.084   8.334 -0.3237 -0.9391  0.8980
 7169SOL    HW232967   4.702   4.137   8.314  1.3683 -0.9784 -0.5911
 7170SOL     OW32968   1.429   3.385   4.006 -0.1322  0.0286  0.3430
 7170SOL    HW132969   1.403   3.468   3.967  1.1370  0.5348  0.5814
 7170SOL    HW232970   1.348   3.344   4.035  1.4255 -1.8639  2.1083
 7171SOL     OW32971   0.780   2.070   9.102  0.1769  0.5273 -0.4617
 7171SOL    HW132972   0.776   2.140   9.036  1.0223  1.0864  0.0760
 7171SOL    HW232973   0.843   2.109   9.163 -0.0420  0.1691 -0.0059
 7172SOL     OW32974   2.751   1.029   5.218 -0.1536  0.2235  1.0422
 7172SOL    HW132975   2.747   0.992   5.129 -2.9350 -1.0910  1.7107
 7172SOL    HW232976   2.733   0.948   5.265  1.2061  0.2243  1.5793
 7173SOL     OW32977   0.254   2.843   4.011  0.3751 -0.1688  0.3822
 7173SOL    HW132978   0.345   2.853   3.983  1.0088 -2.3500  1.5998
 7173SOL    HW232979   0.215   2.806   3.932  0.5079  0.4962  0.0092
 7174SOL     OW32980   2.952   0.688  13.009 -0.4753 -1.0094 -0.5767
 7174SOL    HW132981   2.865   0.724  13.026  0.0949  0.0098  0.2454
 7174SOL    HW232982   3.001   0.751  13.062 -0.1217 -0.9404 -0.9800
 7175SOL     OW32983   0.465   3.314  14.529 -0.1653 -0.2553  0.5090
 7175SOL    HW132984   0.451   3.406  14.505 -1.3764 -0.4843  0.3645
 7175SOL    HW232985   0.545   3.328  14.580  0.6362 -2.6827 -0.0486
 7176SOL     OW32986   0.503   3.975   0.426  0.0801 -0.1061 -0.2388
 7176SOL    HW132987   0.452   4.056   0.426 -1.1994 -0.8952 -1.6938
 7176SOL    HW232988   0.566   3.994   0.357  0.8340  0.0820  0.5075
 7177SOL     OW32989   3.267   0.681   2.583  0.1610 -0.4980 -0.1851
 7177SOL    HW132990   3.238   0.753   2.638  1.8307 -0.2842  0.4323
 7177SOL    HW232991   3.307   0.723   2.507 -0.7444 -0.4166 -0.6076
 7178SOL     OW32992   2.792   2.040   3.928 -0.3079  0.5847  0.0764
 7178SOL    HW132993   2.837   1.955   3.934  1.3692  1.4496 -0.3453
 7178SOL    HW232994   2.776   2.060   4.020  0.0907  2.1164 -0.1893
 7179SOL     OW32995   2.009   3.541   4.133 -0.3209  0.7489 -0.8097
 7179SOL    HW132996   2.073   3.612   4.127 -1.4875  1.9459  0.7591
 7179SOL    HW232997   2.006   3.500   4.047 -0.4885  0.1574 -0.5191
 7180SOL     OW32998   2.626   4.348  13.486 -0.0926  0.2014 -0.8296
 7180SOL    HW132999   2.713   4.333  13.523 -0.4778  0.5487  0.2058
 7180SOL    HW233000   2.621   4.436  13.450  0.5336  0.7770  0.4854
 7181SOL     OW33001   4.326   1.387   0.153  0.5164  0.1690 -0.1331
 7181SOL    HW133002   4.413   1.349   0.142  0.7809  0.7146  0.0502
 7181SOL    HW233003   4.352   1.480   0.151  1.9664 -0.2007  1.5157
 7182SOL     OW33004   3.751   2.247  13.040 -0.3421 -0.3785 -0.3760
 7182SOL    HW133005   3.768   2.228  13.132  1.7376 -2.3110 -1.1556
 7182SOL    HW233006   3.748   2.343  13.044  0.5901 -0.2456 -2.5034
 7183SOL     OW33007   0.649   1.696   6.414  0.1905 -0.6207  0.1209
 7183SOL    HW133008   0.712   1.685   6.485 -1.5902  1.4094  2.0013
 7183SOL    HW233009   0.629   1.790   6.412  1.2977 -0.3982 -0.8543
 7184SOL     OW33010   2.858   0.622   3.089 -0.5059  0.0518  0.0732
 7184SOL    HW133011   2.910   0.568   3.030  2.6833  1.7294  1.3458
 7184SOL    HW233012   2.796   0.652   3.022 -0.4580  1.7260  0.7690
 7185SOL     OW33013   0.452   1.645  14.715  0.1580 -0.4239 -0.0898
 7185SOL    HW133014   0.505   1.568  14.734 -0.9856 -0.6256  2.2951
 7185SOL    HW233015   0.522   1.711  14.711 -1.2335  1.0329 -0.5502
 7186SOL     OW33016   2.613   0.821   2.957 -0.1070  0.4523 -0.2636
 7186SOL    HW133017   2.682   0.817   2.891 -0.4984  1.7477 -0.7432
 7186SOL    HW233018   2.557   0.891   2.924 -1.4787 -0.2235  0.6227
 7187SOL     OW33019   0.614   1.899   8.795  0.0420 -0.1187 -0.3744
 7187SOL    HW133020   0.686   1.868   8.740 -1.0503 -1.2864 -1.1653
 7187SOL    HW233021   0.536   1.882   8.741 -0.4370 -2.0819  0.9161
 7188SOL     OW33022   1.815   3.685   2.656  0.3494 -0.4109  0.2582
 7188SOL    HW133023   1.818   3.624   2.730 -1.7390  0.3630  1.0015
 7188SOL    HW233024   1.723   3.674   2.630  0.0677  0.2980  0.9269
 7189SOL     OW33025   0.819   3.541  13.702 -0.4675 -0.5193  0.4235
 7189SOL    HW133026   0.904   3.529  13.743  0.0613 -2.5087 -1.2611
 7189SOL    HW233027   0.823   3.476  13.632 -0.6412  0.5896 -0.6311
 7190SOL     OW33028   1.921   4.688   7.927 -0.6391 -0.2026 -0.9858
 7190SOL    HW133029   1.906   0.037   7.988  0.3031 -1.5666  0.8438
 7190SOL    HW233030   1.969   0.003   7.854 -0.6102 -2.3960 -2.1185
 7191SOL     OW33031   3.311   3.039   3.696  0.4642  0.1342  0.2674
 7191SOL    HW133032   3.334   3.122   3.736 -2.8617 -1.1398  4.7986
 7191SOL    HW233033   3.227   3.065   3.659  0.1135  0.0600  1.0236
 7192SOL     OW33034   1.952   0.068   5.942 -0.1025 -0.3695 -0.4136
 7192SOL    HW133035   1.933   0.040   6.032  1.7474  2.1827  0.7733
 7192SOL    HW233036   1.881   0.132   5.931 -0.2503 -0.3419  0.6291
 7193SOL     OW33037   0.796   2.293   7.426 -0.1598  0.3003 -0.6266
 7193SOL    HW133038   0.858   2.222   7.409  1.1326  1.4738 -0.8279
 7193SOL    HW233039   0.835   2.367   7.381  0.6590 -0.4860 -1.2120
 7194SOL     OW33040   1.629   3.891  13.535  0.4114  0.3658  0.0856
 7194SOL    HW133041   1.636   3.985  13.517  0.1827  0.1260 -1.2091
 7194SOL    HW233042   1.703   3.881  13.595  0.1782  1.2326  0.5190
 7195SOL     OW33043   3.625   4.116   7.792 -0.0999 -0.0284 -0.2544
 7195SOL    HW133044   3.589   4.148   7.709 -1.6668  0.7900  0.7448
 7195SOL    HW233045   3.712   4.154   7.782  0.7114 -1.0032  3.0191
 7196SOL     OW33046   2.233   0.296  13.092  0.6501 -0.2254  0.2892
 7196SOL    HW133047   2.229   0.308  12.997 -0.6897  0.1141  0.3954
 7196SOL    HW233048   2.228   0.201  13.099  2.2655 -0.4739 -1.8099
 7197SOL     OW33049   1.342   2.894   1.643  0.0388  0.0784 -0.3265
 7197SOL    HW133050   1.269   2.839   1.616  0.0243  0.6102 -1.3894
 7197SOL    HW233051   1.308   2.937   1.722  0.4810  0.0303 -0.1106
 7198SOL     OW33052   2.199   2.303   2.705  0.1912  0.1615 -0.2418
 7198SOL    HW133053   2.242   2.369   2.650 -1.8371  1.2520 -0.5550
 7198SOL    HW233054   2.146   2.259   2.638 -3.0386 -0.6995  2.9110
 7199SOL     OW33055   4.707   1.115   7.566 -0.0502  0.2077 -0.0513
 7199SOL    HW133056   0.015   1.204   7.581 -0.4502  0.3185  0.1443
 7199SOL    HW233057   4.640   1.127   7.498  0.7985 -1.1114 -1.1152
 7200SOL     OW33058   0.989   1.554   3.061 -0.3226  0.4755  0.4493
 7200SOL    HW133059   1.056   1.563   3.129 -0.6938 -0.6758  0.9571
 7200SOL    HW233060   1.044   1.537   2.984  0.3460  2.3359  0.4971
 7201SOL     OW33061   2.597   3.215   5.789 -0.1615 -0.2115  0.3946
 7201SOL    HW133062   2.611   3.293   5.843  0.9387  0.5517 -1.0003
 7201SOL    HW233063   2.640   3.149   5.843  0.2190 -0.4197 -0.1692
 7202SOL     OW33064   2.225   3.062   5.003 -0.4652  0.5033  0.7127
 7202SOL    HW133065   2.168   3.101   5.069  1.2222 -1.5789  3.3721
 7202SOL    HW233066   2.303   3.117   5.007 -0.1389  0.1175 -0.2152
 7203SOL     OW33067   3.577   2.512   3.665  0.2859  0.0846  0.2812
 7203SOL    HW133068   3.637   2.448   3.626  1.2493  1.0110  0.2419
 7203SOL    HW233069   3.586   2.593   3.614 -1.1338  0.6757  0.9584
 7204SOL     OW33070   2.018   0.206   7.250 -0.6608  0.1733 -0.4748
 7204SOL    HW133071   2.103   0.162   7.243  0.4907  2.1185  1.4131
 7204SOL    HW233072   1.999   0.229   7.159 -4.1437  1.3783  0.5267
 7205SOL     OW33073   2.312   3.685   8.474 -0.1989 -0.2376 -0.5307
 7205SOL    HW133074   2.311   3.692   8.569  2.0569 -0.7110 -0.4811
 7205SOL    HW233075   2.305   3.780   8.459 -1.7020  0.1751  2.7792
 7206SOL     OW33076   2.442   1.197   0.827  0.0085  0.6182  0.5010
 7206SOL    HW133077   2.355   1.209   0.865 -0.7566 -1.4988 -0.5941
 7206SOL    HW233078   2.468   1.111   0.861 -0.0339  1.1097  1.7745
 7207SOL     OW33079   3.000   2.437   7.746 -0.0187  0.3434  0.2515
 7207SOL    HW133080   3.056   2.361   7.761  2.2408  1.5602 -2.0389
 7207SOL    HW233081   2.933   2.421   7.813 -1.4467 -0.2505 -1.3191
 7208SOL     OW33082   3.651   3.817   2.562 -0.0912  0.3757 -0.3123
 7208SOL    HW133083   3.648   3.729   2.598  2.3101 -0.6582 -2.7022
 7208SOL    HW233084   3.564   3.846   2.590  0.2187  1.0321 -0.0307
 7209SOL     OW33085   3.207   4.723  14.031  0.4628  0.4288 -1.0761
 7209SOL    HW133086   3.166   4.718  13.945 -2.2326 -2.2934  0.3687
 7209SOL    HW233087   3.130   4.712  14.087  1.0206 -0.3494 -0.4603
 7210SOL     OW33088   1.277   2.897  13.299 -0.3301  0.4886  0.2467
 7210SOL    HW133089   1.258   2.884  13.206  1.3874  0.1912 -0.0601
 7210SOL    HW233090   1.192   2.917  13.337 -1.5417 -1.4497 -1.4542
 7211SOL     OW33091   4.675   0.706   5.838 -0.6704 -0.5072  0.0221
 7211SOL    HW133092   0.016   0.699   5.908 -1.5756 -0.0080  0.9168
 7211SOL    HW233093   4.701   0.631   5.785  0.6185 -0.4936  0.6182
 7212SOL     OW33094   0.667   3.294   5.538  0.1532 -0.0735  0.3005
 7212SOL    HW133095   0.689   3.386   5.527 -0.3042 -0.0943 -0.8048
 7212SOL    HW233096   0.732   3.254   5.480 -1.4766 -0.0518 -1.5483
 7213SOL     OW33097   1.352   1.095   6.611  0.1522  0.1776 -0.2130
 7213SOL    HW133098   1.277   1.038   6.625  1.2734 -0.8330  1.5907
 7213SOL    HW233099   1.335   1.134   6.525  0.3387 -1.0698 -0.8101
 7214SOL     OW33100   3.931   0.887   7.878 -0.2778 -0.0536 -0.1988
 7214SOL    HW133101   3.972   0.924   7.800 -1.3990 -1.1089 -1.2943
 7214SOL    HW233102   3.864   0.953   7.893  0.4036  0.4479  0.6291
 7215SOL     OW33103   0.016   0.270   2.013 -0.3358  0.0571  0.5181
 7215SOL    HW133104   0.080   0.337   1.989 -2.3218  0.4834 -3.6441
 7215SOL    HW233105   0.077   0.211   2.057  0.4286  0.7225  0.3542
 7216SOL     OW33106   4.707   3.172   6.500 -0.5207  0.2831 -0.0570
 7216SOL    HW133107   0.030   3.226   6.435  0.3190  0.1135  0.4002
 7216SOL    HW233108   0.055   3.166   6.564  0.1955  3.1412 -0.5862
 7217SOL     OW33109   2.560   2.246   3.460 -0.7338  0.0771 -0.6030
 7217SOL    HW133110   2.622   2.183   3.423  0.4954  0.8221  0.1913
 7217SOL    HW233111   2.565   2.229   3.554 -1.8340  2.7250 -0.0635
 7218SOL     OW33112   2.201   3.736   6.188  0.2765 -0.4778 -0.2356
 7218SOL    HW133113   2.156   3.755   6.106 -1.3543 -1.4774  0.4278
 7218SOL    HW233114   2.144   3.754   6.263  0.9475  1.2269 -0.1246
 7219SOL     OW33115   0.708   1.031  16.450  0.2731 -1.0407  0.3439
 7219SOL    HW133116   0.634   1.072  16.404  0.2727 -2.4397 -0.8697
 7219SOL    HW233117   0.723   0.944  16.413  2.5301 -0.3912 -0.2778
 7220SOL     OW33118   2.873   1.594   1.571 -0.3338  0.3556 -0.0134
 7220SOL    HW133119   2.821   1.673   1.588  0.2322  0.7822 -0.2709
 7220SOL    HW233120   2.887   1.566   1.662 -0.3153  1.5793  0.3592
 7221SOL     OW33121   3.075   4.667   5.500 -0.5549  0.9958  0.3713
 7221SOL    HW133122   3.074   4.712   5.585 -0.1973  0.1441  0.8264
 7221SOL    HW233123   3.040   0.009   5.440  0.8737  1.3264 -0.1145
 7222SOL     OW33124   0.760   3.689   2.724  0.1295 -0.0872 -0.0448
 7222SOL    HW133125   0.791   3.760   2.780  1.2026 -0.1857 -0.5172
 7222SOL    HW233126   0.830   3.684   2.659  0.9919  0.4246  0.8564
 7223SOL     OW33127   3.098   2.061   2.613  0.3409 -0.2854  0.1121
 7223SOL    HW133128   3.043   2.036   2.688  0.3144  0.8131  0.4516
 7223SOL    HW233129   3.030   2.075   2.547  0.9366 -0.4461 -0.5268
 7224SOL     OW33130   4.310   0.422   1.351  0.4999 -0.6249  0.3025
 7224SOL    HW133131   4.243   0.468   1.301  1.6335  1.6555  0.8902
 7224SOL    HW233132   4.265   0.354   1.402 -0.5549 -1.0833 -1.2513
 7225SOL     OW33133   1.478   3.804   4.338 -0.5261 -0.2817  0.3254
 7225SOL    HW133134   1.523   3.788   4.420 -1.2554 -0.4259  0.6995
 7225SOL    HW233135   1.531   3.868   4.291  0.0728  0.9630  2.6941
 7226SOL     OW33136   3.937   2.456   8.368 -0.2187 -0.3741 -0.0513
 7226SOL    HW133137   3.921   2.538   8.416 -0.1501  0.6057 -1.7030
 7226SOL    HW233138   3.935   2.390   8.437 -0.4600  0.1630  0.4633
 7227SOL     OW33139   2.281   0.803  16.140  0.5938  0.5217 -1.2607
 7227SOL    HW133140   2.239   0.719  16.158  0.0167  2.0569  4.3842
 7227SOL    HW233141   2.239   0.831  16.058 -0.1682 -0.4152 -1.1947
 7228SOL     OW33142   0.393   2.513   9.444 -1.0921 -0.5496 -0.3748
 7228SOL    HW133143   0.373   2.436   9.497  2.5805 -1.8631 -0.8984
 7228SOL    HW233144   0.439   2.473   9.370  0.3487 -0.1606  0.2994
 7229SOL     OW33145   1.906   2.867   6.361  0.2841  0.4438 -0.7825
 7229SOL    HW133146   1.947   2.944   6.321 -0.9920  0.9377 -1.1240
 7229SOL    HW233147   1.914   2.882   6.455 -1.0323  1.0966 -0.7795
 7230SOL     OW33148   0.271   2.040  12.649 -0.2887 -0.6131 -0.0755
 7230SOL    HW133149   0.185   2.064  12.613 -0.7608 -1.5189  0.4282
 7230SOL    HW233150   0.317   2.040  12.565 -2.6013  0.7411 -1.3578
 7231SOL     OW33151   0.754   3.181   9.689 -0.7956  0.4800  0.0615
 7231SOL    HW133152   0.740   3.276   9.686 -0.5395  0.4681 -2.0036
 7231SOL    HW233153   0.810   3.169   9.611 -0.4334  1.7434  0.1230
 7232SOL     OW33154   0.172   1.497  14.508  0.6024  0.2330  0.4692
 7232SOL    HW133155   0.149   1.408  14.534  1.3705 -0.7117 -2.0803
 7232SOL    HW233156   0.184   1.497  14.413 -0.5362 -0.6756  0.3257
 7233SOL     OW33157   2.925   4.438  14.996 -0.2831 -0.3841  0.1552
 7233SOL    HW133158   2.967   4.367  15.044 -0.2924 -1.1588 -0.9736
 7233SOL    HW233159   2.891   4.392  14.920  2.1570 -0.4277 -0.9087
 7234SOL     OW33160   1.001   0.484  10.485  0.4477 -0.3395  0.4817
 7234SOL    HW133161   0.950   0.419  10.535  0.1471 -0.9509 -0.6201
 7234SOL    HW233162   1.016   0.444  10.400  1.0482  0.0757  0.3975
 7235SOL     OW33163   4.529   1.015   6.280 -0.5184  0.4481 -0.2677
 7235SOL    HW133164   4.553   1.094   6.328 -0.8583  0.4405 -0.0913
 7235SOL    HW233165   4.509   0.953   6.351 -0.3309  1.6779  0.8431
 7236SOL     OW33166   3.989   1.094   5.066  0.2744  0.3564 -0.5661
 7236SOL    HW133167   3.901   1.057   5.066  0.6711 -0.5827 -2.1518
 7236SOL    HW233168   4.001   1.099   4.971  1.6834 -1.5871 -0.5060
 7237SOL     OW33169   2.006   4.216   8.603  0.0090 -0.1176 -0.5215
 7237SOL    HW133170   2.062   4.292   8.587 -2.5590  1.9572  0.3348
 7237SOL    HW233171   2.065   4.159   8.652 -0.1513 -0.0967 -0.3023
 7238SOL     OW33172   1.832   3.143   6.976  0.0186 -0.0406  0.0329
 7238SOL    HW133173   1.897   3.127   7.045  0.4617 -1.9632 -0.8114
 7238SOL    HW233174   1.819   3.055   6.940  0.3762 -0.5771  1.2118
 7239SOL     OW33175   3.477   0.266   5.225 -0.0630 -0.3369 -0.3799
 7239SOL    HW133176   3.446   0.178   5.244 -1.2883 -0.0121 -0.8670
 7239SOL    HW233177   3.497   0.267   5.131  0.7733 -1.6391 -0.2097
 7240SOL     OW33178   2.010   1.583  16.696  0.4640  0.1317  0.1436
 7240SOL    HW133179   2.045   1.520  16.634  1.6425  3.7690 -2.9409
 7240SOL    HW233180   2.075   1.654  16.697  1.4979 -0.8359  1.5376
 7241SOL     OW33181   2.261   3.186  14.846  0.2933 -0.3936 -0.1088
 7241SOL    HW133182   2.273   3.093  14.831 -0.2333 -0.4173 -0.3942
 7241SOL    HW233183   2.343   3.219  14.881 -1.9331  3.1135  1.8414
 7242SOL     OW33184   2.151   2.770   0.620  0.0630 -0.2292  0.0398
 7242SOL    HW133185   2.129   2.679   0.599  0.2560 -0.7172  1.8757
 7242SOL    HW233186   2.065   2.808   0.637 -0.0638 -0.3370 -0.3741
 7243SOL     OW33187   4.348   4.342  15.116 -0.2128  0.3313 -0.3108
 7243SOL    HW133188   4.388   4.263  15.154  0.5168 -0.5066 -2.8272
 7243SOL    HW233189   4.259   4.311  15.098  0.0910  0.4855 -2.0897
 7244SOL     OW33190   0.318   1.029   2.143  0.8243 -0.3528  0.2182
 7244SOL    HW133191   0.359   1.080   2.213  3.1476 -1.4124 -0.3744
 7244SOL    HW233192   0.244   1.088   2.124  1.8783  1.6269  2.2597
 7245SOL     OW33193   1.323   3.257   1.545  0.4396 -0.2512  0.2722
 7245SOL    HW133194   1.368   3.293   1.622  0.3401 -0.5625  0.4791
 7245SOL    HW233195   1.235   3.290   1.561  0.7210  0.4228  0.4208
 7246SOL     OW33196   0.441   1.365   3.345  0.1037 -0.1368 -0.1507
 7246SOL    HW133197   0.368   1.352   3.284 -1.0656 -0.0478  1.2270
 7246SOL    HW233198   0.411   1.449   3.379  1.6589  0.0714  0.6978
 7247SOL     OW33199   2.795   1.303   2.650  0.1980 -0.3340  0.0738
 7247SOL    HW133200   2.864   1.362   2.620  1.3487 -1.1796  1.0391
 7247SOL    HW233201   2.854   1.234   2.680 -0.4073 -1.5223 -1.4319
 7248SOL     OW33202   1.960   3.905   6.950 -0.1718 -0.3973  1.0267
 7248SOL    HW133203   1.964   3.903   7.045  1.6413 -0.7380  0.9344
 7248SOL    HW233204   2.018   3.981   6.939 -2.6369  1.3311 -0.2410
 7249SOL     OW33205   2.467   1.275  13.936  0.0098 -0.5582  0.4627
 7249SOL    HW133206   2.411   1.317  14.000  1.0010  1.4536  0.0231
 7249SOL    HW233207   2.408   1.216  13.890  0.2712  0.4373 -1.1495
 7250SOL     OW33208   0.767   1.347   4.733 -0.1090 -0.3570 -0.4852
 7250SOL    HW133209   0.801   1.325   4.646  2.5860  2.2885 -0.0944
 7250SOL    HW233210   0.746   1.438   4.710 -0.7105 -0.3392  0.1165
 7251SOL     OW33211   3.390   3.550   4.367 -0.0738  0.1963 -0.0440
 7251SOL    HW133212   3.362   3.458   4.360 -1.6640  0.5843  1.4141
 7251SOL    HW233213   3.332   3.586   4.434 -1.3372  1.4884 -1.8210
 7252SOL     OW33214   0.256   0.914   3.267  0.1297 -0.2930 -0.2795
 7252SOL    HW133215   0.193   0.929   3.338  0.1908  0.7479 -0.4455
 7252SOL    HW233216   0.312   0.860   3.322 -0.3141  0.2557  0.7128
 7253SOL     OW33217   2.911   2.305   2.812  0.5998 -0.0416 -0.0559
 7253SOL    HW133218   2.987   2.326   2.865  1.9440  0.6842 -2.2786
 7253SOL    HW233219   2.875   2.393   2.799  1.7335  0.5089  0.5971
 7254SOL     OW33220   0.465   3.544  16.087  0.4803 -0.1052 -0.3980
 7254SOL    HW133221   0.527   3.563  16.158  2.8973 -1.4356 -2.1460
 7254SOL    HW233222   0.529   3.538  16.017  0.4092 -0.8405 -0.4064
 7255SOL     OW33223   1.992   1.437   1.619  0.2731 -0.0754  0.5899
 7255SOL    HW133224   2.018   1.345   1.614  1.9136  0.3973  0.2929
 7255SOL    HW233225   1.929   1.444   1.547  1.1734 -0.8688 -0.2800
 7256SOL     OW33226   1.021   2.191   4.625 -0.0517  0.2842 -0.1945
 7256SOL    HW133227   1.017   2.117   4.564  1.1729 -0.6322  0.8196
 7256SOL    HW233228   0.992   2.159   4.711 -3.4246 -0.1827 -1.5285
 7257SOL     OW33229   1.317   3.315   4.399 -0.4882  0.5763 -0.8285
 7257SOL    HW133230   1.322   3.405   4.433 -1.6488  1.9805 -4.3851
 7257SOL    HW233231   1.250   3.332   4.333 -1.4855 -2.0105 -0.4693
 7258SOL     OW33232   1.073   0.295  11.543 -0.0199 -0.0286  0.1379
 7258SOL    HW133233   0.991   0.345  11.543  0.5638  0.9299  1.0578
 7258SOL    HW233234   1.107   0.311  11.631 -0.0604 -0.3394  0.2128
 7259SOL     OW33235   1.430   4.546   3.945  0.0194  0.3239 -0.1870
 7259SOL    HW133236   1.430   4.642   3.946  0.5850  0.3244 -0.3772
 7259SOL    HW233237   1.520   4.526   3.919 -0.7630 -0.9118 -1.9635
 7260SOL     OW33238   1.775   1.490   3.093  0.2151  0.8294  0.3674
 7260SOL    HW133239   1.847   1.546   3.063  3.2416 -1.6217  3.0975
 7260SOL    HW233240   1.806   1.482   3.183 -0.6884 -2.9027  0.3316
 7261SOL     OW33241   3.332   4.149  16.225  0.0225 -0.1390  0.0834
 7261SOL    HW133242   3.412   4.118  16.267 -0.1593 -0.2665  0.3346
 7261SOL    HW233243   3.370   4.164  16.139  1.5041 -4.0193  0.0777
 7262SOL     OW33244   0.783   2.254   5.615 -0.0675  1.0225 -0.4820
 7262SOL    HW133245   0.869   2.267   5.576  0.5434 -0.3561  0.4161
 7262SOL    HW233246   0.802   2.202   5.694 -0.6253  1.1402 -0.2722
 7263SOL     OW33247   1.571   0.562   0.703 -0.0234  0.3307 -0.2852
 7263SOL    HW133248   1.612   0.551   0.788 -1.6024 -5.3460 -0.2472
 7263SOL    HW233249   1.615   0.492   0.653 -0.1405  0.4894 -0.6119
 7264SOL     OW33250   1.131   3.124   2.098  0.1040 -0.3104 -0.3135
 7264SOL    HW133251   1.144   3.180   2.022 -1.7766  0.1569 -0.3018
 7264SOL    HW233252   1.056   3.167   2.140 -1.2831 -0.1325 -2.9788
 7265SOL     OW33253   4.190   3.860  15.980 -0.1992 -0.7010  0.2089
 7265SOL    HW133254   4.209   3.920  15.908  1.6504  0.8714  2.0172
 7265SOL    HW233255   4.258   3.881  16.043  0.5736 -0.1986 -0.7906
 7266SOL     OW33256   3.389   3.766   5.852 -0.0158  0.3689  0.5773
 7266SOL    HW133257   3.310   3.743   5.899 -1.1317  1.6700 -0.6471
 7266SOL    HW233258   3.369   3.850   5.810  0.0482  1.2132  2.2302
 7267SOL     OW33259   2.185   2.224   4.711 -0.5882 -0.6922  0.7548
 7267SOL    HW133260   2.230   2.302   4.745 -0.5554  0.1739 -1.2698
 7267SOL    HW233261   2.226   2.153   4.760  1.0031 -0.7908 -0.7051
 7268SOL     OW33262   1.919   3.683   1.639 -0.5388  0.1260  0.0472
 7268SOL    HW133263   1.902   3.592   1.663  0.5831 -0.2317 -0.4676
 7268SOL    HW233264   1.835   3.715   1.670 -0.1309  2.0554 -0.8646
 7269SOL     OW33265   0.573   1.274   7.805  0.4730  0.2511  0.1860
 7269SOL    HW133266   0.606   1.259   7.717  0.8838 -0.0443  0.3896
 7269SOL    HW233267   0.479   1.284   7.790  0.2307  0.7618  1.9727
 7270SOL     OW33268   2.804   1.894   7.289 -0.3851 -0.6565  0.9089
 7270SOL    HW133269   2.800   1.924   7.198 -0.5142  2.1845  1.8557
 7270SOL    HW233270   2.713   1.870   7.307 -0.6104 -0.2547  0.2965
 7271SOL     OW33271   1.750   3.494   5.723  0.1895 -0.4430  0.0263
 7271SOL    HW133272   1.686   3.475   5.655  0.1897 -1.3573  0.2822
 7271SOL    HW233273   1.780   3.579   5.691 -0.8117 -0.0998  0.0151
 7272SOL     OW33274   4.055   1.091   0.727 -0.5161 -0.4132 -0.3195
 7272SOL    HW133275   4.042   1.052   0.813 -1.0290  2.9976  1.1523
 7272SOL    HW233276   3.965   1.099   0.695 -0.4394 -0.9031 -0.6703
 7273SOL     OW33277   1.882   4.553   7.340 -0.0782 -0.5503 -0.1556
 7273SOL    HW133278   1.814   4.565   7.275  0.1520 -1.5308 -0.5685
 7273SOL    HW233279   1.958   4.586   7.291  0.6498  0.0117  1.3356
 7274SOL     OW33280   0.709   2.331   2.629  0.3761 -0.1256  0.1341
 7274SOL    HW133281   0.787   2.315   2.576 -0.8418 -3.2043 -0.7950
 7274SOL    HW233282   0.709   2.426   2.624  0.4626 -0.1057  0.5557
 7275SOL     OW33283   4.640   1.552   4.364  0.1872 -0.5287 -0.1783
 7275SOL    HW133284   4.704   1.533   4.295 -0.5850 -0.2069 -0.9793
 7275SOL    HW233285   4.576   1.603   4.315  1.0426  0.6387 -0.0618
 7276SOL     OW33286   3.122   0.930   1.278 -0.0443 -0.1697 -0.6639
 7276SOL    HW133287   3.135   0.854   1.335  1.2944 -0.5026 -1.4246
 7276SOL    HW233288   3.037   0.905   1.241 -0.4448  0.9846 -0.5379
 7277SOL     OW33289   1.893   2.933   4.215 -1.0424  0.3564  0.1504
 7277SOL    HW133290   1.966   2.883   4.179 -0.7141 -0.3486  1.8092
 7277SOL    HW233291   1.831   2.932   4.142  0.7003  0.2935 -1.3348
 7278SOL     OW33292   3.371   3.177   9.020  0.2593  0.3213  0.3599
 7278SOL    HW133293   3.395   3.085   9.012  0.8672  0.5499 -0.4651
 7278SOL    HW233294   3.275   3.176   9.015  0.3128 -0.7865 -0.2961
 7279SOL     OW33295   2.726   3.648   5.008 -0.7756  0.5227 -0.6800
 7279SOL    HW133296   2.638   3.611   5.001 -0.4450 -0.1305 -1.3803
 7279SOL    HW233297   2.770   3.565   5.026  1.0609  1.6862  0.2547
 7280SOL     OW33298   1.519   3.199   8.854  0.0326 -0.1957  0.3478
 7280SOL    HW133299   1.425   3.181   8.857  0.4317 -2.2687  0.3001
 7280SOL    HW233300   1.560   3.113   8.862 -0.3131 -0.2935  1.1002
 7281SOL     OW33301   2.283   1.985  11.411 -0.3804 -0.3365 -0.1794
 7281SOL    HW133302   2.316   1.981  11.321  1.2003  0.1533  0.3815
 7281SOL    HW233303   2.226   1.908  11.416  0.6219 -1.1234 -0.7902
 7282SOL     OW33304   3.109   1.179   3.060  0.9047  0.1186 -0.4717
 7282SOL    HW133305   3.122   1.271   3.039 -2.1310  0.5834 -0.2156
 7282SOL    HW233306   3.130   1.186   3.153  0.0512 -2.6165 -0.0626
 7283SOL     OW33307   2.783   3.045  12.329  0.4027  0.6824  0.5123
 7283SOL    HW133308   2.753   2.958  12.356  3.1264 -0.5358 -0.4152
 7283SOL    HW233309   2.875   3.040  12.354  0.1168 -0.2974  1.3721
 7284SOL     OW33310   3.394   4.569   4.430  0.5372 -0.2660  0.2795
 7284SOL    HW133311   3.488   4.579   4.413  0.5175 -1.4286 -0.4854
 7284SOL    HW233312   3.388   4.475   4.443  2.2663 -0.1369  1.9865
 7285SOL     OW33313   0.575   0.184   4.588  0.1407  0.3704 -0.2549
 7285SOL    HW133314   0.627   0.226   4.519 -0.3252  1.2533 -0.0762
 7285SOL    HW233315   0.615   0.098   4.590 -2.7545 -0.9434  1.0906
 7286SOL     OW33316   1.390   3.761  13.330  0.1009 -0.5583 -0.0100
 7286SOL    HW133317   1.331   3.827  13.294 -1.0746 -2.1399 -1.0267
 7286SOL    HW233318   1.435   3.723  13.254 -1.6277 -1.9478 -0.3453
 7287SOL     OW33319   2.256   2.111   8.484  0.5296 -0.4677  0.2323
 7287SOL    HW133320   2.195   2.106   8.410 -0.6335  1.0757  1.0866
 7287SOL    HW233321   2.204   2.171   8.537 -1.1586 -0.5876 -1.2766
 7288SOL     OW33322   2.131   3.881   2.006  0.2736  0.2732 -0.4103
 7288SOL    HW133323   2.212   3.836   1.982  0.8215  2.2753 -2.3177
 7288SOL    HW233324   2.099   3.916   1.922 -0.5695 -0.0120 -0.2137
 7289SOL     OW33325   2.197   1.665   9.255  0.1492 -0.3743 -0.1522
 7289SOL    HW133326   2.167   1.645   9.344 -1.6452  0.8063 -0.4793
 7289SOL    HW233327   2.186   1.760   9.260 -0.4526 -0.3486 -1.8981
 7290SOL     OW33328   1.176   4.191   5.938 -0.0098  0.5497  0.1781
 7290SOL    HW133329   1.128   4.113   5.909  1.5832 -0.8506  1.3388
 7290SOL    HW233330   1.260   4.151   5.957 -0.4887 -0.3524  0.3895
 7291SOL     OW33331   2.770   1.688   5.992  0.4690 -0.9983  0.1106
 7291SOL    HW133332   2.768   1.592   6.002 -1.4093 -1.1167 -1.3636
 7291SOL    HW233333   2.681   1.713   6.018 -0.1104 -1.5602 -1.3291
 7292SOL     OW33334   2.991   1.623   5.265  0.3886 -0.1904 -0.1093
 7292SOL    HW133335   2.995   1.569   5.344  0.7799  1.3258  0.9147
 7292SOL    HW233336   2.976   1.709   5.306  0.1653 -0.5523  0.5677
 7293SOL     OW33337   2.556   2.803   2.940 -0.0211 -0.4066 -0.1383
 7293SOL    HW133338   2.559   2.898   2.947  0.5504 -0.3483 -1.1194
 7293SOL    HW233339   2.647   2.789   2.966 -0.4572 -0.3713  1.3902
 7294SOL     OW33340   1.673   4.182   0.793 -0.3072 -0.4603 -0.2818
 7294SOL    HW133341   1.630   4.139   0.867 -1.6682 -0.7565 -1.2417
 7294SOL    HW233342   1.648   4.274   0.799  1.6083  0.1916 -1.8863
 7295SOL     OW33343   1.329   0.142   7.285  0.1330 -0.1151 -0.6173
 7295SOL    HW133344   1.404   0.159   7.341 -0.3705  1.6926 -0.4898
 7295SOL    HW233345   1.272   0.090   7.342  0.9575  0.7237  0.9659
 7296SOL     OW33346   3.878   4.241   8.568 -0.0390 -0.1624 -0.0524
 7296SOL    HW133347   3.793   4.285   8.567 -0.0185 -0.1888 -2.5472
 7296SOL    HW233348   3.855   4.165   8.621 -0.5088  0.4857  0.6716
 7297SOL     OW33349   3.771   2.983  16.240  0.4954 -0.4446  0.0808
 7297SOL    HW133350   3.750   2.905  16.188 -1.6310  0.4721 -0.4218
 7297SOL    HW233351   3.836   3.023  16.182 -0.3782  1.3591  0.3400
 7298SOL     OW33352   1.240   2.837  13.047  0.5771 -0.3274 -0.5370
 7298SOL    HW133353   1.294   2.783  12.990 -2.6729 -1.9003 -2.1316
 7298SOL    HW233354   1.274   2.923  13.022 -1.9015  1.1344  1.0475
 7299SOL     OW33355   2.567   3.265   6.908 -0.1435 -0.9923  0.2850
 7299SOL    HW133356   2.620   3.313   6.972 -1.4947  1.1809 -0.2408
 7299SOL    HW233357   2.546   3.186   6.957 -2.4932  0.5543  1.7362
 7300SOL     OW33358   3.850   2.193  12.789  0.0709 -0.4142 -0.9927
 7300SOL    HW133359   3.804   2.214  12.869  1.7966  0.4020 -0.2048
 7300SOL    HW233360   3.802   2.118  12.755 -1.2160 -0.2165  0.4278
 7301SOL     OW33361   1.756   3.180  12.967 -0.4119  0.0816 -0.0826
 7301SOL    HW133362   1.783   3.122  12.896 -1.0319 -0.6973  0.3249
 7301SOL    HW233363   1.745   3.267  12.929  1.8918  0.5888  0.3559
 7302SOL     OW33364   4.676   2.120  14.926 -0.5886 -0.0642 -0.4219
 7302SOL    HW133365   4.679   2.215  14.920  2.5916  0.0295  2.8914
 7302SOL    HW233366   4.617   2.106  14.851 -0.6550  2.3183 -0.8253
 7303SOL     OW33367   3.618   3.995   4.147 -0.2522 -0.1646 -0.6439
 7303SOL    HW133368   3.542   3.988   4.206  1.8947 -0.7650  2.0525
 7303SOL    HW233369   3.584   4.078   4.114 -0.3093  0.2299  0.4019
 7304SOL     OW33370   0.877   1.362  14.564  0.0371  0.0800  0.2893
 7304SOL    HW133371   0.874   1.322  14.652 -1.0393  0.6498  0.5042
 7304SOL    HW233372   0.865   1.290  14.503 -1.8170  0.0907  0.6421
 7305SOL     OW33373   2.647   3.074   6.707  0.1069 -0.2464  0.1879
 7305SOL    HW133374   2.569   3.019   6.717  1.7595 -2.3706  1.2587
 7305SOL    HW233375   2.636   3.144   6.770 -2.6377 -0.2279 -0.2944
 7306SOL     OW33376   1.632   1.333  12.131 -0.2052 -0.1748  0.5410
 7306SOL    HW133377   1.584   1.371  12.057  0.0854 -0.8762 -0.0069
 7306SOL    HW233378   1.594   1.379  12.205 -0.2799  0.4490  0.1156
 7307SOL     OW33379   3.184   1.211   3.905 -0.8417 -0.0143  0.0099
 7307SOL    HW133380   3.141   1.289   3.869  1.0552  0.7439 -0.5813
 7307SOL    HW233381   3.168   1.159   3.826  1.2975 -0.8264  0.1056
 7308SOL     OW33382   3.546   4.208   4.028 -0.1901 -0.0055  0.2746
 7308SOL    HW133383   3.500   4.179   3.950 -1.1030 -1.5575  1.4015
 7308SOL    HW233384   3.486   4.272   4.068 -1.2103 -0.0591 -1.1577
 7309SOL     OW33385   0.884   0.884   3.662  0.0701  0.1825 -0.2322
 7309SOL    HW133386   0.954   0.944   3.685 -0.8949  1.3141 -0.2303
 7309SOL    HW233387   0.935   0.832   3.600  1.1914 -0.3649  1.1691
 7310SOL     OW33388   2.217   4.100   4.645  0.5278  0.3445 -0.2967
 7310SOL    HW133389   2.192   4.048   4.569 -1.1800 -0.2143  0.6339
 7310SOL    HW233390   2.134   4.089   4.692  0.2422 -0.9360 -1.1239
 7311SOL     OW33391   2.645   0.363   9.019  0.4760  0.4428  0.3424
 7311SOL    HW133392   2.679   0.449   8.996  0.8199 -0.5147 -2.7191
 7311SOL    HW233393   2.696   0.355   9.099 -1.6224 -0.6475  1.5602
 7312SOL     OW33394   0.128   3.180   4.870 -0.1234 -0.0139  0.1050
 7312SOL    HW133395   0.158   3.271   4.876  0.6719 -0.2228 -0.9434
 7312SOL    HW233396   0.115   3.164   4.964 -1.2159 -0.7064 -0.1666
 7313SOL     OW33397   1.344   2.642   5.229 -0.0447 -0.2786 -0.2680
 7313SOL    HW133398   1.383   2.662   5.313 -0.7260 -0.8752  0.1937
 7313SOL    HW233399   1.422   2.647   5.174 -0.7140 -2.5120 -1.4784
 7314SOL     OW33400   0.018   3.602  14.984  0.6768  0.2710  0.4225
 7314SOL    HW133401   4.694   3.612  14.902  2.7511  1.2697 -0.6681
 7314SOL    HW233402   0.109   3.626  14.969  1.1133 -1.6005  0.0087
 7315SOL     OW33403   3.938   2.768   1.530 -0.6228  0.0256  0.1282
 7315SOL    HW133404   3.994   2.841   1.557 -0.7727 -0.0837  0.7313
 7315SOL    HW233405   4.000   2.696   1.539 -0.3087  0.2394 -0.3008
 7316SOL     OW33406   2.563   4.500   1.561 -0.1823 -0.0240  0.3109
 7316SOL    HW133407   2.612   4.546   1.494 -1.1389 -0.1749 -0.4944
 7316SOL    HW233408   2.472   4.504   1.532 -1.0005  0.1121  2.8795
 7317SOL     OW33409   4.549   3.833   2.515  0.4317  0.0069 -0.1552
 7317SOL    HW133410   4.570   3.753   2.563 -0.0235 -0.4088 -0.6532
 7317SOL    HW233411   4.610   3.834   2.441 -0.4672  2.2398 -0.8648
 7318SOL     OW33412   0.871   1.997   7.073  0.1040  0.2369 -0.5940
 7318SOL    HW133413   0.837   1.956   7.153 -0.3019 -1.7420 -1.7671
 7318SOL    HW233414   0.964   1.986   7.091  0.5450  3.9027 -0.6947
 7319SOL     OW33415   0.612   1.590  17.356  0.4824  0.1108  0.1135
 7319SOL    HW133416   0.623   1.685  17.356 -0.2683  0.1916  2.4483
 7319SOL    HW233417   0.653   1.566  17.273 -1.7609 -2.1768 -0.3010
 7320SOL     OW33418   2.307   3.665   9.141 -0.2836 -0.2814  0.1244
 7320SOL    HW133419   2.369   3.709   9.200 -1.2568  1.1784  0.0610
 7320SOL    HW233420   2.323   3.571   9.145  0.6882 -0.0660  1.4930
 7321SOL     OW33421   3.310   2.732   7.633 -0.2283  0.1930  0.2711
 7321SOL    HW133422   3.388   2.700   7.589 -0.0341 -0.1073  0.8274
 7321SOL    HW233423   3.237   2.716   7.573 -0.9192 -0.5971  1.3032
 7322SOL     OW33424   4.253   0.016  10.284 -0.1949 -0.2528  0.0667
 7322SOL    HW133425   4.285   0.034  10.373  2.2444  1.6379 -1.1864
 7322SOL    HW233426   4.181   4.680  10.301 -0.4964  0.2243  0.4781
 7323SOL     OW33427   3.383   0.625   2.834 -0.1262  0.3683 -0.4095
 7323SOL    HW133428   3.307   0.660   2.881 -0.2926 -0.8056  0.1885
 7323SOL    HW233429   3.373   0.639   2.740 -1.6836  0.5620 -0.2174
 7324SOL     OW33430   3.675   1.580   7.071 -0.0123  0.3239  0.2192
 7324SOL    HW133431   3.753   1.619   7.031  0.9279  0.2421  1.9967
 7324SOL    HW233432   3.657   1.644   7.140 -0.8540  1.0404 -0.6713
 7325SOL     OW33433   2.313   2.282   5.837  0.2039  0.1573  0.0941
 7325SOL    HW133434   2.296   2.345   5.767  1.9116 -0.9624 -1.3130
 7325SOL    HW233435   2.370   2.222   5.789 -0.3242 -0.5501  0.3537
 7326SOL     OW33436   1.353   4.643   7.573 -0.0154 -0.2815 -0.6973
 7326SOL    HW133437   1.264   4.645   7.536 -0.0244  1.5770 -0.6175
 7326SOL    HW233438   1.381   4.556   7.547 -1.8470 -0.7094 -1.2386
 7327SOL     OW33439   1.343   1.697   7.912  0.1909  0.0182 -0.5857
 7327SOL    HW133440   1.314   1.607   7.902 -0.3925  0.2584 -1.0284
 7327SOL    HW233441   1.337   1.720   7.819  2.0496 -0.7662 -0.9062
 7328SOL     OW33442   2.683   2.600  13.130 -0.3995 -0.6762  0.8328
 7328SOL    HW133443   2.738   2.546  13.188 -0.8220  0.3407  2.2007
 7328SOL    HW233444   2.654   2.534  13.067  3.3063 -1.8268  0.3459
 7329SOL     OW33445   3.390   2.055  17.667 -0.4156  0.6288  0.3658
 7329SOL    HW133446   3.376   2.144  17.635 -1.6421  1.1181  2.2245
 7329SOL    HW233447   3.484   2.058  17.683 -0.2576  0.2398 -0.4931
 7330SOL     OW33448   0.452   2.052   8.974  0.3376  0.3702 -0.0778
 7330SOL    HW133449   0.451   2.014   9.063 -0.0621 -2.2183 -1.1855
 7330SOL    HW233450   0.523   2.000   8.935  0.8015  1.7370 -1.0236
 7331SOL     OW33451   0.931   4.674   0.334  0.6258  0.3501  0.1706
 7331SOL    HW133452   0.956   4.675   0.242  0.8308 -0.8870  0.2108
 7331SOL    HW233453   0.997   0.012   0.366 -1.3741  1.9197  1.2423
 7332SOL     OW33454   0.486   3.502   7.824  0.0544  0.3883 -0.3820
 7332SOL    HW133455   0.539   3.428   7.854  0.0289  0.1491 -0.9223
 7332SOL    HW233456   0.548   3.574   7.816  0.4505  0.3711  2.5729
 7333SOL     OW33457   2.381   2.255   3.239 -0.0774 -0.0494  0.0441
 7333SOL    HW133458   2.433   2.279   3.162 -1.9226 -0.2159 -1.2478
 7333SOL    HW233459   2.446   2.255   3.310  1.4883 -0.4200 -1.3883
 7334SOL     OW33460   3.556   4.192   5.155  0.0753  0.8715  0.6205
 7334SOL    HW133461   3.504   4.163   5.080 -0.8682  0.7947  1.3080
 7334SOL    HW233462   3.599   4.115   5.191 -0.8010 -0.6379 -1.5307
 7335SOL     OW33463   4.514   2.268   3.142 -0.4134 -0.4400 -0.4792
 7335SOL    HW133464   4.498   2.175   3.125 -0.4114 -0.2465 -1.5138
 7335SOL    HW233465   4.608   2.267   3.160 -0.4491  0.3620 -0.2641
 7336SOL     OW33466   4.501   1.401   3.848 -0.1477  0.0500 -0.0195
 7336SOL    HW133467   4.526   1.398   3.940 -1.7441  0.3315  0.4232
 7336SOL    HW233468   4.520   1.309   3.826 -1.9506 -0.1872 -0.5512
 7337SOL     OW33469   4.231   0.165   1.691  0.1981 -0.3555 -0.5138
 7337SOL    HW133470   4.217   0.094   1.753  0.3974 -1.6095 -1.9254
 7337SOL    HW233471   4.299   0.219   1.731 -0.8332  0.7706 -0.2379
 7338SOL     OW33472   4.088   2.809   4.749 -0.2227 -0.6104  0.1728
 7338SOL    HW133473   4.009   2.829   4.698 -0.3915  2.6492  1.6994
 7338SOL    HW233474   4.149   2.794   4.677 -0.2293  0.9645 -0.1639
 7339SOL     OW33475   2.112   2.127   5.929  0.6438 -0.1649 -0.3807
 7339SOL    HW133476   2.089   2.116   5.836  0.1824 -1.1195 -0.1494
 7339SOL    HW233477   2.182   2.192   5.921  0.4199 -0.1704 -2.3701
 7340SOL     OW33478   4.049   4.293  10.944 -0.9428 -0.3133  0.0192
 7340SOL    HW133479   3.992   4.334  10.880  0.0348 -0.5596 -1.0068
 7340SOL    HW233480   4.060   4.356  11.015  0.4125 -0.0616 -0.4193
 7341SOL     OW33481   1.118   3.440   1.593 -0.1850  0.3688 -0.1835
 7341SOL    HW133482   1.136   3.533   1.607  0.6070  0.2245 -0.2517
 7341SOL    HW233483   1.023   3.442   1.603 -0.3143 -0.2108 -1.3940
 7342SOL     OW33484   3.753   0.123   1.000  0.2796  0.7111  0.1355
 7342SOL    HW133485   3.701   0.152   0.925  0.9638  0.2365 -0.5254
 7342SOL    HW233486   3.844   0.142   0.976  0.4843 -1.7011 -1.1254
 7343SOL     OW33487   2.610   4.466   9.238 -0.2127 -0.3657 -0.2122
 7343SOL    HW133488   2.585   4.389   9.187  0.1459 -0.4819 -0.2089
 7343SOL    HW233489   2.705   4.456   9.232 -0.3093 -0.3562 -1.7258
 7344SOL     OW33490   0.313   3.647   5.572 -0.1622 -0.6098  0.1457
 7344SOL    HW133491   0.348   3.715   5.629  1.5967 -0.8252 -0.6705
 7344SOL    HW233492   0.354   3.566   5.603  0.8694  0.3918  1.3647
 7345SOL     OW33493   1.383   2.634   2.667  0.1211  0.4099  0.1503
 7345SOL    HW133494   1.394   2.615   2.574  1.5842  3.4952 -0.3101
 7345SOL    HW233495   1.467   2.677   2.686  0.6545  0.1578 -1.5946
 7346SOL     OW33496   3.586   2.386   2.224 -0.0604 -0.3149  0.0424
 7346SOL    HW133497   3.516   2.434   2.181 -0.2678 -0.4674  0.2047
 7346SOL    HW233498   3.641   2.462   2.244 -1.5427  0.8220 -0.1942
 7347SOL     OW33499   1.540   2.918   8.060 -0.7378 -0.5043  0.5901
 7347SOL    HW133500   1.602   2.991   8.053  0.6938 -1.5628  2.3966
 7347SOL    HW233501   1.594   2.849   8.097 -1.0485 -0.9618  0.1887
 7348SOL     OW33502   2.533   3.014   2.055 -0.4301  0.3000  0.2792
 7348SOL    HW133503   2.530   2.975   2.142 -1.2925 -0.3405 -0.0317
 7348SOL    HW233504   2.484   2.948   2.005  1.1019  2.6527 -4.3172
 7349SOL     OW33505   1.088   0.219   4.584 -0.4856  0.5943  0.2745
 7349SOL    HW133506   1.152   0.255   4.522  0.8690  1.0676  1.9318
 7349SOL    HW233507   1.025   0.290   4.590 -1.0636  0.1198 -0.2174
 7350SOL     OW33508   0.545   1.662   5.188 -0.6962 -0.5656 -0.0269
 7350SOL    HW133509   0.526   1.570   5.206  2.1449 -1.1564  0.0001
 7350SOL    HW233510   0.589   1.645   5.105  0.6030  1.1389  0.3032
 7351SOL     OW33511   4.027   2.467   5.712  0.1286 -0.4532  0.1656
 7351SOL    HW133512   4.010   2.551   5.670 -1.0047 -1.6317 -1.7132
 7351SOL    HW233513   4.045   2.493   5.803 -1.1508  0.5672  0.1236
 7352SOL     OW33514   1.871   3.716   3.802 -0.5191 -0.3366 -0.1177
 7352SOL    HW133515   1.843   3.796   3.845 -2.0796 -0.8709 -0.1400
 7352SOL    HW233516   1.790   3.670   3.821 -0.8426  0.7285  1.0559
 7353SOL     OW33517   0.077   0.703  10.681  0.3015  0.3149 -0.2407
 7353SOL    HW133518   0.050   0.788  10.646  0.2048  1.0153  1.5155
 7353SOL    HW233519   0.170   0.703  10.659  0.1001 -0.6282 -1.0924
 7354SOL     OW33520   0.096   4.364   7.661 -1.0849 -0.2790 -0.3822
 7354SOL    HW133521   0.010   4.406   7.669  0.5588  2.9818  0.3286
 7354SOL    HW233522   0.149   4.439   7.634 -0.1996 -0.1848  1.5959
 7355SOL     OW33523   0.912   3.663  10.861 -0.0608 -0.0702  0.0722
 7355SOL    HW133524   0.903   3.592  10.798 -0.4426 -0.6872  0.8169
 7355SOL    HW233525   0.864   3.725  10.806  0.9399  0.4861 -0.1895
 7356SOL     OW33526   1.883   4.223   7.819 -0.6516  0.0180 -0.1701
 7356SOL    HW133527   1.800   4.263   7.843 -1.3600 -2.3583  1.3447
 7356SOL    HW233528   1.917   4.279   7.749  0.5657  0.5189  0.8275
 7357SOL     OW33529   0.462   0.544   2.996  0.1508 -0.6253  0.3931
 7357SOL    HW133530   0.495   0.621   3.043  0.0650 -1.6790  2.1707
 7357SOL    HW233531   0.417   0.500   3.068  0.2073 -0.1502  0.7247
 7358SOL     OW33532   4.185   4.346   0.979 -0.1434  0.7243 -0.0047
 7358SOL    HW133533   4.242   4.293   1.034 -1.9673 -2.3237 -1.0492
 7358SOL    HW233534   4.140   4.405   1.040  0.7045 -0.5108  1.8169
 7359SOL     OW33535   1.051   3.585  15.160 -0.7310  0.0794 -0.2024
 7359SOL    HW133536   1.073   3.674  15.132 -1.7146  0.6160  0.7437
 7359SOL    HW233537   0.955   3.589  15.159 -0.8560 -2.5839 -1.2383
 7360SOL     OW33538   0.961   0.278   6.503  0.3293 -0.0333 -0.5326
 7360SOL    HW133539   0.884   0.237   6.465  0.2533 -1.5404  1.2724
 7360SOL    HW233540   0.938   0.298   6.593 -0.6610  1.4951 -1.1143
 7361SOL     OW33541   0.387   3.987   3.537  0.1224 -0.0740 -0.1782
 7361SOL    HW133542   0.397   3.897   3.506  0.8107 -0.1300  0.2094
 7361SOL    HW233543   0.474   4.023   3.520 -0.3297  1.1696  0.0981
 7362SOL     OW33544   1.522   0.989  15.010 -0.6209 -0.1800  0.8387
 7362SOL    HW133545   1.613   0.974  15.036  0.2191  3.0327 -0.2843
 7362SOL    HW233546   1.519   0.999  14.915  1.7981  0.6876  0.8540
 7363SOL     OW33547   3.124   3.549   8.517  0.1379 -0.1532  0.1588
 7363SOL    HW133548   3.161   3.628   8.478  0.7151 -0.1926  0.6199
 7363SOL    HW233549   3.129   3.496   8.438  1.6358  2.3798 -1.4448
 7364SOL     OW33550   0.638   2.772  15.041  0.0966  0.0126 -0.0705
 7364SOL    HW133551   0.579   2.765  14.966  1.5116  1.1483 -1.3042
 7364SOL    HW233552   0.638   2.867  15.053 -2.6607 -0.1828  1.4664
 7365SOL     OW33553   2.380   4.054   2.153 -0.2645 -0.2943  0.2869
 7365SOL    HW133554   2.343   4.140   2.133  0.1027 -0.4230 -0.9674
 7365SOL    HW233555   2.302   4.001   2.172 -0.4093 -0.2144 -0.0730
 7366SOL     OW33556   3.993   1.181   1.023 -0.0526 -0.5641  0.4553
 7366SOL    HW133557   3.929   1.251   1.033  4.0637  3.4756 -1.4868
 7366SOL    HW233558   4.012   1.164   1.115  0.4483 -1.1994  0.2340
 7367SOL     OW33559   0.411   4.474  10.859 -0.0801  0.3387 -0.1962
 7367SOL    HW133560   0.438   4.565  10.871 -0.6466  0.1477  2.3758
 7367SOL    HW233561   0.496   4.434  10.839  0.6831  0.8249  2.1232
 7368SOL     OW33562   4.655   3.552   5.795 -0.3729 -0.1055 -0.1286
 7368SOL    HW133563   4.594   3.484   5.764 -0.3733  0.3292 -1.0651
 7368SOL    HW233564   4.593   3.600   5.850  0.5810  0.1163  0.7429
 7369SOL     OW33565   2.296   3.311   9.561 -0.5595  0.1740 -0.6667
 7369SOL    HW133566   2.254   3.311   9.647  1.0058 -0.7431  0.0933
 7369SOL    HW233567   2.308   3.217   9.547 -1.8668 -0.3083  1.4145
 7370SOL     OW33568   4.014   2.389   9.990  0.1110 -0.2575  0.1964
 7370SOL    HW133569   4.105   2.415  10.005 -0.0996  1.0039 -0.6249
 7370SOL    HW233570   4.036   2.296   9.995  3.5862  0.5132 -0.6958
 7371SOL     OW33571   4.296   0.065  16.004 -0.5837 -0.4750 -0.4403
 7371SOL    HW133572   4.298   0.032  16.094 -2.1163 -1.1729 -0.6623
 7371SOL    HW233573   4.353   0.138  16.027 -0.3863 -0.4462 -1.0151
 7372SOL     OW33574   1.525   1.575  16.217  0.7007 -0.0900 -0.2803
 7372SOL    HW133575   1.507   1.631  16.293 -0.1461 -0.6227 -0.0842
 7372SOL    HW233576   1.591   1.517  16.256  0.2879  0.5078  1.3390
 7373SOL     OW33577   4.098   3.272   2.186 -0.3942 -0.1581  0.0968
 7373SOL    HW133578   4.149   3.350   2.208 -0.3182 -0.7081  1.8483
 7373SOL    HW233579   4.060   3.249   2.271 -3.5618  1.0654 -0.9999
 7374SOL     OW33580   1.099   4.325  15.631  0.3219 -0.0624 -0.1447
 7374SOL    HW133581   1.089   4.368  15.716  2.5367 -1.1376  0.6552
 7374SOL    HW233582   1.114   4.404  15.581 -3.1699 -0.1138 -1.2865
 7375SOL     OW33583   4.371   2.325  14.154 -0.0190  0.6354  1.0056
 7375SOL    HW133584   4.335   2.348  14.068 -1.7864  1.5446  1.9826
 7375SOL    HW233585   4.318   2.254  14.190 -0.4099  0.3047 -0.2043
 7376SOL     OW33586   0.474   4.010   5.938  0.9285  0.2464 -0.1920
 7376SOL    HW133587   0.470   4.068   6.014 -1.0972 -0.4128  0.1874
 7376SOL    HW233588   0.551   3.956   5.958  0.2333 -0.4701  0.5138
 7377SOL     OW33589   4.261   3.595   8.352  0.6309 -0.0605 -0.0564
 7377SOL    HW133590   4.331   3.637   8.403 -1.3192 -0.0160  2.5827
 7377SOL    HW233591   4.311   3.557   8.280 -0.0741  0.0710 -0.6169
 7378SOL     OW33592   4.009   4.607  11.671 -0.4607 -0.5738  0.7249
 7378SOL    HW133593   3.939   4.622  11.607 -0.2609 -1.3936  0.3107
 7378SOL    HW233594   3.984   4.674  11.735 -2.2930 -1.6452  1.1561
 7379SOL     OW33595   1.940   1.629   5.465  0.2684 -0.6095 -0.2625
 7379SOL    HW133596   1.861   1.576   5.454 -0.2996  0.8316 -3.2501
 7379SOL    HW233597   1.978   1.592   5.545  1.1640  0.5991 -0.1194
 7380SOL     OW33598   4.254   0.853  11.695 -0.1100  0.1930 -0.1434
 7380SOL    HW133599   4.182   0.895  11.741  1.0211 -0.0032  1.7897
 7380SOL    HW233600   4.307   0.819  11.766  0.6305  0.3354 -0.6267
 7381SOL     OW33601   3.129   1.858   7.913  0.2131  0.4904 -0.5552
 7381SOL    HW133602   3.091   1.774   7.937 -0.8119  0.6565 -1.5745
 7381SOL    HW233603   3.214   1.819   7.889  1.1036  0.7363  2.1964
 7382SOL     OW33604   0.166   4.047  15.003 -0.4009 -0.2596  0.8302
 7382SOL    HW133605   0.243   4.101  15.013  0.7498 -1.6710 -0.3336
 7382SOL    HW233606   0.132   4.067  15.090 -0.1970  0.4421  0.7448
 7383SOL     OW33607   3.320   1.864   2.618 -0.0439  0.4617 -0.0051
 7383SOL    HW133608   3.386   1.904   2.675  0.3547  0.0078 -0.1499
 7383SOL    HW233609   3.265   1.938   2.592 -1.2744  0.0957  1.5825
 7384SOL     OW33610   4.687   3.517  15.228  0.8127  0.1778  0.1091
 7384SOL    HW133611   4.702   3.546  15.138 -0.9068 -4.9452 -1.8269
 7384SOL    HW233612   4.641   3.437  15.202 -1.9602  1.7751  0.0897
 7385SOL     OW33613   4.027   4.372   7.162  0.1810 -0.1489 -0.4903
 7385SOL    HW133614   4.063   4.324   7.237  2.9197  3.0159  0.2448
 7385SOL    HW233615   3.987   4.300   7.114 -2.7275  0.9082  0.3710
 7386SOL     OW33616   1.939   1.373   2.620 -0.4464  0.1350  0.0863
 7386SOL    HW133617   2.019   1.422   2.604  0.1616 -0.8805  0.0048
 7386SOL    HW233618   1.933   1.351   2.527  0.6931 -0.5777  0.1847
 7387SOL     OW33619   1.923   3.395   7.316 -0.9276  0.3639  0.2593
 7387SOL    HW133620   1.916   3.342   7.395 -0.8823 -0.9626 -0.6276
 7387SOL    HW233621   2.003   3.443   7.337  0.8500 -1.9607 -1.1346
 7388SOL     OW33622   0.624   3.596  16.436 -0.2694  0.4400 -0.8035
 7388SOL    HW133623   0.532   3.624  16.441 -0.2031  0.5056  0.0610
 7388SOL    HW233624   0.659   3.661  16.375  1.4817  0.2387 -0.0210
 7389SOL     OW33625   2.995   2.076  11.389  0.0036 -0.1935  0.9372
 7389SOL    HW133626   2.953   1.990  11.392 -1.4461  0.4580 -0.4127
 7389SOL    HW233627   3.019   2.089  11.480 -0.8578  0.8351  1.0236
 7390SOL     OW33628   0.104   4.452  10.031 -0.5362  0.2975  0.3677
 7390SOL    HW133629   0.044   4.505   9.979 -0.5282 -1.3475 -1.3103
 7390SOL    HW233630   0.186   4.448   9.981  0.2873 -0.0351  1.7696
 7391SOL     OW33631   4.154   0.122   6.251 -0.6239 -1.0992 -0.1968
 7391SOL    HW133632   4.092   0.195   6.256  1.6925  0.7312  1.8607
 7391SOL    HW233633   4.239   0.167   6.259  0.1309 -2.8725  1.6284
 7392SOL     OW33634   4.255   0.377   7.008 -0.2128 -0.3614 -0.4161
 7392SOL    HW133635   4.346   0.346   6.998  0.1846 -0.2040  2.5800
 7392SOL    HW233636   4.212   0.291   7.011 -0.3665 -0.2383  1.0119
 7393SOL     OW33637   3.209   0.498   1.769 -0.2043  0.4431 -0.3758
 7393SOL    HW133638   3.279   0.443   1.733  1.1672  1.7985  0.2271
 7393SOL    HW233639   3.163   0.525   1.689  1.2424  2.0689 -0.6596
 7394SOL     OW33640   2.889   1.112   7.417 -0.0784 -0.1999  0.1007
 7394SOL    HW133641   2.876   1.153   7.502 -1.2508  0.9036 -0.6176
 7394SOL    HW233642   2.802   1.074   7.405 -0.4910  1.0589 -0.8557
 7395SOL     OW33643   3.276   0.452   2.179 -0.5708 -0.1322 -0.0040
 7395SOL    HW133644   3.317   0.407   2.105  1.0896  0.2504  0.6757
 7395SOL    HW233645   3.193   0.405   2.188 -1.4988  2.0847  2.9205
 7396SOL     OW33646   4.390   2.930   9.283 -0.1430 -0.8672  0.1114
 7396SOL    HW133647   4.410   3.024   9.286 -2.3857 -0.3349 -1.3027
 7396SOL    HW233648   4.337   2.921   9.362  0.2353 -1.0899  0.3411
 7397SOL     OW33649   4.675   3.484   6.536 -0.7901  0.1447  0.9168
 7397SOL    HW133650   4.661   3.536   6.457  1.4598 -0.5646  0.0437
 7397SOL    HW233651   0.046   3.493   6.550 -0.2508 -0.3218 -2.4570
 7398SOL     OW33652   0.494   2.144  15.687 -0.0430  0.2927 -0.4457
 7398SOL    HW133653   0.422   2.190  15.642 -0.4772  0.8806  0.8635
 7398SOL    HW233654   0.560   2.212  15.673  1.7769 -1.4137 -0.2105
 7399SOL     OW33655   3.808   3.555   4.124  0.5949  0.5422  0.5421
 7399SOL    HW133656   3.720   3.576   4.094  0.1209 -0.9440  0.8897
 7399SOL    HW233657   3.848   3.496   4.060 -0.1922 -0.2350  0.7675
 7400SOL     OW33658   0.648   4.685   7.147  0.3589  0.6023 -0.1918
 7400SOL    HW133659   0.613   4.708   7.234  0.2210 -0.1823 -0.0403
 7400SOL    HW233660   0.714   0.029   7.131  1.6070 -1.1814 -2.4123
 7401SOL     OW33661   3.269   0.368   7.279  0.5203 -0.4887  0.2483
 7401SOL    HW133662   3.237   0.433   7.342 -1.7051  0.6708 -2.1005
 7401SOL    HW233663   3.292   0.297   7.339  0.6036 -0.3277  0.4090
 7402SOL     OW33664   2.856   3.493   2.496  0.2646 -0.3633  0.0022
 7402SOL    HW133665   2.792   3.496   2.425 -0.4025  1.2433  0.6639
 7402SOL    HW233666   2.850   3.586   2.520 -2.4081 -1.1458  2.4297
 7403SOL     OW33667   1.819   1.719  13.982  0.0064  0.6009  0.0770
 7403SOL    HW133668   1.901   1.704  13.934 -0.2509  0.0254 -0.1858
 7403SOL    HW233669   1.849   1.731  14.071  0.3846  0.9859 -0.1043
 7404SOL     OW33670   1.421   0.446   3.762 -0.4046 -0.2160  0.1812
 7404SOL    HW133671   1.356   0.392   3.807  1.5087 -1.5035  1.4156
 7404SOL    HW233672   1.471   0.480   3.836  2.5736 -1.3239 -1.3282
 7405SOL     OW33673   2.555   4.296  11.293  0.3161 -0.3271  0.4827
 7405SOL    HW133674   2.612   4.339  11.230 -0.6359 -2.0943 -1.6212
 7405SOL    HW233675   2.491   4.367  11.298 -0.2482 -0.7240 -1.0900
 7406SOL     OW33676   1.764   0.930   4.943 -0.2412  0.5694  0.0396
 7406SOL    HW133677   1.753   0.980   5.024  2.2581 -0.3977  0.9695
 7406SOL    HW233678   1.708   0.982   4.885 -0.9484 -1.4936 -1.1352
 7407SOL     OW33679   4.180   1.101  14.485 -0.0200  0.0809 -0.6106
 7407SOL    HW133680   4.087   1.122  14.490  0.7902  2.8620  2.7284
 7407SOL    HW233681   4.206   1.176  14.432  2.0621 -0.0139  0.2631
 7408SOL     OW33682   1.174   3.190  16.020 -0.0287  0.8026 -0.0291
 7408SOL    HW133683   1.242   3.154  15.964  1.1666  1.0815  1.2405
 7408SOL    HW233684   1.095   3.187  15.966  0.8812  0.3705 -1.3379
 7409SOL     OW33685   4.052   4.516   5.056 -0.0615  0.4875 -0.9861
 7409SOL    HW133686   4.065   4.605   5.024  0.3810  0.3313 -1.2526
 7409SOL    HW233687   3.991   4.535   5.127  0.2993  0.4115 -0.6562
 7410SOL     OW33688   2.359   0.854   3.188  0.0818 -0.5887  0.0241
 7410SOL    HW133689   2.346   0.774   3.239 -0.7447 -1.1000 -0.9907
 7410SOL    HW233690   2.431   0.903   3.227  0.1641 -0.2322 -0.5647
 7411SOL     OW33691   0.849   1.881   6.470 -0.2143  0.5857  0.2196
 7411SOL    HW133692   0.929   1.873   6.521  0.1721 -0.0716 -0.4772
 7411SOL    HW233693   0.879   1.837   6.390  0.9394  3.2977 -0.8254
 7412SOL     OW33694   4.635   1.302   0.835  0.3958  0.2963 -0.0433
 7412SOL    HW133695   4.675   1.216   0.843 -0.3295  0.1274  1.7997
 7412SOL    HW233696   4.703   1.347   0.786 -0.8543  0.4947 -1.5918
 7413SOL     OW33697   3.019   3.055   4.058 -0.3678 -0.0431 -0.2772
 7413SOL    HW133698   2.943   3.050   4.117  0.5985  1.4832  1.0915
 7413SOL    HW233699   2.993   3.135   4.013 -0.2415  0.8284  1.2091
 7414SOL     OW33700   2.793   1.690   3.307 -0.8885 -0.2327  0.3166
 7414SOL    HW133701   2.737   1.709   3.383 -0.9686  1.9156 -0.2817
 7414SOL    HW233702   2.751   1.608   3.284 -1.3644 -0.4014  1.7373
 7415SOL     OW33703   3.910   3.795  14.814  0.1876 -0.1666 -0.5155
 7415SOL    HW133704   3.920   3.823  14.724 -0.2393 -1.9992 -1.1499
 7415SOL    HW233705   3.909   3.883  14.851  0.1289 -0.8421  1.1249
 7416SOL     OW33706   2.490   2.779  13.473 -0.2796  0.0433 -0.0370
 7416SOL    HW133707   2.514   2.805  13.384 -0.5302  0.1397 -0.0759
 7416SOL    HW233708   2.538   2.696  13.476  0.9538  0.6946 -2.3694
 7417SOL     OW33709   0.107   0.638   6.369 -0.1413 -0.7934  0.0014
 7417SOL    HW133710   0.097   0.717   6.423  0.3611 -1.2097  0.6826
 7417SOL    HW233711   0.029   0.592   6.399 -0.4567 -0.8504 -0.8858
 7418SOL     OW33712   4.161   1.041   8.454  0.2752  0.2493  0.3512
 7418SOL    HW133713   4.220   0.993   8.396  0.9782  1.8204 -0.2407
 7418SOL    HW233714   4.191   1.029   8.544  1.9921 -0.9314 -0.3788
 7419SOL     OW33715   4.336   4.691  15.752  0.1489 -0.2999  0.0972
 7419SOL    HW133716   4.408   4.629  15.766 -0.5490 -0.6044  2.4104
 7419SOL    HW233717   4.312   4.709  15.843 -0.2173 -1.0917  0.1652
 7420SOL     OW33718   2.419   0.212   9.080 -0.4873 -0.4710  0.1476
 7420SOL    HW133719   2.472   0.137   9.106 -0.5099  0.3293  2.4990
 7420SOL    HW233720   2.485   0.275   9.051 -0.9161 -0.0479  0.0861
 7421SOL     OW33721   2.915   1.320   8.489  0.4877 -0.4806 -0.0381
 7421SOL    HW133722   2.846   1.254   8.478 -0.2875  0.0587  1.6475
 7421SOL    HW233723   2.965   1.272   8.554 -0.2755  0.0674  0.9541
 7422SOL     OW33724   1.349   3.507   4.887  0.0539 -0.2859 -0.0778
 7422SOL    HW133725   1.334   3.412   4.891 -0.9867 -0.1657 -1.3337
 7422SOL    HW233726   1.408   3.528   4.959 -0.5244 -0.9499  0.5863
 7423SOL     OW33727   2.877   2.538   7.208 -0.1034  0.3157  0.4020
 7423SOL    HW133728   2.889   2.630   7.186 -0.4244  0.8070  2.3335
 7423SOL    HW233729   2.791   2.513   7.173  0.5500 -1.4476  0.0505
 7424SOL     OW33730   0.639   0.931   2.764  0.1958  0.0077  0.3333
 7424SOL    HW133731   0.656   1.021   2.736  3.8037 -0.8047 -0.0325
 7424SOL    HW233732   0.695   0.920   2.841 -0.2277  1.3020  0.8294
 7425SOL     OW33733   0.587   0.483  12.880  0.0744  0.6642 -0.1598
 7425SOL    HW133734   0.577   0.475  12.785  3.1178  1.2316 -0.5147
 7425SOL    HW233735   0.593   0.577  12.900 -3.0321  0.8797 -0.2753
 7426SOL     OW33736   4.022   2.808   7.058  0.1327 -0.0653 -0.8121
 7426SOL    HW133737   3.997   2.757   6.981 -2.1563  1.0520 -0.8026
 7426SOL    HW233738   3.990   2.746   7.122  1.8017  0.0912  0.1663
 7427SOL     OW33739   3.207   4.002  14.014  0.3219 -0.1151  0.4442
 7427SOL    HW133740   3.284   4.048  14.048 -0.8355  2.4128 -0.3180
 7427SOL    HW233741   3.241   3.945  13.945  1.7313  0.8114  0.3659
 7428SOL     OW33742   3.849   3.662   5.319  0.1843  0.0227  0.1318
 7428SOL    HW133743   3.882   3.714   5.392  1.3277  1.5619 -1.5061
 7428SOL    HW233744   3.905   3.679   5.244 -1.5710  1.2497 -0.8919
 7429SOL     OW33745   3.729   3.829   3.712 -0.2711 -0.1984  0.6844
 7429SOL    HW133746   3.749   3.899   3.651  1.0713 -1.6389 -0.5241
 7429SOL    HW233747   3.774   3.849   3.794 -1.6302  1.1800  1.1007
 7430SOL     OW33748   4.402   1.875   3.556 -0.2221  0.2041 -0.9013
 7430SOL    HW133749   4.328   1.815   3.567 -0.3749  0.5806  0.0974
 7430SOL    HW233750   4.472   1.820   3.591  1.1606  2.3992 -0.2066
 7431SOL     OW33751   0.791   0.199   8.470 -0.3098 -0.0477  0.6301
 7431SOL    HW133752   0.705   0.162   8.491 -0.9504  1.6985  1.0858
 7431SOL    HW233753   0.825   0.131   8.412 -0.1443  0.3674  0.2437
 7432SOL     OW33754   4.503   0.684  14.036  0.2397 -0.0860  0.1930
 7432SOL    HW133755   4.535   0.709  14.122  0.8228 -1.5353  0.3977
 7432SOL    HW233756   4.575   0.631  14.002 -0.8572  0.4786 -3.0090
 7433SOL     OW33757   2.905   2.103   6.258  0.2589  0.2292  0.5670
 7433SOL    HW133758   2.861   2.181   6.291 -0.3010  1.2648 -2.7337
 7433SOL    HW233759   2.979   2.085   6.317  0.4588  2.0840  0.8882
 7434SOL     OW33760   4.630   1.106   3.762 -0.2505  0.3248  0.3601
 7434SOL    HW133761   4.578   1.029   3.789  0.2476  0.3386  1.3478
 7434SOL    HW233762   4.717   1.098   3.801 -1.2456 -1.7217  2.1959
 7435SOL     OW33763   3.447   3.262   6.295  0.8221 -0.5556  0.7109
 7435SOL    HW133764   3.533   3.225   6.277  0.5733 -0.3268 -0.9659
 7435SOL    HW233765   3.465   3.317   6.372  1.9683 -0.7413  0.5663
 7436SOL     OW33766   1.172   0.478   3.453  0.0835 -0.2709  0.0885
 7436SOL    HW133767   1.189   0.466   3.359 -2.8004  0.2773 -0.5231
 7436SOL    HW233768   1.260   0.503   3.478  0.5702 -1.5079 -0.4097
 7437SOL     OW33769   4.457   0.813  10.544 -0.2197 -0.3019  0.2242
 7437SOL    HW133770   4.422   0.832  10.457  0.4646  0.4571  0.1213
 7437SOL    HW233771   4.537   0.865  10.543  0.4270 -1.3409 -3.0237
 7438SOL     OW33772   1.238   2.285  15.632  0.2577 -0.1621 -0.1896
 7438SOL    HW133773   1.180   2.304  15.558  1.2838  0.1727 -0.9076
 7438SOL    HW233774   1.240   2.375  15.663 -0.7440  0.3398 -1.5977
 7439SOL     OW33775   2.739   0.641   5.742 -0.0999 -0.0312  0.1090
 7439SOL    HW133776   2.757   0.733   5.761  0.1729  0.6217 -3.3472
 7439SOL    HW233777   2.781   0.594   5.815 -0.1889  2.0048  1.4704
 7440SOL     OW33778   2.113   2.473   5.550  0.0076 -0.3926  0.6186
 7440SOL    HW133779   2.107   2.460   5.456 -0.4769 -0.2596  0.6297
 7440SOL    HW233780   2.061   2.553   5.560  0.7619  0.1941 -0.2138
 7441SOL     OW33781   1.647   0.478   7.933  0.1424  0.3105  0.7979
 7441SOL    HW133782   1.638   0.515   7.846 -0.8849  0.2344  0.8730
 7441SOL    HW233783   1.559   0.444   7.946 -0.2175  0.5653 -1.0742
 7442SOL     OW33784   0.192   0.043  15.816  0.6848 -0.2311  1.3278
 7442SOL    HW133785   0.193   0.124  15.868  0.6315  0.1558  0.7268
 7442SOL    HW233786   0.152   0.080  15.737 -1.3762 -0.7176  2.1405
 7443SOL     OW33787   4.109   1.661  13.622 -0.0374 -0.2223 -0.0704
 7443SOL    HW133788   4.106   1.603  13.546 -0.6563  1.3562 -1.2586
 7443SOL    HW233789   4.026   1.650  13.667 -2.0531 -3.4698 -4.6268
 7444SOL     OW33790   4.304   3.974   7.130  0.4586 -0.1796 -0.7136
 7444SOL    HW133791   4.311   3.882   7.154 -0.8842  0.2241  1.2014
 7444SOL    HW233792   4.211   3.993   7.144  0.5212  0.7488 -1.5433
 7445SOL     OW33793   4.070   4.024  10.904  0.0258  0.1273  0.0076
 7445SOL    HW133794   4.055   3.995  10.813  0.0715  2.3712 -0.7127
 7445SOL    HW233795   4.091   4.117  10.895 -2.3037  0.7515  1.1170
 7446SOL     OW33796   0.197   2.587  16.402  0.3108 -0.4953  0.0988
 7446SOL    HW133797   0.290   2.561  16.397  0.2348 -0.6215 -0.8109
 7446SOL    HW233798   0.179   2.568  16.309  1.7219  3.5783 -0.9861
 7447SOL     OW33799   2.385   2.733   3.618  0.2110 -0.0140  0.4350
 7447SOL    HW133800   2.441   2.662   3.584 -1.6733 -1.2151 -0.1372
 7447SOL    HW233801   2.445   2.808   3.620  1.6700 -1.2121  2.0928
 7448SOL     OW33802   3.824   1.520  11.325  0.1446 -0.0453  0.0304
 7448SOL    HW133803   3.777   1.487  11.402 -0.6916 -1.5519 -1.1089
 7448SOL    HW233804   3.903   1.541  11.374  0.2730  0.1677 -0.2753
 7449SOL     OW33805   3.136   1.409   1.107  0.0947  0.3038 -0.0525
 7449SOL    HW133806   3.226   1.443   1.112  0.7600 -1.2578 -1.0632
 7449SOL    HW233807   3.122   1.362   1.189 -0.1756  0.4294 -0.0274
 7450SOL     OW33808   2.612   2.380  10.504  0.1693 -0.0090 -0.3063
 7450SOL    HW133809   2.687   2.380  10.564  0.0654  0.3708 -0.1763
 7450SOL    HW233810   2.644   2.357  10.417  1.7413 -4.0332  1.3248
 7451SOL     OW33811   2.090   4.581  16.561  0.1762  0.0216  0.1175
 7451SOL    HW133812   2.079   4.545  16.473  0.2483 -1.0338  0.5497
 7451SOL    HW233813   2.041   4.524  16.620 -0.7136 -0.2513 -0.8772
 7452SOL     OW33814   3.523   2.180   4.397  0.2769 -0.1279 -0.1832
 7452SOL    HW133815   3.583   2.106   4.392  0.9052  0.3140  0.7798
 7452SOL    HW233816   3.466   2.140   4.463  0.7993 -0.9654 -0.2396
 7453SOL     OW33817   4.122   1.402   3.734 -0.1811  0.4449  0.1385
 7453SOL    HW133818   4.147   1.415   3.643 -0.8636 -1.2104 -0.2680
 7453SOL    HW233819   4.048   1.343   3.724  0.1608  0.2927 -1.4778
 7454SOL     OW33820   2.182   1.226   6.356  0.7339  0.3496 -0.0365
 7454SOL    HW133821   2.138   1.157   6.407 -0.1279  1.8273  1.2160
 7454SOL    HW233822   2.221   1.278   6.427 -1.5744  2.8658 -0.6359
 7455SOL     OW33823   3.633   2.745   1.933  0.7902  0.2800  0.3718
 7455SOL    HW133824   3.545   2.772   1.906  0.0215  0.7536  3.2833
 7455SOL    HW233825   3.678   2.747   1.849  1.7969 -1.5390  0.8730
 7456SOL     OW33826   0.199   4.630   7.010  0.1316  0.3712 -0.1883
 7456SOL    HW133827   0.239   4.603   6.928 -2.3267  1.1601 -1.6471
 7456SOL    HW233828   0.119   4.577   7.017  0.1455  0.3007 -0.5807
 7457SOL     OW33829   4.696   1.860   2.958  0.7056 -0.4757 -0.4374
 7457SOL    HW133830   0.063   1.868   2.928  1.2684 -0.7457  1.1913
 7457SOL    HW233831   4.663   1.791   2.900 -0.0026 -0.4210 -0.1013
 7458SOL     OW33832   2.749   0.816   1.055  0.3923  0.0840 -0.0944
 7458SOL    HW133833   2.788   0.789   0.972 -3.1083 -1.0450 -1.3678
 7458SOL    HW233834   2.683   0.747   1.056  0.4884 -0.0602 -2.8994
 7459SOL     OW33835   0.636   1.840   3.602  0.6643 -0.1678  0.1907
 7459SOL    HW133836   0.595   1.755   3.616 -1.9798  1.2892  1.1903
 7459SOL    HW233837   0.576   1.867   3.533 -0.6738  0.4470  1.5979
 7460SOL     OW33838   2.736   1.933   7.722 -0.0580 -0.3949  0.0375
 7460SOL    HW133839   2.825   1.896   7.723 -1.1932 -3.0638  1.0470
 7460SOL    HW233840   2.738   1.994   7.648 -0.2842 -0.5740 -0.1157
 7461SOL     OW33841   1.792   4.593   3.277  0.7634  0.3173  0.0544
 7461SOL    HW133842   1.723   4.649   3.243  1.6441  0.3506 -1.7052
 7461SOL    HW233843   1.762   4.502   3.274  0.1032  0.5363  0.1632
 7462SOL     OW33844   1.281   0.417   7.858  0.5741 -0.2368 -0.2661
 7462SOL    HW133845   1.304   0.395   7.949 -1.8653 -0.9000  0.1899
 7462SOL    HW233846   1.266   0.329   7.823  1.1797 -0.7744  0.8232
 7463SOL     OW33847   3.755   2.056   1.622  0.1144 -0.6221 -0.1447
 7463SOL    HW133848   3.671   2.081   1.585 -0.4189 -1.3883  0.5594
 7463SOL    HW233849   3.807   2.132   1.596  0.0964 -1.1865 -1.8693
 7464SOL     OW33850   2.082   3.037   1.327 -0.2558 -0.0721 -0.4622
 7464SOL    HW133851   2.083   3.052   1.233  1.0310  0.8710 -0.2950
 7464SOL    HW233852   2.014   2.971   1.338 -1.4485  1.3874  0.8393
 7465SOL     OW33853   4.334   4.592   0.101  0.3881  0.3696  0.1756
 7465SOL    HW133854   4.424   4.571   0.126  0.5118 -0.4979 -0.9990
 7465SOL    HW233855   4.353   4.603   0.008 -0.1417  1.0326  0.1460
 7466SOL     OW33856   3.913   0.827  14.107  1.0011 -0.2219  0.1947
 7466SOL    HW133857   3.957   0.806  14.189  1.1755  1.3620  0.5009
 7466SOL    HW233858   3.976   0.794  14.043  0.8258 -2.4946  1.1691
 7467SOL     OW33859   4.145   0.439   6.678  0.3038 -0.9252 -0.0314
 7467SOL    HW133860   4.076   0.405   6.734  1.6587 -0.2643  2.0464
 7467SOL    HW233861   4.200   0.361   6.664 -1.0524 -1.8278 -0.3797
 7468SOL     OW33862   2.139   2.663  13.554 -0.2333  0.3079 -0.4516
 7468SOL    HW133863   2.185   2.643  13.472 -0.4679 -0.4634 -0.3955
 7468SOL    HW233864   2.063   2.716  13.529  1.3617  2.5316 -0.6435
 7469SOL     OW33865   3.665   1.355   4.159  0.0394  0.9618 -0.0239
 7469SOL    HW133866   3.623   1.272   4.135  1.5458 -0.0363  0.7865
 7469SOL    HW233867   3.753   1.338   4.127 -0.8539 -2.3793 -0.7056
 7470SOL     OW33868   1.718   0.140   7.829 -0.6468  0.0271 -0.0898
 7470SOL    HW133869   1.793   0.193   7.859 -0.4860  1.7304 -3.4203
 7470SOL    HW233870   1.757   0.132   7.742 -0.0494 -0.2234  0.1980
 7471SOL     OW33871   0.990   1.923   3.951  0.8413  0.5799  0.0259
 7471SOL    HW133872   0.963   1.920   3.859  0.7156 -1.2285  0.1095
 7471SOL    HW233873   1.008   2.017   3.953  0.1225  0.6841  1.3749
 7472SOL     OW33874   2.944   0.526   8.825 -0.5546  0.2761 -0.5345
 7472SOL    HW133875   2.869   0.571   8.864 -2.3157 -1.0532 -2.3911
 7472SOL    HW233876   2.920   0.434   8.827  1.4903 -0.2201  1.1292
 7473SOL     OW33877   4.474   3.832   3.149  0.1485 -0.1904 -0.2935
 7473SOL    HW133878   4.404   3.886   3.113 -0.4160  0.9672  2.4754
 7473SOL    HW233879   4.549   3.863   3.098  0.0394 -1.7950 -1.4152
 7474SOL     OW33880   2.996   2.865   8.019  0.2045  0.1306 -0.0035
 7474SOL    HW133881   2.956   2.897   7.938  0.2201 -0.1607 -0.1246
 7474SOL    HW233882   3.010   2.771   8.009  2.9683  0.7237 -1.6671
 7475SOL     OW33883   1.334   3.926   8.412  0.0667  0.5271  0.5325
 7475SOL    HW133884   1.240   3.920   8.397  0.3310  0.1084 -1.0526
 7475SOL    HW233885   1.355   3.994   8.348 -2.6977  0.5385 -0.3422
 7476SOL     OW33886   0.323   3.750   5.298 -0.3261  0.3199 -0.2400
 7476SOL    HW133887   0.385   3.822   5.287 -1.6952  1.2296 -2.0195
 7476SOL    HW233888   0.341   3.727   5.389  2.3464  0.8345 -0.6216
 7477SOL     OW33889   2.703   3.900  12.317  0.4920 -0.2981 -0.0923
 7477SOL    HW133890   2.718   3.807  12.333 -1.8749 -1.1239 -2.6258
 7477SOL    HW233891   2.772   3.925  12.255  0.0486 -0.0320 -0.4778
 7478SOL     OW33892   4.547   0.235  11.591  0.0755  0.2137 -0.2967
 7478SOL    HW133893   4.500   0.247  11.674 -0.7731  2.2603 -1.0735
 7478SOL    HW233894   4.639   0.248  11.615 -0.3758  1.4127  0.7915
 7479SOL     OW33895   2.011   4.240  14.184  0.3040 -0.0640  0.0909
 7479SOL    HW133896   2.068   4.316  14.198 -2.9018  2.1249  1.3966
 7479SOL    HW233897   1.989   4.212  14.273  1.2458 -0.2887  0.2485
 7480SOL     OW33898   2.073   2.118   0.065 -0.1533  0.3035 -0.3640
 7480SOL    HW133899   2.107   2.141  17.675 -0.9240  2.4730 -0.0789
 7480SOL    HW233900   2.123   2.036   0.074  0.6880  0.9003  0.4168
 7481SOL     OW33901   3.669   3.711   3.423 -0.1726  0.5903 -1.0827
 7481SOL    HW133902   3.603   3.722   3.355 -0.6334  0.3750 -0.6672
 7481SOL    HW233903   3.615   3.720   3.501 -0.3951 -0.4107 -1.1235
 7482SOL     OW33904   3.664   4.141  15.258 -0.0514 -0.3650 -0.7457
 7482SOL    HW133905   3.615   4.205  15.310 -1.5220 -2.4837  0.4538
 7482SOL    HW233906   3.615   4.137  15.176  0.9337  0.0075 -1.3489
 7483SOL     OW33907   3.397   3.790   3.491 -0.0674 -0.2706 -0.5758
 7483SOL    HW133908   3.415   3.874   3.533  0.0712 -1.7536  2.3374
 7483SOL    HW233909   3.343   3.807   3.414  0.7476 -1.2400 -1.3665
 7484SOL     OW33910   1.603   2.113  14.375  0.1289 -0.4053 -0.4097
 7484SOL    HW133911   1.643   2.148  14.296  1.5419  0.0424  0.4961
 7484SOL    HW233912   1.601   2.018  14.364  0.1600 -0.3124 -1.1877
 7485SOL     OW33913   2.796   0.747   4.491 -0.3176 -0.3084  1.0110
 7485SOL    HW133914   2.753   0.718   4.571 -0.1909 -1.6296  0.5889
 7485SOL    HW233915   2.728   0.805   4.457  0.7155 -0.6306 -1.5636
 7486SOL     OW33916   3.240   2.074   0.216 -0.0504 -0.5390  0.1930
 7486SOL    HW133917   3.310   2.125   0.257 -1.5911  0.4117  1.6620
 7486SOL    HW233918   3.274   2.027   0.140 -0.2136  0.5194 -0.5281
 7487SOL     OW33919   3.685   0.218   7.541 -0.2014 -0.7244 -0.1534
 7487SOL    HW133920   3.695   0.123   7.535 -1.0049 -0.6199 -3.0690
 7487SOL    HW233921   3.636   0.228   7.623  0.9127  0.6028  0.3653
 7488SOL     OW33922   0.175   0.759   8.065 -0.1023  0.8758 -0.6218
 7488SOL    HW133923   0.158   0.826   7.998 -0.8281  1.2056 -0.1120
 7488SOL    HW233924   0.088   0.724   8.084  1.4828 -1.4713  2.2677
 7489SOL     OW33925   1.659   4.212   3.883 -0.1378 -0.0673 -0.1258
 7489SOL    HW133926   1.641   4.245   3.971  2.1993 -1.3288  0.8226
 7489SOL    HW233927   1.753   4.198   3.893 -0.1891 -0.4961 -0.2622
 7490SOL     OW33928   3.711   4.104   6.717 -0.1453  0.0544 -0.4679
 7490SOL    HW133929   3.701   4.156   6.637  1.8536 -1.2302 -1.5417
 7490SOL    HW233930   3.692   4.174   6.778  0.7122  0.4818 -0.6912
 7491SOL     OW33931   0.397   0.166   3.153 -0.2469  0.1245  0.1002
 7491SOL    HW133932   0.323   0.113   3.180  1.3503 -2.3994 -0.4584
 7491SOL    HW233933   0.411   0.233   3.220  1.5385 -1.0967  0.9605
 7492SOL     OW33934   1.215   4.264   2.319 -0.1880 -0.1761 -0.0606
 7492SOL    HW133935   1.135   4.276   2.370  0.8257  4.5622  0.4240
 7492SOL    HW233936   1.272   4.221   2.383  0.2766 -0.1375 -0.4478
 7493SOL     OW33937   1.779   3.839   8.440 -0.3280 -0.1268  0.5276
 7493SOL    HW133938   1.731   3.845   8.523  2.0876 -0.4940  1.9525
 7493SOL    HW233939   1.709   3.814   8.380  0.5794  0.5187 -0.7772
 7494SOL     OW33940   2.152   1.012   3.206 -0.4008 -0.4114  0.8603
 7494SOL    HW133941   2.183   1.069   3.137 -1.0819  0.6801  1.4601
 7494SOL    HW233942   2.219   0.943   3.212  1.7390  1.7285  1.4909
 7495SOL     OW33943   4.121   3.042   5.800 -0.2774  0.0554 -0.0387
 7495SOL    HW133944   4.056   2.992   5.848 -1.3872  1.5509  0.0148
 7495SOL    HW233945   4.187   3.049   5.869  0.0305 -0.6417 -0.2578
 7496SOL     OW33946   4.067   3.553   7.949  0.4187 -0.3395 -0.0343
 7496SOL    HW133947   4.123   3.601   7.889  1.0944 -1.8485 -0.6082
 7496SOL    HW233948   4.034   3.485   7.890  1.7800 -0.3279 -0.8048
 7497SOL     OW33949   2.956   3.817   4.103  0.3195  0.5080  0.6401
 7497SOL    HW133950   3.033   3.836   4.156 -1.0498  3.9221  1.4557
 7497SOL    HW233951   2.901   3.893   4.125 -1.7380 -1.2577  1.5845
 7498SOL     OW33952   2.149   0.091  10.171  0.3349  0.2635 -0.0253
 7498SOL    HW133953   2.164   4.722  10.155 -0.5780  0.0864  0.1800
 7498SOL    HW233954   2.114   0.119  10.086 -1.3393 -0.7746  0.3458
 7499SOL     OW33955   1.097   1.271   7.183 -0.1655 -0.2192 -0.0752
 7499SOL    HW133956   1.095   1.195   7.241  1.1066 -0.3186 -0.1469
 7499SOL    HW233957   1.007   1.297   7.167  0.6225  2.6181  0.0357
 7500SOL     OW33958   0.771   1.595   4.610 -0.4461  0.0250  0.4477
 7500SOL    HW133959   0.724   1.664   4.656 -1.0780 -0.9581  1.2784
 7500SOL    HW233960   0.856   1.629   4.582 -0.4410  1.3762  2.0765
 7501SOL     OW33961   4.101   1.790  12.095  0.6784  0.2434 -0.2180
 7501SOL    HW133962   4.131   1.772  12.006 -1.2703  1.0917 -1.0409
 7501SOL    HW233963   4.006   1.791  12.083  0.6102  0.5328  0.3463
 7502SOL     OW33964   2.887   4.655   4.948  0.1749 -0.2484 -0.4084
 7502SOL    HW133965   2.943   0.007   4.966  0.2074 -0.2860 -0.3526
 7502SOL    HW233966   2.871   4.614   5.033  1.8114  0.1298  0.0824
 7503SOL     OW33967   3.966   3.797   3.349  0.1347 -0.0248 -0.1724
 7503SOL    HW133968   3.912   3.722   3.374 -0.0065  0.8426  2.1361
 7503SOL    HW233969   3.925   3.814   3.264 -1.1029  1.7484  0.7698
 7504SOL     OW33970   4.721   1.191  16.854  0.3897 -0.1837 -0.0412
 7504SOL    HW133971   4.642   1.189  16.907 -0.5932  1.7429 -1.4112
 7504SOL    HW233972   0.058   1.228  16.918  0.3185  0.1095 -0.1431
 7505SOL     OW33973   1.357   1.682   3.602 -0.6175  0.1098 -0.1377
 7505SOL    HW133974   1.304   1.695   3.680  0.2544 -0.0988  0.4946
 7505SOL    HW233975   1.330   1.758   3.550 -0.6566 -0.1633 -0.5172
 7506SOL     OW33976   1.476   2.424   9.096 -0.4192 -0.0542 -0.1654
 7506SOL    HW133977   1.399   2.455   9.048 -1.6847 -1.7819  0.7503
 7506SOL    HW233978   1.540   2.405   9.028  0.2111 -1.3258  0.7697
 7507SOL     OW33979   1.568   4.160   8.524 -0.2364 -0.3348 -0.0833
 7507SOL    HW133980   1.625   4.159   8.602  2.6994  0.2433 -2.2152
 7507SOL    HW233981   1.517   4.082   8.544  0.8003 -1.2216 -0.9382
 7508SOL     OW33982   4.597   1.704   8.159 -0.8262  0.4989  0.2089
 7508SOL    HW133983   4.523   1.753   8.122  1.7434  2.3881 -2.4399
 7508SOL    HW233984   4.562   1.693   8.247 -0.1865 -1.4356  0.2176
 7509SOL     OW33985   2.855   4.150   9.058  0.1735 -0.3468 -0.4516
 7509SOL    HW133986   2.911   4.149   9.136  1.1067 -2.7035 -1.1597
 7509SOL    HW233987   2.907   4.210   9.005  1.7675 -0.8846  0.5182
 7510SOL     OW33988   3.133   2.658   4.534 -0.1586 -0.0701  0.1263
 7510SOL    HW133989   3.142   2.744   4.494 -1.5546  0.6318  1.3013
 7510SOL    HW233990   3.102   2.614   4.455 -0.8952 -2.4771  1.7363
 7511SOL     OW33991   4.528   2.064  10.182  0.2318 -0.1109  0.5011
 7511SOL    HW133992   4.579   2.114  10.245  1.8370 -1.9228  0.6346
 7511SOL    HW233993   4.585   1.987  10.183  2.2117  1.3663 -0.2079
 7512SOL     OW33994   2.477   1.338  11.172 -0.0029 -0.2363  0.4569
 7512SOL    HW133995   2.413   1.343  11.243 -0.4577 -2.5028  0.2185
 7512SOL    HW233996   2.441   1.285  11.101  1.3274 -0.5254  0.0071
 7513SOL     OW33997   4.589   2.458  15.699 -0.2563 -0.1539 -0.1486
 7513SOL    HW133998   4.584   2.417  15.785 -2.2650 -0.3566 -0.3616
 7513SOL    HW233999   4.500   2.485  15.676 -0.6141  0.1658  1.6094
 7514SOL     OW34000   2.249   0.547  14.350 -0.4151  0.3931  0.3662
 7514SOL    HW134001   2.332   0.541  14.303 -0.2388 -1.1938  0.8773
 7514SOL    HW234002   2.259   0.481  14.419 -0.7859 -1.1861 -1.0728
 7515SOL     OW34003   0.358   3.273  16.770 -0.5508  0.1614  0.4653
 7515SOL    HW134004   0.375   3.199  16.712  0.7957  0.5585  0.3371
 7515SOL    HW234005   0.436   3.329  16.767 -0.0400 -0.7952 -3.3900
 7516SOL     OW34006   0.561   4.660  10.404  0.1967 -0.2626 -0.0364
 7516SOL    HW134007   0.536   0.016  10.357 -1.1750  0.5454  2.0545
 7516SOL    HW234008   0.486   4.609  10.374 -0.2974  0.7448 -0.5227
 7517SOL     OW34009   4.599   1.827  10.572 -0.7494  0.4030  0.7044
 7517SOL    HW134010   4.520   1.812  10.519 -0.5692 -1.1344  0.8717
 7517SOL    HW234011   4.582   1.784  10.656 -1.2853 -0.9607 -0.1024
 7518SOL     OW34012   2.660   4.251   1.638  0.4756 -0.2368  0.1205
 7518SOL    HW134013   2.594   4.188   1.609  1.7026 -1.7900  0.7593
 7518SOL    HW234014   2.623   4.316   1.578 -0.5339 -1.6101 -0.7603
 7519SOL     OW34015   3.049   3.132   3.685  0.0095  0.0729  0.3968
 7519SOL    HW134016   3.064   3.221   3.717  0.4235  0.4259 -0.7711
 7519SOL    HW234017   2.969   3.145   3.635 -0.7098 -3.5451  0.6282
 7520SOL     OW34018   2.677   2.350  10.258 -0.0166 -0.4792 -0.0357
 7520SOL    HW134019   2.644   2.261  10.251 -1.5618  0.2217 -1.4294
 7520SOL    HW234020   2.748   2.346  10.193 -1.5292 -0.1607 -1.6843
 7521SOL     OW34021   3.400   2.114  16.974 -0.3591 -0.3525 -0.0745
 7521SOL    HW134022   3.311   2.121  16.939 -0.5823  0.6430  0.7114
 7521SOL    HW234023   3.408   2.024  17.007  1.0390 -0.5044 -0.8354
 7522SOL     OW34024   3.208   0.531   5.045  0.1663 -0.6143 -0.2727
 7522SOL    HW134025   3.243   0.473   5.112  0.7012 -2.6954 -2.3698
 7522SOL    HW234026   3.269   0.534   4.970  1.0046  0.1343  0.4428
 7523SOL     OW34027   3.873   0.955  16.969 -0.1627 -0.0921 -0.0989
 7523SOL    HW134028   3.859   0.992  17.056  1.9425 -1.4868  0.8598
 7523SOL    HW234029   3.828   0.871  16.975  0.2382 -0.4309 -2.0567
 7524SOL     OW34030   1.793   0.379   3.145  0.5014  0.0704 -0.5551
 7524SOL    HW134031   1.836   0.320   3.083  3.2379  1.0232  0.4425
 7524SOL    HW234032   1.717   0.403   3.092 -0.8764 -0.5734  1.1248
 7525SOL     OW34033   4.349   2.711   2.395  0.1050 -0.1325 -0.0255
 7525SOL    HW134034   4.397   2.683   2.473  2.9022 -2.8335 -2.7300
 7525SOL    HW234035   4.393   2.653   2.332 -0.1871  0.7009 -0.9877
 7526SOL     OW34036   3.390   0.793   3.853  0.5717  0.7022 -0.1584
 7526SOL    HW134037   3.357   0.791   3.763  2.5051 -0.3084 -0.8528
 7526SOL    HW234038   3.310   0.773   3.902  2.3546 -1.3053  1.9244
 7527SOL     OW34039   0.641   0.646  14.556 -0.2246  0.2141  0.6455
 7527SOL    HW134040   0.582   0.681  14.623  1.4604  2.2596  1.0742
 7527SOL    HW234041   0.586   0.638  14.478  1.8975  2.1812 -1.0574
 7528SOL     OW34042   3.135   1.441  10.012 -0.0128 -0.0801  0.2314
 7528SOL    HW134043   3.174   1.513   9.961 -1.1905  0.4677  0.1001
 7528SOL    HW234044   3.098   1.494  10.082 -0.5566  0.0737 -0.1735
 7529SOL     OW34045   4.529   4.139   6.377  0.3200 -0.1902  0.2974
 7529SOL    HW134046   4.569   4.062   6.417  2.0988 -0.7356 -2.4697
 7529SOL    HW234047   4.454   4.100   6.332  1.3238 -0.2592 -1.3269
 7530SOL     OW34048   0.648   0.829  16.022 -0.4068 -0.1424 -0.2146
 7530SOL    HW134049   0.592   0.814  15.946  0.3996 -1.0610 -0.6284
 7530SOL    HW234050   0.665   0.921  15.999  0.8296 -0.7087 -1.5410
 7531SOL     OW34051   3.500   2.575  12.294 -0.3745  0.3367 -0.5969
 7531SOL    HW134052   3.554   2.647  12.327 -0.7291  0.7905 -0.9948
 7531SOL    HW234053   3.523   2.499  12.347  2.2723  1.3887 -0.2195
 7532SOL     OW34054   3.159   1.913  17.086  0.1643  0.1053  0.2345
 7532SOL    HW134055   3.171   1.891  17.178  2.9005  0.0266 -0.1178
 7532SOL    HW234056   3.110   1.995  17.086  1.0921  0.6696 -0.5021
 7533SOL     OW34057   4.011   1.455   6.202  0.7257 -0.7799 -0.0791
 7533SOL    HW134058   4.092   1.410   6.177  0.2694 -3.7753  3.7632
 7533SOL    HW234059   3.948   1.397   6.160  0.9873 -0.9891 -0.1857
 7534SOL     OW34060   2.976   3.331   9.224  0.3605  0.0120 -0.2747
 7534SOL    HW134061   2.907   3.283   9.270 -0.7834 -0.4209 -2.4250
 7534SOL    HW234062   2.964   3.419   9.258  0.3171  0.5858 -1.7829
 7535SOL     OW34063   0.837   4.127   2.579 -0.1430  0.2905  0.0330
 7535SOL    HW134064   0.901   4.085   2.522  0.0883 -1.0408  1.2900
 7535SOL    HW234065   0.788   4.056   2.621 -1.0789  1.0342  0.2040
 7536SOL     OW34066   2.530   3.543   3.932  0.3512 -0.3295  0.0418
 7536SOL    HW134067   2.548   3.549   4.026  0.6363 -0.5632  0.0024
 7536SOL    HW234068   2.506   3.452   3.919 -0.5619 -0.1739  0.5938
 7537SOL     OW34069   3.089   1.940   8.559  0.2182  0.2438 -0.3197
 7537SOL    HW134070   3.013   1.910   8.510 -1.2233 -1.5921  3.0658
 7537SOL    HW234071   3.161   1.898   8.512  0.4407 -0.6407  0.8124
 7538SOL     OW34072   4.275   3.675   4.001  0.3787 -0.1808 -0.4286
 7538SOL    HW134073   4.263   3.691   4.094  0.5976 -1.5265 -0.1619
 7538SOL    HW234074   4.348   3.613   3.996  1.7707  1.5298 -1.2428
 7539SOL     OW34075   1.721   0.463  16.379  0.0047  0.1286 -0.4272
 7539SOL    HW134076   1.814   0.481  16.389  0.0284  0.5961 -1.4460
 7539SOL    HW234077   1.716   0.386  16.435 -0.1289  0.3762 -0.0980
 7540SOL     OW34078   3.020   4.140   3.936 -0.0420  0.1180  0.3626
 7540SOL    HW134079   3.032   4.190   3.855 -0.0598 -2.5324 -1.2875
 7540SOL    HW234080   2.925   4.129   3.931  0.0720 -0.3063 -0.9452
 7541SOL     OW34081   0.140   4.169   5.502 -0.5032 -0.1023  0.1222
 7541SOL    HW134082   0.172   4.260   5.504 -1.7038  0.3315 -0.7597
 7541SOL    HW234083   0.182   4.134   5.581  1.2445  0.9924 -0.3136
 7542SOL     OW34084   2.702   3.028  11.361 -0.3139  0.1684  0.2792
 7542SOL    HW134085   2.672   2.944  11.396 -0.3383 -0.2034 -0.6483
 7542SOL    HW234086   2.753   3.000  11.285 -0.4399 -0.6975  0.5070
 7543SOL     OW34087   4.200   2.299   9.056  0.1917  0.6549 -0.4399
 7543SOL    HW134088   4.181   2.392   9.044  3.8644  1.3454 -1.0248
 7543SOL    HW234089   4.180   2.264   8.969  0.2760 -0.3006 -0.0744
 7544SOL     OW34090   2.867   1.920   4.429  0.0410  0.5497 -0.0212
 7544SOL    HW134091   2.934   1.962   4.482  0.4133  0.2152 -0.2288
 7544SOL    HW234092   2.894   1.828   4.427 -1.0617  0.2422 -1.2990
 7545SOL     OW34093   0.687   4.620   6.031 -0.4070  0.0025 -0.1863
 7545SOL    HW134094   0.637   4.683   6.084 -2.3283 -2.0487  0.4428
 7545SOL    HW234095   0.767   4.666   6.007  0.4176 -1.2680  0.0904
 7546SOL     OW34096   2.984   3.166   9.654  0.3731  0.6237  0.2219
 7546SOL    HW134097   3.059   3.147   9.597 -0.6833  0.7870 -1.2478
 7546SOL    HW234098   2.966   3.257   9.631  3.0665  0.8996 -0.7669
 7547SOL     OW34099   3.401   1.751   3.362 -0.0635 -0.4440 -0.6326
 7547SOL    HW134100   3.340   1.779   3.294  0.7301 -0.4852 -1.3613
 7547SOL    HW234101   3.350   1.751   3.442  0.4626 -0.0621 -0.2915
 7548SOL     OW34102   2.621   0.599  15.591 -0.1772 -0.4526  0.0142
 7548SOL    HW134103   2.589   0.616  15.679  2.7948 -0.4381  1.0899
 7548SOL    HW234104   2.711   0.620  15.614  0.2293 -1.3099 -0.7903
 7549SOL     OW34105   3.178   1.616   4.820 -0.5126 -0.0031  0.1408
 7549SOL    HW134106   3.226   1.597   4.900  1.0447  0.7071 -0.6203
 7549SOL    HW234107   3.140   1.530   4.800 -0.1040 -0.4900  1.5143
 7550SOL     OW34108   1.545   0.431   3.084 -0.1803  0.4140  0.6280
 7550SOL    HW134109   1.530   0.523   3.105  0.3985  1.0964 -1.9397
 7550SOL    HW234110   1.474   0.383   3.128  0.1829  0.9200  1.7667
 7551SOL     OW34111   4.251   1.751   2.648  0.1399 -0.1919  0.3728
 7551SOL    HW134112   4.179   1.813   2.644  0.0175 -0.1667  2.8576
 7551SOL    HW234113   4.317   1.799   2.598 -1.0423 -0.0289 -1.0294
 7552SOL     OW34114   1.206   3.041  11.043  0.0461 -0.1625 -0.8940
 7552SOL    HW134115   1.263   3.106  11.002  0.5998 -0.4793 -0.6397
 7552SOL    HW234116   1.123   3.057  11.000 -0.4027  1.6904  0.6850
 7553SOL     OW34117   4.307   0.998   0.425 -1.0301 -0.2667  0.0311
 7553SOL    HW134118   4.295   0.967   0.515 -0.0338  0.1961  0.3214
 7553SOL    HW234119   4.240   0.945   0.382  1.1938 -2.4451 -0.7380
 7554SOL     OW34120   2.885   2.384   3.269  0.1131  0.1850 -0.3791
 7554SOL    HW134121   2.907   2.379   3.363 -0.7330 -1.5755 -0.2674
 7554SOL    HW234122   2.928   2.464   3.239 -2.2935  2.4615  2.1724
 7555SOL     OW34123   3.673   0.032  17.646 -0.3449  0.8438 -0.0866
 7555SOL    HW134124   3.755   0.028  17.696  0.3538  0.0376 -1.2857
 7555SOL    HW234125   3.688   4.696  17.573 -0.2332  1.6149 -0.6908
 7556SOL     OW34126   1.191   4.410  12.083 -0.5800  0.2276  0.0065
 7556SOL    HW134127   1.235   4.482  12.038 -0.4669  0.6649  0.8198
 7556SOL    HW234128   1.100   4.421  12.057 -0.7393 -1.1115  0.0008
 7557SOL     OW34129   2.811   1.635   2.790  0.1924  0.1624 -0.4469
 7557SOL    HW134130   2.853   1.565   2.740  1.8682  0.8376 -0.0050
 7557SOL    HW234131   2.873   1.706   2.774  1.3832 -0.9137 -0.6218
 7558SOL     OW34132   2.658   2.848  10.572  0.8786 -0.0880 -0.5806
 7558SOL    HW134133   2.612   2.771  10.540  2.6129  0.0222 -3.3222
 7558SOL    HW234134   2.625   2.894  10.495 -0.5787  0.5448  0.4177
 7559SOL     OW34135   4.399   1.548  15.397  0.1802 -0.1709  0.1301
 7559SOL    HW134136   4.325   1.503  15.439  1.3160 -3.3534 -1.2620
 7559SOL    HW234137   4.419   1.498  15.318 -0.8308 -1.4719  0.6882
 7560SOL     OW34138   3.259   2.056   8.113 -0.3886 -0.1608 -0.4103
 7560SOL    HW134139   3.343   2.029   8.077  0.3739  1.1060  0.4460
 7560SOL    HW234140   3.198   1.984   8.096  0.4026 -0.3609 -2.3953
 7561SOL     OW34141   1.153   3.674   9.563  0.3837 -0.2559 -0.2965
 7561SOL    HW134142   1.217   3.659   9.633 -0.4264 -1.2887  0.2135
 7561SOL    HW234143   1.075   3.632   9.599 -0.0097  0.9879  0.3021
 7562SOL     OW34144   2.634   0.660   3.251  0.3454  0.5505 -0.7273
 7562SOL    HW134145   2.716   0.649   3.203 -0.1302  0.5563 -1.5407
 7562SOL    HW234146   2.582   0.709   3.188 -0.4783  2.7599  1.6692
 7563SOL     OW34147   2.268   3.241   6.002  0.0181 -0.3171 -0.5370
 7563SOL    HW134148   2.231   3.294   6.072 -2.1425 -1.3503 -0.8879
 7563SOL    HW234149   2.284   3.306   5.933  0.0780  0.1921 -0.0450
 7564SOL     OW34150   4.704   2.651  10.166  0.1676  0.1074  0.4192
 7564SOL    HW134151   4.666   2.682  10.248  0.4267  0.6793  0.3206
 7564SOL    HW234152   4.723   2.734  10.122  1.0954 -0.2597  0.1267
 7565SOL     OW34153   0.411   1.130   1.871  0.2348 -0.5130 -0.2242
 7565SOL    HW134154   0.459   1.193   1.817  1.0272 -1.1232 -0.2334
 7565SOL    HW234155   0.427   1.047   1.826 -1.0065 -1.1956  0.6024
 7566SOL     OW34156   2.202   2.167   7.580  0.2179 -0.4170  0.0431
 7566SOL    HW134157   2.131   2.224   7.552  1.0071 -0.2611 -1.6072
 7566SOL    HW234158   2.227   2.145   7.490  1.9402  2.1019 -0.0880
 7567SOL     OW34159   2.730   2.652   6.589 -0.2898 -1.1167  0.0794
 7567SOL    HW134160   2.730   2.712   6.663  2.0551 -1.8468  0.6720
 7567SOL    HW234161   2.719   2.567   6.631 -0.1371 -0.6672  1.0151
 7568SOL     OW34162   4.652   3.395  16.749  0.4993  0.0495 -0.3352
 7568SOL    HW134163   4.601   3.333  16.696  0.7273  0.3094 -0.8540
 7568SOL    HW234164   4.645   3.471  16.691  0.1547  0.4588  0.2536
 7569SOL     OW34165   3.587   3.663   9.174 -0.0190 -0.4635 -0.4491
 7569SOL    HW134166   3.545   3.580   9.152 -2.1877  0.1245  1.4720
 7569SOL    HW234167   3.574   3.675   9.268  2.1931  0.2662 -0.2440
 7570SOL     OW34168   3.743   1.983   8.204  0.2921  0.5703 -0.2154
 7570SOL    HW134169   3.810   1.984   8.136  0.8293 -3.3998  0.2618
 7570SOL    HW234170   3.667   1.991   8.146 -0.1373 -1.4921  0.0555
 7571SOL     OW34171   4.261   3.471   4.423  0.6461  0.4370  0.0852
 7571SOL    HW134172   4.196   3.447   4.489 -0.3855 -1.7685 -1.7540
 7571SOL    HW234173   4.243   3.565   4.423  1.8819  0.6763  1.8992
 7572SOL     OW34174   4.486   4.568  15.181  0.1205 -0.1819 -0.0954
 7572SOL    HW134175   4.499   4.559  15.275  0.7205  2.2577  0.0498
 7572SOL    HW234176   4.420   4.500  15.167  0.3834 -0.5344  0.3778
 7573SOL     OW34177   3.934   1.926   2.697  0.1912  0.6518 -0.0481
 7573SOL    HW134178   3.991   1.930   2.773 -1.4630 -3.5000  1.4253
 7573SOL    HW234179   3.994   1.910   2.623 -0.1150  2.9316 -0.7753
 7574SOL     OW34180   2.820   3.176   2.364 -0.2678  0.1580 -0.2528
 7574SOL    HW134181   2.798   3.244   2.301  1.6914  0.9976 -0.0388
 7574SOL    HW234182   2.860   3.111   2.306  1.1098  1.9319 -1.2627
 7575SOL     OW34183   1.724   2.650   7.388  0.2149  0.1950  0.1044
 7575SOL    HW134184   1.707   2.742   7.410  0.2776  0.1208  0.4528
 7575SOL    HW234185   1.757   2.659   7.298 -1.5170 -1.3546 -0.6916
 7576SOL     OW34186   4.440   4.547  15.447  0.8028 -0.2406  0.7482
 7576SOL    HW134187   4.379   4.537  15.521  0.6484 -1.0174  0.5163
 7576SOL    HW234188   4.440   4.642  15.438  0.0255 -0.2742  0.4323
 7577SOL     OW34189   0.451   4.451   3.191 -0.4309  0.2727  0.3267
 7577SOL    HW134190   0.406   4.466   3.109  1.1345 -1.4198 -0.8558
 7577SOL    HW234191   0.536   4.493   3.176 -0.3941 -0.6213 -1.9451
 7578SOL     OW34192   1.645   4.341   7.904  0.8831  0.1006  0.1378
 7578SOL    HW134193   1.625   4.435   7.904  0.5782  0.0326 -1.4924
 7578SOL    HW234194   1.565   4.299   7.934  0.9249  1.9859  2.9158
 7579SOL     OW34195   4.687   4.495   6.695  0.2029  0.0542 -0.6458
 7579SOL    HW134196   4.716   4.431   6.761 -0.4907  0.4614  0.0562
 7579SOL    HW234197   4.619   4.441   6.654 -0.8593  0.6842  0.2923
 7580SOL     OW34198   1.480   2.732   4.516  0.2378  0.6386 -0.1442
 7580SOL    HW134199   1.447   2.715   4.427  1.4999 -1.5154 -0.1959
 7580SOL    HW234200   1.498   2.647   4.555  1.0096  1.4834  1.3239
 7581SOL     OW34201   1.457   3.224   9.335  0.6965  0.2050  0.3542
 7581SOL    HW134202   1.446   3.172   9.254  3.9336 -0.0420  0.0918
 7581SOL    HW234203   1.372   3.207   9.377  1.4771 -1.0250  1.4261
 7582SOL     OW34204   0.595   2.493  12.121  0.4351  0.7670  0.1665
 7582SOL    HW134205   0.621   2.583  12.102  4.0470 -0.6326 -1.6443
 7582SOL    HW234206   0.676   2.442  12.131 -0.1669 -0.0535  0.9276
 7583SOL     OW34207   2.756   1.540  17.333 -0.0862 -0.0491  0.4737
 7583SOL    HW134208   2.803   1.523  17.414 -1.6382 -3.1209  0.7308
 7583SOL    HW234209   2.792   1.626  17.311 -1.6770 -0.0726 -2.2872
 7584SOL     OW34210   2.145   2.959  16.370  0.0898 -0.1888  0.4888
 7584SOL    HW134211   2.060   2.970  16.329  0.1088  0.1229  0.5377
 7584SOL    HW234212   2.182   3.046  16.354 -0.1715  0.1441  1.7214
 7585SOL     OW34213   1.667   3.764   8.664  0.5501 -0.2075  0.4300
 7585SOL    HW134214   1.594   3.709   8.692  0.7084  0.9710  3.2421
 7585SOL    HW234215   1.723   3.768   8.742 -1.2154 -0.3317  1.7070
 7586SOL     OW34216   0.722   1.347   8.271 -0.2090 -0.1435 -0.6518
 7586SOL    HW134217   0.724   1.252   8.283  0.2515  0.1324  1.5086
 7586SOL    HW234218   0.729   1.351   8.176  0.2262 -0.5991 -0.6362
 7587SOL     OW34219   0.172   4.648   0.617  0.9422 -0.1845 -0.6398
 7587SOL    HW134220   0.210   4.576   0.567 -2.0971  0.5710 -4.0401
 7587SOL    HW234221   0.122   4.691   0.547 -1.4075 -1.7040  0.0876
 7588SOL     OW34222   3.068   0.751   7.613 -0.4283  0.3552 -0.2799
 7588SOL    HW134223   3.033   0.831   7.652 -2.2870 -0.0982 -0.9843
 7588SOL    HW234224   3.161   0.773   7.608 -0.2792 -0.3116 -0.4869
 7589SOL     OW34225   2.332   1.836   8.910 -0.3735  0.2442 -0.1016
 7589SOL    HW134226   2.367   1.762   8.860  0.7663 -0.1994  1.3593
 7589SOL    HW234227   2.415   1.863   8.949 -0.0622 -0.8084 -0.0210
 7590SOL     OW34228   3.672   4.115   8.726 -0.2446  0.5978 -0.3700
 7590SOL    HW134229   3.609   4.067   8.781 -2.3734  2.0748 -1.5090
 7590SOL    HW234230   3.633   4.111   8.638 -2.2723  0.1708  0.5334
 7591SOL     OW34231   2.792   4.300  14.702  0.4125  0.3934  0.3086
 7591SOL    HW134232   2.754   4.388  14.694 -1.9802 -0.9483 -2.8387
 7591SOL    HW234233   2.887   4.316  14.703  0.2182  1.4684  1.4797
 7592SOL     OW34234   4.570   4.373   8.459  0.0374  0.9181  0.5906
 7592SOL    HW134235   4.562   4.297   8.517 -1.3383  1.4367  1.0926
 7592SOL    HW234236   4.615   4.338   8.382  2.2840 -0.5518  2.5690
 7593SOL     OW34237   4.603   1.429  15.627  0.1606 -0.5575 -0.2973
 7593SOL    HW134238   4.663   1.354  15.631  0.2043 -0.5140 -0.1159
 7593SOL    HW234239   4.526   1.399  15.675  0.8924 -1.6032  0.2399
 7594SOL     OW34240   2.923   2.303   9.309 -0.6924  0.2540  0.1469
 7594SOL    HW134241   2.886   2.391   9.319 -0.5316 -0.0105  3.1619
 7594SOL    HW234242   2.978   2.313   9.232 -0.0224  0.2339  0.6190
 7595SOL     OW34243   2.397   1.903   5.306 -0.0354  0.0243 -0.1299
 7595SOL    HW134244   2.405   1.914   5.212  3.4330 -1.6738 -0.0250
 7595SOL    HW234245   2.313   1.857   5.308  2.1652 -4.0332 -0.7483
 7596SOL     OW34246   3.912   0.061   1.565  0.0176  0.3323 -0.4050
 7596SOL    HW134247   3.819   0.078   1.553  0.2846  0.7445 -1.9102
 7596SOL    HW234248   3.909   4.709   1.623  1.3373  0.0753 -0.6750
 7597SOL     OW34249   3.547   2.841   6.259 -0.1247 -0.1440 -0.5474
 7597SOL    HW134250   3.467   2.793   6.283 -0.3121 -0.3546 -1.6117
 7597SOL    HW234251   3.574   2.867   6.347  0.2356 -1.7207 -0.1878
 7598SOL     OW34252   0.393   3.136   4.112 -0.0531  0.3652  0.1044
 7598SOL    HW134253   0.322   3.112   4.170  0.8411 -1.2738  0.5114
 7598SOL    HW234254   0.357   3.123   4.024 -1.6679 -0.8435  0.9660
 7599SOL     OW34255   3.735   1.176   0.083  0.4624 -0.1264  0.0592
 7599SOL    HW134256   3.722   1.271   0.087  1.3735 -0.0375  0.8617
 7599SOL    HW234257   3.788   1.175   0.003  0.3640  3.4902 -0.0698
 7600SOL     OW34258   1.957   1.992   8.641  0.0158 -0.2992  0.2939
 7600SOL    HW134259   1.982   1.987   8.549  0.7257  0.4583  0.4481
 7600SOL    HW234260   1.882   2.051   8.637 -0.8545 -1.2920  1.8748
 7601SOL     OW34261   2.134   3.674  13.784  0.3089  0.5290 -0.6689
 7601SOL    HW134262   2.070   3.663  13.714 -0.3385  0.8516 -0.1269
 7601SOL    HW234263   2.102   3.610  13.848 -1.7257 -0.5521 -2.7870
 7602SOL     OW34264   4.325   0.369   3.632 -0.0913  0.3381 -0.0856
 7602SOL    HW134265   4.306   0.421   3.710 -1.0081 -1.9540  1.2041
 7602SOL    HW234266   4.260   0.300   3.642  0.3467 -0.0552  0.0393
 7603SOL     OW34267   4.332   1.878  11.855  0.0303  0.5200  1.0960
 7603SOL    HW134268   4.413   1.922  11.829  0.8109 -1.1490  0.6993
 7603SOL    HW234269   4.349   1.793  11.815 -1.7518  0.7071 -0.0618
 7604SOL     OW34270   0.682   3.158  15.973 -0.2463  0.1075 -0.6500
 7604SOL    HW134271   0.697   3.247  16.004  2.9768 -1.0650  1.1842
 7604SOL    HW234272   0.588   3.178  15.977 -0.4703 -0.7765 -1.4986
 7605SOL     OW34273   2.143   4.485   4.474 -0.6975 -0.0771 -0.1428
 7605SOL    HW134274   2.086   4.418   4.512  1.6599 -1.8573  0.3389
 7605SOL    HW234275   2.225   4.435   4.471  0.7883  2.2282  1.8556
 7606SOL     OW34276   2.361   2.649   6.234  0.4296 -0.6410  0.3828
 7606SOL    HW134277   2.410   2.646   6.152 -1.8961 -0.1668 -1.0032
 7606SOL    HW234278   2.437   2.673   6.287  0.8409 -0.4125 -0.3091
 7607SOL     OW34279   0.461   2.274   6.626  0.0042 -0.2752 -0.3426
 7607SOL    HW134280   0.441   2.184   6.600 -1.6981 -0.5354  1.8576
 7607SOL    HW234281   0.404   2.316   6.561  0.7664  0.2963 -0.6386
 7608SOL     OW34282   4.567   0.171   0.028  0.2571 -0.0379  0.4194
 7608SOL    HW134283   4.560   0.076   0.020  1.5745 -0.1487  0.6318
 7608SOL    HW234284   4.659   0.175   0.056  1.1090  1.9491 -2.6364
 7609SOL     OW34285   0.888   3.284  16.748  0.2158  0.1291  0.3614
 7609SOL    HW134286   0.862   3.351  16.685  1.5476 -0.3075 -0.6319
 7609SOL    HW234287   0.974   3.315  16.777  1.1169 -0.0390 -2.1560
 7610SOL     OW34288   0.212   4.058  15.733  0.4290 -0.5587 -0.2640
 7610SOL    HW134289   0.141   4.003  15.701  0.4767 -0.5897 -0.3179
 7610SOL    HW234290   0.184   4.143  15.701 -0.5126 -0.0443  1.9240
 7611SOL     OW34291   1.610   2.152  12.008 -0.3082  0.0375  0.5494
 7611SOL    HW134292   1.596   2.122  12.098 -1.3616  1.3749  0.8281
 7611SOL    HW234293   1.673   2.224  12.022  0.8566 -1.0063  0.6385
 7612SOL     OW34294   1.678   2.136   4.385 -0.5958  0.5423  0.6418
 7612SOL    HW134295   1.757   2.154   4.334 -1.1348 -0.9242 -0.7228
 7612SOL    HW234296   1.608   2.175   4.332  1.3959  1.6882 -1.1577
 7613SOL     OW34297   0.445   1.179   8.142 -0.1089 -0.3041  0.8706
 7613SOL    HW134298   0.370   1.178   8.202 -0.4035  0.2636  0.5123
 7613SOL    HW234299   0.516   1.158   8.202 -0.3404  0.8930  1.5696
 7614SOL     OW34300   4.286   1.396   1.680 -0.0585 -0.3556 -0.0450
 7614SOL    HW134301   4.375   1.408   1.647 -0.5562 -1.1037 -1.6073
 7614SOL    HW234302   4.274   1.315   1.631  0.7328 -0.5235  0.0346
 7615SOL     OW34303   4.712   4.486   7.114 -0.4922  0.0450  0.1964
 7615SOL    HW134304   4.636   4.437   7.081 -0.1303 -1.7299  2.0038
 7615SOL    HW234305   0.005   4.445   7.199  1.6818  2.4988  0.9810
 7616SOL     OW34306   0.769   3.611   7.140 -0.2243  0.2393  0.2860
 7616SOL    HW134307   0.829   3.543   7.171 -0.9696 -0.2701  0.5921
 7616SOL    HW234308   0.835   3.662   7.093  0.5706 -0.3746  0.7332
 7617SOL     OW34309   4.544   4.471   3.871  0.3694 -0.0204  0.2348
 7617SOL    HW134310   4.531   4.496   3.780 -0.3548 -2.4350 -0.3373
 7617SOL    HW234311   4.514   4.380   3.873  1.4750 -0.4008 -1.1079
 7618SOL     OW34312   3.997   4.295  14.709  0.4111 -0.3610 -0.3151
 7618SOL    HW134313   3.955   4.357  14.649 -0.8607 -0.7265  0.2003
 7618SOL    HW234314   4.083   4.334  14.690  0.7358 -0.2942  1.2816
 7619SOL     OW34315   0.545   3.978   2.557 -0.3267  0.4858  0.7481
 7619SOL    HW134316   0.609   3.952   2.491 -0.9652  1.8922 -0.4180
 7619SOL    HW234317   0.497   4.036   2.498 -0.0956  1.1093  1.1754
 7620SOL     OW34318   3.546   0.292  17.279  0.5942  0.1140 -0.4264
 7620SOL    HW134319   3.597   0.333  17.348 -0.8724  0.2657  0.5586
 7620SOL    HW234320   3.500   0.371  17.252  1.9901  1.1102  0.1478
 7621SOL     OW34321   3.259   3.824   3.246  0.1480  0.0403  1.1603
 7621SOL    HW134322   3.257   3.886   3.172 -0.3511 -0.6794  0.5644
 7621SOL    HW234323   3.164   3.820   3.259 -0.0987 -0.8709 -0.9304
 7622SOL     OW34324   4.085   4.431  15.182  0.1317  0.1658  0.9144
 7622SOL    HW134325   4.037   4.370  15.239  1.2283 -0.2173  1.4204
 7622SOL    HW234326   4.089   4.374  15.105 -0.2343  1.3174  0.0393
 7623SOL     OW34327   3.170   4.259   6.881  0.1766  0.2375 -0.7399
 7623SOL    HW134328   3.134   4.320   6.945  1.0833  0.1646 -0.1519
 7623SOL    HW234329   3.261   4.242   6.907 -0.1610  0.8293  0.8343
 7624SOL     OW34330   1.605   3.350  10.917  0.5159 -0.0331 -0.5078
 7624SOL    HW134331   1.657   3.399  10.980 -0.2352  0.8039 -0.5332
 7624SOL    HW234332   1.674   3.312  10.864  0.9694  2.0694 -1.3802
 7625SOL     OW34333   0.295   1.523   8.561  0.2401  0.0010  0.1274
 7625SOL    HW134334   0.262   1.511   8.472  0.3475 -0.2127  0.1178
 7625SOL    HW234335   0.343   1.444   8.585  1.1807  0.3822 -0.5089
 7626SOL     OW34336   0.419   2.590  13.281 -0.3080  0.3857  0.0607
 7626SOL    HW134337   0.407   2.655  13.351  1.5294 -0.4994  1.2165
 7626SOL    HW234338   0.368   2.628  13.210 -0.6974 -0.6368 -0.2085
 7627SOL     OW34339   2.238   4.487  11.000  0.4558 -0.0197 -0.2260
 7627SOL    HW134340   2.291   4.449  11.071  0.3608 -0.4809 -0.4055
 7627SOL    HW234341   2.147   4.486  11.030  1.1916  1.1376  2.0646
 7628SOL     OW34342   2.182   4.412   4.780 -0.9067  0.2100  0.3194
 7628SOL    HW134343   2.157   4.490   4.831 -2.1561 -1.5485  2.3971
 7628SOL    HW234344   2.147   4.442   4.696 -2.5516  0.6505  1.1572
 7629SOL     OW34345   4.229   0.068  11.282 -0.2533  0.0814  0.0807
 7629SOL    HW134346   4.201   0.158  11.263  3.9002  1.1942 -0.6562
 7629SOL    HW234347   4.188   0.013  11.214 -0.4939  0.0823  0.2234
 7630SOL     OW34348   0.738   3.838   7.888  0.3617 -0.7052 -0.0539
 7630SOL    HW134349   0.735   3.787   7.807  0.4775 -1.7142  0.5885
 7630SOL    HW234350   0.644   3.859   7.890  0.2231 -1.3772  0.3906
 7631SOL     OW34351   3.015   3.285  15.228  0.3518  0.1523  0.1687
 7631SOL    HW134352   2.960   3.342  15.175  0.7961 -0.7367 -1.2699
 7631SOL    HW234353   3.024   3.207  15.173 -0.5252  0.2083 -0.0558
 7632SOL     OW34354   4.495   1.973   8.713 -0.3905 -0.3736  0.1005
 7632SOL    HW134355   4.431   1.956   8.644 -0.2969  1.2624 -0.3833
 7632SOL    HW234356   4.562   1.908   8.695 -0.7381  0.1763 -3.0635
 7633SOL     OW34357   4.662   1.972   1.965 -0.0124 -0.1512  0.4323
 7633SOL    HW134358   4.686   2.049   1.914  1.7187  0.0948  1.5948
 7633SOL    HW234359   0.017   1.921   1.944 -0.3199 -0.7789  0.8189
 7634SOL     OW34360   3.375   0.636   6.867 -0.3083 -1.0962 -0.3683
 7634SOL    HW134361   3.452   0.643   6.923 -1.6896 -1.5543  1.6061
 7634SOL    HW234362   3.411   0.581   6.797 -1.4503  0.2949 -2.0641
 7635SOL     OW34363   0.952   2.550   7.639  0.2607 -0.2720 -0.1720
 7635SOL    HW134364   1.046   2.571   7.630  0.5275 -1.7016 -0.6274
 7635SOL    HW234365   0.929   2.528   7.549 -1.6038  2.0175 -0.2565
 7636SOL     OW34366   1.983   0.436   2.332 -0.3459  0.3727  0.2511
 7636SOL    HW134367   2.076   0.445   2.309 -0.5206  0.2566 -0.5029
 7636SOL    HW234368   1.980   0.504   2.399  2.0889  0.2330  0.4882
 7637SOL     OW34369   0.293   0.750   2.507  0.4685 -0.4569  0.4849
 7637SOL    HW134370   0.273   0.719   2.419  3.1859 -3.3299  0.8709
 7637SOL    HW234371   0.386   0.770   2.517  0.4593 -0.6260  0.9156
 7638SOL     OW34372   4.213   3.538   5.506  0.0417  0.1096 -0.0097
 7638SOL    HW134373   4.201   3.579   5.420 -1.1033 -2.2506 -0.9601
 7638SOL    HW234374   4.258   3.458   5.481 -1.9437 -1.4745  1.5010
 7639SOL     OW34375   2.097   4.654   9.317  0.4126  0.4386  0.4302
 7639SOL    HW134376   2.103   4.612   9.232 -0.5427 -0.4921  0.8139
 7639SOL    HW234377   2.158   0.004   9.310 -0.8532  1.1444 -2.8643
 7640SOL     OW34378   0.215   3.788   7.532  0.1146  0.4618  0.1691
 7640SOL    HW134379   0.146   3.737   7.489 -0.4961  0.4193  1.2113
 7640SOL    HW234380   0.235   3.846   7.458 -0.0463  0.7306  0.3378
 7641SOL     OW34381   1.010   0.866   5.169 -0.3885  0.3068 -0.1113
 7641SOL    HW134382   1.068   0.919   5.224 -1.3633  2.0492 -0.7550
 7641SOL    HW234383   0.932   0.913   5.198  0.1887 -0.1065  2.0981
 7642SOL     OW34384   4.611   4.291  12.917  0.3474 -0.0512  0.2225
 7642SOL    HW134385   4.698   4.251  12.920  0.3578 -0.1699 -1.7944
 7642SOL    HW234386   4.586   4.258  13.003 -0.5434  0.6259  0.2151
 7643SOL     OW34387   1.181   4.583  15.568  0.2402 -0.2634  0.2134
 7643SOL    HW134388   1.111   4.635  15.528  0.6835 -0.2572 -0.5529
 7643SOL    HW234389   1.248   4.571  15.501  0.1328  0.5421 -0.0425
 7644SOL     OW34390   4.244   1.738   7.230 -0.5191  0.3368  0.0153
 7644SOL    HW134391   4.311   1.705   7.290 -0.6257  1.0291  0.5188
 7644SOL    HW234392   4.286   1.750   7.145 -1.9676  0.1594 -0.7139
 7645SOL     OW34393   4.224   2.775   6.560  0.5055 -0.1359 -0.4405
 7645SOL    HW134394   4.269   2.856   6.585 -1.9769  0.8754  0.8674
 7645SOL    HW234395   4.265   2.763   6.475  0.9894 -2.0174  0.0611
 7646SOL     OW34396   0.298   0.013   2.634 -0.1949  0.0930 -0.6440
 7646SOL    HW134397   0.329   0.103   2.642  1.7134 -0.6590  0.4263
 7646SOL    HW234398   0.311   4.723   2.540 -0.9127 -1.4015 -0.5225
 7647SOL     OW34399   4.536   1.661   8.499 -0.5216 -0.2466  0.2436
 7647SOL    HW134400   4.610   1.691   8.445 -1.9932  1.8043 -0.6265
 7647SOL    HW234401   4.464   1.712   8.464 -0.1536  0.8591  1.0648
 7648SOL     OW34402   1.641   2.658  16.621  0.6633  0.4630  0.3933
 7648SOL    HW134403   1.664   2.572  16.657 -0.7754 -0.7944 -1.7320
 7648SOL    HW234404   1.553   2.632  16.596  1.3525 -1.3815 -0.1590
 7649SOL     OW34405   3.106   1.889  12.381  0.0041 -0.0040  0.4452
 7649SOL    HW134406   3.151   1.948  12.441  2.2446 -1.3732  0.1187
 7649SOL    HW234407   3.172   1.881  12.312 -0.0551  0.3940  0.3414
 7650SOL     OW34408   3.291   2.536   1.888 -0.0101 -0.1854  0.0876
 7650SOL    HW134409   3.275   2.584   1.807  3.0694  2.3502  0.9433
 7650SOL    HW234410   3.360   2.477   1.858 -1.2680 -1.2783 -0.5929
 7651SOL     OW34411   2.177   3.182   2.756  0.0381 -0.7803  0.3859
 7651SOL    HW134412   2.244   3.232   2.708  0.2169  0.2972  1.7792
 7651SOL    HW234413   2.103   3.188   2.695  0.6716  0.2655 -0.2961
 7652SOL     OW34414   3.143   1.767   0.313 -0.0896 -0.2405 -0.3843
 7652SOL    HW134415   3.167   1.786   0.223  0.1407  1.7214  0.0940
 7652SOL    HW234416   3.211   1.814   0.362 -0.4210 -0.1331 -0.0257
 7653SOL     OW34417   2.811   1.971   9.890 -0.3400 -0.8866  0.5202
 7653SOL    HW134418   2.718   1.969   9.914  0.0740 -2.3310  1.9713
 7653SOL    HW234419   2.805   2.055   9.845  1.7671  1.0341  3.8701
 7654SOL     OW34420   2.264   2.009   5.615  0.2754  0.1149  0.2235
 7654SOL    HW134421   2.290   1.934   5.668  0.0873 -0.7508 -0.9017
 7654SOL    HW234422   2.338   2.026   5.557 -1.1754 -0.0688 -1.7137
 7655SOL     OW34423   1.618   2.631   0.882 -0.7707 -0.7651 -0.0805
 7655SOL    HW134424   1.624   2.706   0.941 -2.4634 -0.8978  0.2791
 7655SOL    HW234425   1.693   2.642   0.823  0.0456 -0.5883  0.9994
 7656SOL     OW34426   3.099   2.722  15.950  0.5082  0.5236  0.0279
 7656SOL    HW134427   3.015   2.766  15.938  0.5030  1.0243  1.9327
 7656SOL    HW234428   3.088   2.649  15.890 -0.2397  3.0055 -2.8535
 7657SOL     OW34429   0.919   4.430   3.077  0.3591  0.0605  0.2097
 7657SOL    HW134430   1.010   4.460   3.079  0.7698 -1.1536 -0.2317
 7657SOL    HW234431   0.927   4.335   3.082 -2.1258 -0.3020 -3.0980
 7658SOL     OW34432   4.380   0.529   7.231  0.4629 -0.3475  0.2029
 7658SOL    HW134433   4.340   0.465   7.290  0.3298 -1.4072 -1.0360
 7658SOL    HW234434   4.342   0.502   7.148 -0.1008  0.0971  0.3126
 7659SOL     OW34435   2.576   1.717   7.807  0.0586  0.0793 -0.4508
 7659SOL    HW134436   2.597   1.808   7.784  3.1704 -0.9800 -1.8927
 7659SOL    HW234437   2.590   1.714   7.902  2.9972 -0.0856 -0.8920
 7660SOL     OW34438   3.740   4.615   9.477 -0.1416  0.2161  0.1262
 7660SOL    HW134439   3.717   4.636   9.567  2.0261 -2.4198  1.2989
 7660SOL    HW234440   3.708   4.526   9.462 -0.1653  0.5344 -1.8311
 7661SOL     OW34441   2.001   0.712   8.932 -0.2962  0.5748  0.4938
 7661SOL    HW134442   1.992   0.783   8.868 -2.0644 -0.9451 -0.9266
 7661SOL    HW234443   2.043   0.644   8.881  2.0836  0.4075  2.6998
 7662SOL     OW34444   2.279   0.682   3.453  0.1415 -0.1847  0.3086
 7662SOL    HW134445   2.206   0.625   3.478 -0.2969  0.2997  0.1233
 7662SOL    HW234446   2.239   0.767   3.467  1.6901  0.1429  2.7638
 7663SOL     OW34447   4.575   2.010   6.856 -0.4081  0.2577  0.5098
 7663SOL    HW134448   4.597   2.068   6.784  0.6069 -1.2049 -0.3760
 7663SOL    HW234449   4.664   1.984   6.880 -0.9647 -2.1202  0.0161
 7664SOL     OW34450   3.541   4.129   0.668 -0.4171 -0.2870 -0.3289
 7664SOL    HW134451   3.591   4.175   0.735  0.3706 -0.9259 -0.4867
 7664SOL    HW234452   3.589   4.141   0.586  0.7378  1.1812  0.5613
 7665SOL     OW34453   1.779   2.784   2.455 -0.3674  0.4501 -0.1554
 7665SOL    HW134454   1.765   2.759   2.364  1.3607 -2.5451  0.3861
 7665SOL    HW234455   1.793   2.878   2.455  1.9881  0.0792 -3.0286
 7666SOL     OW34456   0.134   2.628   7.919  0.1597 -0.2817  0.1849
 7666SOL    HW134457   0.156   2.721   7.930 -0.3730  0.3102 -3.6400
 7666SOL    HW234458   0.142   2.589   8.006  0.9201  1.9155  1.0945
 7667SOL     OW34459   3.135   1.287  11.169 -0.3844  0.2066 -0.6430
 7667SOL    HW134460   3.058   1.234  11.147 -1.2877  1.5045 -0.5910
 7667SOL    HW234461   3.110   1.371  11.132 -2.6948 -0.4418 -0.5576
 7668SOL     OW34462   0.446   3.440   2.302 -0.4211  0.0688 -0.1188
 7668SOL    HW134463   0.426   3.347   2.289  0.2547 -0.6019  3.6251
 7668SOL    HW234464   0.449   3.441   2.397  2.0323  1.4189 -0.2175
 7669SOL     OW34465   1.501   1.754   8.615 -0.6757 -0.2707 -0.0500
 7669SOL    HW134466   1.576   1.796   8.574 -0.9378 -0.7419 -1.0128
 7669SOL    HW234467   1.533   1.680   8.666  3.0020 -0.6694 -2.9890
 7670SOL     OW34468   3.250   3.571   6.394 -0.2293 -0.3422  0.3204
 7670SOL    HW134469   3.212   3.594   6.479 -3.0307  0.6851 -1.1888
 7670SOL    HW234470   3.343   3.581   6.410 -0.5469 -0.2090  2.0814
 7671SOL     OW34471   3.721   0.179  11.740 -0.0615 -0.2897 -0.0506
 7671SOL    HW134472   3.812   0.159  11.764  0.5003 -0.4246 -2.2164
 7671SOL    HW234473   3.735   0.269  11.710 -3.0334  1.0470  2.6009
 7672SOL     OW34474   3.370   4.707   0.803  0.2013 -0.1458 -0.5418
 7672SOL    HW134475   3.441   4.681   0.744  2.0944  0.4633  1.4274
 7672SOL    HW234476   3.373   4.641   0.873 -1.5350  0.2141 -0.1471
 7673SOL     OW34477   1.007   2.195   3.948  0.0179  0.6549 -0.0473
 7673SOL    HW134478   0.978   2.193   4.039  5.2848  0.7503  1.6692
 7673SOL    HW234479   0.970   2.277   3.915  0.8990  1.3009  0.5451
 7674SOL     OW34480   3.649   1.348  15.826  0.1402  0.4996  0.0929
 7674SOL    HW134481   3.687   1.429  15.792  0.4487 -1.2646 -3.7400
 7674SOL    HW234482   3.563   1.382  15.850  0.3748  1.0499  0.1593
 7675SOL     OW34483   1.852   3.546   5.447 -0.0862 -0.0633  0.0498
 7675SOL    HW134484   1.884   3.470   5.494 -0.0765 -0.0486  0.0670
 7675SOL    HW234485   1.863   3.618   5.510 -0.2289 -1.0132  1.1466
 7676SOL     OW34486   3.193   3.179   5.605  0.0976 -0.1771  0.1495
 7676SOL    HW134487   3.270   3.194   5.551  0.5033  0.1638  0.8184
 7676SOL    HW234488   3.232   3.182   5.693  0.4172 -2.6997  0.0995
 7677SOL     OW34489   2.033   3.717   2.459 -0.0826 -0.4407  0.2860
 7677SOL    HW134490   1.952   3.724   2.510 -0.1347  1.7442 -0.1156
 7677SOL    HW234491   2.001   3.681   2.377 -1.1097  0.1412  0.4357
 7678SOL     OW34492   0.223   3.466  13.366  0.2507  0.0439 -0.1987
 7678SOL    HW134493   0.130   3.484  13.379  0.5320  1.4109 -0.0611
 7678SOL    HW234494   0.269   3.488  13.448  0.6637 -0.2936 -0.3412
 7679SOL     OW34495   2.917   3.624   1.006 -0.4058  0.4913 -0.0169
 7679SOL    HW134496   2.953   3.536   1.010 -0.3778  0.6089  2.2579
 7679SOL    HW234497   2.978   3.662   0.943 -0.3338 -0.7208 -0.6707
 7680SOL     OW34498   1.527   2.748   0.394 -0.3847 -0.9166  0.1155
 7680SOL    HW134499   1.540   2.812   0.324 -0.5906 -1.3509 -0.3186
 7680SOL    HW234500   1.435   2.762   0.418 -0.6414 -0.2794 -1.2743
 7681SOL     OW34501   3.859   0.262   5.237 -0.5591  0.3405 -0.3115
 7681SOL    HW134502   3.829   0.325   5.303  0.4617  1.1717 -0.6426
 7681SOL    HW234503   3.890   0.321   5.168 -0.2173 -1.8995 -2.0350
 7682SOL     OW34504   2.555   2.642   3.198  0.0883  0.4440 -0.1722
 7682SOL    HW134505   2.637   2.687   3.220 -0.4660  1.8491 -0.9140
 7682SOL    HW234506   2.530   2.695   3.122 -4.2014  0.3847  1.1983
 7683SOL     OW34507   0.377   3.581   8.455 -0.0508  0.6734  0.7516
 7683SOL    HW134508   0.295   3.537   8.433  0.2280  0.2475  0.5717
 7683SOL    HW234509   0.444   3.515   8.439 -1.2569 -0.6827  1.2509
 7684SOL     OW34510   2.429   3.044   8.917 -0.4731  0.3447  0.1845
 7684SOL    HW134511   2.474   3.109   8.863  0.6850  0.3758  1.1899
 7684SOL    HW234512   2.380   3.107   8.970  0.7941  0.9376  0.6442
 7685SOL     OW34513   1.900   1.598   9.951  0.5645 -0.3989  0.0965
 7685SOL    HW134514   1.815   1.638   9.930  1.0245  0.8111  0.5179
 7685SOL    HW234515   1.909   1.632  10.040 -0.7499 -0.9698  0.4445
 7686SOL     OW34516   2.801   4.557   5.183 -0.0514  0.2449 -0.5603
 7686SOL    HW134517   2.716   4.563   5.139 -1.1133  2.2378  1.7289
 7686SOL    HW234518   2.772   4.521   5.268 -0.8585 -0.1182 -0.9840
 7687SOL     OW34519   0.471   1.205  10.039 -0.0921  0.4726 -0.5483
 7687SOL    HW134520   0.457   1.207   9.944 -3.8487 -3.3316 -0.0470
 7687SOL    HW234521   0.565   1.187  10.047 -0.0870  0.4638 -0.6292
 7688SOL     OW34522   4.685   1.009  11.222 -0.9548  0.3864 -0.5015
 7688SOL    HW134523   4.664   0.934  11.277  0.9722 -1.4342 -2.2820
 7688SOL    HW234524   4.643   1.078  11.274 -0.5744 -0.2289  0.6159
 7689SOL     OW34525   2.161   3.954   4.409 -0.0471 -0.4003  0.6074
 7689SOL    HW134526   2.184   4.006   4.332  2.4778 -1.1959  0.8434
 7689SOL    HW234527   2.071   3.932   4.383  0.4908  0.4292 -1.9209
 7690SOL     OW34528   1.039   0.750  14.519  0.1659  0.4160  0.4256
 7690SOL    HW134529   1.063   0.736  14.428  0.6881 -0.3282  0.6737
 7690SOL    HW234530   1.003   0.838  14.505  0.7521  0.4349 -0.9508
 7691SOL     OW34531   4.671   4.015   0.074  0.2179 -0.2275 -0.5590
 7691SOL    HW134532   4.713   3.941   0.119 -1.7826 -1.0696 -0.0732
 7691SOL    HW234533   0.016   4.080   0.062  0.2637 -0.0863  0.4801
 7692SOL     OW34534   3.617   3.465   1.824 -0.7616  0.1238 -0.2303
 7692SOL    HW134535   3.682   3.451   1.755 -1.3786 -0.3976 -0.7135
 7692SOL    HW234536   3.550   3.487   1.759 -1.7892 -1.4940  0.2988
 7693SOL     OW34537   3.933   0.926   0.086  0.8195  0.4107 -0.1289
 7693SOL    HW134538   3.951   0.927  17.689  1.5502  2.8813  0.0441
 7693SOL    HW234539   3.975   1.009   0.109 -0.2497  0.8325  0.3256
 7694SOL     OW34540   1.726   0.639   2.904 -0.1557  0.3425 -0.2983
 7694SOL    HW134541   1.677   0.557   2.909  2.1980 -1.0360  0.0143
 7694SOL    HW234542   1.686   0.694   2.972  1.4889 -0.2655  1.1788
 7695SOL     OW34543   1.896   4.410   5.102 -0.0328  0.3604 -0.3314
 7695SOL    HW134544   1.815   4.446   5.064  0.5168  1.4953 -0.4262
 7695SOL    HW234545   1.859   4.323   5.115 -1.6366  1.0791 -0.0646
 7696SOL     OW34546   1.713   0.962  10.619 -0.0225  0.1344  0.6204
 7696SOL    HW134547   1.657   0.925  10.688  1.7302  0.1818  2.0868
 7696SOL    HW234548   1.781   0.898  10.601  0.2685  0.6283 -0.0387
 7697SOL     OW34549   2.839   2.745   5.050  0.4270  0.1989 -0.2811
 7697SOL    HW134550   2.866   2.768   4.961  0.4277 -1.3304 -0.6822
 7697SOL    HW234551   2.919   2.765   5.097 -0.0477 -0.6830  0.9009
 7698SOL     OW34552   0.689   1.609   9.109 -0.1899 -0.2047  0.1543
 7698SOL    HW134553   0.736   1.660   9.043 -0.2704  0.0581  0.2981
 7698SOL    HW234554   0.664   1.678   9.171  0.9401 -1.2698  1.7890
 7699SOL     OW34555   0.707   2.229   3.418  0.3813  0.4798 -0.2330
 7699SOL    HW134556   0.682   2.313   3.380 -3.4800  0.2462  1.8609
 7699SOL    HW234557   0.700   2.167   3.346  2.0754  0.8428 -0.7118
 7700SOL     OW34558   2.824   1.709   6.934 -0.0907 -0.5937  0.3133
 7700SOL    HW134559   2.800   1.637   6.993 -1.4429 -1.0784 -0.8279
 7700SOL    HW234560   2.906   1.681   6.895 -0.7521  2.0384 -2.9380
 7701SOL     OW34561   3.075   1.166   0.607  0.3864  0.1089  0.0249
 7701SOL    HW134562   3.060   1.219   0.685  0.7062  0.4297 -0.1342
 7701SOL    HW234563   3.066   1.075   0.636  0.7938 -1.3048 -4.1899
 7702SOL     OW34564   2.626   4.241   4.905 -0.0545  0.1122 -0.3505
 7702SOL    HW134565   2.582   4.156   4.892 -1.3527  0.5768  0.9484
 7702SOL    HW234566   2.591   4.260   4.992 -3.6219 -1.1671 -1.4930
 7703SOL     OW34567   3.075   3.015   8.579 -0.1663  0.1256  0.9632
 7703SOL    HW134568   2.987   2.992   8.551 -0.6562  1.6123  1.2931
 7703SOL    HW234569   3.050   3.098   8.620 -1.5934  1.5346 -2.7773
 7704SOL     OW34570   2.810   0.716  11.003 -0.4904  0.3854  0.2038
 7704SOL    HW134571   2.790   0.751  11.090 -0.1987 -1.8634  1.1785
 7704SOL    HW234572   2.812   0.623  11.024 -0.2924 -0.0950 -1.9651
 7705SOL     OW34573   1.640   2.880   4.684 -0.2837 -0.6852 -0.2268
 7705SOL    HW134574   1.652   2.789   4.713 -1.7295 -1.1518 -1.0914
 7705SOL    HW234575   1.559   2.868   4.633 -0.6884  0.8756  0.0767
 7706SOL     OW34576   4.177   0.044   5.282  0.5393  0.1892 -0.0483
 7706SOL    HW134577   4.120   0.005   5.348  1.1404 -4.0558 -2.0699
 7706SOL    HW234578   4.262   0.039   5.324  1.2042 -1.4199 -1.5722
 7707SOL     OW34579   4.096   4.185  15.026  0.2465 -0.0080 -0.2116
 7707SOL    HW134580   4.031   4.139  14.973  2.3281 -0.0532 -2.7123
 7707SOL    HW234581   4.063   4.151  15.109  1.9209  0.8891  0.8122
 7708SOL     OW34582   4.705   4.317   8.242 -0.7040 -0.3116  0.6178
 7708SOL    HW134583   4.666   4.333   8.156 -0.1845 -2.2655  0.0339
 7708SOL    HW234584   0.073   4.337   8.224 -0.7384 -0.5117  0.2374
 7709SOL     OW34585   3.850   2.480  12.825  0.2465  0.2230  0.2373
 7709SOL    HW134586   3.860   2.385  12.818 -1.2123 -0.0371  1.9667
 7709SOL    HW234587   3.865   2.512  12.736 -0.9226  1.5035  0.4969
 7710SOL     OW34588   0.810   4.655   3.767 -0.6699  0.0145 -0.7448
 7710SOL    HW134589   0.794   4.694   3.681 -1.5492  1.8985  0.2875
 7710SOL    HW234590   0.814   0.008   3.823  1.4911  0.6104 -1.7309
 7711SOL     OW34591   0.451   0.094   4.866 -0.6733  0.0355 -0.3382
 7711SOL    HW134592   0.484   0.180   4.840  1.4014 -0.5905  0.1674
 7711SOL    HW234593   0.529   0.080   4.921 -2.6399 -3.0883  1.6324
 7712SOL     OW34594   4.372   2.591   8.671 -0.4848  0.6808 -0.2693
 7712SOL    HW134595   4.297   2.593   8.730  0.9156 -1.5867  1.5676
 7712SOL    HW234596   4.436   2.547   8.726 -0.3889 -0.8367 -1.5947
 7713SOL     OW34597   3.484   0.566   0.132 -0.3519  0.2009 -0.1139
 7713SOL    HW134598   3.525   0.481   0.145 -0.6764  0.4743  2.5704
 7713SOL    HW234599   3.463   0.566   0.038  1.7889  0.9141 -0.5759
 7714SOL     OW34600   1.383   0.177  11.505 -0.0358  0.3527 -0.4401
 7714SOL    HW134601   1.331   0.249  11.540  1.1682  2.1883 -2.5082
 7714SOL    HW234602   1.370   0.166  11.411 -0.3545  0.8458 -0.4509
 7715SOL     OW34603   1.752   3.404   3.019  0.1763 -0.3629  0.5515
 7715SOL    HW134604   1.774   3.311   3.029 -0.0612 -0.2745  1.9099
 7715SOL    HW234605   1.717   3.420   3.107  1.1394 -0.4312  0.9560
 7716SOL     OW34606   4.154   0.086   8.510 -0.3058 -0.3496  0.6807
 7716SOL    HW134607   4.123   0.160   8.458  1.3714 -0.1302 -0.0016
 7716SOL    HW234608   4.143   0.106   8.603  0.3268  0.8462  0.5031
 7717SOL     OW34609   4.402   1.012   2.842 -0.1427  0.4834  0.3485
 7717SOL    HW134610   4.472   0.966   2.795 -0.3573  0.3169  0.1923
 7717SOL    HW234611   4.426   0.998   2.933 -4.2760 -2.3296  0.9989
 7718SOL     OW34612   0.551   2.946  10.944 -0.1373 -0.4686 -0.6420
 7718SOL    HW134613   0.460   2.916  10.948 -1.3524  3.3578  0.8870
 7718SOL    HW234614   0.571   2.951  10.851  1.2759  0.7462 -0.2884
 7719SOL     OW34615   3.364   4.540   5.736  0.3208 -0.0736 -0.2658
 7719SOL    HW134616   3.332   4.491   5.812 -1.0415 -0.5917 -1.1573
 7719SOL    HW234617   3.298   4.516   5.671 -1.0241 -0.4109  1.2213
 7720SOL     OW34618   3.732   4.519  12.119  0.2710  0.4680 -0.2730
 7720SOL    HW134619   3.658   4.541  12.175  0.1334 -0.4941 -0.0718
 7720SOL    HW234620   3.809   4.550  12.167 -0.4396  2.3422 -0.3530
 7721SOL     OW34621   2.120   0.448   0.537  0.2429 -0.1691 -0.1560
 7721SOL    HW134622   2.066   0.377   0.503  0.5555 -0.4014 -0.1604
 7721SOL    HW234623   2.211   0.420   0.541  0.7547  1.3635 -0.9661
 7722SOL     OW34624   3.504   0.222  16.636 -0.1657  0.0590 -0.1363
 7722SOL    HW134625   3.561   0.150  16.612  1.7446  1.5371 -0.0450
 7722SOL    HW234626   3.444   0.228  16.562  2.7126  1.5437 -2.3615
 7723SOL     OW34627   3.339   0.869   4.794 -1.1331  0.1338  0.6989
 7723SOL    HW134628   3.408   0.930   4.767 -1.9167  1.2292  1.1478
 7723SOL    HW234629   3.311   0.894   4.883 -2.6030  0.1929  0.2270
 7724SOL     OW34630   3.467   4.159   8.946 -0.3097 -0.5085 -0.7039
 7724SOL    HW134631   3.510   4.237   8.981 -0.1983 -0.7235 -0.3604
 7724SOL    HW234632   3.419   4.123   9.021 -1.7098 -0.3599 -1.5288
 7725SOL     OW34633   0.314   2.406   7.054 -0.0368  0.3139 -0.2113
 7725SOL    HW134634   0.236   2.367   7.093 -0.9483 -0.8967 -3.2251
 7725SOL    HW234635   0.359   2.446   7.129 -0.0009  1.1187 -0.6703
 7726SOL     OW34636   1.308   1.144   7.432  0.7769  0.0495  0.2564
 7726SOL    HW134637   1.319   1.229   7.389  1.5502 -0.5421 -0.7265
 7726SOL    HW234638   1.357   1.085   7.375  1.0372 -0.1094  0.6531
 7727SOL     OW34639   0.152   3.367  17.412 -0.9078  0.1036  0.2439
 7727SOL    HW134640   0.228   3.308  17.420 -0.7589  0.5566  2.0408
 7727SOL    HW234641   0.170   3.433  17.478 -2.4286  0.3453  0.4142
 7728SOL     OW34642   0.591   3.639  12.672  0.2699  0.9458  0.3643
 7728SOL    HW134643   0.647   3.636  12.594 -0.7716  0.3711 -0.3585
 7728SOL    HW234644   0.655   3.621  12.741  0.2838 -2.5595 -0.5553
 7729SOL     OW34645   3.880   2.956  12.413  0.2168  0.3043  0.3020
 7729SOL    HW134646   3.962   2.991  12.380 -0.7257 -0.5221 -2.9068
 7729SOL    HW234647   3.910   2.892  12.478 -0.2310 -1.1548 -0.9223
 7730SOL     OW34648   3.880   0.980   8.674  0.2064  0.0957 -0.3042
 7730SOL    HW134649   3.797   0.974   8.722  0.2561  2.9777  0.1701
 7730SOL    HW234650   3.934   0.982   8.753  1.1105  2.1588 -0.9644
 7731SOL     OW34651   1.511   1.753  10.442  0.1102  1.0035 -0.0916
 7731SOL    HW134652   1.456   1.827  10.467 -1.5267 -0.3523  0.2734
 7731SOL    HW234653   1.474   1.680  10.491  0.0973  0.8867 -0.2760
 7732SOL     OW34654   0.992   3.251   5.945  0.5954  0.6273 -0.4378
 7732SOL    HW134655   0.910   3.204   5.958  1.0326 -0.2046 -0.6967
 7732SOL    HW234656   0.958   3.326   5.896  0.8110  0.7695 -0.3732
 7733SOL     OW34657   3.099   3.022   6.104  0.5570  0.0558  0.6323
 7733SOL    HW134658   3.119   3.039   6.196  0.1798  1.3541  0.4778
 7733SOL    HW234659   3.085   2.928   6.109 -1.2998  0.3740  1.5125
 7734SOL     OW34660   3.251   1.976   8.778 -0.1672  0.3531 -0.0398
 7734SOL    HW134661   3.182   1.964   8.713  0.3478  0.3460 -0.5839
 7734SOL    HW234662   3.202   1.988   8.859 -0.3063 -0.5229  0.0049
 7735SOL     OW34663   2.940   0.394   7.547  0.4245  0.5890 -0.1958
 7735SOL    HW134664   2.935   0.322   7.485 -0.9799  2.8112 -2.6653
 7735SOL    HW234665   2.928   0.348   7.630  0.2858 -0.3924 -0.7547
 7736SOL     OW34666   4.039   3.993   7.129  0.5365 -0.5602  0.6117
 7736SOL    HW134667   3.990   4.021   7.052  0.4083  0.6931  1.1558
 7736SOL    HW234668   3.969   3.974   7.193  0.5719  0.8655  1.0722
 7737SOL     OW34669   3.590   3.849   6.542  0.0485 -0.2888 -0.2258
 7737SOL    HW134670   3.563   3.936   6.514 -1.5087 -1.1791 -1.5347
 7737SOL    HW234671   3.682   3.831   6.524  0.4866 -0.6841  2.4200
 7738SOL     OW34672   1.784   2.486   2.206 -0.2282  0.0890 -0.6164
 7738SOL    HW134673   1.873   2.512   2.180 -0.1316  2.6485  2.1730
 7738SOL    HW234674   1.727   2.563   2.204 -1.3147 -0.6443  2.4387
 7739SOL     OW34675   2.383   0.081   2.988  0.2203 -0.5059 -0.3846
 7739SOL    HW134676   2.333   0.146   2.939  1.0621  0.3017 -0.1794
 7739SOL    HW234677   2.469   0.095   2.950 -0.1092  0.6173 -0.7257
 7740SOL     OW34678   1.597   0.832   2.361  0.7669 -0.2106 -0.4309
 7740SOL    HW134679   1.619   0.912   2.312  0.8159  0.9103  1.4220
 7740SOL    HW234680   1.681   0.788   2.350  0.6592 -0.4698 -0.2114
 7741SOL     OW34681   0.407   0.667  17.100  0.1317 -0.0258 -0.1111
 7741SOL    HW134682   0.487   0.660  17.047 -0.7901 -1.9448 -1.2695
 7741SOL    HW234683   0.447   0.705  17.179  1.4980  1.8400 -1.6975
 7742SOL     OW34684   3.254   0.921   0.426 -0.2354  0.5120  0.2209
 7742SOL    HW134685   3.284   0.852   0.368 -1.3734 -0.9143  1.3252
 7742SOL    HW234686   3.320   0.921   0.496  0.9716  2.1237 -0.9089
 7743SOL     OW34687   1.983   2.832  15.988  0.1839 -0.0219  0.0030
 7743SOL    HW134688   1.974   2.860  16.079  1.3218  0.5454 -0.0566
 7743SOL    HW234689   1.895   2.845  15.952  0.5251  0.9462 -0.4888
 7744SOL     OW34690   4.395   2.984   8.143 -0.2740 -0.6080 -0.1950
 7744SOL    HW134691   4.361   3.062   8.100  0.3976 -1.8411 -2.9716
 7744SOL    HW234692   4.356   2.983   8.231  2.5897 -1.5523  1.0858
 7745SOL     OW34693   4.234   4.265   7.376  0.0966 -0.6512 -0.1089
 7745SOL    HW134694   4.306   4.206   7.400 -1.0865 -1.7328  0.7462
 7745SOL    HW234695   4.278   4.347   7.356 -2.8568  0.1512 -3.2022
 7746SOL     OW34696   1.674   1.174  10.449  0.2694 -0.6924  0.6504
 7746SOL    HW134697   1.685   1.098  10.392  1.5618 -0.6953  0.8961
 7746SOL    HW234698   1.678   1.132  10.535 -3.7036  0.8961  1.6225
 7747SOL     OW34699   2.264   4.310   3.587  0.5293  0.0971  0.3197
 7747SOL    HW134700   2.356   4.326   3.608  0.7579 -1.5618  0.5479
 7747SOL    HW234701   2.253   4.363   3.508 -1.2700 -0.3999  0.2479
 7748SOL     OW34702   1.907   2.983   5.633 -0.2341  0.4080 -0.1737
 7748SOL    HW134703   1.940   3.064   5.672  0.2321 -0.0237  0.3206
 7748SOL    HW234704   1.901   3.010   5.541  0.2885  0.1648 -0.2817
 7749SOL     OW34705   1.461   3.974  17.329 -0.9088  0.2703 -0.1220
 7749SOL    HW134706   1.386   3.926  17.294  0.0673 -0.6693 -0.9286
 7749SOL    HW234707   1.483   3.921  17.405  1.7410  0.5673 -0.6776
 7750SOL     OW34708   0.302   2.524  11.298  0.1156  0.3741  0.2842
 7750SOL    HW134709   0.313   2.605  11.248 -0.7984  0.4199  0.1478
 7750SOL    HW234710   0.247   2.465  11.247  0.7188 -0.8404  1.0470
 7751SOL     OW34711   2.413   3.270   6.666  0.0135 -0.2343 -0.4966
 7751SOL    HW134712   2.448   3.257   6.755  0.4776 -0.2575 -0.6816
 7751SOL    HW234713   2.367   3.193   6.635  0.3043 -1.2404  1.5628
 7752SOL     OW34714   1.134   2.668   2.429 -0.3231 -0.1699 -0.1300
 7752SOL    HW134715   1.078   2.742   2.453 -1.1011 -1.4502  1.9797
 7752SOL    HW234716   1.111   2.642   2.339 -1.0247 -0.8910  0.2572
 7753SOL     OW34717   1.810   3.568   6.696 -0.2516 -0.4736 -0.0027
 7753SOL    HW134718   1.885   3.603   6.745 -0.4834  1.5883 -1.1142
 7753SOL    HW234719   1.844   3.482   6.672 -1.7303 -1.4977  1.5572
 7754SOL     OW34720   0.363   2.680   8.578  0.2922 -0.3720 -0.2678
 7754SOL    HW134721   0.396   2.600   8.537 -0.7073 -0.7668 -0.3091
 7754SOL    HW234722   0.407   2.673   8.662  1.2844  0.3526 -0.7239
 7755SOL     OW34723   4.230   4.198   6.204 -0.2480 -0.5133  0.1710
 7755SOL    HW134724   4.257   4.179   6.114  0.7506  2.2218 -0.1117
 7755SOL    HW234725   4.234   4.111   6.244 -2.3850 -1.0021 -0.6493
 7756SOL     OW34726   0.512   1.257   7.162  0.2059 -0.6290  0.9125
 7756SOL    HW134727   0.588   1.311   7.139  0.3077  0.7547  4.4759
 7756SOL    HW234728   0.463   1.323   7.212 -2.7843 -0.8192 -1.7949
 7757SOL     OW34729   3.975   3.731   4.309 -0.1477  0.0459  0.3208
 7757SOL    HW134730   3.960   3.641   4.279 -1.3864  0.2879  0.1948
 7757SOL    HW234731   3.940   3.736   4.399  1.3211  0.0335  0.8842
 7758SOL     OW34732   4.369   1.810  14.628  0.0098  0.5803 -0.0812
 7758SOL    HW134733   4.345   1.748  14.696 -0.0887  0.3748 -0.3003
 7758SOL    HW234734   4.445   1.765  14.592 -0.0974  2.0843 -2.2220
 7759SOL     OW34735   0.772   2.082   5.816  0.5157  0.2292 -0.2643
 7759SOL    HW134736   0.730   2.011   5.769  0.1500 -0.9430  1.8475
 7759SOL    HW234737   0.689   2.124   5.837  0.2315 -1.3513  1.7931
 7760SOL     OW34738   0.935   0.515   5.009 -0.0039 -0.2351 -0.4136
 7760SOL    HW134739   0.931   0.611   4.999  0.2655 -0.1697  0.0683
 7760SOL    HW234740   1.014   0.504   5.061 -0.9779 -2.2029  0.6339
 7761SOL     OW34741   3.132   4.665   2.869  0.1109  0.1614 -0.1976
 7761SOL    HW134742   3.038   4.649   2.879  0.8266 -1.3883  3.6118
 7761SOL    HW234743   3.161   4.626   2.951 -1.4331 -1.2941 -0.3572
 7762SOL     OW34744   2.158   2.345   7.233  0.0852 -0.8019  0.4847
 7762SOL    HW134745   2.207   2.263   7.220  2.1816  0.6909 -1.1155
 7762SOL    HW234746   2.130   2.334   7.323 -2.0310  1.9065  0.1417
 7763SOL     OW34747   1.270   4.331  10.469  0.5606 -0.5757 -0.0248
 7763SOL    HW134748   1.209   4.289  10.409 -0.3336  0.8375 -0.0903
 7763SOL    HW234749   1.328   4.376  10.407 -0.1691  0.4453  0.0360
 7764SOL     OW34750   2.251   3.460  11.699  0.5485 -0.4000 -0.4353
 7764SOL    HW134751   2.209   3.516  11.764  1.3102 -1.1453  0.6772
 7764SOL    HW234752   2.235   3.517  11.623 -0.4666  0.8804  0.7271
 7765SOL     OW34753   1.655   2.458  14.068 -0.6765  0.1317  0.0803
 7765SOL    HW134754   1.725   2.464  14.004 -1.5969  1.4444 -0.8127
 7765SOL    HW234755   1.620   2.547  14.065 -1.7742 -0.2671  0.9418
 7766SOL     OW34756   4.197   0.752  14.094 -0.0348  0.3582 -0.3205
 7766SOL    HW134757   4.276   0.803  14.112  0.7442  0.0601 -2.8778
 7766SOL    HW234758   4.226   0.700  14.019 -1.2799 -0.9268  0.0783
 7767SOL     OW34759   4.163   4.509   2.615 -0.1350  0.1886  0.2935
 7767SOL    HW134760   4.164   4.604   2.627 -0.2538  0.3055 -0.6058
 7767SOL    HW234761   4.102   4.500   2.542  1.4039 -0.9769 -0.8562
 7768SOL     OW34762   3.294   2.934  11.678 -0.5643 -0.4300 -0.4066
 7768SOL    HW134763   3.257   2.949  11.591 -0.0703 -2.6764 -1.0035
 7768SOL    HW234764   3.381   2.902  11.655  0.3190  1.1885  0.6899
 7769SOL     OW34765   4.317   0.157   7.174 -0.3578  0.6662 -0.8992
 7769SOL    HW134766   4.410   0.173   7.190 -1.2262  2.4019  2.3474
 7769SOL    HW234767   4.321   0.096   7.100  0.2348 -0.6082  0.1871
 7770SOL     OW34768   0.309   4.332   8.508  0.3237 -0.1573  0.6240
 7770SOL    HW134769   0.390   4.321   8.558  2.0017 -0.1264 -2.0391
 7770SOL    HW234770   0.280   4.241   8.497 -2.0666  0.7232 -0.3263
 7771SOL     OW34771   4.604   1.391  11.794 -0.3176 -0.2155  0.0106
 7771SOL    HW134772   4.688   1.352  11.817  0.1909  1.4973  1.1105
 7771SOL    HW234773   4.546   1.323  11.828 -0.8797  0.3049  0.1130
 7772SOL     OW34774   2.867   1.906   3.639 -0.1442 -0.4718  0.2872
 7772SOL    HW134775   2.839   1.820   3.609 -0.3776 -0.9061  1.8047
 7772SOL    HW234776   2.917   1.879   3.716 -0.8307 -2.2753  0.1050
 7773SOL     OW34777   4.099   4.414   1.641  0.0735  0.3545 -0.1006
 7773SOL    HW134778   4.115   4.403   1.547 -0.3796 -1.3727  0.0229
 7773SOL    HW234779   4.177   4.367   1.672  0.1158 -1.1555 -2.4449
 7774SOL     OW34780   3.299   0.788   3.585  0.3222 -0.0367 -0.0654
 7774SOL    HW134781   3.249   0.719   3.541  0.3658 -0.3986  0.4452
 7774SOL    HW234782   3.386   0.771   3.549  0.1767 -1.4212  0.2295
 7775SOL     OW34783   3.633   1.102   3.842  0.7654  0.2891 -0.0139
 7775SOL    HW134784   3.671   1.100   3.754 -1.1674 -3.3472 -0.8062
 7775SOL    HW234785   3.619   1.009   3.861 -0.4458  0.4773  0.0183
 7776SOL     OW34786   1.133   0.419   4.771 -0.3973  0.0229  0.0709
 7776SOL    HW134787   1.138   0.430   4.866 -1.8008  1.7090 -0.0593
 7776SOL    HW234788   1.151   0.325   4.769 -0.4910 -0.0434  1.8587
 7777SOL     OW34789   2.484   2.711  12.282  0.3147  0.0709 -0.3372
 7777SOL    HW134790   2.491   2.716  12.187  2.4373  3.0198 -0.0374
 7777SOL    HW234791   2.569   2.753  12.294 -0.0663  0.5574  0.6719
 7778SOL     OW34792   2.809   3.056   7.483  0.3376 -0.1595  0.1059
 7778SOL    HW134793   2.843   2.971   7.511 -0.6405 -1.0136 -1.2992
 7778SOL    HW234794   2.729   3.066   7.535 -1.2587 -1.3058 -2.1422
 7779SOL     OW34795   1.506   3.600   1.595 -0.4157 -0.6051  0.2145
 7779SOL    HW134796   1.451   3.566   1.524  0.6903 -0.7742 -0.5558
 7779SOL    HW234797   1.505   3.693   1.572 -1.9467 -0.5459  0.4863
 7780SOL     OW34798   0.044   2.647   4.061 -0.1396  0.0170 -0.2173
 7780SOL    HW134799   4.713   2.724   4.042  0.4385  0.7272  1.0216
 7780SOL    HW234800   0.110   2.692   4.114  1.7115 -1.1178 -1.5479
 7781SOL     OW34801   0.087   4.026   2.637 -0.2707  0.0167  0.4992
 7781SOL    HW134802   0.130   4.087   2.696 -0.1019  0.1712  0.2179
 7781SOL    HW234803   0.078   3.944   2.686  0.4167  1.0286  2.2999
 7782SOL     OW34804   0.543   1.038   5.165 -0.5795 -0.4941 -0.4879
 7782SOL    HW134805   0.473   1.079   5.114 -0.0402 -0.3156 -1.0883
 7782SOL    HW234806   0.557   1.114   5.223  2.1321 -0.0778 -1.6851
 7783SOL     OW34807   0.807   3.808   9.185  0.2759 -0.1432  0.3444
 7783SOL    HW134808   0.824   3.719   9.155 -2.8768 -1.2029  1.7133
 7783SOL    HW234809   0.758   3.780   9.263 -1.5144  0.5735 -0.5234
 7784SOL     OW34810   3.535   1.000   2.846 -0.3200 -0.1753 -0.7424
 7784SOL    HW134811   3.495   1.055   2.779 -1.1168 -1.9030 -1.6869
 7784SOL    HW234812   3.509   1.050   2.923 -4.2603  1.0029 -2.8463
 7785SOL     OW34813   2.913   3.619   2.083  0.0234 -0.5338  0.3320
 7785SOL    HW134814   2.976   3.689   2.103 -0.9779  1.2340 -2.6334
 7785SOL    HW234815   2.837   3.669   2.053  0.3273 -0.0615  0.3372
 7786SOL     OW34816   0.744   1.107   9.658  0.1575 -0.7308  0.0930
 7786SOL    HW134817   0.669   1.096   9.600  1.2198 -1.1373 -1.2021
 7786SOL    HW234818   0.740   1.033   9.719 -0.6208  1.2432  2.4498
 7787SOL     OW34819   0.039   3.320   7.679 -0.0706  0.4822 -0.1022
 7787SOL    HW134820   4.688   3.268   7.649 -0.5728  0.7378  0.7409
 7787SOL    HW234821   0.081   3.273   7.751 -2.4090 -1.0823  0.2253
 7788SOL     OW34822   1.780   4.173   6.849 -0.6457 -0.2997 -0.2899
 7788SOL    HW134823   1.751   4.262   6.872 -2.9698 -1.0568 -0.2305
 7788SOL    HW234824   1.863   4.164   6.895 -2.3226 -1.3955  2.4548
 7789SOL     OW34825   0.974   1.386   7.780  0.2972  0.1978  0.6042
 7789SOL    HW134826   0.891   1.367   7.822  0.1472 -2.4015 -0.8443
 7789SOL    HW234827   0.995   1.299   7.748 -1.6731 -0.0846  0.0746
 7790SOL     OW34828   0.860   3.339   8.870  0.1301 -0.0860  0.1949
 7790SOL    HW134829   0.800   3.405   8.835  0.4123  0.0522 -0.0248
 7790SOL    HW234830   0.925   3.395   8.911  2.2622 -1.0105 -1.9449
 7791SOL     OW34831   3.183   0.736   2.978 -0.6742 -0.3721  0.5014
 7791SOL    HW134832   3.151   0.733   3.068  0.7490  2.2795  1.1092
 7791SOL    HW234833   3.196   0.830   2.962 -1.2877 -0.3071  0.3857
 7792SOL     OW34834   2.002   0.756   4.452 -0.1072 -0.4692 -0.2389
 7792SOL    HW134835   2.021   0.679   4.398  1.6891 -1.1170  1.3094
 7792SOL    HW234836   1.909   0.752   4.474 -0.5974  2.7493 -1.7595
 7793SOL     OW34837   4.001   0.414   8.756  0.4169 -0.5227  0.4117
 7793SOL    HW134838   3.942   0.478   8.795  0.8662  0.7457 -0.9903
 7793SOL    HW234839   4.068   0.465   8.710  0.3696 -0.0674  0.8545
 7794SOL     OW34840   0.254   0.369   5.123  0.1137  1.1566 -0.1235
 7794SOL    HW134841   0.202   0.300   5.082  1.5702  0.1830 -0.3366
 7794SOL    HW234842   0.332   0.326   5.158  0.0104  1.6548  0.7256
 7795SOL     OW34843   0.648   1.302   9.829 -0.1959  0.1473  0.6554
 7795SOL    HW134844   0.733   1.327   9.864 -0.2495 -0.1062  0.9601
 7795SOL    HW234845   0.667   1.223   9.778 -0.7560 -0.6837  1.7588
 7796SOL     OW34846   2.293   1.723   6.731  0.1181  0.9423 -0.6528
 7796SOL    HW134847   2.306   1.810   6.769  1.1312  0.3290  0.3998
 7796SOL    HW234848   2.368   1.676   6.767 -1.0143  1.1241  1.9279
 7797SOL     OW34849   3.087   2.127  11.104 -0.0361 -0.5197 -0.1245
 7797SOL    HW134850   3.030   2.184  11.052  0.4903  0.1841  0.0680
 7797SOL    HW234851   3.049   2.139  11.191  3.6170 -0.5547  1.4617
 7798SOL     OW34852   0.572   2.217  12.215  0.3187  0.4522  0.0316
 7798SOL    HW134853   0.599   2.309  12.209 -2.4166  1.2691  0.3652
 7798SOL    HW234854   0.622   2.176  12.145  0.8065  0.5138  0.3431
 7799SOL     OW34855   4.689   0.479   8.345  0.7071 -0.7986  0.2758
 7799SOL    HW134856   4.644   0.556   8.309 -0.2998 -2.2524 -1.5829
 7799SOL    HW234857   4.685   0.492   8.439  1.9498 -0.6178  0.3109
 7800SOL     OW34858   2.724   3.448   1.782 -0.5107 -0.4905  0.3982
 7800SOL    HW134859   2.662   3.384   1.745  0.9450 -1.5028 -0.2964
 7800SOL    HW234860   2.674   3.499   1.846 -1.9369  1.1740 -2.0606
 7801SOL     OW34861   2.423   1.331  13.515  0.0555 -0.5587 -0.3004
 7801SOL    HW134862   2.380   1.379  13.444  1.5188  2.5105  0.8894
 7801SOL    HW234863   2.372   1.250  13.513 -0.5593 -0.1894  0.3784
 7802SOL     OW34864   2.913   1.816   6.388  0.8709 -0.5853 -0.0164
 7802SOL    HW134865   2.835   1.789   6.340 -0.0462 -1.1485  1.7738
 7802SOL    HW234866   2.979   1.763   6.342 -0.2172 -2.2400  0.3197
 7803SOL     OW34867   0.992   4.364   7.451  0.1375  0.0795  0.1436
 7803SOL    HW134868   1.083   4.366   7.421 -0.2469 -0.6050 -1.1031
 7803SOL    HW234869   0.941   4.334   7.376 -2.4315  1.6816  1.2482
 7804SOL     OW34870   3.926   3.503   1.237 -0.7320  0.1742  0.3322
 7804SOL    HW134871   3.987   3.515   1.164 -0.8776 -2.8084 -0.2685
 7804SOL    HW234872   3.996   3.504   1.302  1.0231 -1.8627 -1.5335
 7805SOL     OW34873   4.546   4.462   3.602 -0.1376  0.7112  0.0946
 7805SOL    HW134874   4.478   4.395   3.592  0.3634  0.3786 -1.0605
 7805SOL    HW234875   4.608   4.435   3.534 -2.1168 -0.3087 -1.3282
 7806SOL     OW34876   1.754   3.494   4.721 -0.3322  0.3047 -0.4475
 7806SOL    HW134877   1.711   3.417   4.757 -0.9470  0.2345 -1.3268
 7806SOL    HW234878   1.766   3.454   4.635  1.4827 -0.2908  0.0799
 7807SOL     OW34879   3.656   3.131   1.245 -0.0788 -0.6321 -0.1431
 7807SOL    HW134880   3.690   3.147   1.157 -3.1156 -0.8525 -1.3566
 7807SOL    HW234881   3.724   3.069   1.272  0.5127 -0.2362 -0.7551
 7808SOL     OW34882   1.881   1.454  12.219  0.0223  0.2613  0.5200
 7808SOL    HW134883   1.801   1.426  12.174  1.4674 -2.9337 -0.0929
 7808SOL    HW234884   1.876   1.395  12.295 -0.1340  1.2277  1.2602
 7809SOL     OW34885   0.254   4.197   7.136 -0.4807  0.5489 -0.8715
 7809SOL    HW134886   0.200   4.171   7.211 -1.1046  0.4555 -1.3506
 7809SOL    HW234887   0.280   4.287   7.156 -1.1592  0.9256 -1.6760
 7810SOL     OW34888   3.641   2.883   9.425 -0.7775 -0.2461 -0.5182
 7810SOL    HW134889   3.711   2.818   9.427  0.4720  1.0659 -1.9794
 7810SOL    HW234890   3.671   2.951   9.485 -1.7297 -0.9738  0.8115
 7811SOL     OW34891   3.528   1.678  14.673  0.0190 -0.0040 -0.3477
 7811SOL    HW134892   3.530   1.588  14.707 -0.7977 -0.1338 -0.6453
 7811SOL    HW234893   3.591   1.722  14.730  0.7775  0.1273 -1.2974
 7812SOL     OW34894   3.545   1.933  10.599 -0.6273  0.2343 -0.0851
 7812SOL    HW134895   3.475   1.900  10.542  0.3044  1.3109 -1.8732
 7812SOL    HW234896   3.519   2.025  10.588  0.1816  0.1794 -2.5220
 7813SOL     OW34897   3.948   3.457   7.253 -0.0911 -0.0333  0.2239
 7813SOL    HW134898   3.979   3.403   7.326  1.8647  2.2148  1.0599
 7813SOL    HW234899   3.907   3.398   7.190  0.1580  1.5468 -1.4204
 7814SOL     OW34900   2.474   3.608   6.361 -0.3408  0.0897  0.0767
 7814SOL    HW134901   2.413   3.661   6.414 -1.6489 -0.7338 -0.6055
 7814SOL    HW234902   2.477   3.531   6.419  2.6636 -0.5987 -1.0406
 7815SOL     OW34903   1.033   2.906  10.722  0.2015  0.0719  0.3212
 7815SOL    HW134904   1.076   2.821  10.736 -3.8274 -2.0499 -0.2998
 7815SOL    HW234905   0.996   2.920  10.809 -0.0547 -0.3728  0.2804
 7816SOL     OW34906   1.203   4.367   8.529  0.2538  0.4942 -0.5484
 7816SOL    HW134907   1.179   4.329   8.444 -0.3468 -2.7181  1.0532
 7816SOL    HW234908   1.290   4.402   8.509 -0.8921  3.2585 -0.6798
 7817SOL     OW34909   2.170   1.649   7.102  0.7045  0.5385  0.4610
 7817SOL    HW134910   2.125   1.733   7.111 -0.1975  0.2882 -1.8424
 7817SOL    HW234911   2.151   1.622   7.192  0.7355 -1.9911 -0.2984
 7818SOL     OW34912   3.924   4.124   8.845  0.6207 -0.1903 -0.3879
 7818SOL    HW134913   3.832   4.109   8.824  0.0944  0.0465  1.8059
 7818SOL    HW234914   3.961   4.043   8.810 -0.4514 -0.6639 -0.3868
 7819SOL     OW34915   1.762   1.585   2.623  0.2421 -0.2710 -0.1922
 7819SOL    HW134916   1.813   1.511   2.656  2.6464  1.8605  0.8664
 7819SOL    HW234917   1.818   1.616   2.552 -3.3369  3.7594 -1.2481
 7820SOL     OW34918   2.759   3.985   4.675 -0.0238 -0.1186  0.8140
 7820SOL    HW134919   2.721   4.043   4.741 -1.1927  0.7598 -0.6358
 7820SOL    HW234920   2.695   3.914   4.680  0.5854 -0.8701 -2.0688
 7821SOL     OW34921   3.639   2.211  10.789 -0.4124 -0.2298 -0.4287
 7821SOL    HW134922   3.565   2.183  10.843 -0.9995 -2.4122 -2.3289
 7821SOL    HW234923   3.634   2.306  10.787 -0.0225 -0.1605  2.6222
 7822SOL     OW34924   0.795   4.357   5.857  0.0260  0.3113 -0.6799
 7822SOL    HW134925   0.754   4.272   5.872 -1.5940  1.2391  0.0828
 7822SOL    HW234926   0.716   4.410   5.868 -1.1963 -1.1657 -2.2560
 7823SOL     OW34927   2.599   1.738   3.506  0.1286 -0.8644  0.6578
 7823SOL    HW134928   2.523   1.698   3.465  0.3946 -0.1004 -0.6006
 7823SOL    HW234929   2.561   1.767   3.589  0.8605 -0.8998  1.0127
 7824SOL     OW34930   0.480   1.750   2.454 -0.8970  0.2905  0.2776
 7824SOL    HW134931   0.551   1.814   2.445 -1.2058  0.3537 -1.7543
 7824SOL    HW234932   0.409   1.780   2.398 -0.8112 -1.1138 -0.5817
 7825SOL     OW34933   3.104   1.273   3.582 -0.1579 -0.0512 -0.6620
 7825SOL    HW134934   3.018   1.285   3.542 -0.1924  2.8795  0.3251
 7825SOL    HW234935   3.103   1.351   3.637  0.4746  1.5983 -3.0360
 7826SOL     OW34936   4.440   2.691   4.827 -0.5333  0.4135  0.1025
 7826SOL    HW134937   4.488   2.709   4.747 -2.2639  0.2567 -0.9825
 7826SOL    HW234938   4.498   2.731   4.891 -0.1962 -1.0194  0.7010
 7827SOL     OW34939   0.128   3.392   3.284  0.0418 -0.5144  1.1895
 7827SOL    HW134940   0.161   3.367   3.371 -0.0348  1.4552  1.7862
 7827SOL    HW234941   0.125   3.485   3.305 -0.3781  0.1820 -1.8960
 7828SOL     OW34942   4.482   3.023   7.535  0.1822 -0.4039  0.0683
 7828SOL    HW134943   4.569   3.013   7.575 -0.0364 -3.3820 -0.2500
 7828SOL    HW234944   4.498   3.054   7.446 -1.5799  1.3419  0.3622
 7829SOL     OW34945   1.051   3.919   6.388  0.3367  0.4976 -0.0062
 7829SOL    HW134946   1.056   3.942   6.295 -1.2920  1.8717  0.2562
 7829SOL    HW234947   1.137   3.881   6.403  0.2613  0.7028  0.9121
 7830SOL     OW34948   1.269   3.482   1.958 -0.5904 -0.1606 -0.3490
 7830SOL    HW134949   1.307   3.570   1.948 -2.0202  0.1805 -2.8867
 7830SOL    HW234950   1.187   3.488   1.909 -0.6281 -1.0634 -0.3817
 7831SOL     OW34951   2.516   3.540   8.229  0.2452 -0.1396  0.0128
 7831SOL    HW134952   2.431   3.497   8.242  0.3836 -0.3702  0.1575
 7831SOL    HW234953   2.479   3.629   8.229  0.2929 -0.1208  0.1208
 7832SOL     OW34954   3.665   4.330   6.901  0.1742  0.4445 -0.0707
 7832SOL    HW134955   3.637   4.399   6.962 -1.0974 -0.0354 -0.1111
 7832SOL    HW234956   3.717   4.372   6.833  0.0859  0.1621 -0.3122
 7833SOL     OW34957   2.964   2.186   8.902  0.5956  0.6742  0.0586
 7833SOL    HW134958   2.902   2.213   8.969 -1.2306 -0.3982 -1.1967
 7833SOL    HW234959   3.006   2.118   8.955  2.9646  0.7857 -1.6293
 7834SOL     OW34960   2.668   4.586   1.226  0.1855  0.2097  0.2095
 7834SOL    HW134961   2.740   4.649   1.230  1.1286 -0.9106  0.8587
 7834SOL    HW234962   2.720   4.510   1.201 -0.1486  0.5596 -1.5744
 7835SOL     OW34963   4.278   0.930   0.063 -0.2002  0.5767  0.4700
 7835SOL    HW134964   4.219   0.915   0.137 -0.5317 -0.2096  0.0491
 7835SOL    HW234965   4.235   1.010   0.033  0.3085  0.4572 -0.5713
 7836SOL     OW34966   4.120   0.116   4.303  0.0290  0.5383  0.1846
 7836SOL    HW134967   4.051   0.061   4.264  1.7542  0.9884 -3.5338
 7836SOL    HW234968   4.192   0.052   4.301  0.7319  1.3635 -0.8452
 7837SOL     OW34969   2.919   0.929   3.861  0.1421  0.3058  0.4867
 7837SOL    HW134970   2.962   0.970   3.937  1.2914  0.1710 -0.0988
 7837SOL    HW234971   2.968   0.955   3.784 -2.5954  0.7901 -1.1058
 7838SOL     OW34972   0.383   1.944  13.696  0.0156 -0.0406 -0.3698
 7838SOL    HW134973   0.475   1.958  13.720  0.1294 -1.5369  0.0550
 7838SOL    HW234974   0.370   2.011  13.629  1.7786 -0.1120 -0.8095
 7839SOL     OW34975   2.303   1.218   4.537  0.5148  0.0449  0.2647
 7839SOL    HW134976   2.324   1.126   4.557 -1.4997 -1.0760 -2.6676
 7839SOL    HW234977   2.251   1.249   4.611  0.0412  0.7166 -0.3508
 7840SOL     OW34978   0.443   4.374  15.910 -0.9580  0.2349  0.2017
 7840SOL    HW134979   0.378   4.357  15.842  1.0594  0.7451 -1.8426
 7840SOL    HW234980   0.454   4.468  15.896 -0.6033  0.1082 -0.3630
 7841SOL     OW34981   0.597   1.897   3.925 -0.3326 -0.3664 -0.7419
 7841SOL    HW134982   0.542   1.946   3.986  0.0247 -0.7736 -0.0905
 7841SOL    HW234983   0.621   1.963   3.860 -0.2468  0.3074 -0.0289
 7842SOL     OW34984   2.635   2.239   9.541  0.1284  0.3087 -0.1006
 7842SOL    HW134985   2.627   2.321   9.493  2.0595  3.1407  4.4012
 7842SOL    HW234986   2.550   2.240   9.586  1.0617 -1.0398  1.7231
 7843SOL     OW34987   2.129   2.076   6.685  0.6375  0.0344 -0.0608
 7843SOL    HW134988   2.192   2.072   6.757  2.0746 -1.8387 -1.4279
 7843SOL    HW234989   2.180   2.104   6.610 -1.8858 -0.8154 -2.0849
 7844SOL     OW34990   3.998   2.504   3.354 -0.4767 -0.1668  0.3840
 7844SOL    HW134991   4.020   2.411   3.354 -0.2620 -0.0987 -1.9743
 7844SOL    HW234992   3.961   2.502   3.266 -1.1312 -0.8333  0.6773
 7845SOL     OW34993   1.007   0.131  11.344  0.4645 -0.3714  0.0504
 7845SOL    HW134994   0.940   0.191  11.311  0.5424 -0.8617 -0.9721
 7845SOL    HW234995   1.061   0.190  11.396 -0.9437  2.1699 -1.3778
 7846SOL     OW34996   3.058   0.205   4.473  0.2559 -0.2142  0.4839
 7846SOL    HW134997   3.046   0.291   4.433 -1.3989  0.2355  1.9331
 7846SOL    HW234998   3.015   0.146   4.410 -0.9229  2.7359 -1.4703
 7847SOL     OW34999   0.963   3.503   6.811  0.0094  0.1116  0.1024
 7847SOL    HW135000   0.995   3.436   6.871  1.0004 -0.2547 -0.8341
 7847SOL    HW235001   0.998   3.580   6.856 -1.2246  2.0027 -2.1884
 7848SOL     OW35002   0.148   1.593   9.927 -0.2711  0.2664  0.3781
 7848SOL    HW135003   0.137   1.651   9.852 -0.9279 -1.6740 -1.0191
 7848SOL    HW235004   0.238   1.562   9.918 -0.8301 -0.9851 -0.8602
 7849SOL     OW35005   0.497   2.346  11.364  0.1387  0.2527  0.1803
 7849SOL    HW135006   0.469   2.265  11.321  0.3161  0.5284 -0.4503
 7849SOL    HW235007   0.422   2.405  11.357  0.9978  1.1561 -1.2834
 7850SOL     OW35008   0.914   3.117  13.319  0.7527  0.1590 -0.4711
 7850SOL    HW135009   0.894   3.029  13.350 -2.2100  1.6123  1.7134
 7850SOL    HW235010   1.002   3.127  13.357  1.0515 -0.8757 -0.8828
 7851SOL     OW35011   0.362   1.593   4.620  0.1415 -0.8147 -0.3679
 7851SOL    HW135012   0.371   1.524   4.686 -2.4419 -0.9407 -0.1490
 7851SOL    HW235013   0.284   1.560   4.577 -1.5191  2.5635  0.0739
 7852SOL     OW35014   3.614   0.283   6.766 -0.1561 -0.6802  0.0580
 7852SOL    HW135015   3.546   0.226   6.731 -0.3312 -0.6809  0.4003
 7852SOL    HW235016   3.613   0.362   6.711 -0.8167 -0.0586  0.9663
 7853SOL     OW35017   2.896   3.627   8.020 -0.6844  0.0921 -0.1240
 7853SOL    HW135018   2.980   3.613   8.063 -0.0354 -1.1667 -1.7901
 7853SOL    HW235019   2.928   3.697   7.963 -0.5668 -0.1647 -0.3755
 7854SOL     OW35020   2.167   0.778  14.466  0.1726 -0.1610  0.4341
 7854SOL    HW135021   2.215   0.706  14.425  1.9877  0.9103  0.6869
 7854SOL    HW235022   2.233   0.845  14.451 -1.8426  0.9646 -3.3104
 7855SOL     OW35023   2.560   1.743   4.915  0.2731  0.1736 -0.6144
 7855SOL    HW135024   2.575   1.823   4.966 -2.4440  0.3012 -0.0220
 7855SOL    HW235025   2.578   1.679   4.984  1.6737 -0.0014 -1.1592
 7856SOL     OW35026   1.196   0.180   7.775  0.2649 -0.6743  0.5832
 7856SOL    HW135027   1.271   0.146   7.726 -1.1720 -0.9080 -1.4987
 7856SOL    HW235028   1.140   0.104   7.787  0.5407 -1.0700 -0.6784
 7857SOL     OW35029   3.004   1.989  12.143 -0.2954  0.0593  0.2122
 7857SOL    HW135030   3.067   1.948  12.084  2.1384  1.1497  2.0833
 7857SOL    HW235031   3.045   1.964  12.226  0.8113  0.2728 -0.2716
 7858SOL     OW35032   3.345   2.238   2.260 -0.2400  0.1159 -0.0130
 7858SOL    HW135033   3.319   2.184   2.335 -0.3227  0.2230  0.0356
 7858SOL    HW235034   3.429   2.277   2.282 -0.6802 -0.5618  2.9037
 7859SOL     OW35035   1.396   0.642  16.266  0.0463  0.0665  0.1984
 7859SOL    HW135036   1.323   0.700  16.244  1.6920  2.0882  0.0501
 7859SOL    HW235037   1.465   0.684  16.213  1.0389 -2.2913 -0.3818
 7860SOL     OW35038   0.875   2.060   8.626 -0.7666 -0.0977  0.1424
 7860SOL    HW135039   0.950   2.037   8.572 -0.3011  0.7539  0.4307
 7860SOL    HW235040   0.833   1.975   8.641 -0.4713 -0.4788 -1.1968
 7861SOL     OW35041   1.891   1.999   9.433 -0.1340 -0.1796  0.0029
 7861SOL    HW135042   1.835   1.934   9.389  0.9849 -1.8442  1.0180
 7861SOL    HW235043   1.868   1.977   9.524  1.8128  0.6312  0.6791
 7862SOL     OW35044   4.624   3.889   6.460  0.1399  0.2503  0.3874
 7862SOL    HW135045   4.597   3.888   6.368  0.5575 -0.8437  0.2777
 7862SOL    HW235046   4.672   3.807   6.466  1.3065  0.9141  0.0601
 7863SOL     OW35047   1.036   0.496   2.321  0.0015 -0.5079  0.0956
 7863SOL    HW135048   0.952   0.481   2.279  0.3752 -0.6400 -0.6000
 7863SOL    HW235049   1.077   0.409   2.318 -0.1375 -0.5469 -0.7248
 7864SOL     OW35050   4.594   3.632  16.641 -0.5180  0.5014  0.6488
 7864SOL    HW135051   4.641   3.708  16.675 -0.6793  0.4173  1.0499
 7864SOL    HW235052   4.506   3.641  16.677 -2.2424 -0.6857 -3.2158
 7865SOL     OW35053   0.191   4.085   3.384  0.0081 -0.4582 -0.2895
 7865SOL    HW135054   0.254   4.044   3.443 -0.5568  0.6359  1.0589
 7865SOL    HW235055   0.168   4.164   3.432  0.9606 -0.3773  0.0334
 7866SOL     OW35056   3.167   1.916   5.034 -0.2311  0.4403 -0.1751
 7866SOL    HW135057   3.228   1.897   4.963 -1.3381  0.4546 -1.1349
 7866SOL    HW235058   3.085   1.942   4.991 -1.6904 -1.2454  1.5373
 7867SOL     OW35059   3.270   2.748   5.228  0.1709 -0.3805 -0.1232
 7867SOL    HW135060   3.329   2.686   5.187 -2.2311 -2.6822 -0.0917
 7867SOL    HW235061   3.245   2.696   5.305  0.5299 -2.5138 -1.4534
 7868SOL     OW35062   2.749   3.991   7.504  0.2412  0.0179 -0.5364
 7868SOL    HW135063   2.714   3.905   7.481 -1.3055  0.4635  0.1689
 7868SOL    HW235064   2.816   3.958   7.564 -0.3973  1.1816  0.8288
 7869SOL     OW35065   4.416   2.346   1.708  0.4122  0.1052  0.0281
 7869SOL    HW135066   4.497   2.396   1.716  1.4142 -1.6576  0.9155
 7869SOL    HW235067   4.413   2.343   1.804  0.7306  0.1574  0.0404
 7870SOL     OW35068   3.519   3.635   8.564 -0.1327 -0.8727  0.4545
 7870SOL    HW135069   3.526   3.575   8.637  0.9063 -0.7212  0.4761
 7870SOL    HW235070   3.476   3.709   8.608  0.3539  0.9386 -2.0747
 7871SOL     OW35071   1.871   4.660   7.014 -0.1000 -0.9555 -0.5236
 7871SOL    HW135072   1.951   4.641   7.062  1.1233  0.4126 -1.9928
 7871SOL    HW235073   1.913   4.690   6.933 -0.5418  0.1392 -0.3471
 7872SOL     OW35074   3.596   4.292   7.242  0.1779 -0.0316  0.0731
 7872SOL    HW135075   3.604   4.352   7.316 -3.2176 -0.7982  1.0689
 7872SOL    HW235076   3.577   4.359   7.177 -2.0624 -0.0052  0.7631
 7873SOL     OW35077   2.421   0.799   2.479 -0.4075 -0.4275 -0.0070
 7873SOL    HW135078   2.497   0.857   2.473 -1.8357  1.3713 -0.8578
 7873SOL    HW235079   2.354   0.867   2.486  0.3383  0.2487  0.5037
 7874SOL     OW35080   1.275   2.117   8.393 -0.1748  0.1404  0.2381
 7874SOL    HW135081   1.285   2.196   8.341 -0.6286  0.0631  0.0310
 7874SOL    HW235082   1.357   2.067   8.386 -1.1332 -1.6960  1.7495
 7875SOL     OW35083   0.060   3.821   5.193 -0.0208 -0.0947  0.0890
 7875SOL    HW135084   0.141   3.791   5.233 -2.0259 -1.1605  3.3501
 7875SOL    HW235085   0.084   3.824   5.100 -2.8608 -2.1834 -0.7074
 7876SOL     OW35086   0.578   0.225   0.258  0.4391  0.2429 -0.3558
 7876SOL    HW135087   0.633   0.163   0.306  0.1410  1.8602  2.0881
 7876SOL    HW235088   0.608   0.299   0.311 -0.5819 -0.0120  0.5572
 7877SOL     OW35089   4.403   4.688  12.714 -0.5997 -0.0816  0.1325
 7877SOL    HW135090   4.387   0.044  12.765  0.7359  0.4074 -0.2129
 7877SOL    HW235091   4.356   4.716  12.635  1.8046 -0.6621 -1.5089
 7878SOL     OW35092   3.641   0.284   1.431 -0.0829 -0.1971 -0.3559
 7878SOL    HW135093   3.696   0.337   1.489 -0.6706 -0.4035  0.3985
 7878SOL    HW235094   3.620   0.221   1.501  3.6360 -2.2655 -1.1270
 7879SOL     OW35095   0.314   0.236   6.881 -0.0017 -0.0952 -0.0474
 7879SOL    HW135096   0.260   0.224   6.959  0.9881  0.4994  0.7300
 7879SOL    HW235097   0.386   0.178   6.904 -0.4203 -1.4083 -2.0233
 7880SOL     OW35098   4.173   4.156  11.849 -0.2862 -0.1440  0.4284
 7880SOL    HW135099   4.109   4.191  11.911 -0.3954 -0.3173  0.4112
 7880SOL    HW235100   4.114   4.143  11.775  0.9727  0.8180 -0.7580
 7881SOL     OW35101   0.092   0.898   3.896  0.0557 -0.2248 -0.0885
 7881SOL    HW135102   0.048   0.875   3.977  0.3923  0.6680  0.3521
 7881SOL    HW235103   0.080   0.818   3.845 -0.8332 -0.2786  0.2032
 7882SOL     OW35104   1.257   2.968   2.266 -0.0007 -0.3469 -0.1523
 7882SOL    HW135105   1.269   2.884   2.222 -1.2155  0.2505 -1.5969
 7882SOL    HW235106   1.228   3.025   2.195 -0.0453  0.9123  0.8757
 7883SOL     OW35107   3.810   1.974   4.951  0.5987 -0.2327  0.3065
 7883SOL    HW135108   3.814   2.069   4.961 -0.2324 -0.1945  0.2489
 7883SOL    HW235109   3.780   1.955   4.862 -1.5415 -0.0813  1.0096
 7884SOL     OW35110   0.951   2.620   4.134  0.5517 -0.3744  0.0669
 7884SOL    HW135111   0.955   2.675   4.055 -2.0953 -1.3181 -0.7472
 7884SOL    HW235112   1.041   2.596   4.153  0.4451 -1.5502 -0.8790
 7885SOL     OW35113   2.154   1.953   3.741 -0.0068 -0.6576 -0.1172
 7885SOL    HW135114   2.164   1.858   3.751 -2.2858 -0.5991  2.4127
 7885SOL    HW235115   2.079   1.967   3.684 -0.0017  2.2892  0.6209
 7886SOL     OW35116   0.956   3.719  12.923 -0.3942 -0.2604  0.2955
 7886SOL    HW135117   1.042   3.725  12.964 -0.7850  1.2500  0.8983
 7886SOL    HW235118   0.978   3.734  12.831  2.1968 -0.3766  0.8964
 7887SOL     OW35119   1.456   3.114  14.782 -0.7260  0.5784 -0.1821
 7887SOL    HW135120   1.449   3.157  14.867 -2.0230 -0.0187  0.0128
 7887SOL    HW235121   1.538   3.142  14.743  0.3437 -1.2898  0.7394
 7888SOL     OW35122   0.663   3.737   9.394 -0.6309 -0.0548  0.0916
 7888SOL    HW135123   0.642   3.648   9.366 -1.3809  0.0569  0.3000
 7888SOL    HW235124   0.607   3.739   9.471 -0.2035 -0.8654  0.4329
 7889SOL     OW35125   4.605   4.463  11.559  0.0845 -0.7240 -0.6065
 7889SOL    HW135126   4.646   4.414  11.487 -0.3075 -3.3172  0.9453
 7889SOL    HW235127   4.591   4.390  11.619  2.5255  0.5930  1.5743
 7890SOL     OW35128   2.976   1.791  11.022 -0.5311  0.4360 -0.1064
 7890SOL    HW135129   3.023   1.865  11.062 -1.6991  1.0800  0.0623
 7890SOL    HW235130   2.960   1.837  10.940 -0.8687  1.5608  0.5817
 7891SOL     OW35131   2.105   4.166   1.443 -0.1860 -0.0126 -0.3504
 7891SOL    HW135132   2.044   4.093   1.458 -1.1765  1.2997  1.9747
 7891SOL    HW235133   2.125   4.159   1.350 -1.0480 -2.5170 -0.3563
 7892SOL     OW35134   0.511   4.696   7.414 -0.3607 -0.2474 -0.5305
 7892SOL    HW135135   0.496   0.057   7.456  1.8798 -0.6325  0.9751
 7892SOL    HW235136   0.504   4.644   7.494 -0.6404  0.6647  0.0409
 7893SOL     OW35137   3.517   2.774   1.499 -0.1559 -0.3996  0.1321
 7893SOL    HW135138   3.551   2.760   1.411  0.8208  0.6865  0.3342
 7893SOL    HW235139   3.460   2.850   1.489 -0.8068 -0.9712 -0.4681
 7894SOL     OW35140   3.728   0.434   5.410  0.5827  0.5900 -0.1264
 7894SOL    HW135141   3.707   0.483   5.490  0.4684  1.4758 -0.7091
 7894SOL    HW235142   3.663   0.468   5.349  0.6677 -0.7877 -0.9833
 7895SOL     OW35143   0.688   3.428   3.574  0.5796  1.3812 -0.3082
 7895SOL    HW135144   0.677   3.333   3.569 -2.6952  1.7374  0.3346
 7895SOL    HW235145   0.651   3.454   3.490  0.2871  0.0045 -0.5996
 7896SOL     OW35146   4.310   2.051  13.922 -0.0564  0.5818  0.6009
 7896SOL    HW135147   4.390   1.999  13.911  0.1630  0.3537  3.2849
 7896SOL    HW235148   4.286   2.040  14.014 -1.2807 -0.3736  0.1782
 7897SOL     OW35149   4.508   1.613  17.563  0.5236 -0.4251 -0.1545
 7897SOL    HW135150   4.506   1.527  17.521  1.2810 -0.0653 -0.9213
 7897SOL    HW235151   4.510   1.599  17.658 -0.6235  3.5494  0.4977
 7898SOL     OW35152   2.768   2.344   7.936  0.0278 -0.0652  0.1293
 7898SOL    HW135153   2.757   2.281   8.007  0.5913  1.2462  1.3595
 7898SOL    HW235154   2.777   2.288   7.858  0.9983 -2.3655  1.9048
 7899SOL     OW35155   1.926   2.851   7.636  0.5370 -0.6998 -0.1017
 7899SOL    HW135156   1.958   2.865   7.547  0.0871  0.3136 -0.1084
 7899SOL    HW235157   1.998   2.904   7.670 -1.9648  2.2730  0.6344
 7900SOL     OW35158   0.047   3.354   2.190 -0.4530  0.3900 -0.1036
 7900SOL    HW135159   0.111   3.411   2.232  0.1597 -0.1852 -0.2532
 7900SOL    HW235160   0.004   3.314   2.266 -0.0428 -0.8694 -0.5304
 7901SOL     OW35161   2.261   3.553   8.043 -0.4440 -0.1589  0.1568
 7901SOL    HW135162   2.195   3.621   8.032  0.2101  0.4393 -0.0759
 7901SOL    HW235163   2.255   3.526   8.135  0.2840  0.2851  0.3320
 7902SOL     OW35164   4.689   2.205   2.927  0.2583  0.9751  0.3674
 7902SOL    HW135165   4.670   2.138   2.861 -1.2199  0.2209  1.5629
 7902SOL    HW235166   0.016   2.262   2.870  1.1493 -0.5494 -0.3926
 7903SOL     OW35167   3.107   1.536   6.379  0.1398 -0.5262  0.0597
 7903SOL    HW135168   3.127   1.618   6.334 -2.9286  1.8684  3.1239
 7903SOL    HW235169   3.163   1.538   6.456  1.1538  2.7969 -0.7584
 7904SOL     OW35170   4.077   1.198   2.321  0.0848  0.3523  0.3502
 7904SOL    HW135171   4.153   1.256   2.326 -0.1493  0.7479 -0.7594
 7904SOL    HW235172   4.046   1.229   2.236  1.9676 -1.4068 -0.9643
 7905SOL     OW35173   1.282   3.406   2.228  0.3146 -0.4254 -0.3073
 7905SOL    HW135174   1.277   3.431   2.136 -1.1902 -0.5472 -0.2537
 7905SOL    HW235175   1.300   3.312   2.227  1.2268 -0.2535 -0.1944
 7906SOL     OW35176   0.127   2.755   1.957  0.3552 -0.4888 -1.0032
 7906SOL    HW135177   0.162   2.702   1.885 -1.5726 -1.9368 -0.8726
 7906SOL    HW235178   0.211   2.800   1.968  0.2041 -0.0953 -1.4703
 7907SOL     OW35179   0.725   2.257  13.136  0.1597 -0.3841 -0.2862
 7907SOL    HW135180   0.795   2.262  13.201 -0.0422  0.0122 -0.0919
 7907SOL    HW235181   0.675   2.189  13.181  1.6018 -0.9809  0.4078
 7908SOL     OW35182   2.741   3.605   5.789  1.1142  0.5402  0.3412
 7908SOL    HW135183   2.828   3.623   5.753  0.8431  1.0346 -0.0510
 7908SOL    HW235184   2.752   3.520   5.831 -0.8319 -0.8951 -2.0524
 7909SOL     OW35185   4.655   2.187  14.554 -0.1271  0.2509  0.2492
 7909SOL    HW135186   4.717   2.116  14.537 -1.0648 -0.1738 -1.3710
 7909SOL    HW235187   4.597   2.142  14.615 -0.0443  1.2822  1.0820
 7910SOL     OW35188   3.083   3.061   1.762 -0.5996  0.5606 -0.5509
 7910SOL    HW135189   3.072   3.047   1.857 -3.0633  0.9716 -0.7643
 7910SOL    HW235190   3.172   3.095   1.759  1.2181 -4.1726 -0.9410
 7911SOL     OW35191   0.624   2.384   3.213  0.1698  0.4158  0.0124
 7911SOL    HW135192   0.678   2.341   3.147  0.2523  0.7414 -0.1288
 7911SOL    HW235193   0.535   2.375   3.180 -0.4110  1.0021  1.3830
 7912SOL     OW35194   3.665   4.345  16.779  0.0908  0.5903  0.4971
 7912SOL    HW135195   3.576   4.322  16.756 -0.2367  1.3648  0.9901
 7912SOL    HW235196   3.672   4.435  16.747 -0.5810 -0.0691 -1.4960
 7913SOL     OW35197   1.791   4.697   9.908 -0.3158  0.2409 -0.1264
 7913SOL    HW135198   1.722   4.675   9.970 -0.1542 -1.4208 -0.5389
 7913SOL    HW235199   1.825   4.608   9.900 -0.2055  0.2280  0.5244
 7914SOL     OW35200   4.582   4.640   2.675  0.0646 -0.5535 -0.0560
 7914SOL    HW135201   4.659   4.679   2.717 -1.3620 -0.5978  2.5522
 7914SOL    HW235202   4.527   4.719   2.672 -1.2287 -1.5004 -1.5806
 7915SOL     OW35203   0.741   1.515   2.840 -0.1356  0.9796  0.0944
 7915SOL    HW135204   0.816   1.469   2.803  0.0665  1.7586 -0.4797
 7915SOL    HW235205   0.695   1.440   2.878  1.0731  0.8984  1.3862
 7916SOL     OW35206   1.662   0.624   1.215  0.3548 -0.9110 -0.0617
 7916SOL    HW135207   1.721   0.610   1.140 -1.1600  2.2066 -1.8284
 7916SOL    HW235208   1.605   0.550   1.194  0.4967 -0.3915 -2.2765
 7917SOL     OW35209   4.048   1.144  17.383  0.5964 -0.2558 -0.4142
 7917SOL    HW135210   4.117   1.089  17.346  1.0972  0.0468  0.0652
 7917SOL    HW235211   3.991   1.142  17.307  0.2520  1.1782 -0.1850
 7918SOL     OW35212   2.904   4.391   6.110  0.6744  0.0277 -0.0562
 7918SOL    HW135213   2.935   4.375   6.199 -1.1898 -0.2271  0.5505
 7918SOL    HW235214   2.954   4.326   6.061  0.8247  0.5712 -0.6101
 7919SOL     OW35215   3.884   0.450  16.954  0.1819  0.1603  0.6016
 7919SOL    HW135216   3.953   0.461  16.888 -0.1818  3.8008  0.8405
 7919SOL    HW235217   3.808   0.416  16.908 -0.8244  0.8225  1.7657
 7920SOL     OW35218   0.644   3.988   2.193  0.0713 -0.0312 -0.4627
 7920SOL    HW135219   0.570   4.014   2.248 -0.6255 -0.3609 -1.2603
 7920SOL    HW235220   0.681   3.913   2.239 -0.1153 -0.7642 -1.5267
 7921SOL     OW35221   4.516   1.236   4.207  0.5121 -0.3041  0.3906
 7921SOL    HW135222   4.547   1.319   4.170 -2.7035  1.8136  2.3543
 7921SOL    HW235223   4.452   1.264   4.274  0.7769  3.1875 -0.8033
 7922SOL     OW35224   0.240   2.189  12.046 -0.7369 -0.2746  0.4374
 7922SOL    HW135225   0.276   2.105  12.076 -2.2359 -0.2559  2.2226
 7922SOL    HW235226   0.310   2.216  11.987 -0.9336  2.9070  1.6874
 7923SOL     OW35227   2.018   3.312  12.373 -0.2031 -0.1848 -0.3141
 7923SOL    HW135228   2.060   3.297  12.458  0.4869  0.1585 -0.5945
 7923SOL    HW235229   1.940   3.258  12.375 -0.0445 -0.3855  0.8951
 7924SOL     OW35230   0.415   4.539   6.119 -0.3198 -0.0553 -0.3914
 7924SOL    HW135231   0.405   4.454   6.076  0.7975 -0.7658  0.7378
 7924SOL    HW235232   0.393   4.509   6.207 -0.8874 -0.2557 -0.6005
 7925SOL     OW35233   1.974   4.721   0.017 -0.0409  0.0998  0.3244
 7925SOL    HW135234   1.990   0.063   0.085  3.2368 -1.4335  1.0536
 7925SOL    HW235235   1.898   0.029  17.665  0.2231  0.9823  0.4935
 7926SOL     OW35236   3.894   2.280   4.233  0.4221  0.4513 -0.2918
 7926SOL    HW135237   3.855   2.193   4.222 -0.5032  0.7558  0.6228
 7926SOL    HW235238   3.905   2.301   4.140  2.9329  0.5625  0.0322
 7927SOL     OW35239   1.951   0.551   5.422  0.2644 -0.2744 -0.2941
 7927SOL    HW135240   1.973   0.462   5.449 -2.7170 -1.1154 -0.6092
 7927SOL    HW235241   1.865   0.560   5.463 -0.6091  0.6939 -2.3401
 7928SOL     OW35242   4.506   3.057   4.001  0.3498 -0.0058 -0.5494
 7928SOL    HW135243   4.560   2.983   3.973 -0.4311 -0.4620 -0.8329
 7928SOL    HW235244   4.436   3.008   4.044  0.6446 -0.3481 -0.4554
 7929SOL     OW35245   1.714   3.681   6.288  0.6559 -0.2870 -0.6130
 7929SOL    HW135246   1.747   3.592   6.299 -0.1799 -0.6223 -0.8085
 7929SOL    HW235247   1.685   3.707   6.376  1.1474 -0.1887 -0.4806
 7930SOL     OW35248   1.401   2.318   7.334 -0.2269  0.5990  0.3950
 7930SOL    HW135249   1.478   2.365   7.366 -1.3208  0.7405  2.7883
 7930SOL    HW235250   1.364   2.390   7.282  1.2849  0.6083 -0.6526
 7931SOL     OW35251   2.282   0.211   2.079 -0.2133  0.2806 -0.1072
 7931SOL    HW135252   2.202   0.236   2.033  0.3103 -0.0807 -1.2048
 7931SOL    HW235253   2.311   0.157   2.005 -1.2139 -0.9633  0.3954
 7932SOL     OW35254   2.993   3.279   0.280 -0.0950  0.2552 -0.1172
 7932SOL    HW135255   3.001   3.255   0.372  1.2301 -0.9261 -0.5443
 7932SOL    HW235256   2.994   3.198   0.229  0.4072 -1.8350  3.1933
 7933SOL     OW35257   2.677   4.578   8.320  0.0364  0.3111  0.0082
 7933SOL    HW135258   2.606   4.516   8.305  0.3134  0.2825 -1.1720
 7933SOL    HW235259   2.752   4.543   8.271 -0.7379 -0.8789 -0.3180
 7934SOL     OW35260   3.736   3.211   1.016 -0.6488 -0.0137  0.2445
 7934SOL    HW135261   3.817   3.182   0.973 -1.7840 -1.5350 -0.8647
 7934SOL    HW235262   3.681   3.246   0.946 -0.7867 -0.2996  0.2085
 7935SOL     OW35263   2.416   3.127  17.470 -0.2907 -0.4810 -0.1698
 7935SOL    HW135264   2.506   3.097  17.486 -0.1510  0.8864  1.6218
 7935SOL    HW235265   2.404   3.179  17.549 -2.2550 -1.9847  0.5319
 7936SOL     OW35266   1.249   4.181   8.729  0.1288 -0.0410 -0.4257
 7936SOL    HW135267   1.316   4.228   8.779 -0.5897  0.3837  0.1377
 7936SOL    HW235268   1.226   4.253   8.670  2.4847  1.8051  0.9336
 7937SOL     OW35269   4.057   2.583   9.090 -0.3366  0.5519 -0.1709
 7937SOL    HW135270   4.065   2.647   9.161 -2.0059  0.8393 -0.2576
 7937SOL    HW235271   3.962   2.572   9.091 -0.2154 -0.5546 -0.3826
 7938SOL     OW35272   4.509   1.020   1.753  0.1552 -0.1005  0.5543
 7938SOL    HW135273   4.599   0.990   1.764  0.8026  0.2597 -3.6546
 7938SOL    HW235274   4.478   0.985   1.836 -0.7233 -0.2784  0.1576
 7939SOL     OW35275   0.842   3.970  17.144  0.3240  0.0996 -0.5323
 7939SOL    HW135276   0.872   3.964  17.053  0.9810 -1.7397 -0.2059
 7939SOL    HW235277   0.893   3.902  17.188  0.0788  0.6912  0.6854
 7940SOL     OW35278   2.444   1.658   6.007  0.7818  0.0408 -0.0855
 7940SOL    HW135279   2.406   1.593   5.948  1.1466 -0.6637  0.4676
 7940SOL    HW235280   2.366   1.668   6.063  0.9732 -2.2249  0.5588
 7941SOL     OW35281   0.366   4.511   4.692  0.3455  0.3732  0.0360
 7941SOL    HW135282   0.294   4.509   4.754 -0.2997  1.4192 -0.6870
 7941SOL    HW235283   0.440   4.483   4.746 -0.3060 -0.4384  0.4997
 7942SOL     OW35284   1.123   4.217   9.068 -0.5869 -0.4790  0.0719
 7942SOL    HW135285   1.203   4.175   9.037 -0.9190 -0.0582 -1.3755
 7942SOL    HW235286   1.081   4.145   9.116  0.1539 -0.5350  0.6443
 7943SOL     OW35287   0.698   0.526  15.636 -0.2885  0.1089 -0.1260
 7943SOL    HW135288   0.729   0.555  15.551  0.6916  1.3862  0.6618
 7943SOL    HW235289   0.657   0.603  15.676  1.4144  1.5609 -1.2051
 7944SOL     OW35290   1.265   3.217  14.370 -0.0490 -0.2360  0.2398
 7944SOL    HW135291   1.266   3.184  14.280  0.1534 -0.6893  0.4067
 7944SOL    HW235292   1.271   3.311  14.354 -0.3304  0.0395  1.7493
 7945SOL     OW35293   1.164   3.685   6.731 -0.1973  0.1436 -0.1425
 7945SOL    HW135294   1.189   3.593   6.738  1.2812  0.5806  0.3364
 7945SOL    HW235295   1.083   3.672   6.681 -0.2487  0.0893 -0.0455
 7946SOL     OW35296   0.173   3.319   8.516 -1.0927  0.6149  0.3910
 7946SOL    HW135297   0.145   3.365   8.595 -3.1026 -0.1584  0.1352
 7946SOL    HW235298   0.090   3.286   8.480  0.4349 -0.5343 -2.0253
 7947SOL     OW35299   2.459   0.213   3.841 -0.2834 -0.1529 -0.0532
 7947SOL    HW135300   2.553   0.227   3.848 -0.7805  2.2849  1.6705
 7947SOL    HW235301   2.437   0.168   3.923  0.0412  0.5856  0.4429
 7948SOL     OW35302   1.783   0.767   9.770  0.3921  0.7760  0.1742
 7948SOL    HW135303   1.739   0.779   9.686  1.2992 -1.6368 -0.6492
 7948SOL    HW235304   1.819   0.854   9.787 -1.2334  1.0813  2.0737
 7949SOL     OW35305   0.995   4.079  15.589  0.0159 -0.3338  0.5499
 7949SOL    HW135306   1.014   4.170  15.611  0.5800 -0.7663  1.8441
 7949SOL    HW235307   0.910   4.065  15.631 -0.3182 -0.3153 -0.1099
 7950SOL     OW35308   1.907   0.727  16.066  0.2532 -0.3919  0.5650
 7950SOL    HW135309   1.839   0.794  16.071 -0.4446 -0.9409 -1.6189
 7950SOL    HW235310   1.838   0.662  16.085 -1.3181  0.4615 -2.2870
 7951SOL     OW35311   3.692   2.964   4.531 -0.1083 -0.3042  0.2955
 7951SOL    HW135312   3.629   2.893   4.518 -0.6651  0.7936 -3.0445
 7951SOL    HW235313   3.727   2.960   4.442 -0.5834  2.5050 -0.0327
 7952SOL     OW35314   4.595   0.946   8.611 -0.7467  0.1645 -0.5042
 7952SOL    HW135315   4.546   0.866   8.593 -2.9290  1.7276 -1.4338
 7952SOL    HW235316   4.627   0.951   8.520  1.4096  1.5323  0.3183
 7953SOL     OW35317   0.277   0.112   6.660  0.1965  0.3874 -0.2896
 7953SOL    HW135318   0.214   0.157   6.604 -1.9167 -1.5001  0.5896
 7953SOL    HW235319   0.294   0.170   6.734  0.7992 -0.2457  0.0560
 7954SOL     OW35320   2.015   0.245   6.348 -0.2673 -0.4911 -0.6291
 7954SOL    HW135321   2.102   0.233   6.386 -0.3109  1.7046  0.1472
 7954SOL    HW235322   2.008   0.168   6.292 -2.5099 -0.7415 -0.0270
 7955SOL     OW35323   4.073   1.664   0.118 -0.4303 -0.4825 -0.1448
 7955SOL    HW135324   4.038   1.752   0.104 -3.0714 -1.5407 -0.3987
 7955SOL    HW235325   4.156   1.657   0.071  0.0956  0.9394  0.5879
 7956SOL     OW35326   1.180   1.962  16.304  0.3496 -0.1421  0.1750
 7956SOL    HW135327   1.247   2.021  16.269 -2.2446  2.6707 -0.0329
 7956SOL    HW235328   1.104   2.004  16.263  1.1156 -0.9416 -2.0798
 7957SOL     OW35329   3.080   0.142   5.959 -0.3487  0.0169  0.2348
 7957SOL    HW135330   3.143   0.214   5.951 -1.0093  0.5411 -0.3047
 7957SOL    HW235331   3.097   0.122   6.051 -0.2217 -0.6870  0.0554
 7958SOL     OW35332   4.218   0.405   5.896  0.5318  0.0744  0.2251
 7958SOL    HW135333   4.220   0.456   5.977 -1.0652  1.8826 -0.8796
 7958SOL    HW235334   4.240   0.469   5.829  0.0458  0.4418  0.4155
 7959SOL     OW35335   0.506   0.763   9.830  0.6259  0.1114  0.0431
 7959SOL    HW135336   0.442   0.748   9.760  1.4825  0.4686 -0.8212
 7959SOL    HW235337   0.449   0.743   9.904 -1.9613  1.7897 -1.4796
 7960SOL     OW35338   0.127   4.184  12.229  0.1364 -0.1919  0.1938
 7960SOL    HW135339   0.174   4.117  12.279 -0.0118  1.0766  2.0077
 7960SOL    HW235340   0.200   4.245  12.217  0.3475 -0.6815 -1.0460
 7961SOL     OW35341   2.649   1.766   6.305 -0.1272 -0.2636 -0.0420
 7961SOL    HW135342   2.662   1.858   6.328  0.4931 -0.1204 -0.9656
 7961SOL    HW235343   2.560   1.753   6.339  0.8278 -1.8711  1.8805
 7962SOL     OW35344   0.082   0.277  13.989  0.0933 -0.1885  0.2295
 7962SOL    HW135345   0.036   0.195  13.970 -1.9399  1.3892 -1.7075
 7962SOL    HW235346   0.023   0.345  13.956  0.2189  0.2853  0.9985
 7963SOL     OW35347   3.699   1.087  15.788 -1.0529 -0.6884 -0.1961
 7963SOL    HW135348   3.789   1.085  15.821 -1.6040 -0.1103  1.3504
 7963SOL    HW235349   3.675   1.178  15.806 -1.2261 -1.0964  1.6361
 7964SOL     OW35350   4.419   1.715   4.291  0.1211 -0.1566  0.3358
 7964SOL    HW135351   4.387   1.805   4.277  1.9091  0.3048 -0.7377
 7964SOL    HW235352   4.344   1.668   4.255  0.8792 -0.3398 -0.9869
 7965SOL     OW35353   1.536   4.077   6.893 -0.1089  0.2018 -0.2839
 7965SOL    HW135354   1.626   4.103   6.873  1.2720 -2.9831  1.6355
 7965SOL    HW235355   1.515   4.136   6.965 -2.0766 -3.3667  2.0964
 7966SOL     OW35356   2.728   2.149   2.994  0.4515 -0.2848 -0.4330
 7966SOL    HW135357   2.779   2.194   2.928 -0.7120  0.8331 -0.5726
 7966SOL    HW235358   2.674   2.222   3.024  1.7337  0.6730 -0.4592
 7967SOL     OW35359   3.093   2.831   8.287  0.1177  0.0760 -0.4526
 7967SOL    HW135360   3.052   2.876   8.213 -1.7612  0.6228  0.9311
 7967SOL    HW235361   3.025   2.767   8.307  1.3007 -1.1730 -0.4427
 7968SOL     OW35362   2.115   2.060   5.231 -0.1427  0.6679  0.2052
 7968SOL    HW135363   2.152   2.011   5.158  0.4926  0.0386  0.9472
 7968SOL    HW235364   2.027   2.023   5.241 -0.1484 -0.0931 -2.8878
 7969SOL     OW35365   2.429   1.284  11.817 -0.3133  0.3103 -0.4132
 7969SOL    HW135366   2.484   1.348  11.772 -2.3783  2.9202  0.8169
 7969SOL    HW235367   2.490   1.211  11.805  1.4782  1.4626  1.8804
 7970SOL     OW35368   2.929   2.116  16.638 -0.7793 -0.0965  0.1743
 7970SOL    HW135369   2.854   2.119  16.697 -0.5695 -0.9109  0.4902
 7970SOL    HW235370   2.950   2.022  16.640  0.5216  0.1989  0.5542
 7971SOL     OW35371   1.372   3.532   7.920  0.2484  0.6618  0.1664
 7971SOL    HW135372   1.424   3.535   8.000 -0.3740  0.2929  0.5838
 7971SOL    HW235373   1.422   3.602   7.878 -0.6778  1.2377  0.0018
 7972SOL     OW35374   3.651   4.378  17.052  0.2382  0.2464 -0.0542
 7972SOL    HW135375   3.659   4.349  16.961 -2.2053 -0.9894  0.1389
 7972SOL    HW235376   3.579   4.438  17.034  1.7579  1.6289 -1.5768
 7973SOL     OW35377   0.372   1.839   8.643 -0.0364  0.0174  0.5596
 7973SOL    HW135378   0.372   1.761   8.588  0.5861  0.3382  0.1035
 7973SOL    HW235379   0.343   1.790   8.720  2.1808 -0.0581  1.3424
 7974SOL     OW35380   1.241   1.626  11.867 -0.2024 -0.1665 -0.0011
 7974SOL    HW135381   1.158   1.585  11.894 -0.5637  0.8945  0.4859
 7974SOL    HW235382   1.218   1.658  11.780 -4.0476  2.3241  1.9467
 7975SOL     OW35383   1.348   3.719  14.067 -0.0161  1.0951  0.3157
 7975SOL    HW135384   1.284   3.727  14.138  0.0741  2.3122  0.2620
 7975SOL    HW235385   1.419   3.772  14.103  0.2781  1.0725 -0.2236
 7976SOL     OW35386   1.559   3.503   8.989 -0.7539  0.1292  0.9022
 7976SOL    HW135387   1.508   3.432   8.948 -1.4768  1.3044 -0.2193
 7976SOL    HW235388   1.645   3.474   8.959 -0.9689  0.0297  0.3773
 7977SOL     OW35389   1.939   4.176   6.389 -0.2574  0.2061  0.2620
 7977SOL    HW135390   1.846   4.177   6.410 -0.5890 -1.3900 -1.1074
 7977SOL    HW235391   1.963   4.096   6.436 -1.9390  0.0254  0.8074
 7978SOL     OW35392   0.008   2.983   2.086 -0.3347 -0.8872  0.2093
 7978SOL    HW135393   0.089   3.035   2.090 -0.8212 -0.1017 -0.0816
 7978SOL    HW235394   0.030   2.906   2.033 -4.2364 -2.6818  1.1920
 7979SOL     OW35395   3.376   3.440   9.998  0.4446  0.3186  1.0312
 7979SOL    HW135396   3.340   3.369   9.943 -0.5186  0.7832  1.0703
 7979SOL    HW235397   3.293   3.481  10.021  0.6408  1.4986 -0.3563
 7980SOL     OW35398   0.471   1.345  15.727 -0.3005 -0.5520  0.2597
 7980SOL    HW135399   0.502   1.256  15.745 -1.2921 -0.7887  0.7825
 7980SOL    HW235400   0.533   1.371  15.659  0.3624  0.7697  1.3551
 7981SOL     OW35401   1.511   0.066   5.261 -0.3780  0.4781  0.1365
 7981SOL    HW135402   1.573   0.054   5.333  0.9496  0.3862 -1.0203
 7981SOL    HW235403   1.499   4.696   5.243  0.7106 -0.0077  1.9636
 7982SOL     OW35404   3.442   2.135   2.001 -0.3631 -0.0670  0.0512
 7982SOL    HW135405   3.446   2.183   2.083 -2.4932  2.4542 -1.2891
 7982SOL    HW235406   3.347   2.125   1.998 -0.5048  1.5437 -1.1052
 7983SOL     OW35407   4.186   2.321   8.467 -0.1281  0.9489  0.1977
 7983SOL    HW135408   4.199   2.415   8.453 -1.7104  0.7056 -3.0200
 7983SOL    HW235409   4.146   2.295   8.384  0.6853  1.3768 -0.3282
 7984SOL     OW35410   2.619   2.020   6.434  0.6229 -0.7956  0.3695
 7984SOL    HW135411   2.668   2.101   6.423 -1.2739  0.4535  1.0294
 7984SOL    HW235412   2.544   2.050   6.486  1.4770  1.4170  0.3369
 7985SOL     OW35413   0.201   4.082  11.861 -0.0678 -0.0637 -0.0830
 7985SOL    HW135414   0.290   4.112  11.847  0.1525  0.5805  2.6521
 7985SOL    HW235415   0.151   4.161  11.841  1.3808  0.5951 -1.0286
 7986SOL     OW35416   0.693   2.430   7.665  0.2578  0.1810 -0.3139
 7986SOL    HW135417   0.736   2.384   7.593 -2.0708  0.7310 -2.0801
 7986SOL    HW235418   0.761   2.490   7.695 -1.1315  1.1709  0.8229
 7987SOL     OW35419   0.116   3.761   2.739  0.3277  0.2089 -0.0627
 7987SOL    HW135420   0.172   3.704   2.792  0.8969  0.1928 -0.6773
 7987SOL    HW235421   0.065   3.706   2.680 -0.3878  0.3746  0.4127
 7988SOL     OW35422   0.107   3.705   4.489  0.1837 -0.1081  0.7444
 7988SOL    HW135423   0.177   3.754   4.532  0.8178  1.0010 -1.5349
 7988SOL    HW235424   0.155   3.667   4.416  2.0229 -0.7168  2.2810
 7989SOL     OW35425   2.205   3.757   4.612 -0.0209  0.2350  0.4038
 7989SOL    HW135426   2.115   3.726   4.617  0.1754 -0.1593  1.3992
 7989SOL    HW235427   2.197   3.836   4.558 -0.9789 -1.3094 -1.6985
 7990SOL     OW35428   2.881   4.443   9.176  0.6706  0.3495  0.5533
 7990SOL    HW135429   2.922   4.371   9.223  0.6017  0.5567  0.9238
 7990SOL    HW235430   2.959   4.488   9.142 -1.5241  2.4523 -1.7250
 7991SOL     OW35431   4.192   4.308   9.446 -0.0770  0.1172 -0.2673
 7991SOL    HW135432   4.242   4.374   9.495  0.4774 -1.5951  1.4486
 7991SOL    HW235433   4.207   4.240   9.512 -1.3105 -0.8846 -1.0271
 7992SOL     OW35434   2.272   0.188   2.574 -0.4280 -0.0974 -0.1062
 7992SOL    HW135435   2.284   0.189   2.479 -0.4621  2.4530 -0.0623
 7992SOL    HW235436   2.244   0.277   2.593 -2.4113 -0.6564 -0.3598
 7993SOL     OW35437   2.019   4.351   9.234 -0.2053 -0.4387 -0.0167
 7993SOL    HW135438   1.950   4.329   9.296  0.1437 -0.5937  0.3149
 7993SOL    HW235439   2.102   4.312   9.262  0.2007  1.5023  1.4258
 7994SOL     OW35440   3.736   2.821   3.686 -0.2651 -0.2438 -0.4323
 7994SOL    HW135441   3.692   2.808   3.602 -0.9418  4.3344 -0.7691
 7994SOL    HW235442   3.813   2.766   3.669  1.0138  0.7024  2.3173
 7995SOL     OW35443   3.146   3.478   2.374 -0.0583  0.5559  0.0710
 7995SOL    HW135444   3.078   3.419   2.405  0.7422 -0.0317  0.6872
 7995SOL    HW235445   3.166   3.444   2.287  0.5689  0.2624  0.3270
 7996SOL     OW35446   1.381   4.521   1.490  0.0747  0.6269  0.3034
 7996SOL    HW135447   1.336   4.513   1.575  3.6998 -1.2672  2.0586
 7996SOL    HW235448   1.379   4.428   1.469  0.6568  0.4516  0.9969
 7997SOL     OW35449   3.768   3.638   8.829 -0.4191  0.2415 -0.2824
 7997SOL    HW135450   3.676   3.613   8.832 -0.3148  0.0272  1.3048
 7997SOL    HW235451   3.811   3.553   8.827 -2.1492 -0.6471  0.8917
 7998SOL     OW35452   4.383   3.381   5.976  1.0252 -0.1442  0.3523
 7998SOL    HW135453   4.433   3.341   5.905 -2.2437  1.8058 -3.0700
 7998SOL    HW235454   4.300   3.404   5.935  1.1862  0.7454  0.5251
 7999SOL     OW35455   4.234   0.220  11.012  0.0995 -0.3084 -0.4520
 7999SOL    HW135456   4.273   0.133  11.004 -0.3677 -0.3306 -2.7033
 7999SOL    HW235457   4.140   0.206  11.011 -0.1104  1.3234 -3.2402
 8000SOL     OW35458   2.598   3.234   0.977  0.0232 -0.3279 -0.2579
 8000SOL    HW135459   2.604   3.298   1.049 -0.7094  0.6239 -1.0513
 8000SOL    HW235460   2.692   3.218   0.976  0.1157  0.0658  1.6362
 8001SOL     OW35461   2.826   3.016   8.888  0.6098 -0.5992  0.1361
 8001SOL    HW135462   2.819   3.004   8.983 -0.0424  1.6541  0.3761
 8001SOL    HW235463   2.771   3.094   8.877 -0.6868 -1.3941  0.9708
 8002SOL     OW35464   3.624   0.661   3.743 -0.3825  0.1597  0.6823
 8002SOL    HW135465   3.568   0.583   3.744  2.1222 -1.6192  0.9592
 8002SOL    HW235466   3.557   0.704   3.690 -0.4969 -0.5289  0.2660
 8003SOL     OW35467   1.544   3.587   6.882  0.1349 -0.1941  0.0401
 8003SOL    HW135468   1.611   3.601   6.814 -0.0332 -1.1052 -0.3024
 8003SOL    HW235469   1.524   3.496   6.863 -1.2125  0.3548 -1.1933
 8004SOL     OW35470   0.872   4.568  17.068 -0.9208 -0.0509  0.2924
 8004SOL    HW135471   0.957   4.555  17.109 -1.0534  1.4999  1.0699
 8004SOL    HW235472   0.828   4.501  17.120  0.7624 -1.9432 -0.7612
 8005SOL     OW35473   0.922   0.081   2.031 -0.0577 -0.2350  0.1415
 8005SOL    HW135474   1.000   0.055   1.983  0.6319  1.2459  0.4571
 8005SOL    HW235475   0.887   0.154   1.980  1.9491 -0.4849 -1.5907
 8006SOL     OW35476   3.006   4.042   2.800 -0.2791  0.1185  0.1809
 8006SOL    HW135477   3.027   4.120   2.749  0.0148  0.4194  0.7605
 8006SOL    HW235478   2.914   4.027   2.777 -0.9956 -0.2352  3.1670
 8007SOL     OW35479   0.258   0.071   7.765  0.0869  0.4104 -0.7335
 8007SOL    HW135480   0.241   0.131   7.692  0.6742 -0.6505 -1.7427
 8007SOL    HW235481   0.327   0.021   7.722  0.7914  2.7148 -2.2955
 8008SOL     OW35482   2.507   3.273   1.710 -0.1010  0.4882  0.1244
 8008SOL    HW135483   2.446   3.228   1.769  0.5404 -1.5120 -0.7398
 8008SOL    HW235484   2.448   3.277   1.635  0.1664  0.0275 -0.1117
 8009SOL     OW35485   3.905   4.503  17.003  0.2829 -0.0205 -0.1144
 8009SOL    HW135486   3.945   4.434  16.951 -0.6297  0.0438 -0.8994
 8009SOL    HW235487   3.823   4.470  17.040 -0.0588  0.3890 -0.4963
 8010SOL     OW35488   0.016   3.819   0.826  0.4441 -0.8541 -0.1059
 8010SOL    HW135489   0.043   3.902   0.866  0.0495 -0.1819 -1.2661
 8010SOL    HW235490   4.657   3.806   0.872  1.1276  2.7794  2.1696
 8011SOL     OW35491   2.587   2.081  10.198  0.0415  0.3753  0.2983
 8011SOL    HW135492   2.596   2.045  10.110  1.4843 -0.3885  0.7507
 8011SOL    HW235493   2.499   2.118  10.204  0.4560  1.3778  0.0848
 8012SOL     OW35494   0.153   1.389   8.370  0.0884 -0.3533 -0.1779
 8012SOL    HW135495   0.207   1.310   8.374 -0.6986 -0.7606  2.1568
 8012SOL    HW235496   0.157   1.406   8.276 -0.7573 -0.0572 -0.1547
 8013SOL     OW35497   0.544   2.460   5.157  0.0473  0.0981  0.0363
 8013SOL    HW135498   0.614   2.402   5.187  0.4863 -0.4070 -1.9989
 8013SOL    HW235499   0.591   2.542   5.139  0.9613 -0.0180  1.8107
 8014SOL     OW35500   1.483   3.708   0.597  0.0417  0.0634  0.2788
 8014SOL    HW135501   1.489   3.613   0.595 -1.9501 -0.0960  2.0182
 8014SOL    HW235502   1.410   3.717   0.536  1.3942  0.9126 -1.2349
 8015SOL     OW35503   0.704   0.948   7.209  0.0197  0.1832 -0.3317
 8015SOL    HW135504   0.751   0.868   7.186  0.2410 -0.2663  1.6772
 8015SOL    HW235505   0.728   0.967   7.300  0.2639 -0.1516 -0.3259
 8016SOL     OW35506   2.745   1.379   4.946 -0.9527  0.5993 -0.4934
 8016SOL    HW135507   2.752   1.307   4.884  0.9139  0.2168  0.1552
 8016SOL    HW235508   2.791   1.454   4.909  0.3851 -0.0501 -0.1492
 8017SOL     OW35509   2.837   2.524   7.476 -0.4613 -0.2074  0.0154
 8017SOL    HW135510   2.887   2.519   7.395 -0.4528 -1.4559  0.0940
 8017SOL    HW235511   2.865   2.608   7.513 -2.2392 -0.5017  2.0239
 8018SOL     OW35512   0.122   1.439   1.104  1.0460 -0.1373  0.1925
 8018SOL    HW135513   0.109   1.360   1.156 -0.8603  1.1714  1.7393
 8018SOL    HW235514   0.094   1.503   1.170 -0.0874 -1.1868  0.7285
 8019SOL     OW35515   3.897   1.498   2.190 -1.2872  0.3437  0.1896
 8019SOL    HW135516   3.902   1.402   2.183 -1.2207  0.3072  0.7730
 8019SOL    HW235517   3.831   1.506   2.259 -3.6778  0.2246 -2.1033
 8020SOL     OW35518   2.176   3.133   4.718 -0.1030  0.1060  0.0314
 8020SOL    HW135519   2.173   3.077   4.795  0.1778  1.4709  1.0389
 8020SOL    HW235520   2.227   3.075   4.661  0.9030 -0.8185  1.8777
 8021SOL     OW35521   2.465   0.457  17.400 -0.1595 -1.1377 -0.1043
 8021SOL    HW135522   2.550   0.471  17.357  0.5430 -1.5321  1.1733
 8021SOL    HW235523   2.414   0.488  17.325 -0.3287  1.8375  1.2113
 8022SOL     OW35524   4.101   0.208   4.666  0.1176 -0.6848  0.1437
 8022SOL    HW135525   4.103   0.125   4.714 -1.1602 -0.6096  0.3199
 8022SOL    HW235526   4.195   0.211   4.647 -0.3723  1.3168 -1.9359
 8023SOL     OW35527   0.084   0.180   5.009  0.2584  0.3276  0.5460
 8023SOL    HW135528   0.008   0.142   5.052 -0.6144  1.5827  0.1030
 8023SOL    HW235529   0.141   0.104   4.996 -1.3269 -0.4945 -1.5711
 8024SOL     OW35530   3.706   2.663   8.929 -0.3553  0.1223  0.1392
 8024SOL    HW135531   3.732   2.597   8.994 -1.9756  0.1226  0.7949
 8024SOL    HW235532   3.709   2.747   8.975 -0.2391  0.3672 -0.3183
 8025SOL     OW35533   2.431   0.534  15.208 -0.1451  0.0938  0.1947
 8025SOL    HW135534   2.506   0.518  15.151 -1.7799 -2.0919 -1.3066
 8025SOL    HW235535   2.363   0.547  15.142  1.9961  0.1841 -1.9812
 8026SOL     OW35536   3.642   3.772   7.154 -0.4286 -0.3248 -0.1268
 8026SOL    HW135537   3.624   3.759   7.247 -1.3999  1.5734 -0.0571
 8026SOL    HW235538   3.554   3.786   7.118  0.3264 -1.7789 -2.4792
 8027SOL     OW35539   1.949   1.104   2.422 -0.7996 -0.5208 -0.5554
 8027SOL    HW135540   1.918   1.192   2.398 -1.0116 -0.5279 -0.3051
 8027SOL    HW235541   1.962   1.081   2.330 -0.8830 -3.4635  0.1685
 8028SOL     OW35542   4.094   3.766   8.134 -0.2265 -0.3723 -0.3757
 8028SOL    HW135543   4.082   3.738   8.224 -2.0485  1.4912 -0.0476
 8028SOL    HW235544   4.070   3.689   8.083  2.8843 -0.6674 -1.4426
 8029SOL     OW35545   3.307   0.208   6.473  0.4245 -0.5839 -0.7617
 8029SOL    HW135546   3.376   0.156   6.515  0.4626 -0.9683 -1.2860
 8029SOL    HW235547   3.263   0.254   6.543 -0.9829 -0.4042 -1.7631
 8030SOL     OW35548   3.378   2.931  13.106  0.0897  0.3197 -0.7185
 8030SOL    HW135549   3.317   3.004  13.101  1.0073  1.3808  3.1742
 8030SOL    HW235550   3.403   2.918  13.197 -1.9909 -2.7083 -0.6021
 8031SOL     OW35551   0.631   0.805   8.104 -0.3358  0.7034  0.3025
 8031SOL    HW135552   0.585   0.739   8.051 -1.2223  0.7506  1.0176
 8031SOL    HW235553   0.597   0.884   8.063  1.5902  0.9599 -0.8060
 8032SOL     OW35554   3.616   1.157   2.534 -0.7349  0.3174  0.1984
 8032SOL    HW135555   3.566   1.207   2.469 -0.3405  0.7431  0.2221
 8032SOL    HW235556   3.613   1.228   2.599 -0.5258  1.3380 -0.9009
 8033SOL     OW35557   0.071   3.195  14.081 -0.1862  0.1424 -0.2832
 8033SOL    HW135558   0.080   3.111  14.125  0.3319  0.5487  0.3781
 8033SOL    HW235559   0.120   3.248  14.144  0.9458  2.4946 -3.0764
 8034SOL     OW35560   1.794   0.431   6.492 -0.3295 -0.2786  0.1638
 8034SOL    HW135561   1.870   0.416   6.550  0.1596  0.0100 -0.4082
 8034SOL    HW235562   1.774   0.343   6.460  0.0136 -0.4979  0.5417
 8035SOL     OW35563   1.383   2.912   2.874 -0.4377 -0.2968 -0.3777
 8035SOL    HW135564   1.441   2.858   2.821 -1.6075 -0.5615 -1.3947
 8035SOL    HW235565   1.412   2.883   2.961  0.4870  0.0833 -0.5634
 8036SOL     OW35566   1.721   3.830   0.495  0.1717 -0.2176  0.4446
 8036SOL    HW135567   1.721   3.892   0.568  1.6770  0.3020 -0.0087
 8036SOL    HW235568   1.627   3.812   0.498  0.1724  0.0408  1.8248
 8037SOL     OW35569   0.888   4.180   2.276 -0.1005 -0.3697 -0.1081
 8037SOL    HW135570   0.805   4.144   2.244 -1.3162  0.8620  1.6407
 8037SOL    HW235571   0.863   4.176   2.369 -0.7703 -2.4545 -0.3694
 8038SOL     OW35572   3.459   1.802   8.768  0.2573  0.2440 -1.1507
 8038SOL    HW135573   3.387   1.865   8.760 -1.0471 -0.9730  0.9711
 8038SOL    HW235574   3.403   1.724   8.772  0.1181  0.3454 -1.1136
 8039SOL     OW35575   0.280   3.662   8.880 -0.7699  0.3940  0.0751
 8039SOL    HW135576   0.353   3.606   8.856 -0.9754  1.5176 -3.1937
 8039SOL    HW235577   0.239   3.617   8.953 -0.9853 -0.1400 -0.3790
 8040SOL     OW35578   3.867   4.562  13.614 -0.0857  0.7255  0.0809
 8040SOL    HW135579   3.895   4.519  13.695  0.2287 -0.9378 -0.9149
 8040SOL    HW235580   3.901   4.496  13.553 -0.6510 -0.0752  0.6305
 8041SOL     OW35581   1.926   0.760  10.632  0.4461  0.2624  0.4391
 8041SOL    HW135582   2.014   0.797  10.624  0.0138  1.3793  0.7590
 8041SOL    HW235583   1.938   0.732  10.722  0.3540  1.6105  0.8716
 8042SOL     OW35584   0.311   1.441   5.211 -0.2472  0.5649  0.3837
 8042SOL    HW135585   0.265   1.509   5.162 -1.8871 -1.7584 -1.2499
 8042SOL    HW235586   0.253   1.422   5.285 -0.5486  1.6760  0.4346
 8043SOL     OW35587   1.938   3.174   6.332 -0.5607 -0.3791  0.1880
 8043SOL    HW135588   1.989   3.148   6.256 -1.8486  0.6203 -1.0341
 8043SOL    HW235589   2.002   3.158   6.401 -0.5450 -0.3739  0.1746
 8044SOL     OW35590   1.095   4.215   9.828 -0.6704  0.7002  0.2883
 8044SOL    HW135591   1.001   4.224   9.844 -0.9417 -0.2865 -0.7644
 8044SOL    HW235592   1.101   4.279   9.757 -2.8093  0.1434 -0.3812
 8045SOL     OW35593   0.952   2.427   6.763 -0.2415 -0.0330 -0.2005
 8045SOL    HW135594   0.899   2.378   6.825  1.6060  0.1889  1.5232
 8045SOL    HW235595   0.914   2.515   6.773 -1.0103 -0.1128 -2.3661
 8046SOL     OW35596   2.169   2.364  13.453 -0.4293  0.4575  0.2117
 8046SOL    HW135597   2.246   2.308  13.442  1.1297  2.4754  0.7946
 8046SOL    HW235598   2.195   2.446  13.409 -0.6293 -0.0768 -0.9060
 8047SOL     OW35599   4.272   0.227   2.352 -0.5945 -0.2289 -0.1349
 8047SOL    HW135600   4.329   0.178   2.294  0.2931  0.5003  0.1199
 8047SOL    HW235601   4.188   0.184   2.334  0.3004 -2.3917  0.9560
 8048SOL     OW35602   1.415   4.603  11.340  0.0296  0.7908 -0.0664
 8048SOL    HW135603   1.331   4.575  11.377  0.3817 -0.1809 -0.0009
 8048SOL    HW235604   1.396   4.691  11.309 -1.9609  0.6823  0.8699
 8049SOL     OW35605   1.815   3.684   7.414  0.1567 -0.1122 -0.1535
 8049SOL    HW135606   1.876   3.705   7.486  1.7278 -0.5950 -1.3355
 8049SOL    HW235607   1.813   3.589   7.404 -0.7340 -0.2794  1.6570
 8050SOL     OW35608   3.935   1.047   6.663 -0.0107 -0.1427  0.2223
 8050SOL    HW135609   3.931   1.137   6.693 -1.1322  0.1180 -0.7030
 8050SOL    HW235610   3.843   1.037   6.638 -0.2239  0.1305  0.9155
 8051SOL     OW35611   3.545   2.007   7.485  0.4415  0.0772 -0.0002
 8051SOL    HW135612   3.466   2.051   7.515 -1.1816 -1.6988 -1.6336
 8051SOL    HW235613   3.563   2.052   7.402  0.3447 -0.8607 -0.5322
 8052SOL     OW35614   2.277   1.532  13.355 -0.6977 -0.1681 -0.1666
 8052SOL    HW135615   2.240   1.510  13.270  0.4330 -0.0754 -0.6865
 8052SOL    HW235616   2.363   1.570  13.337 -0.1475 -0.1835  2.4828
 8053SOL     OW35617   0.213   2.273   5.544 -0.3859 -0.3296 -0.1445
 8053SOL    HW135618   0.179   2.222   5.470 -0.8888 -0.6630  0.3187
 8053SOL    HW235619   0.230   2.357   5.501  1.5347 -0.2069  0.8594
 8054SOL     OW35620   2.399   3.072   3.446  0.2877 -0.2082  0.4165
 8054SOL    HW135621   2.368   3.163   3.448 -1.9508 -0.9403 -0.3414
 8054SOL    HW235622   2.482   3.081   3.492  1.3614 -1.6502 -1.2812
 8055SOL     OW35623   4.222   2.083   5.334 -0.6329 -0.1369 -0.3143
 8055SOL    HW135624   4.155   2.096   5.402 -1.7584 -0.9340 -1.2874
 8055SOL    HW235625   4.172   2.036   5.267 -1.9790  0.9146 -0.0415
 8056SOL     OW35626   4.262   2.297   7.552 -0.0467 -0.0331  0.1993
 8056SOL    HW135627   4.270   2.370   7.491 -0.9590  0.6797  0.9231
 8056SOL    HW235628   4.189   2.247   7.514 -0.2287  1.3666 -1.3080
 8057SOL     OW35629   4.590   2.841   8.234 -1.0248 -0.0936  0.5365
 8057SOL    HW135630   4.550   2.913   8.187  1.8801  1.6355  0.6946
 8057SOL    HW235631   4.542   2.772   8.188 -2.2032  0.9794  0.1751
 8058SOL     OW35632   0.590   1.298   6.661 -0.3333 -0.0844  0.2824
 8058SOL    HW135633   0.662   1.363   6.658 -0.8851  0.6560  3.3868
 8058SOL    HW235634   0.637   1.221   6.628  1.3844  0.9255  0.3327
 8059SOL     OW35635   0.957   1.243  12.476  0.2930  0.1537  0.6520
 8059SOL    HW135636   0.869   1.215  12.450  0.7051 -2.4182  2.0594
 8059SOL    HW235637   1.010   1.164  12.466  0.1766 -0.1863  2.8247
 8060SOL     OW35638   2.484   3.955   1.883 -0.1352  0.1055  0.5989
 8060SOL    HW135639   2.442   3.915   1.960 -1.4942 -1.6133 -1.0261
 8060SOL    HW235640   2.412   3.959   1.820 -0.9328 -2.9106  1.2932
 8061SOL     OW35641   3.253   3.557   9.258  0.0728  0.1177 -0.0096
 8061SOL    HW135642   3.330   3.501   9.250  0.0147  0.4020 -2.6397
 8061SOL    HW235643   3.208   3.534   9.176  0.6942  0.4641 -0.4526
 8062SOL     OW35644   2.716   0.557  11.362  0.4301  0.5883 -0.2696
 8062SOL    HW135645   2.747   0.638  11.322  2.0475 -0.3293 -0.9016
 8062SOL    HW235646   2.631   0.588  11.392  0.2843 -0.1598  0.0934
 8063SOL     OW35647   2.021   2.183   8.902 -0.3621 -0.0174 -0.0805
 8063SOL    HW135648   2.029   2.111   8.965 -0.1577 -0.7612 -0.9552
 8063SOL    HW235649   2.005   2.133   8.822 -1.7125 -0.8533  0.7260
 8064SOL     OW35650   4.543   0.629   3.462 -0.9213  0.0306 -0.5512
 8064SOL    HW135651   4.622   0.608   3.412 -0.4482  0.9016 -0.1686
 8064SOL    HW235652   4.480   0.655   3.396 -0.7343 -1.7962 -1.4375
 8065SOL     OW35653   2.167   4.021   3.900 -0.0475  0.3473 -0.1713
 8065SOL    HW135654   2.183   3.953   3.835  1.2226  0.8729 -0.4111
 8065SOL    HW235655   2.215   4.096   3.865 -1.3147  0.6165 -1.3406
 8066SOL     OW35656   2.486   1.110   5.062  0.2969 -0.3301  0.7209
 8066SOL    HW135657   2.404   1.148   5.032  0.6071 -0.3504 -0.1339
 8066SOL    HW235658   2.524   1.159   5.135  0.4861  0.7066 -0.0706
 8067SOL     OW35659   0.742   3.603   4.224 -0.3296 -1.0434  0.1644
 8067SOL    HW135660   0.783   3.517   4.226  1.2944 -0.2486  1.6167
 8067SOL    HW235661   0.713   3.595   4.133  0.2988 -0.6155 -0.0804
 8068SOL     OW35662   4.295   1.146   4.460 -0.2999  0.0209  0.4590
 8068SOL    HW135663   4.384   1.174   4.482 -0.5208 -0.0550  1.4576
 8068SOL    HW235664   4.246   1.226   4.480 -1.7184 -0.7571  0.0593
 8069SOL     OW35665   4.474   0.928   1.515 -0.2555  0.1133 -0.1229
 8069SOL    HW135666   4.474   0.958   1.606  1.1650 -2.1467  0.6329
 8069SOL    HW235667   4.567   0.937   1.495 -0.9293  0.0459 -3.1784
 8070SOL     OW35668   0.738   1.660   3.863  0.5820 -0.1365 -0.1806
 8070SOL    HW135669   0.694   1.632   3.783  0.5345 -0.9704  0.1404
 8070SOL    HW235670   0.685   1.738   3.882  1.0181  0.0393  0.3113
 8071SOL     OW35671   0.278   4.464  11.584 -0.7951  0.5748 -0.0661
 8071SOL    HW135672   0.267   4.495  11.494  1.2468 -1.3411 -0.9807
 8071SOL    HW235673   0.335   4.534  11.617 -2.5779  1.0619  2.0439
 8072SOL     OW35674   0.652   3.629  13.413  0.0069  0.0325  0.2828
 8072SOL    HW135675   0.581   3.682  13.450  0.5984 -0.6504  2.3867
 8072SOL    HW235676   0.645   3.552  13.470  2.3412 -2.0585 -2.2641
 8073SOL     OW35677   0.592   1.174   7.527 -0.2269 -0.0688 -0.8081
 8073SOL    HW135678   0.631   1.089   7.506  1.0865 -0.2248  2.1406
 8073SOL    HW235679   0.500   1.157   7.510 -1.0042  3.1408  0.1811
 8074SOL     OW35680   1.182   1.721   4.941  0.1511 -0.2330 -0.4375
 8074SOL    HW135681   1.104   1.735   4.888  1.4378  0.7351 -2.0840
 8074SOL    HW235682   1.201   1.813   4.956  0.4220 -0.7177  2.1458
 8075SOL     OW35683   1.184   4.585   2.693 -0.0057  0.5341  0.3507
 8075SOL    HW135684   1.196   4.537   2.775  0.5076  3.2268  1.8561
 8075SOL    HW235685   1.165   4.510   2.636  1.7758  1.1002 -1.0102
 8076SOL     OW35686   3.459   4.093   3.315  0.6794 -0.5629 -0.5236
 8076SOL    HW135687   3.450   4.145   3.396 -2.7806 -0.1190 -1.1846
 8076SOL    HW235688   3.373   4.099   3.273 -0.0692 -1.2026  0.8966
 8077SOL     OW35689   0.327   2.731   3.262  0.6485  0.3249  0.6718
 8077SOL    HW135690   0.294   2.646   3.289  2.2584 -0.4510  0.1688
 8077SOL    HW235691   0.393   2.711   3.196  1.1081  2.4982  0.4714
 8078SOL     OW35692   0.127   0.238   4.539 -0.5506  0.3274  0.1194
 8078SOL    HW135693   0.140   0.311   4.599  0.2760  0.6196 -0.4213
 8078SOL    HW235694   0.205   0.184   4.550 -0.9114 -0.1330  0.4194
 8079SOL     OW35695   0.617   2.710  11.386 -0.5995 -0.8219  0.3145
 8079SOL    HW135696   0.659   2.767  11.321 -1.8762 -0.2951 -0.0544
 8079SOL    HW235697   0.552   2.661  11.336  0.8969 -0.0717 -2.3851
 8080SOL     OW35698   3.281   1.062   1.090  0.0123  0.1380 -0.2076
 8080SOL    HW135699   3.366   1.022   1.111 -0.8559 -1.2927  0.5871
 8080SOL    HW235700   3.230   1.015   1.155  0.4957 -2.0540 -1.3990
 8081SOL     OW35701   2.460   0.969   2.781 -0.2890  0.1781 -0.2004
 8081SOL    HW135702   2.368   0.989   2.767 -0.4142  0.3847  0.9722
 8081SOL    HW235703   2.503   1.007   2.704  1.0570  1.6217  1.2952
 8082SOL     OW35704   1.852   2.947   7.986  0.4779 -0.1285 -0.1220
 8082SOL    HW135705   1.823   3.023   8.038  0.8473 -0.1294  0.0805
 8082SOL    HW235706   1.929   2.988   7.946  0.6478 -1.0842 -0.7730
 8083SOL     OW35707   1.621   1.737   8.163 -0.4866 -1.0255 -0.7406
 8083SOL    HW135708   1.660   1.753   8.248 -2.3093  2.5819 -0.5853
 8083SOL    HW235709   1.526   1.743   8.178 -0.8332 -1.5636 -2.6421
 8084SOL     OW35710   3.279   2.944   4.068  0.5031 -0.0703  0.6207
 8084SOL    HW135711   3.284   2.985   3.981  0.1900  2.1998  1.6787
 8084SOL    HW235712   3.185   2.946   4.083 -0.0139  1.6929 -2.8564
 8085SOL     OW35713   3.456   4.435  12.873  0.7586  0.1158 -0.0306
 8085SOL    HW135714   3.414   4.505  12.823 -0.9182 -0.2293  0.9074
 8085SOL    HW235715   3.541   4.429  12.830  1.0530 -0.9937  0.7123
 8086SOL     OW35716   0.957   3.184   5.658  0.1361  0.0415  0.2779
 8086SOL    HW135717   0.909   3.139   5.728  0.0620 -1.7701 -0.9224
 8086SOL    HW235718   0.895   3.241   5.613 -1.0780 -0.9347  0.6908
 8087SOL     OW35719   3.819   0.026   6.203 -0.2530 -0.4429  0.0141
 8087SOL    HW135720   3.779   4.702   6.131  0.4046 -2.6598  1.1224
 8087SOL    HW235721   3.872   4.678   6.239 -0.8431 -1.1073 -0.4582
 8088SOL     OW35722   3.159   2.124  13.615  0.4952  0.0673  0.1513
 8088SOL    HW135723   3.201   2.089  13.537  2.5415  1.1485  0.7543
 8088SOL    HW235724   3.155   2.039  13.659 -3.7104  0.1447 -0.0608
 8089SOL     OW35725   3.532   0.410   7.155  0.9688 -0.2961 -0.0625
 8089SOL    HW135726   3.442   0.403   7.186  0.3720  1.2853 -1.4108
 8089SOL    HW235727   3.538   0.504   7.137  0.0037 -0.1562  0.3887
 8090SOL     OW35728   4.365   0.820   7.211  0.0734 -0.5031  0.1888
 8090SOL    HW135729   4.438   0.759   7.200  1.9528  1.7263  0.2798
 8090SOL    HW235730   4.297   0.776   7.159 -0.6986  0.5856  0.2833
 8091SOL     OW35731   2.948   3.873  15.361  0.4835 -0.3513  0.0843
 8091SOL    HW135732   2.865   3.856  15.406  0.5192  0.0684  0.3086
 8091SOL    HW235733   2.975   3.948  15.414  1.3630  0.0143 -0.8979
 8092SOL     OW35734   1.811   4.400   1.580 -0.3244 -0.2105 -0.2520
 8092SOL    HW135735   1.763   4.481   1.594  0.9480  0.4009  0.6701
 8092SOL    HW235736   1.742   4.335   1.590 -0.0781 -0.2175  1.5607
 8093SOL     OW35737   0.870   1.322   3.215  0.6037  0.1035 -0.4763
 8093SOL    HW135738   0.887   1.347   3.124 -1.3932  1.4345 -0.4913
 8093SOL    HW235739   0.947   1.370   3.244  0.9565 -0.7701  0.0513
 8094SOL     OW35740   1.518   2.086   7.059 -0.5647  0.5180 -0.2565
 8094SOL    HW135741   1.506   2.151   7.129  4.9564  1.3466 -0.1190
 8094SOL    HW235742   1.567   2.135   6.993  1.1294 -0.8137  0.0046
 8095SOL     OW35743   4.082   4.568   7.834  0.3392  0.3591 -0.1227
 8095SOL    HW135744   4.130   4.490   7.861 -1.5282 -0.7496 -0.0287
 8095SOL    HW235745   4.130   4.643   7.868 -0.0513  1.3875 -1.8159
 8096SOL     OW35746   1.055   2.167   6.680 -0.0901 -0.1040  0.0060
 8096SOL    HW135747   1.130   2.162   6.738  0.3274  1.9650 -0.3398
 8096SOL    HW235748   1.017   2.253   6.701  2.6143  0.6551  1.8339
 8097SOL     OW35749   2.020   4.444   2.133 -0.1557  0.7878  0.1101
 8097SOL    HW135750   2.066   4.372   2.090 -0.6879 -1.2826  2.9962
 8097SOL    HW235751   1.992   4.501   2.061 -1.6112  0.5181  0.4574
 8098SOL     OW35752   4.385   1.619  11.777 -0.3401  0.2083  0.0242
 8098SOL    HW135753   4.330   1.612  11.699  1.2291  0.2958 -1.0676
 8098SOL    HW235754   4.408   1.527  11.791 -0.8739  0.0453 -0.1484
 8099SOL     OW35755   0.123   4.644   5.265 -0.1250 -0.5185 -0.1555
 8099SOL    HW135756   0.038   4.629   5.223 -0.7591  0.2263  0.8700
 8099SOL    HW235757   0.168   4.560   5.252  0.6381 -0.1958  0.4445
 8100SOL     OW35758   2.980   2.010   2.888  0.1734 -0.3755  0.5610
 8100SOL    HW135759   2.995   2.090   2.938  2.4494 -0.0216 -0.7040
 8100SOL    HW235760   2.908   1.965   2.932  0.5401 -0.0385  1.5052
 8101SOL     OW35761   0.009   2.491   7.090 -0.1143 -0.9753  0.0768
 8101SOL    HW135762   4.678   2.444   7.153  1.1794 -0.5349  1.5064
 8101SOL    HW235763   0.017   2.423   7.023  0.9550 -0.5461 -0.2291
 8102SOL     OW35764   1.056   4.225   5.648  0.0485  0.2580 -0.6241
 8102SOL    HW135765   0.994   4.157   5.625 -1.1401  1.0842  0.0680
 8102SOL    HW235766   1.078   4.193   5.736  0.6094 -0.2792 -0.9683
 8103SOL     OW35767   3.448   3.340  12.345  0.6094 -0.3950  0.0098
 8103SOL    HW135768   3.370   3.389  12.317  0.6713  0.3212  1.1096
 8103SOL    HW235769   3.506   3.353  12.270 -2.9014 -0.1138 -2.6874
 8104SOL     OW35770   4.144   4.454   0.281 -0.5024  0.4099  0.1673
 8104SOL    HW135771   4.193   4.485   0.205 -0.8950 -0.6861 -0.5484
 8104SOL    HW235772   4.205   4.464   0.353 -0.8508 -2.0415  0.8206
 8105SOL     OW35773   1.775   1.234   7.883 -0.3759  0.5218 -0.4443
 8105SOL    HW135774   1.683   1.213   7.894  0.3122 -1.1023  2.4678
 8105SOL    HW235775   1.808   1.153   7.845  0.1023  0.3241  0.3920
 8106SOL     OW35776   0.113   2.241   9.008 -0.0427 -0.2366  0.1838
 8106SOL    HW135777   0.088   2.153   9.037  2.3789 -2.1314 -3.5420
 8106SOL    HW235778   0.040   2.276   8.958  0.3299  0.8875  0.4285
 8107SOL     OW35779   1.104   4.379   9.613  0.3548  0.0626  0.2763
 8107SOL    HW135780   1.163   4.324   9.562 -0.1984 -0.0486 -0.2482
 8107SOL    HW235781   1.028   4.370   9.555  0.8638  1.0124 -0.5310
 8108SOL     OW35782   2.891   4.488  11.191 -0.4586 -0.1212  0.1449
 8108SOL    HW135783   2.844   4.558  11.146  1.1473  1.3157  0.6860
 8108SOL    HW235784   2.872   4.418  11.129 -0.8488 -0.7953  1.0242
 8109SOL     OW35785   2.600   3.266   2.029  0.3832  0.1502  0.1392
 8109SOL    HW135786   2.691   3.268   2.060  0.5254 -0.2604 -0.2515
 8109SOL    HW235787   2.580   3.174   2.046 -0.5693  0.3086 -0.1730
 8110SOL     OW35788   3.183   3.981   6.439 -0.2690  0.4297  0.1041
 8110SOL    HW135789   3.271   4.010   6.465  0.0027 -0.4863  0.2221
 8110SOL    HW235790   3.204   3.929   6.361  0.8088 -0.0567  0.7125
 8111SOL     OW35791   0.528   0.843   4.536 -0.0095 -0.6228 -0.4732
 8111SOL    HW135792   0.608   0.834   4.589  0.2091  0.5346 -0.6037
 8111SOL    HW235793   0.554   0.775   4.474  0.2698 -1.4888  0.5983
 8112SOL     OW35794   1.508   2.553   7.145  0.0764  0.3392  0.0452
 8112SOL    HW135795   1.556   2.619   7.096 -1.2006  3.1266  2.5423
 8112SOL    HW235796   1.495   2.488   7.075 -1.6683 -0.0833  0.7613
 8113SOL     OW35797   3.792   4.322   2.196  0.0533 -0.4733  0.0070
 8113SOL    HW135798   3.717   4.284   2.243  1.3507  0.7556  3.0286
 8113SOL    HW235799   3.765   4.414   2.198 -1.4731 -0.9181  0.4544
 8114SOL     OW35800   2.347   0.010  11.304 -0.1438 -0.2769 -0.0374
 8114SOL    HW135801   2.374   4.706  11.392  0.3769  0.1976 -0.0509
 8114SOL    HW235802   2.292   0.086  11.322 -0.0711 -0.1110 -0.5159
 8115SOL     OW35803   2.831   2.952   0.724  0.2465  0.0506 -0.7996
 8115SOL    HW135804   2.816   2.909   0.808  1.1818 -2.0355 -1.7122
 8115SOL    HW235805   2.845   3.043   0.751  0.8984 -1.5861  4.2448
 8116SOL     OW35806   0.278   3.113   6.254  0.5037 -0.0216 -0.4033
 8116SOL    HW135807   0.230   3.189   6.288 -0.0843  0.1070 -1.5296
 8116SOL    HW235808   0.204   3.060   6.226  0.6170 -1.0256  1.2195
 8117SOL     OW35809   0.798   2.200   6.570  0.1807  0.1247 -0.6392
 8117SOL    HW135810   0.890   2.176   6.583 -0.6748 -0.2915  4.5289
 8117SOL    HW235811   0.768   2.112   6.548 -2.8334  0.9544  0.2184
 8118SOL     OW35812   0.053   4.681   3.015 -0.1136 -0.3303  0.1437
 8118SOL    HW135813   0.037   0.014   2.939 -0.7825  2.3334  2.2456
 8118SOL    HW235814   4.690   4.641   3.027 -0.5872  0.5441 -0.3200
 8119SOL     OW35815   0.524   0.518   3.924  0.1578 -0.0110  0.3494
 8119SOL    HW135816   0.485   0.435   3.952  2.3024 -0.4706  2.0062
 8119SOL    HW235817   0.456   0.570   3.882  1.2104 -1.3222 -3.0497
 8120SOL     OW35818   3.805   1.170  17.510 -0.0920  0.3317  0.0158
 8120SOL    HW135819   3.891   1.176  17.468  0.2592  0.9152  0.8162
 8120SOL    HW235820   3.757   1.215  17.440 -0.8769 -1.2343 -0.4389
 8121SOL     OW35821   4.644   1.669   0.654  0.7369 -0.0385 -0.0509
 8121SOL    HW135822   4.602   1.654   0.739 -0.9609  0.0119 -0.8837
 8121SOL    HW235823   4.682   1.582   0.644 -1.0714 -0.7942 -0.4814
 8122SOL     OW35824   2.189   1.451   6.862  0.2274  0.5159  0.0208
 8122SOL    HW135825   2.158   1.536   6.893 -1.7021 -0.2823  0.2832
 8122SOL    HW235826   2.242   1.423   6.937  0.2309  2.4966  0.7679
 8123SOL     OW35827   3.417   4.140   4.606 -0.2614  0.0918  0.1577
 8123SOL    HW135828   3.423   4.069   4.670  0.6470 -0.0903 -0.1332
 8123SOL    HW235829   3.464   4.206   4.658 -2.0649  2.9882 -1.8393
 8124SOL     OW35830   4.307   1.843   8.505 -0.2622  0.1645  0.1813
 8124SOL    HW135831   4.256   1.915   8.469  0.5428  0.8945  0.4926
 8124SOL    HW235832   4.240   1.781   8.532 -1.1641  0.3942 -1.5337
 8125SOL     OW35833   4.547   2.807   3.875 -0.5610  0.1908 -0.5353
 8125SOL    HW135834   4.500   2.832   3.795 -2.0055  0.3483  0.3452
 8125SOL    HW235835   4.526   2.714   3.872  0.5535 -0.0417 -1.1636
 8126SOL     OW35836   2.867   0.381   6.471  0.3593  0.5241 -0.0405
 8126SOL    HW135837   2.845   0.303   6.420  0.4774 -0.8287  1.9924
 8126SOL    HW235838   2.859   0.448   6.403 -0.2481  0.6579  0.1635
 8127SOL     OW35839   3.395   0.334   1.074  0.2669  0.0060  0.2339
 8127SOL    HW135840   3.455   0.274   1.118 -0.3483 -0.4236  0.4990
 8127SOL    HW235841   3.411   0.410   1.129 -0.2738  1.2508 -1.3266
 8128SOL     OW35842   4.379   3.510   6.976 -0.2341  0.3645 -0.3890
 8128SOL    HW135843   4.291   3.522   6.939 -0.1811  1.1946 -0.2486
 8128SOL    HW235844   4.422   3.522   6.892 -1.1527 -1.5085 -1.1350
 8129SOL     OW35845   1.280   4.717   3.344 -0.4127  0.1229 -0.6799
 8129SOL    HW135846   1.326   4.633   3.348  0.5322  0.7296  0.8328
 8129SOL    HW235847   1.214   4.705   3.412  0.0288 -2.1309 -0.6405
 8130SOL     OW35848   0.296   4.686   3.649 -0.0931 -0.1199 -0.1375
 8130SOL    HW135849   0.323   4.674   3.558  1.8353 -1.5692  0.6405
 8130SOL    HW235850   0.351   0.036   3.676 -0.0305 -0.2461  0.0814
 8131SOL     OW35851   3.307   4.313  13.712 -0.4800 -0.5544 -0.0834
 8131SOL    HW135852   3.284   4.221  13.729 -3.1117  0.1583  0.2984
 8131SOL    HW235853   3.242   4.344  13.775  2.2746  1.7060  1.6214
 8132SOL     OW35854   0.646   2.525   8.155 -0.2681  0.0517  0.2314
 8132SOL    HW135855   0.708   2.518   8.227 -0.3000 -0.3466  0.2223
 8132SOL    HW235856   0.614   2.435   8.163  0.1441 -0.1764 -0.6942
 8133SOL     OW35857   3.531   1.558  15.552  0.4340 -0.4500  0.6642
 8133SOL    HW135858   3.463   1.491  15.550  1.5579 -1.5914 -0.0054
 8133SOL    HW235859   3.566   1.551  15.463 -1.8888 -1.9312 -0.1117
 8134SOL     OW35860   3.007   1.156   7.181 -0.2683 -0.4873 -0.1979
 8134SOL    HW135861   3.004   1.249   7.160 -2.0005 -0.5162 -0.1021
 8134SOL    HW235862   2.963   1.153   7.266  0.1597  1.1988  0.0784
 8135SOL     OW35863   1.818   1.901   9.693  0.6936  0.0323 -0.6067
 8135SOL    HW135864   1.858   1.926   9.776 -2.8482 -2.7434  1.9360
 8135SOL    HW235865   1.868   1.820   9.684  1.7499  0.9937 -3.4306
 8136SOL     OW35866   1.862   0.595   3.887  0.0889 -0.5086 -0.0977
 8136SOL    HW135867   1.789   0.646   3.921  1.2445  0.6357  0.6889
 8136SOL    HW235868   1.813   0.513   3.884  2.2636 -1.8959  2.2459
 8137SOL     OW35869   4.220   0.209   2.048 -0.7540 -0.3831 -0.3693
 8137SOL    HW135870   4.163   0.194   2.123  0.7572  1.8622  1.2200
 8137SOL    HW235871   4.233   0.120   2.015 -0.3411 -0.3263 -0.3607
 8138SOL     OW35872   2.383   2.118   3.781 -0.4323  0.0796 -0.0564
 8138SOL    HW135873   2.368   2.192   3.840 -0.8818 -2.1873  2.6763
 8138SOL    HW235874   2.294   2.097   3.752 -0.9088 -3.1531  3.8233
 8139SOL     OW35875   1.177   0.018   9.317 -0.2812 -0.3105 -0.1424
 8139SOL    HW135876   1.086   0.033   9.291 -0.2483 -0.6385 -0.4519
 8139SOL    HW235877   1.167   4.648   9.335 -1.4862 -0.0450  0.6119
 8140SOL     OW35878   1.093   0.468   9.162 -0.0488  0.2400 -0.0540
 8140SOL    HW135879   1.177   0.508   9.185  0.1156  0.0788 -0.3799
 8140SOL    HW235880   1.088   0.490   9.069  1.0047  0.3178 -0.0884
 8141SOL     OW35881   0.999   3.249  17.313 -0.2352  0.0499  0.2892
 8141SOL    HW135882   1.011   3.177  17.376 -0.4859 -0.5168 -0.3074
 8141SOL    HW235883   1.014   3.187  17.241  2.0407 -1.3081  1.9421
 8142SOL     OW35884   1.988   0.933  13.690 -0.3677  0.2034 -0.0536
 8142SOL    HW135885   1.944   0.908  13.771  0.9584  0.0360  0.5967
 8142SOL    HW235886   1.930   0.998  13.650 -1.6799  0.5571  2.4127
 8143SOL     OW35887   2.964   1.765   6.657 -0.1984  0.2652 -0.3625
 8143SOL    HW135888   2.956   1.797   6.567 -0.9323  0.5172 -0.2087
 8143SOL    HW235889   2.891   1.704   6.656 -0.8707  1.1154 -2.0703
 8144SOL     OW35890   1.340   3.972  15.659 -0.2104  0.4406  0.4009
 8144SOL    HW135891   1.337   3.998  15.751  0.2890  1.2138  0.2000
 8144SOL    HW235892   1.432   3.948  15.651 -0.3253 -0.3584  1.4987
 8145SOL     OW35893   1.669   3.112   2.283 -0.2477  0.0323 -0.4449
 8145SOL    HW135894   1.700   3.167   2.211 -0.7540 -0.3699 -0.9699
 8145SOL    HW235895   1.616   3.178   2.328  0.3276 -1.1020  1.8719
 8146SOL     OW35896   0.126   0.293  15.003 -0.5659 -0.0179 -0.3060
 8146SOL    HW135897   0.158   0.221  14.949  0.6265  1.5811 -1.7037
 8146SOL    HW235898   0.202   0.313  15.058  0.3785  3.1332 -2.7690
 8147SOL     OW35899   1.142   2.321   3.279  0.6423 -0.1208  0.3162
 8147SOL    HW135900   1.141   2.362   3.365 -1.3652  0.6089 -0.0688
 8147SOL    HW235901   1.072   2.255   3.273  1.3803 -0.9678  1.0297
 8148SOL     OW35902   3.021   2.652   3.299  0.3135 -0.5561 -0.3367
 8148SOL    HW135903   2.960   2.651   3.374 -2.3498  0.0393 -2.5046
 8148SOL    HW235904   3.074   2.729   3.317 -1.3336  0.1160  1.6423
 8149SOL     OW35905   2.185   3.414   4.694  0.3099  0.0189 -0.1387
 8149SOL    HW135906   2.193   3.424   4.600  1.3740  1.6007  0.1179
 8149SOL    HW235907   2.190   3.319   4.705  1.2305 -0.0459 -1.1994
 8150SOL     OW35908   1.174   4.534   0.504  0.2396  0.8091  0.5703
 8150SOL    HW135909   1.119   4.567   0.576  2.6246  1.5222  2.0543
 8150SOL    HW235910   1.250   4.589   0.491 -0.5806  1.8100  0.0653
 8151SOL     OW35911   0.991   1.180   2.928 -0.2327  0.5362  0.3140
 8151SOL    HW135912   1.074   1.142   2.899 -1.3165 -2.3743  1.1034
 8151SOL    HW235913   0.961   1.104   2.977  2.4960 -0.8414 -0.1609
 8152SOL     OW35914   1.056   3.151   4.977  0.1645 -0.0416 -0.1174
 8152SOL    HW135915   1.037   3.107   5.059  0.8971 -0.6242 -0.2532
 8152SOL    HW235916   0.997   3.226   4.979  0.5571  0.2572  0.2511
 8153SOL     OW35917   4.319   0.561  16.930  0.3340 -0.8458 -0.0524
 8153SOL    HW135918   4.328   0.580  16.836  2.7538  0.3512  0.4094
 8153SOL    HW235919   4.228   0.531  16.925  0.3456 -1.1771  1.9735
 8154SOL     OW35920   2.282   1.223   4.936  0.3552 -0.4728 -0.8907
 8154SOL    HW135921   2.263   1.314   4.960  0.7057 -0.7681  0.5218
 8154SOL    HW235922   2.305   1.243   4.846 -2.9118  2.4124 -1.0617
 8155SOL     OW35923   0.245   3.645   7.786  0.2053  0.1738 -0.6804
 8155SOL    HW135924   0.248   3.705   7.712  1.7813  1.1136  0.1573
 8155SOL    HW235925   0.309   3.581   7.755 -0.8851 -1.3752  0.2572
 8156SOL     OW35926   4.460   0.001   3.254 -0.4580  0.1927  0.6235
 8156SOL    HW135927   4.421   4.638   3.266  3.3991 -1.1955  2.9057
 8156SOL    HW235928   4.410   0.048   3.320 -3.0939 -1.5656 -0.1234
 8157SOL     OW35929   0.862   1.765   7.251  0.2048 -0.0503  0.6766
 8157SOL    HW135930   0.889   1.718   7.172 -0.1133 -1.1480  1.2283
 8157SOL    HW235931   0.910   1.709   7.312  1.3315 -0.0293 -0.1865
 8158SOL     OW35932   0.709   4.136   2.985 -0.6119 -0.3413  0.2754
 8158SOL    HW135933   0.789   4.168   3.027 -2.0035  0.9992  1.8982
 8158SOL    HW235934   0.649   4.151   3.057 -0.0037  1.4584  0.4049
 8159SOL     OW35935   1.267   2.483  16.932 -0.3884  0.0042 -0.1996
 8159SOL    HW135936   1.254   2.513  17.023  0.7085 -0.6748  0.1824
 8159SOL    HW235937   1.302   2.562  16.891 -0.5954 -0.2144 -0.7867
 8160SOL     OW35938   4.219   4.219  13.634  0.3016 -0.0252 -0.2207
 8160SOL    HW135939   4.299   4.208  13.685  0.2209  0.2058 -0.0450
 8160SOL    HW235940   4.170   4.237  13.714 -0.2668 -0.7659 -0.4108
 8161SOL     OW35941   4.348   3.932  16.184  0.7226  0.5205 -0.2886
 8161SOL    HW135942   4.295   4.007  16.209  0.6977  0.8416 -1.3026
 8161SOL    HW235943   4.347   3.881  16.265  2.8125  0.9229  0.0054
 8162SOL     OW35944   2.445   0.727   3.838  0.1477 -0.2346  0.0993
 8162SOL    HW135945   2.536   0.711   3.862  0.4715  3.8358  1.6635
 8162SOL    HW235946   2.421   0.639   3.808 -0.1117  0.1093 -0.6985
 8163SOL     OW35947   2.672   3.978   6.867 -0.1017  0.2062  0.0563
 8163SOL    HW135948   2.728   4.011   6.796 -1.1872  1.5447 -0.1748
 8163SOL    HW235949   2.668   3.884   6.848 -1.4487  0.4501 -0.8445
 8164SOL     OW35950   3.265   4.114  11.723 -0.1056 -0.4630 -0.4774
 8164SOL    HW135951   3.297   4.032  11.759 -3.8019 -0.3263  3.0964
 8164SOL    HW235952   3.277   4.099  11.629 -0.0556 -2.3389 -0.1675
 8165SOL     OW35953   2.251   1.873  17.492 -0.2901  0.1634 -0.1321
 8165SOL    HW135954   2.289   1.960  17.499  0.0055  0.0235  0.0198
 8165SOL    HW235955   2.209   1.865  17.578 -1.7302  0.5544 -0.8062
 8166SOL     OW35956   2.417   1.813   3.716  0.3606  0.0560 -0.5444
 8166SOL    HW135957   2.420   1.906   3.693  2.1202 -0.1168 -1.0003
 8166SOL    HW235958   2.453   1.816   3.804  0.1348  0.9881 -0.4870
 8167SOL     OW35959   2.665   1.276   3.696 -0.1368  0.1238  0.1080
 8167SOL    HW135960   2.599   1.302   3.632 -1.5498 -2.2509  0.5703
 8167SOL    HW235961   2.680   1.185   3.672 -0.6681  0.2131 -0.5612
 8168SOL     OW35962   4.571   3.615  15.470 -0.0711 -0.0552  0.2443
 8168SOL    HW135963   4.647   3.605  15.527  1.7824  3.5372 -1.6569
 8168SOL    HW235964   4.612   3.562  15.402 -0.1820  1.7772 -1.2401
 8169SOL     OW35965   4.396   4.456   3.268 -0.3550 -0.7699  0.1209
 8169SOL    HW135966   4.312   4.422   3.237 -1.1867  2.7825 -1.5063
 8169SOL    HW235967   4.373   4.466   3.360 -0.7458  0.5688 -0.1257
 8170SOL     OW35968   2.063   2.340   9.596 -0.1476  0.2657 -0.7845
 8170SOL    HW135969   2.154   2.337   9.624 -0.2631  4.0053  0.0136
 8170SOL    HW235970   2.029   2.330   9.685  2.0169  0.9808  0.1285
 8171SOL     OW35971   1.996   4.402   2.859  0.5521  0.7392  0.6607
 8171SOL    HW135972   2.009   4.452   2.939  0.9620  1.5310  0.1032
 8171SOL    HW235973   2.076   4.350   2.850  1.5229  1.8922  2.5704
 8172SOL     OW35974   4.430   3.469  16.288  0.0516 -0.8361  1.0325
 8172SOL    HW135975   4.350   3.435  16.329 -0.4209 -2.3018 -1.0566
 8172SOL    HW235976   4.424   3.428  16.201 -0.7272  0.2548  0.5648
 8173SOL     OW35977   3.910   0.219  17.467  0.1550  0.5915 -0.6378
 8173SOL    HW135978   3.956   0.135  17.459 -0.4821  0.2609 -0.8579
 8173SOL    HW235979   3.856   0.204  17.545  2.9708 -2.5309  0.7352
 8174SOL     OW35980   2.993   2.911   3.838 -0.7952  0.1872  0.0697
 8174SOL    HW135981   3.006   2.960   3.919  0.0361  0.6904 -0.3668
 8174SOL    HW235982   3.044   2.960   3.773 -2.5178 -0.7497 -1.9662
 8175SOL     OW35983   2.393   0.943   8.940  0.1063 -0.1543  0.1867
 8175SOL    HW135984   2.298   0.955   8.939 -0.1752 -2.2392  0.9046
 8175SOL    HW235985   2.406   0.949   8.845 -2.8379 -1.4841 -0.3070
 8176SOL     OW35986   3.866   4.573   7.245 -0.0062 -0.3304 -0.2465
 8176SOL    HW135987   3.930   4.603   7.309 -0.5503  0.2597  0.0211
 8176SOL    HW235988   3.905   4.490   7.219  0.1647  0.2038 -1.7083
 8177SOL     OW35989   1.370   3.632   8.444  0.2168  0.4954  0.0626
 8177SOL    HW135990   1.388   3.721   8.417  0.2908 -0.0315 -1.5995
 8177SOL    HW235991   1.459   3.617   8.477  1.1206  3.8709 -0.8383
 8178SOL     OW35992   1.676   1.250   7.448  0.5463 -0.3431  0.2567
 8178SOL    HW135993   1.726   1.294   7.517  0.7660  1.6726 -1.1610
 8178SOL    HW235994   1.680   1.309   7.373 -0.6228  1.2273  1.4210
 8179SOL     OW35995   0.239   4.690   4.960 -0.1175 -0.3461 -0.2818
 8179SOL    HW135996   0.303   0.000   4.898 -0.0890  0.6113  0.2765
 8179SOL    HW235997   0.285   4.688   5.044 -1.1028 -0.4514  0.2533
 8180SOL     OW35998   4.330   0.341   4.142 -0.1270 -0.5070 -0.2033
 8180SOL    HW135999   4.276   0.309   4.069 -0.5167  0.9621 -0.5526
 8180SOL    HW236000   4.342   0.260   4.192  0.3501 -0.1498  0.2533
 8181SOL     OW36001   0.750   2.018   5.424  0.2971 -0.0044  0.1819
 8181SOL    HW136002   0.737   1.956   5.496  2.1668 -2.0312 -1.2376
 8181SOL    HW236003   0.780   2.095   5.473 -1.1343 -0.0407  1.0893
 8182SOL     OW36004   1.768   2.671   4.883 -0.6753 -0.2759 -0.4961
 8182SOL    HW136005   1.838   2.684   4.947  1.6461  0.0616 -3.1136
 8182SOL    HW236006   1.811   2.652   4.800  0.2705  1.5277 -0.4243
 8183SOL     OW36007   2.212   4.648   6.840  0.4681 -0.8835 -0.2149
 8183SOL    HW136008   2.303   4.620   6.831  0.1209 -2.1789  0.3316
 8183SOL    HW236009   2.170   4.562   6.840  0.6669 -0.9785  0.5599
 8184SOL     OW36010   1.335   0.810   8.319  0.4774  0.3239  0.3358
 8184SOL    HW136011   1.326   0.864   8.241 -2.1754  0.3375  0.6635
 8184SOL    HW236012   1.305   0.729   8.278  0.1620  0.7179 -0.2053
 8185SOL     OW36013   1.511   0.808   3.020 -0.6024  0.1990 -0.3616
 8185SOL    HW136014   1.573   0.881   3.018 -1.6355  1.0975  0.4967
 8185SOL    HW236015   1.432   0.856   3.045  0.0191  1.1264 -0.1296
 8186SOL     OW36016   3.825   3.248   9.380  0.1136  0.2198 -0.2097
 8186SOL    HW136017   3.732   3.242   9.403  0.0162 -2.6811 -1.3860
 8186SOL    HW236018   3.817   3.265   9.286  1.4239 -3.7230 -0.9976
 8187SOL     OW36019   0.297   0.457   1.413 -0.3850  0.1104  0.2022
 8187SOL    HW136020   0.359   0.409   1.358 -0.0120  0.8439 -0.0105
 8187SOL    HW236021   0.280   0.529   1.353 -0.1811  0.2704  0.3357
 8188SOL     OW36022   0.044   0.375   1.631  0.7273  0.0045 -0.0875
 8188SOL    HW136023   0.078   0.293   1.595  1.4202  0.7613 -1.1499
 8188SOL    HW236024   4.674   0.356   1.641 -0.4049  5.2841 -0.7787
 8189SOL     OW36025   3.854   4.537   1.234  0.2231  0.1938 -0.0636
 8189SOL    HW136026   3.939   4.561   1.197  0.1866  1.6068  0.7890
 8189SOL    HW236027   3.871   4.444   1.249 -0.8430 -0.1492 -0.9252
 8190SOL     OW36028   3.673   0.995   8.854  0.1615  0.1297  0.3064
 8190SOL    HW136029   3.632   0.967   8.936 -0.4890 -1.1749 -0.4538
 8190SOL    HW236030   3.712   1.078   8.878  0.6294 -0.2643  0.8946
 8191SOL     OW36031   2.772   2.206   9.775 -0.0575  0.0776  0.4742
 8191SOL    HW136032   2.734   2.220   9.688 -0.6542  0.3039  0.7712
 8191SOL    HW236033   2.854   2.255   9.765 -0.7699  1.2268  0.2617
 8192SOL     OW36034   3.498   4.316   0.949 -0.6010  0.1475 -0.2015
 8192SOL    HW136035   3.416   4.279   0.981  0.1006 -0.9430  0.3714
 8192SOL    HW236036   3.470   4.372   0.877 -2.3892 -0.0587  0.3534
 8193SOL     OW36037   4.240   0.610   5.722  0.0870 -0.0641 -0.9231
 8193SOL    HW136038   4.213   0.695   5.687 -0.5495 -0.7248 -2.0465
 8193SOL    HW236039   4.166   0.557   5.693  1.0150 -2.8323  1.7165
 8194SOL     OW36040   3.378   3.693   6.633  0.1146  0.2476 -0.4825
 8194SOL    HW136041   3.327   3.768   6.666  1.3536  0.5717  0.6956
 8194SOL    HW236042   3.453   3.739   6.595  0.5277  0.5488  0.6909
 8195SOL     OW36043   0.133   3.701  13.846  0.0526  0.6236  0.0023
 8195SOL    HW136044   0.044   3.725  13.820 -0.2628 -0.5786 -0.0106
 8195SOL    HW236045   0.116   3.615  13.883 -0.2164  0.7555  0.1855
 8196SOL     OW36046   0.032   0.862   1.477 -0.2128  0.3056  0.3724
 8196SOL    HW136047   0.101   0.870   1.544  0.4414  1.5563 -0.4600
 8196SOL    HW236048   0.031   0.768   1.457  2.5039 -0.3081  3.0204
 8197SOL     OW36049   2.746   4.086  14.516  0.1177  0.0955 -0.1191
 8197SOL    HW136050   2.763   4.148  14.587 -1.3927  1.6349 -1.1352
 8197SOL    HW236051   2.683   4.130  14.460 -0.9688 -0.5461  0.6047
 8198SOL     OW36052   1.339   4.198   5.127  0.1553 -0.2116  0.1151
 8198SOL    HW136053   1.258   4.247   5.109 -0.0118  0.4733  2.7999
 8198SOL    HW236054   1.313   4.133   5.192 -2.0619 -0.2921 -0.8590
 8199SOL     OW36055   1.853   3.816   8.853  0.2539 -0.2646  0.2356
 8199SOL    HW136056   1.836   3.872   8.929  0.4520  0.3035 -0.1448
 8199SOL    HW236057   1.932   3.854   8.816 -0.2883  1.2465  0.6412
 8200SOL     OW36058   3.473   1.476   1.585  0.1106 -0.2226 -0.3539
 8200SOL    HW136059   3.423   1.395   1.592 -0.2888  0.2634  2.6191
 8200SOL    HW236060   3.547   1.442   1.536  1.5714 -1.3487  2.6079
 8201SOL     OW36061   4.537   4.096   6.019  0.2655  0.5476  0.0808
 8201SOL    HW136062   4.455   4.104   5.970 -0.0803  0.6830  0.6903
 8201SOL    HW236063   4.538   4.189   6.041 -0.9806  1.1964 -2.6118
 8202SOL     OW36064   0.403   0.541   1.638 -0.3736  0.0202 -0.2065
 8202SOL    HW136065   0.372   0.498   1.559 -0.5565 -1.4850  0.6757
 8202SOL    HW236066   0.340   0.614   1.636 -0.0017  0.3994  1.2628
 8203SOL     OW36067   1.854   1.959   7.671  0.3479  0.0057 -0.3045
 8203SOL    HW136068   1.883   1.869   7.682  0.7141 -0.0524 -1.6977
 8203SOL    HW236069   1.767   1.947   7.633 -0.3539 -2.3989  2.0681
 8204SOL     OW36070   2.211   3.263  10.561 -0.2955  0.2176  0.0609
 8204SOL    HW136071   2.227   3.238  10.653  2.0140 -1.5875 -0.8196
 8204SOL    HW236072   2.135   3.320  10.569 -1.0563 -0.8890  0.7102
 8205SOL     OW36073   1.583   4.067   9.629  0.0982  0.1517 -0.3208
 8205SOL    HW136074   1.532   4.049   9.550  0.2018 -4.7288  0.6886
 8205SOL    HW236075   1.511   4.084   9.689 -0.6199 -2.9834 -0.2801
 8206SOL     OW36076   1.553   2.343   7.959 -0.5947  0.0986  0.0538
 8206SOL    HW136077   1.496   2.287   7.906 -2.2807 -1.4618  3.5381
 8206SOL    HW236078   1.607   2.284   8.012  0.3477  1.2992  0.4514
 8207SOL     OW36079   1.611   4.563   1.688  0.3729 -0.0297  0.1833
 8207SOL    HW136080   1.576   4.651   1.681 -1.2588 -0.5705  1.6525
 8207SOL    HW236081   1.549   4.515   1.633 -1.7606 -0.5828  3.0791
 8208SOL     OW36082   4.217   3.602   6.721 -0.2360 -0.6024  0.3681
 8208SOL    HW136083   4.313   3.607   6.721 -0.2268 -0.6334  1.1568
 8208SOL    HW236084   4.177   3.677   6.678 -1.0233 -1.6005 -0.6388
 8209SOL     OW36085   3.906   0.129   7.073  0.4096  0.2367 -0.2471
 8209SOL    HW136086   3.816   0.123   7.108  0.1046  0.2666 -1.0371
 8209SOL    HW236087   3.910   0.038   7.045 -0.0689 -0.2158  1.1682
 8210SOL     OW36088   4.411   0.174   2.562  0.2725  0.1407  0.3401
 8210SOL    HW136089   4.497   0.209   2.537 -0.3512  0.5155 -1.2711
 8210SOL    HW236090   4.365   0.201   2.482  1.2440  1.6468  0.2839
 8211SOL     OW36091   0.961   2.448  17.228  0.3263 -0.4529 -0.5753
 8211SOL    HW136092   1.041   2.491  17.199  0.6426 -0.2440  0.5857
 8211SOL    HW236093   0.991   2.436  17.319 -0.8250 -1.5065 -0.3383
 8212SOL     OW36094   3.839   4.277   0.390  0.3477  0.2169  0.2045
 8212SOL    HW136095   3.744   4.268   0.395  0.5796 -2.8572 -0.7983
 8212SOL    HW236096   3.857   4.371   0.392 -0.5792  0.3918  0.3513
 8213SOL     OW36097   2.857   4.393   1.801 -0.0260  0.0093 -0.1148
 8213SOL    HW136098   2.782   4.357   1.753 -1.0104 -1.0783  2.2238
 8213SOL    HW236099   2.867   4.333   1.875  0.6691  1.1142  0.6756
 8214SOL     OW36100   3.948   0.727  10.830  0.2956 -0.9255  0.2932
 8214SOL    HW136101   3.875   0.783  10.854  1.7755  0.4563  1.5745
 8214SOL    HW236102   3.902   0.673  10.765 -0.8823  1.1054 -0.5749
 8215SOL     OW36103   0.760   0.398   3.385 -0.6747 -0.1882  0.9918
 8215SOL    HW136104   0.795   0.385   3.297 -1.6709  0.0457  0.5573
 8215SOL    HW236105   0.729   0.488   3.377  0.1715 -0.0359 -0.5804
 8216SOL     OW36106   4.678   1.980   8.343  0.1752 -0.1980  0.1454
 8216SOL    HW136107   4.609   2.035   8.379 -0.6745 -0.8699 -0.4541
 8216SOL    HW236108   0.021   1.987   8.412 -0.6585 -1.0800  1.0255
 8217SOL     OW36109   2.617   2.318   3.999 -0.7982  0.2982 -0.3854
 8217SOL    HW136110   2.535   2.328   4.048 -0.5779  1.3147 -0.2305
 8217SOL    HW236111   2.613   2.370   3.919  0.0865 -2.1362 -2.0129
 8218SOL     OW36112   3.411   3.175   8.283 -0.2873 -0.2113  0.0790
 8218SOL    HW136113   3.425   3.254   8.336  0.2976 -0.5063  0.3576
 8218SOL    HW236114   3.402   3.115   8.357  0.9167 -0.6371 -0.1296
 8219SOL     OW36115   3.314   4.650   7.708 -0.4153  0.2260 -0.5521
 8219SOL    HW136116   3.308   4.560   7.741  1.1110  1.1371  2.2117
 8219SOL    HW236117   3.315   4.703   7.788 -1.4921 -0.2197 -0.2315
 8220SOL     OW36118   4.361   0.958   3.539  0.3900  0.7835  0.9535
 8220SOL    HW136119   4.433   1.021   3.539  2.7381 -1.8858  0.2934
 8220SOL    HW236120   4.311   0.980   3.460 -0.5679 -1.7677  0.8317
 8221SOL     OW36121   3.524   2.804   1.188 -0.4283  0.4382  0.1010
 8221SOL    HW136122   3.433   2.831   1.177 -0.9000 -0.7925  0.9837
 8221SOL    HW236123   3.566   2.842   1.111 -0.0888  3.4366  1.7731
 8222SOL     OW36124   3.479   0.944   6.342 -0.7191 -0.9320  0.2567
 8222SOL    HW136125   3.558   0.919   6.295 -0.0616  2.3687 -0.3713
 8222SOL    HW236126   3.444   0.857   6.360 -3.1209 -0.0578 -0.1727
 8223SOL     OW36127   1.766   2.726   1.926 -0.4366 -0.5540 -0.4798
 8223SOL    HW136128   1.717   2.754   1.849 -2.2485 -1.1472  0.4557
 8223SOL    HW236129   1.732   2.637   1.932 -1.3164 -0.2373 -0.8446
 8224SOL     OW36130   1.758   2.704   9.157  0.0104 -0.6215  0.2359
 8224SOL    HW136131   1.766   2.798   9.173  3.5322 -0.7176 -1.0084
 8224SOL    HW236132   1.686   2.712   9.094  1.2600 -1.0329 -1.2321
 8225SOL     OW36133   0.809   4.334   5.120  0.1375  0.2578  0.3080
 8225SOL    HW136134   0.786   4.245   5.092 -1.6047  0.9249 -0.3542
 8225SOL    HW236135   0.826   4.364   5.031  0.7757 -0.9148  0.0273
 8226SOL     OW36136   1.055   3.200   1.811  0.2562 -0.3726  0.0078
 8226SOL    HW136137   1.045   3.186   1.717  4.1715 -0.5432 -0.4059
 8226SOL    HW236138   0.998   3.274   1.832  2.1825  0.5986  1.8036
 8227SOL     OW36139   3.199   3.151   3.400  0.5056 -0.1137 -0.6358
 8227SOL    HW136140   3.221   3.216   3.466  0.6089  1.3393 -2.1202
 8227SOL    HW236141   3.104   3.155   3.402  0.3599 -3.5699 -0.2957
 8228SOL     OW36142   2.293   4.281   7.988  0.0559 -0.0476 -0.5835
 8228SOL    HW136143   2.203   4.296   8.017 -0.9796 -2.6081 -2.4717
 8228SOL    HW236144   2.288   4.188   7.965 -0.6893  0.0404 -0.7717
 8229SOL     OW36145   1.263   1.666   8.525 -0.0646 -0.3481 -0.3784
 8229SOL    HW136146   1.249   1.579   8.560  1.3897 -1.3094 -2.1841
 8229SOL    HW236147   1.343   1.684   8.575 -0.8888  1.8249  0.1617
 8230SOL     OW36148   3.760   1.470   2.426 -0.3357  0.7278  0.0741
 8230SOL    HW136149   3.756   1.426   2.511 -1.9769  0.7518  0.0043
 8230SOL    HW236150   3.676   1.442   2.390 -0.2125 -1.1734  1.2604
 8231SOL     OW36151   4.158   4.458   8.259 -0.3393 -0.2442 -0.3322
 8231SOL    HW136152   4.177   4.473   8.352  0.5287 -0.8912 -0.4047
 8231SOL    HW236153   4.115   4.373   8.264  0.9234 -0.7542  1.6538
 8232SOL     OW36154   2.483   0.634   4.966 -0.2285  0.0317  0.6016
 8232SOL    HW136155   2.400   0.661   4.926  0.1385  2.5803  1.5125
 8232SOL    HW236156   2.458   0.617   5.057 -1.5791  1.6676  0.5483
 8233SOL     OW36157   4.258   3.627  14.473 -0.1947 -1.1639 -0.6060
 8233SOL    HW136158   4.245   3.673  14.391 -1.6627 -1.8493 -0.7677
 8233SOL    HW236159   4.268   3.701  14.534 -1.3389  0.8253 -2.8362
 8234SOL     OW36160   4.561   2.021   2.744 -0.1804 -0.5077  0.1206
 8234SOL    HW136161   4.536   1.987   2.658  2.5458 -0.3762 -0.7175
 8234SOL    HW236162   4.592   1.943   2.791 -0.6692 -1.6103 -1.3793
 8235SOL     OW36163   2.299   2.928   4.510  0.5933  0.0881 -0.2229
 8235SOL    HW136164   2.339   2.841   4.504  0.8090  0.1403  0.4580
 8235SOL    HW236165   2.300   2.954   4.418 -1.8146 -2.0289 -0.8465
 8236SOL     OW36166   4.439   0.362   5.280 -0.5261  0.0582 -0.3544
 8236SOL    HW136167   4.475   0.337   5.365  0.2897 -0.4723 -0.8635
 8236SOL    HW236168   4.346   0.343   5.295 -0.6956  0.9856 -0.1674
 8237SOL     OW36169   2.458   4.099   1.583  0.1221  0.6643 -0.2981
 8237SOL    HW136170   2.415   4.022   1.619 -0.5374  0.6210 -1.1929
 8237SOL    HW236171   2.462   4.071   1.491  1.1320 -0.3752  0.0586
 8238SOL     OW36172   0.295   1.659  16.120  0.3823  0.0567  0.5382
 8238SOL    HW136173   0.344   1.594  16.069 -2.3340 -1.5470  0.0079
 8238SOL    HW236174   0.281   1.611  16.201  0.1794  0.9866  1.0642
 8239SOL     OW36175   2.218   3.475   8.316 -1.0246 -0.4224  0.6808
 8239SOL    HW136176   2.256   3.413   8.378 -0.2842 -0.5049  0.1363
 8239SOL    HW236177   2.223   3.552   8.372  0.2658  0.3572 -0.5064
 8240SOL     OW36178   4.668   2.350   6.347  0.3259  0.2852  0.0103
 8240SOL    HW136179   0.005   2.281   6.319 -1.2288 -1.0994  0.0018
 8240SOL    HW236180   4.585   2.302   6.357 -0.0023  0.9322  0.3879
 8241SOL     OW36181   4.291   3.965   6.317  0.3769  0.4503  0.0977
 8241SOL    HW136182   4.360   3.921   6.267  0.9057 -0.0261  1.2371
 8241SOL    HW236183   4.228   3.895   6.334 -1.4452  2.0828 -0.0236
 8242SOL     OW36184   3.041   0.531  12.048 -0.3196 -0.1020 -0.4731
 8242SOL    HW136185   2.991   0.471  12.103  0.6244 -0.2315  0.2553
 8242SOL    HW236186   3.000   0.617  12.055  0.1480  0.0000  0.9721
 8243SOL     OW36187   4.257   3.784   3.748 -0.3603 -0.2517 -0.0442
 8243SOL    HW136188   4.274   3.762   3.839  2.2486 -2.4039 -1.0493
 8243SOL    HW236189   4.178   3.834   3.769 -0.3513 -1.4685  2.8943
 8244SOL     OW36190   4.455   1.628   0.141 -0.2378 -0.3565  0.1958
 8244SOL    HW136191   4.535   1.655   0.186  0.1599 -2.7929  0.9622
 8244SOL    HW236192   4.391   1.697   0.155  0.4262  0.5545 -1.3170
 8245SOL     OW36193   1.571   4.293   1.579 -0.2572 -0.0934 -0.1376
 8245SOL    HW136194   1.507   4.293   1.507  0.7798  1.3690 -1.0705
 8245SOL    HW236195   1.570   4.203   1.612  1.0052 -0.0064  0.1329
 8246SOL     OW36196   2.943   3.891   0.671  0.3294 -0.5273 -0.6266
 8246SOL    HW136197   2.991   3.943   0.606  0.6061 -1.6120 -1.2860
 8246SOL    HW236198   2.874   3.851   0.619  0.3233 -3.0434  1.3502
 8247SOL     OW36199   1.782   0.172   4.494 -0.0534  0.4027  0.3396
 8247SOL    HW136200   1.758   0.113   4.566 -0.7637 -0.8286 -0.9026
 8247SOL    HW236201   1.871   0.142   4.477 -0.7138 -0.6608 -1.2611
 8248SOL     OW36202   3.155   3.555  10.927 -0.1910 -0.1500  0.4818
 8248SOL    HW136203   3.162   3.465  10.894 -0.7456  0.2703 -0.7613
 8248SOL    HW236204   3.111   3.545  11.012  0.3265 -2.9459  0.4375
 8249SOL     OW36205   2.585   1.327   4.579 -0.1845  0.7674 -0.4083
 8249SOL    HW136206   2.534   1.282   4.646  0.2198 -0.1803 -0.7324
 8249SOL    HW236207   2.562   1.295   4.491  0.1531  0.3741 -0.3575
 8250SOL     OW36208   1.229   2.105  11.204  0.0971  0.2667  0.9909
 8250SOL    HW136209   1.225   2.063  11.118  0.3907  1.1584  0.5308
 8250SOL    HW236210   1.134   2.108  11.216 -0.3590 -3.2679 -1.7959
 8251SOL     OW36211   3.107   4.351  12.914 -0.1405  0.5134 -0.1652
 8251SOL    HW136212   3.047   4.283  12.945 -0.6824  1.1049  0.0794
 8251SOL    HW236213   3.142   4.303  12.839 -0.1542  2.5793 -1.4775
 8252SOL     OW36214   1.143   4.072  12.136 -0.5457 -0.2162  0.5966
 8252SOL    HW136215   1.203   4.020  12.190  0.0310  0.7503  0.8955
 8252SOL    HW236216   1.165   4.158  12.171 -1.1407 -0.2731  1.1036
 8253SOL     OW36217   2.049   3.098   3.779 -0.7157  0.4220  0.8085
 8253SOL    HW136218   1.955   3.079   3.770 -0.3516  0.0592 -2.2220
 8253SOL    HW236219   2.062   3.142   3.695  2.0079 -1.4460  0.2506
 8254SOL     OW36220   1.933   4.419   4.265 -0.2957 -0.1467 -0.8390
 8254SOL    HW136221   1.978   4.335   4.252  0.0567  0.0343 -0.7866
 8254SOL    HW236222   1.990   4.447   4.337 -0.4243  1.0251 -1.1914
 8255SOL     OW36223   3.862   2.434   9.429  0.1202 -0.6359 -0.0740
 8255SOL    HW136224   3.895   2.347   9.410  0.4973 -0.3676 -0.6415
 8255SOL    HW236225   3.940   2.488   9.419  0.0417 -0.5906 -0.4269
 8256SOL     OW36226   4.087   0.412   1.636  0.6077 -0.4210  0.5426
 8256SOL    HW136227   4.158   0.468   1.667  0.1606  1.5501 -1.9654
 8256SOL    HW236228   4.103   0.329   1.681  0.9931 -1.0252 -0.7157
 8257SOL     OW36229   1.742   4.116  16.156  0.0155 -0.1913 -0.1232
 8257SOL    HW136230   1.695   4.160  16.085  0.7814  0.2873 -0.3335
 8257SOL    HW236231   1.687   4.040  16.179  0.4604  0.0918  1.7940
 8258SOL     OW36232   3.277   0.494  12.934 -0.6473 -0.5036  0.2307
 8258SOL    HW136233   3.341   0.458  12.995 -1.8789 -1.6898  0.8279
 8258SOL    HW236234   3.212   0.423  12.930  1.4227 -2.3668 -0.4821
 8259SOL     OW36235   3.338   1.951   5.442  0.1719 -0.0842 -0.1612
 8259SOL    HW136236   3.286   1.931   5.520  3.2315 -2.8944  1.1574
 8259SOL    HW236237   3.286   2.022   5.405 -1.5912 -0.8069  0.9323
 8260SOL     OW36238   0.765   1.939  14.102 -0.2871  0.6934  0.1068
 8260SOL    HW136239   0.835   2.002  14.087 -0.2457  1.2794  2.7751
 8260SOL    HW236240   0.694   1.998  14.127 -0.9732  0.1882 -0.6316
 8261SOL     OW36241   2.862   1.458   1.793  0.2502  0.0224 -0.0715
 8261SOL    HW136242   2.864   1.364   1.812 -0.1975 -0.4789 -2.5853
 8261SOL    HW236243   2.889   1.497   1.877  1.4112  2.7707 -1.7261
 8262SOL     OW36244   4.476   3.340   5.702  0.2749  0.0562  0.1780
 8262SOL    HW136245   4.419   3.348   5.625  0.4590 -0.2592  0.0055
 8262SOL    HW236246   4.535   3.268   5.680 -0.9765 -0.3245 -1.9408
 8263SOL     OW36247   2.083   2.949   9.026 -0.2460 -0.0040 -0.3379
 8263SOL    HW136248   2.080   2.854   9.017  0.7886  0.0527 -1.3858
 8263SOL    HW236249   2.006   2.955   9.083 -1.0835 -1.9793 -1.2753
 8264SOL     OW36250   0.277   2.362   6.441 -0.1232 -0.4273  0.0971
 8264SOL    HW136251   0.310   2.347   6.352  2.5685  1.6644  0.7456
 8264SOL    HW236252   0.209   2.429   6.435  2.2837  2.1329  1.2516
 8265SOL     OW36253   0.026   0.134   6.500 -0.3731  0.3015  0.1724
 8265SOL    HW136254   4.705   0.049   6.504 -0.4319  0.3679  0.8867
 8265SOL    HW236255   4.688   0.184   6.447  0.0085 -0.0713 -0.6148
 8266SOL     OW36256   3.359   2.369  16.180  0.7867 -0.0505 -0.3560
 8266SOL    HW136257   3.295   2.412  16.123 -0.1204  0.1852  0.8496
 8266SOL    HW236258   3.382   2.436  16.244  1.0217 -1.0356  0.5918
 8267SOL     OW36259   3.199   2.337   5.111  0.8277 -0.2490  0.3114
 8267SOL    HW136260   3.131   2.396   5.143 -0.0337  0.4241 -2.8338
 8267SOL    HW236261   3.194   2.343   5.016  1.9396  0.9048  0.3186
 8268SOL     OW36262   3.210   2.594   2.268  0.0719  0.3484  0.0186
 8268SOL    HW136263   3.288   2.597   2.213 -0.8930 -2.8192 -1.5441
 8268SOL    HW236264   3.255   2.559   2.344 -0.4729 -0.1900  0.0957
 8269SOL     OW36265   1.206   3.935  13.220  0.3342 -0.1297 -0.4740
 8269SOL    HW136266   1.231   4.003  13.158  2.1873  1.2379  1.7704
 8269SOL    HW236267   1.136   3.973  13.274  0.0628  1.0789 -1.6679
 8270SOL     OW36268   2.949   2.605   8.483  0.3348 -0.0767  0.0315
 8270SOL    HW136269   2.977   2.689   8.519 -0.1814  0.3397 -0.5273
 8270SOL    HW236270   3.030   2.577   8.441  0.0817  0.6921 -0.9542
 8271SOL     OW36271   1.482   3.527   6.514  1.0253  0.5271  0.2730
 8271SOL    HW136272   1.432   3.514   6.595  0.4387  1.6261  0.0924
 8271SOL    HW236273   1.528   3.606   6.542  0.8846  0.4009  0.8468
 8272SOL     OW36274   3.208   4.653   3.385 -0.4352  0.7369  0.0901
 8272SOL    HW136275   3.191   4.648   3.291 -1.7090  1.6358  0.2636
 8272SOL    HW236276   3.239   0.019   3.389 -0.9828  1.0350 -2.1901
 8273SOL     OW36277   4.331   4.006  17.205  0.3426  0.1000 -0.1877
 8273SOL    HW136278   4.422   4.006  17.175  0.2071  0.6395 -0.6040
 8273SOL    HW236279   4.307   4.097  17.224  2.2805  0.2251  1.8320
 8274SOL     OW36280   4.293   2.761   4.546  0.3986  0.6433  0.0002
 8274SOL    HW136281   4.313   2.782   4.454  1.9453  0.7268  0.3569
 8274SOL    HW236282   4.356   2.817   4.591 -0.2450  3.0019 -2.0315
 8275SOL     OW36283   1.666   1.770  13.194 -0.3333 -0.0890 -0.1239
 8275SOL    HW136284   1.630   1.693  13.151 -1.3833 -0.8330  2.0446
 8275SOL    HW236285   1.759   1.747  13.199 -0.1048  1.1359  1.2116
 8276SOL     OW36286   4.721   2.343   5.656 -0.7511 -0.3385  0.3843
 8276SOL    HW136287   0.077   2.312   5.613 -0.1584  1.0934  0.4692
 8276SOL    HW236288   0.017   2.434   5.676  1.2075 -0.9521  1.2243
 8277SOL     OW36289   0.363   0.780   3.461 -0.0703 -0.7086  0.1949
 8277SOL    HW136290   0.341   0.780   3.554  0.0682  0.2329  0.2299
 8277SOL    HW236291   0.426   0.709   3.457  0.6247  0.0209 -2.2441
 8278SOL     OW36292   2.673   4.254   8.272 -0.2098 -0.1019 -0.3150
 8278SOL    HW136293   2.648   4.278   8.361  0.2799  0.1774 -0.2518
 8278SOL    HW236294   2.743   4.190   8.287  0.4136  0.2521 -1.6824
 8279SOL     OW36295   4.329   4.047   4.153  0.2080 -0.3668  0.4931
 8279SOL    HW136296   4.254   4.073   4.098  1.4160  2.1534  0.0630
 8279SOL    HW236297   4.363   3.981   4.092  1.4817  1.5418 -0.8569
 8280SOL     OW36298   1.217   3.292   0.347  0.3068  0.2428  0.1446
 8280SOL    HW136299   1.312   3.280   0.347  0.4638  1.5035 -0.4875
 8280SOL    HW236300   1.189   3.202   0.336 -0.8093  0.4941  0.9169
 8281SOL     OW36301   2.535   2.667  11.749 -0.7376 -0.1725  0.2176
 8281SOL    HW136302   2.474   2.695  11.681 -0.5838  0.3154  0.2728
 8281SOL    HW236303   2.508   2.578  11.767 -2.1828  0.1090 -0.6045
 8282SOL     OW36304   3.407   3.977   7.541 -0.0865 -0.2323 -0.4976
 8282SOL    HW136305   3.340   3.985   7.473 -1.4133  3.0984  1.1886
 8282SOL    HW236306   3.347   3.948   7.610 -0.7061  2.1523 -0.0055
 8283SOL     OW36307   3.699   1.015   2.189  0.1709 -0.0289  0.1674
 8283SOL    HW136308   3.630   1.008   2.122  1.6057 -1.8118 -1.1260
 8283SOL    HW236309   3.726   0.924   2.202 -0.1336 -0.2418 -0.6611
 8284SOL     OW36310   3.605   0.706   6.405 -0.4720  0.2453 -0.1064
 8284SOL    HW136311   3.557   0.660   6.336 -1.8612 -3.3810  3.3269
 8284SOL    HW236312   3.679   0.747   6.359 -0.2147  1.6637  1.5364
 8285SOL     OW36313   3.946   0.300   7.529 -0.3573  0.0016 -0.2190
 8285SOL    HW136314   3.854   0.280   7.541  0.0042 -0.8958  0.9922
 8285SOL    HW236315   3.949   0.300   7.433  2.4552  1.9590 -0.1239
 8286SOL     OW36316   3.581   0.725  13.703 -0.1572 -0.4253  0.0928
 8286SOL    HW136317   3.672   0.734  13.730 -0.1768  1.0975 -0.3599
 8286SOL    HW236318   3.584   0.639  13.661 -2.5443  0.5522 -2.0842
 8287SOL     OW36319   2.932   2.073   7.951 -0.5360  0.4457 -0.0576
 8287SOL    HW136320   2.979   1.989   7.950 -0.4301  0.5194 -2.1693
 8287SOL    HW236321   2.845   2.048   7.982 -0.2112 -0.5622  0.0425
 8288SOL     OW36322   2.722   4.562   2.399  0.1779 -0.3624 -0.3228
 8288SOL    HW136323   2.634   4.543   2.429 -0.5851 -0.3503 -2.5242
 8288SOL    HW236324   2.705   4.650   2.363 -1.4529  0.0184  1.3887
 8289SOL     OW36325   1.049   3.528  13.317  0.2720 -0.2154 -0.7683
 8289SOL    HW136326   1.049   3.585  13.240 -0.1550  1.0062  0.1346
 8289SOL    HW236327   1.141   3.527  13.342 -0.2983  0.1443  1.3022
 8290SOL     OW36328   0.249   0.129  13.229  0.0840  0.1113  0.1190
 8290SOL    HW136329   0.234   0.049  13.178 -0.3366 -0.7178  1.5606
 8290SOL    HW236330   0.301   0.102  13.304  1.9181  1.0709 -0.8199
 8291SOL     OW36331   3.566   2.373  12.098 -0.1394 -0.3265  0.6369
 8291SOL    HW136332   3.597   2.387  12.187 -3.5683  2.3838  1.3857
 8291SOL    HW236333   3.528   2.461  12.090 -2.0501 -1.4195 -2.0498
 8292SOL     OW36334   1.913   4.286   5.715  0.0450  0.1148  0.4825
 8292SOL    HW136335   1.962   4.302   5.634  1.3627  1.0340  1.4533
 8292SOL    HW236336   1.835   4.255   5.669 -0.6246 -0.1539  1.7763
 8293SOL     OW36337   1.499   1.657  12.145 -0.8341  0.3157  0.2809
 8293SOL    HW136338   1.473   1.621  12.061  1.4799 -1.2343  0.2169
 8293SOL    HW236339   1.538   1.741  12.122 -0.8154  0.0346 -0.6815
 8294SOL     OW36340   1.855   3.751   5.673 -0.0381 -0.3855 -0.3210
 8294SOL    HW136341   1.807   3.787   5.748 -0.9731 -0.1625 -1.0186
 8294SOL    HW236342   1.942   3.786   5.692 -0.0860  0.7524 -2.1318
 8295SOL     OW36343   1.165   3.199   7.879  0.7981  0.0850  0.1523
 8295SOL    HW136344   1.258   3.204   7.901  0.5414  3.1759  0.5311
 8295SOL    HW236345   1.163   3.274   7.819  2.8930 -0.1825 -0.2543
 8296SOL     OW36346   4.297   4.401   7.071  0.2697 -0.2594 -0.9428
 8296SOL    HW136347   4.202   4.398   7.089 -0.0175 -3.3137 -2.9967
 8296SOL    HW236348   4.307   4.333   7.004  1.3939  0.0900 -1.1252
 8297SOL     OW36349   4.417   0.189   3.044  0.1773  0.1434  0.2666
 8297SOL    HW136350   4.427   0.270   3.094 -0.5989  0.9684 -0.8767
 8297SOL    HW236351   4.432   0.126   3.114  0.4096  0.9043  0.8932
 8298SOL     OW36352   0.070   3.868   9.191 -0.2491 -0.5478 -0.0009
 8298SOL    HW136353   0.135   3.935   9.167  0.9899 -2.1678 -1.2380
 8298SOL    HW236354   0.004   3.917   9.239 -0.0425 -0.0862 -0.1842
 8299SOL     OW36355   3.612   0.779   2.027  0.4500  0.0227  0.1951
 8299SOL    HW136356   3.569   0.710   1.977 -0.9744  0.2716  1.0690
 8299SOL    HW236357   3.544   0.847   2.031  1.0930  0.7619 -1.2556
 8300SOL     OW36358   1.552   1.378   7.775 -0.2385  0.1807  0.2158
 8300SOL    HW136359   1.538   1.284   7.786  0.1449  0.2552  1.3253
 8300SOL    HW236360   1.516   1.418   7.854 -1.0326 -0.9784  0.4459
 8301SOL     OW36361   3.885   1.264   3.996  0.2732 -0.0025  0.0192
 8301SOL    HW136362   3.955   1.202   4.017 -0.3582 -0.6305  0.2776
 8301SOL    HW236363   3.835   1.226   3.924 -0.0886  0.6458 -0.0690
 8302SOL     OW36364   1.585   1.352  17.088  0.9987  0.0297 -0.6835
 8302SOL    HW136365   1.581   1.256  17.080 -0.6208  0.0031  0.4475
 8302SOL    HW236366   1.649   1.360  17.018  0.1969  2.2173 -1.1610
 8303SOL     OW36367   2.084   3.200   5.448 -0.1496 -0.5000  0.2568
 8303SOL    HW136368   2.109   3.206   5.356  0.0592 -1.1412  0.2752
 8303SOL    HW236369   2.151   3.255   5.490 -1.5524  1.1936  0.3167
 8304SOL     OW36370   0.557   2.623   6.432  0.3442 -0.4631 -0.0866
 8304SOL    HW136371   0.502   2.642   6.509  0.6031  3.0203 -0.7811
 8304SOL    HW236372   0.616   2.553   6.460  1.9492  1.8187  2.3266
 8305SOL     OW36373   0.658   1.976   0.466 -0.5609  0.4145 -0.0412
 8305SOL    HW136374   0.743   1.938   0.489 -0.7717 -0.2321 -0.3264
 8305SOL    HW236375   0.631   2.007   0.552 -3.0150 -1.3047 -0.1962
 8306SOL     OW36376   0.757   4.442   7.049 -0.1205  0.0489 -0.5945
 8306SOL    HW136377   0.700   4.519   7.057  2.4446  1.9443 -0.6417
 8306SOL    HW236378   0.733   4.404   6.964 -2.2109 -0.6655  0.3214
 8307SOL     OW36379   4.105   0.446   3.806 -0.1822  0.0491 -0.2925
 8307SOL    HW136380   4.171   0.497   3.852  0.5138 -0.4634 -0.7356
 8307SOL    HW236381   4.080   0.376   3.866 -0.8837 -0.0163 -0.6520
 8308SOL     OW36382   2.739   3.553  13.537  0.2065  0.6596  0.4283
 8308SOL    HW136383   2.735   3.628  13.596 -0.6560  0.8444  0.1321
 8308SOL    HW236384   2.647   3.560  13.514  0.4447 -0.5771 -0.9314
 8309SOL     OW36385   1.258   4.191   2.690 -0.2510 -0.0114  0.5579
 8309SOL    HW136386   1.341   4.169   2.647  0.4502  0.0726  1.8598
 8309SOL    HW236387   1.218   4.108   2.716 -0.6020 -0.4246 -1.2746
 8310SOL     OW36388   0.992   0.888   4.008  0.0350  0.6098  0.4421
 8310SOL    HW136389   1.032   0.974   4.008 -1.7062  1.4305 -0.1438
 8310SOL    HW236390   1.061   0.831   3.975 -1.4683 -1.5879  1.0274
 8311SOL     OW36391   1.957   3.589  12.366  0.2227 -0.4459 -0.4039
 8311SOL    HW136392   1.974   3.630  12.450 -1.2086 -0.0173 -0.3272
 8311SOL    HW236393   1.998   3.503  12.356  0.4981 -0.4463  0.7096
 8312SOL     OW36394   2.638   4.456   3.318  0.3471 -0.4155 -0.5936
 8312SOL    HW136395   2.627   4.519   3.389  2.0650  0.9056 -1.4728
 8312SOL    HW236396   2.598   4.373   3.341  2.0410 -1.1931 -0.4845
 8313SOL     OW36397   3.604   4.515   0.298  0.6836 -0.0954 -0.5096
 8313SOL    HW136398   3.579   4.598   0.339 -2.5523 -0.4725 -1.7202
 8313SOL    HW236399   3.699   4.523   0.284  0.7813 -1.4346 -0.6093
 8314SOL     OW36400   2.536   3.828  17.455 -0.3237  0.0725  0.0695
 8314SOL    HW136401   2.600   3.889  17.493 -0.1139 -0.6521  0.8970
 8314SOL    HW236402   2.530   3.868  17.368  0.3269 -1.1719 -0.5451
 8315SOL     OW36403   1.040   4.097   7.049  0.0633 -0.7053 -0.2537
 8315SOL    HW136404   1.097   4.166   7.016  0.2616 -0.8015 -0.1141
 8315SOL    HW236405   1.099   4.028   7.080 -0.6400 -0.9110  0.6332
 8316SOL     OW36406   0.020   4.672   8.356 -0.5289  1.0517 -0.2145
 8316SOL    HW136407   4.699   0.033   8.357  1.2176  1.9845 -1.1218
 8316SOL    HW236408   4.701   4.619   8.288  2.1940 -2.0188  0.4839
 8317SOL     OW36409   2.127   0.717   7.574  0.3969 -0.2371 -0.5519
 8317SOL    HW136410   2.139   0.670   7.491  0.3574  1.0912 -1.3082
 8317SOL    HW236411   2.099   0.800   7.536  0.1961  0.5351  1.3179
 8318SOL     OW36412   3.455   2.389   9.040 -0.5702  0.1020  0.5849
 8318SOL    HW136413   3.474   2.336   8.962 -1.0839 -0.0053  0.5342
 8318SOL    HW236414   3.365   2.371   9.069 -0.2150  0.2990  1.8243
 8319SOL     OW36415   2.971   3.140   5.049 -0.6157  0.3873 -0.2297
 8319SOL    HW136416   3.009   3.055   5.068 -1.2343  0.6231  2.1509
 8319SOL    HW236417   2.902   3.140   5.116 -2.1098 -1.4374 -1.8044
 8320SOL     OW36418   2.584   0.003   9.116  0.0816  1.1206  0.2609
 8320SOL    HW136419   2.565   4.639   9.150 -0.2308  0.6055 -1.2295
 8320SOL    HW236420   2.669   0.017   9.158  0.1963  1.0257  0.0612
 8321SOL     OW36421   4.635   3.465   4.505 -0.6500  0.0432 -0.5999
 8321SOL    HW136422   4.684   3.386   4.529 -1.3577  0.2064  1.3835
 8321SOL    HW236423   4.704   3.532   4.504 -1.2289  0.6614  0.3680
 8322SOL     OW36424   0.600   1.195   5.377  0.3374  0.3924 -0.8875
 8322SOL    HW136425   0.597   1.123   5.441 -1.5139  0.6765 -0.6694
 8322SOL    HW236426   0.631   1.264   5.436  2.6242 -0.9687 -0.5011
 8323SOL     OW36427   4.516   2.549   4.441  0.4276 -0.3626 -0.1815
 8323SOL    HW136428   4.587   2.558   4.504  1.0218 -3.4720 -0.3666
 8323SOL    HW236429   4.548   2.608   4.372  0.2083  0.3659  0.3542
 8324SOL     OW36430   2.296   1.795  12.186  0.4817 -0.3623 -0.5722
 8324SOL    HW136431   2.337   1.734  12.124  1.2645  0.5973 -1.0075
 8324SOL    HW236432   2.213   1.753  12.207 -0.2494  0.5617 -1.5681
 8325SOL     OW36433   1.735   2.996   7.298  0.2696 -0.0600  0.3298
 8325SOL    HW136434   1.718   3.078   7.253 -2.4282  0.1886  1.7879
 8325SOL    HW236435   1.830   3.004   7.290  0.3170 -0.2973  0.6712
 8326SOL     OW36436   1.832   2.130   5.223  0.3979  0.1706  0.6444
 8326SOL    HW136437   1.742   2.131   5.191  0.2959 -1.9970  0.8689
 8326SOL    HW236438   1.858   2.196   5.158  1.6047 -1.7582 -0.8532
 8327SOL     OW36439   3.451   1.552   6.439  0.3642  0.3214 -0.5383
 8327SOL    HW136440   3.530   1.501   6.454 -0.7214 -0.8269  1.2059
 8327SOL    HW236441   3.469   1.578   6.348  2.5636 -0.2864 -0.2744
 8328SOL     OW36442   0.632   1.346   9.116  0.3409  0.2633 -0.4211
 8328SOL    HW136443   0.598   1.320   9.030 -0.4739 -2.2867  0.6858
 8328SOL    HW236444   0.652   1.437   9.095  0.8872 -0.2257 -2.0192
 8329SOL     OW36445   3.152   4.641   1.018 -0.0169  0.1812 -0.1884
 8329SOL    HW136446   3.148   0.004   1.058 -0.5473 -0.2892  0.7917
 8329SOL    HW236447   3.242   4.620   1.043 -0.3894 -1.9861 -0.6332
 8330SOL     OW36448   4.491   2.125   6.468  0.4540  0.2754 -0.1307
 8330SOL    HW136449   4.567   2.070   6.488  0.7808  1.4068  1.6782
 8330SOL    HW236450   4.431   2.051   6.480  1.4285 -0.8976 -2.4133
 8331SOL     OW36451   0.532   3.436  16.641  0.2093 -0.1824  0.1964
 8331SOL    HW136452   0.558   3.490  16.566  0.8806  1.7449  1.8352
 8331SOL    HW236453   0.540   3.502  16.710 -2.8310  0.0539  0.3204
 8332SOL     OW36454   1.457   2.199   2.653  0.4927  0.3828 -0.3739
 8332SOL    HW136455   1.433   2.107   2.663  0.1469  0.4720 -0.3570
 8332SOL    HW236456   1.406   2.221   2.575 -0.3632 -0.4701 -0.0562
 8333SOL     OW36457   3.285   2.768   3.677  0.3490  0.3018 -0.8700
 8333SOL    HW136458   3.314   2.857   3.656 -0.0999  0.8991  1.0899
 8333SOL    HW236459   3.306   2.746   3.768 -2.4005 -0.3174 -0.4025
 8334SOL     OW36460   0.374   2.973   7.715 -0.1010  0.2324 -0.2664
 8334SOL    HW136461   0.345   2.887   7.686 -2.5508  1.1450 -0.5145
 8334SOL    HW236462   0.300   3.029   7.740  0.2821 -0.0300  1.4475
 8335SOL     OW36463   0.288   3.184  16.283 -0.0931  0.0855  0.0111
 8335SOL    HW136464   0.271   3.093  16.259 -0.6687  0.5418 -1.3318
 8335SOL    HW236465   0.382   3.184  16.304 -0.4449  0.0936  1.5781
 8336SOL     OW36466   1.915   2.568   7.569  0.3135 -0.1857  0.5710
 8336SOL    HW136467   1.844   2.588   7.507  1.3061 -2.3905 -1.2855
 8336SOL    HW236468   1.906   2.653   7.611 -0.4820  0.0394 -0.0417
 8337SOL     OW36469   0.998   2.727   7.180 -0.2634  0.2609  0.0593
 8337SOL    HW136470   1.084   2.700   7.148 -0.6035 -0.5215 -0.1832
 8337SOL    HW236471   1.017   2.768   7.264  1.7296 -1.3877  0.4106
 8338SOL     OW36472   0.566   0.933  16.873 -0.6032  0.0795  0.1330
 8338SOL    HW136473   0.615   1.003  16.829  1.3530 -1.1617  0.3142
 8338SOL    HW236474   0.513   0.899  16.801 -0.2771 -2.4185  1.0656
 8339SOL     OW36475   1.172   0.928   4.877  0.6676  0.0410 -0.1216
 8339SOL    HW136476   1.080   0.922   4.905  0.7910 -2.3442 -0.2511
 8339SOL    HW236477   1.194   0.835   4.886  1.1485  0.2084  0.3473
 8340SOL     OW36478   1.271   4.071   3.342  0.4713 -0.1228  0.3924
 8340SOL    HW136479   1.235   4.159   3.348 -1.5676 -1.1420  2.9743
 8340SOL    HW236480   1.266   4.030   3.428 -1.0758  0.8975  0.7960
 8341SOL     OW36481   0.271   0.735  10.007 -0.2408  0.2816 -0.1551
 8341SOL    HW136482   0.246   0.739  10.099  0.6066 -2.5817  0.1913
 8341SOL    HW236483   0.253   0.644   9.984  5.3904 -0.6472 -0.8092
 8342SOL     OW36484   4.452   0.160  14.743  0.2767 -0.1802  0.2533
 8342SOL    HW136485   4.486   0.111  14.818 -1.2721 -0.7258  0.6038
 8342SOL    HW236486   4.510   0.138  14.671  1.2577 -2.4917  1.7449
 8343SOL     OW36487   0.914   4.461   5.624  0.1715  0.1197  0.0267
 8343SOL    HW136488   0.869   4.427   5.701 -2.1854  1.4322 -0.7739
 8343SOL    HW236489   0.982   4.394   5.616 -1.4258 -1.3517 -1.2274
 8344SOL     OW36490   0.038   1.224   1.283 -0.1042  0.0163 -0.0669
 8344SOL    HW136491   4.668   1.228   1.267 -0.4136 -0.8744  1.5745
 8344SOL    HW236492   0.065   1.151   1.227 -0.3788  1.2197 -1.7651
 8345SOL     OW36493   0.102   2.152  10.699 -0.7386  0.0174  0.5207
 8345SOL    HW136494   0.126   2.061  10.683  3.3675  1.4757 -1.5149
 8345SOL    HW236495   0.023   2.144  10.752  0.0294  1.8428  1.9245
 8346SOL     OW36496   4.200   3.257   4.057  0.1222 -0.8195 -0.4086
 8346SOL    HW136497   4.143   3.185   4.029 -0.9567  0.3030 -1.0329
 8346SOL    HW236498   4.250   3.208   4.124  0.2762  1.6491  1.2662
 8347SOL     OW36499   3.855   4.397   2.691 -0.3844  0.3814  0.1021
 8347SOL    HW136500   3.771   4.438   2.707 -0.1657  1.5821 -1.8759
 8347SOL    HW236501   3.914   4.466   2.721  1.3439 -1.1338  0.1931
 8348SOL     OW36502   2.892   0.361  12.243  0.4854  0.0304 -0.2971
 8348SOL    HW136503   2.833   0.287  12.257 -0.6321  1.4740  2.7065
 8348SOL    HW236504   2.930   0.357  12.331 -1.7517 -2.7029  0.5383
 8349SOL     OW36505   3.631   0.716   8.704 -0.0441 -0.2189  0.2831
 8349SOL    HW136506   3.657   0.720   8.612  0.3344  0.5155  0.4230
 8349SOL    HW236507   3.717   0.726   8.745 -0.7116  0.8283  1.4126
 8350SOL     OW36508   3.176   0.918  10.032 -0.1319  0.0581 -0.7199
 8350SOL    HW136509   3.259   0.916   9.983  0.2006 -0.9460 -0.1127
 8350SOL    HW236510   3.165   1.013  10.035 -1.4619 -0.2118  1.9249
 8351SOL     OW36511   1.836   0.599   2.559  0.3336 -0.4022 -0.2088
 8351SOL    HW136512   1.833   0.680   2.508 -0.4735 -0.5539 -0.4133
 8351SOL    HW236513   1.762   0.556   2.515  0.1591 -0.6297  0.3077
 8352SOL     OW36514   2.195   4.080   6.251 -0.4519  0.0637  0.0703
 8352SOL    HW136515   2.110   4.116   6.279 -0.7905 -1.2020  0.6472
 8352SOL    HW236516   2.184   3.986   6.261 -0.0641 -0.0812 -0.8936
 8353SOL     OW36517   0.663   4.433  17.203 -0.2272 -0.4173  0.1867
 8353SOL    HW136518   0.705   4.357  17.242  1.4583  0.3646 -0.0659
 8353SOL    HW236519   0.685   4.499  17.269 -2.2167  1.5546 -1.1114
 8354SOL     OW36520   4.134   2.597   1.636  0.3996  0.2274 -0.8627
 8354SOL    HW136521   4.161   2.657   1.706  0.6112 -1.1648  0.2470
 8354SOL    HW236522   4.217   2.597   1.589  1.0784 -2.7653  0.3429
 8355SOL     OW36523   0.091   1.691   6.788  0.2468  0.1635  0.5461
 8355SOL    HW136524   0.030   1.705   6.716 -0.0658  1.7600  1.1344
 8355SOL    HW236525   0.160   1.653   6.734  0.5414  0.1785  0.9142
 8356SOL     OW36526   2.931   0.483   3.345 -0.5235 -0.1960  0.2392
 8356SOL    HW136527   2.845   0.442   3.351 -0.7003 -0.3309 -3.0513
 8356SOL    HW236528   2.924   0.538   3.266 -2.0940 -1.3689 -0.4366
 8357SOL     OW36529   3.897   2.833   2.657  0.3482 -0.3121  0.5759
 8357SOL    HW136530   3.826   2.896   2.665  0.1429 -0.5732  0.7883
 8357SOL    HW236531   3.974   2.877   2.694  0.7913 -1.7426  1.3763
 8358SOL     OW36532   2.168   0.298  11.630  0.6980  0.6786  0.0614
 8358SOL    HW136533   2.170   0.282  11.535 -3.9970  2.4701 -0.3279
 8358SOL    HW236534   2.132   0.387  11.634  0.7383  0.6771  0.4049
 8359SOL     OW36535   0.820   1.824  14.529 -0.0348 -0.5456  0.9530
 8359SOL    HW136536   0.813   1.902  14.583  2.1060  0.5064 -0.3061
 8359SOL    HW236537   0.818   1.755  14.596  0.1512 -1.1257  0.3658
 8360SOL     OW36538   3.486   2.332   5.947  0.7410  0.3460  0.0812
 8360SOL    HW136539   3.552   2.291   5.891  1.3450  1.1669  0.1802
 8360SOL    HW236540   3.442   2.261   5.993  0.4799  0.9813  0.8034
 8361SOL     OW36541   2.904   2.786   4.299  0.1228 -0.0762 -0.5643
 8361SOL    HW136542   2.943   2.744   4.222  1.7117  0.3835  0.0108
 8361SOL    HW236543   2.809   2.776   4.285  0.3367 -0.8594 -1.4680
 8362SOL     OW36544   2.431   3.073   8.304 -0.5498  0.2077 -0.1124
 8362SOL    HW136545   2.494   3.127   8.349 -0.9999  0.9149 -0.3309
 8362SOL    HW236546   2.474   2.990   8.280  2.6208  1.6714  0.5440
 8363SOL     OW36547   2.296   2.084   6.886 -0.0959  0.2735 -0.4204
 8363SOL    HW136548   2.296   2.144   6.961 -1.9875  0.8209 -0.8571
 8363SOL    HW236549   2.388   2.089   6.861 -0.3755  1.7988 -1.1461
 8364SOL     OW36550   0.224   1.644   8.862 -0.1797 -0.7851 -0.5795
 8364SOL    HW136551   0.258   1.561   8.828 -1.5146 -2.1482  1.4576
 8364SOL    HW236552   0.226   1.636   8.957  0.0256  0.6392 -0.4574
 8365SOL     OW36553   1.461   0.965  14.754  0.0485  1.0824  0.4532
 8365SOL    HW136554   1.375   0.923  14.748  0.5861 -0.1140  1.1741
 8365SOL    HW236555   1.481   0.986  14.662  0.1783 -1.7411 -0.1490
 8366SOL     OW36556   3.960   4.326   5.491 -0.9050  0.0021  0.3025
 8366SOL    HW136557   3.989   4.417   5.485 -1.8513  0.2692 -0.2413
 8366SOL    HW236558   3.906   4.329   5.412 -0.4465 -0.1373 -0.0154
 8367SOL     OW36559   4.122   0.774  14.605  0.4628  0.7339 -0.1741
 8367SOL    HW136560   4.206   0.761  14.560  0.2595  0.0707 -0.3560
 8367SOL    HW236561   4.072   0.744  14.529 -0.7052  1.0822  0.4577
 8368SOL     OW36562   3.719   1.722  14.892 -0.4739  0.9423 -0.1427
 8368SOL    HW136563   3.782   1.765  14.949  0.0188  1.2957 -0.9555
 8368SOL    HW236564   3.680   1.665  14.959 -1.1491 -1.0079 -2.2075
 8369SOL     OW36565   4.547   2.488  17.081  0.5009  0.0838 -0.2646
 8369SOL    HW136566   4.573   2.397  17.097 -0.0133  0.0101  0.1640
 8369SOL    HW236567   4.630   2.531  17.098 -0.7729  1.9656  1.1220
 8370SOL     OW36568   4.360   0.326   0.065 -1.2443 -0.1152  0.6298
 8370SOL    HW136569   4.441   0.283   0.037 -0.7049  0.7521  0.8993
 8370SOL    HW236570   4.297   0.262   0.030 -1.3460  1.1534 -1.4948
 8371SOL     OW36571   2.945   1.851  16.653  0.1910  0.6781  0.0457
 8371SOL    HW136572   2.928   1.783  16.587 -0.2872 -1.8712  2.7933
 8371SOL    HW236573   2.956   1.802  16.735 -1.5820 -1.9651 -1.2911
 8372SOL     OW36574   1.681   2.025   6.020  0.0900  0.6237  0.0553
 8372SOL    HW136575   1.591   2.002   5.998  0.0195  0.4703  0.4981
 8372SOL    HW236576   1.699   2.093   5.955  0.7722 -0.5873 -1.0317
 8373SOL     OW36577   3.479   3.462   3.400 -0.6049  0.5777  0.3951
 8373SOL    HW136578   3.568   3.429   3.394  0.0475  2.2409  0.8459
 8373SOL    HW236579   3.446   3.411   3.474 -0.7693 -2.7063 -1.9374
 8374SOL     OW36580   4.650   1.879   6.224  0.3359  0.2196 -0.6293
 8374SOL    HW136581   4.682   1.802   6.178  1.1784  1.3254 -1.9256
 8374SOL    HW236582   4.605   1.924   6.152  0.2546 -1.8592 -1.8824
 8375SOL     OW36583   1.625   3.942  15.621 -0.2023  0.4853  0.2074
 8375SOL    HW136584   1.672   4.019  15.588  0.3131 -0.3475 -0.9775
 8375SOL    HW236585   1.674   3.933  15.702 -1.8717 -1.5711  0.9835
 8376SOL     OW36586   3.050   0.396   8.105 -0.6044 -0.0790 -0.3293
 8376SOL    HW136587   3.108   0.355   8.169 -1.5240 -0.1599  0.4514
 8376SOL    HW236588   3.087   0.484   8.114  1.3475 -0.7953 -1.2116
 8377SOL     OW36589   2.055   4.229   8.935 -0.5304  1.1796 -0.8792
 8377SOL    HW136590   2.017   4.292   8.997 -0.5453  0.2951  0.0088
 8377SOL    HW236591   2.146   4.252   8.950 -0.3812  0.6494 -0.9982
 8378SOL     OW36592   1.826   3.629   7.900  0.9037 -0.8027  0.0850
 8378SOL    HW136593   1.739   3.662   7.923  1.5665  0.8017  0.2201
 8378SOL    HW236594   1.856   3.634   7.990  3.1141  2.1215 -0.8079
 8379SOL     OW36595   3.056   1.212   0.194  0.3301 -0.7255  0.1614
 8379SOL    HW136596   3.132   1.247   0.148 -1.4179  2.4097 -0.3259
 8379SOL    HW236597   3.095   1.211   0.282 -1.9342  0.4750  1.1768
 8380SOL     OW36598   0.667   0.482   0.909 -0.4837 -0.1084  0.0340
 8380SOL    HW136599   0.692   0.542   0.839 -0.3027 -2.7396 -2.1635
 8380SOL    HW236600   0.752   0.450   0.939 -0.6317 -0.6607 -0.1468
 8381SOL     OW36601   3.190   2.848   2.366  0.4743 -0.9848 -0.0436
 8381SOL    HW136602   3.185   2.768   2.313 -0.8236 -0.6833 -0.3864
 8381SOL    HW236603   3.253   2.897   2.314  0.2137  0.6546  1.1730
 8382SOL     OW36604   0.400   0.244   5.934  0.7727  0.3535  0.3861
 8382SOL    HW136605   0.407   0.182   5.860 -0.7527 -0.1075  0.6242
 8382SOL    HW236606   0.379   0.323   5.884  0.2521  0.1933  0.3430
 8383SOL     OW36607   4.631   0.465  13.942 -0.1382 -0.2658  0.3235
 8383SOL    HW136608   4.596   0.453  13.853 -0.2550 -1.0917  0.4871
 8383SOL    HW236609   4.580   0.400  13.990 -0.9495  0.4260  0.4098
 8384SOL     OW36610   3.180   0.164   1.109 -0.0938  0.1369  0.4467
 8384SOL    HW136611   3.177   0.183   1.203 -0.7880 -0.6197  0.5714
 8384SOL    HW236612   3.238   0.235   1.082  1.2309 -1.7303 -1.6435
 8385SOL     OW36613   3.549   3.410  17.113 -0.5662 -0.1793 -0.1418
 8385SOL    HW136614   3.493   3.395  17.037 -0.4171  0.0545 -0.2986
 8385SOL    HW236615   3.625   3.440  17.064  0.7821 -0.0369  2.0500
 8386SOL     OW36616   1.042   2.095   5.850  0.1827 -0.2088 -0.2781
 8386SOL    HW136617   0.947   2.084   5.850 -0.1942  3.2262 -0.7064
 8386SOL    HW236618   1.061   2.147   5.772 -4.9510  1.0676 -0.6638
 8387SOL     OW36619   4.292   3.956   2.975 -0.1314  0.6601  0.4039
 8387SOL    HW136620   4.276   3.873   2.930  0.2859 -0.2880  2.0046
 8387SOL    HW236621   4.309   4.016   2.902 -0.1741  1.7895  1.3186
 8388SOL     OW36622   1.758   3.035   2.822 -0.2248 -0.2249 -0.1131
 8388SOL    HW136623   1.825   3.073   2.765 -0.6402  0.5214 -0.1091
 8388SOL    HW236624   1.687   3.096   2.802 -1.2978 -1.3397  0.3074
 8389SOL     OW36625   3.584   0.641   1.108  0.2543  0.1994  0.2668
 8389SOL    HW136626   3.492   0.628   1.084  0.8670 -3.1534 -0.2961
 8389SOL    HW236627   3.582   0.731   1.139 -0.2550  1.3449 -3.1953
 8390SOL     OW36628   1.541   4.699   8.958  0.7685 -0.1722 -0.1861
 8390SOL    HW136629   1.606   0.034   8.919 -1.0443  0.8050 -1.7465
 8390SOL    HW236630   1.505   0.023   9.033 -0.0465  0.9598 -1.2933
 8391SOL     OW36631   3.411   3.609  15.591  0.0807 -0.1297  0.1438
 8391SOL    HW136632   3.363   3.624  15.510 -3.8442 -2.6653  1.9812
 8391SOL    HW236633   3.342   3.613  15.657  0.4100 -0.2178  0.4945
 8392SOL     OW36634   0.292   3.241   9.774  0.1909  0.0616  0.2085
 8392SOL    HW136635   0.344   3.188   9.835 -0.9042 -2.3435 -0.9363
 8392SOL    HW236636   0.202   3.232   9.807  0.7048 -0.6164  1.4543
 8393SOL     OW36637   2.187   1.501  11.076  0.2136 -0.5633  0.8682
 8393SOL    HW136638   2.150   1.437  11.137 -1.1867  0.6674  1.3297
 8393SOL    HW236639   2.245   1.448  11.022 -0.8801 -0.0436 -0.8255
 8394SOL     OW36640   4.207   2.611   5.411  0.3547  0.3566 -0.2086
 8394SOL    HW136641   4.136   2.617   5.347  0.2146  1.2266  0.0316
 8394SOL    HW236642   4.192   2.523   5.447  0.7191  1.2297  2.1012
 8395SOL     OW36643   1.823   4.035  13.189 -0.0151  0.4201 -0.2716
 8395SOL    HW136644   1.814   4.073  13.101  0.6285 -0.3113 -0.6488
 8395SOL    HW236645   1.733   4.033  13.222  0.4730  1.2984  1.1157
 8396SOL     OW36646   1.878   4.308   5.418  0.0038  0.2139  0.1932
 8396SOL    HW136647   1.840   4.285   5.333  0.1796  0.4493  0.0517
 8396SOL    HW236648   1.924   4.227   5.437  0.7945  0.6720  0.2195
 8397SOL     OW36649   0.404   4.065   4.338  0.2583 -0.1558  0.2860
 8397SOL    HW136650   0.500   4.071   4.342  0.2415  1.2879 -1.5947
 8397SOL    HW236651   0.375   4.126   4.270 -1.7040 -3.3167 -1.7024
 8398SOL     OW36652   2.926   0.570   2.253  0.1246 -0.8593 -0.1381
 8398SOL    HW136653   2.844   0.565   2.205  2.2142 -2.1844 -3.6152
 8398SOL    HW236654   2.955   0.481   2.231  0.6502 -0.5851 -0.5721
 8399SOL     OW36655   2.384   2.729  16.366 -0.1831  0.5443 -0.2621
 8399SOL    HW136656   2.396   2.636  16.345  2.4726  0.8713 -0.2136
 8399SOL    HW236657   2.309   2.719  16.425  0.1220  0.5915  0.1314
 8400SOL     OW36658   4.704   2.605   5.625  0.3619 -0.1533 -0.6083
 8400SOL    HW136659   0.007   2.580   5.537  0.9536 -2.3108  0.1942
 8400SOL    HW236660   4.615   2.638   5.610 -0.1623 -1.3800 -0.1813
 8401SOL     OW36661   0.522   1.978   2.922 -0.1415 -0.1574  0.1269
 8401SOL    HW136662   0.527   2.050   2.859  1.5255  0.7772  1.3221
 8401SOL    HW236663   0.615   1.955   2.913  0.3602  1.9364 -0.0318
 8402SOL     OW36664   2.052   1.156   3.429 -0.3606  0.0831  0.0372
 8402SOL    HW136665   2.070   1.106   3.350  0.8781 -2.2153  1.7837
 8402SOL    HW236666   2.101   1.107   3.495 -0.2064  0.6096  0.3188
 8403SOL     OW36667   1.122   2.049  13.243  0.4898 -0.7094 -0.1350
 8403SOL    HW136668   1.192   2.090  13.293  0.9883  0.4401 -1.7526
 8403SOL    HW236669   1.049   2.072  13.299  1.1435  0.8048  0.0835
 8404SOL     OW36670   0.983   3.737   7.006  0.0598 -0.1588 -0.1997
 8404SOL    HW136671   1.014   3.780   6.927  0.5445 -2.9503 -1.5468
 8404SOL    HW236672   1.033   3.780   7.075  0.9803  1.0681 -1.6618
 8405SOL     OW36673   0.183   4.626  14.344 -0.1411  0.2152  0.2878
 8405SOL    HW136674   0.183   4.532  14.323 -1.7000  0.3362 -0.2328
 8405SOL    HW236675   0.267   4.650  14.305 -0.0209  1.0328  1.0721
 8406SOL     OW36676   2.359   2.175   2.928  0.0600 -0.2388 -0.2023
 8406SOL    HW136677   2.310   2.229   2.866  1.1029  1.5302  0.5023
 8406SOL    HW236678   2.432   2.235   2.946 -0.9920  0.6423  1.1257
 8407SOL     OW36679   2.609   2.733   2.165  0.2580 -0.3493 -0.4426
 8407SOL    HW136680   2.547   2.720   2.237  0.0882 -0.7110 -0.6555
 8407SOL    HW236681   2.552   2.732   2.088  0.4699 -0.5153 -0.5984
 8408SOL     OW36682   0.594   4.126   7.179  0.4251  0.0637 -0.0866
 8408SOL    HW136683   0.510   4.115   7.134 -0.0882 -1.2312  1.2097
 8408SOL    HW236684   0.663   4.138   7.113 -0.1043  1.7763 -0.3350
 8409SOL     OW36685   2.423   4.465   2.426  0.2885  0.0600 -0.3229
 8409SOL    HW136686   2.416   4.409   2.348  1.1642 -1.3400  0.6101
 8409SOL    HW236687   2.372   4.541   2.398 -1.1277 -0.5480  0.6214
 8410SOL     OW36688   1.730   1.428   5.469  0.5564  0.1614  0.2509
 8410SOL    HW136689   1.776   1.382   5.399 -0.8833  0.5912 -0.9775
 8410SOL    HW236690   1.651   1.376   5.479 -0.7809  2.0678 -0.3391
 8411SOL     OW36691   1.204   1.246   3.117  0.5447 -0.1466 -0.6480
 8411SOL    HW136692   1.226   1.258   3.209 -1.3869 -0.5845 -0.1286
 8411SOL    HW236693   1.213   1.151   3.113 -1.9076 -0.4033 -0.2717
 8412SOL     OW36694   4.397   0.940   4.968  0.2586  0.2915 -0.3119
 8412SOL    HW136695   4.333   1.003   4.934 -1.9442 -0.9164  1.5721
 8412SOL    HW236696   4.343   0.862   4.953 -0.6627  0.6765  0.9942
 8413SOL     OW36697   3.355   4.382   0.718  0.1367 -0.2602 -0.8706
 8413SOL    HW136698   3.283   4.446   0.721 -0.6467 -1.1877  0.5282
 8413SOL    HW236699   3.306   4.316   0.670  1.0735  0.0490 -2.2392
 8414SOL     OW36700   2.593   3.612   1.933  0.1327 -0.6532 -0.1261
 8414SOL    HW136701   2.539   3.675   1.885  0.5239 -3.0231 -3.6170
 8414SOL    HW236702   2.625   3.680   1.993 -2.0941  0.4503 -0.1724
 8415SOL     OW36703   2.398   3.002   7.409 -0.3661 -0.1240  0.1275
 8415SOL    HW136704   2.405   2.929   7.348  1.5485  0.7431 -0.6843
 8415SOL    HW236705   2.337   2.965   7.473 -1.0838 -1.1762 -1.1714
 8416SOL     OW36706   0.218   0.894  17.054  0.2333  0.3376  0.5320
 8416SOL    HW136707   0.252   0.808  17.031  0.4729  0.8679 -1.1107
 8416SOL    HW236708   0.286   0.947  17.097  0.4740 -0.9402  1.7229
 8417SOL     OW36709   1.777   2.890   6.053  0.0354 -1.2203 -0.1270
 8417SOL    HW136710   1.740   2.902   5.965  2.5417 -0.1509 -1.0403
 8417SOL    HW236711   1.852   2.836   6.029  0.6170 -0.7587  0.6688
 8418SOL     OW36712   1.578   0.078   5.805  0.8516 -0.0567  0.3217
 8418SOL    HW136713   1.579   0.159   5.855 -2.6731 -0.8746  1.7316
 8418SOL    HW236714   1.484   0.065   5.796  0.4615  1.0333  2.7665
 8419SOL     OW36715   3.660   3.626   4.377  0.0625  0.2017  0.0823
 8419SOL    HW136716   3.573   3.593   4.399  0.1323 -0.1496 -0.1532
 8419SOL    HW236717   3.648   3.660   4.288 -1.5174 -2.1116 -0.5957
 8420SOL     OW36718   3.376   1.728  12.727  0.0937 -0.4722  0.0015
 8420SOL    HW136719   3.434   1.653  12.726 -1.6519 -1.8156 -0.2996
 8420SOL    HW236720   3.390   1.763  12.639 -1.2747  0.9147  0.3179
 8421SOL     OW36721   0.388   4.270  16.657 -0.3007  0.3131 -0.0420
 8421SOL    HW136722   0.439   4.242  16.733  0.3613 -2.4863 -1.5012
 8421SOL    HW236723   0.299   4.284  16.689 -0.0407  1.0610  0.3556
 8422SOL     OW36724   1.258   0.560  14.395  0.0107  0.2800  0.0288
 8422SOL    HW136725   1.213   0.596  14.319  1.2326  0.0767 -0.7940
 8422SOL    HW236726   1.190   0.519  14.448 -0.5975 -1.9178 -2.4349
 8423SOL     OW36727   0.209   0.462   1.979 -0.4058 -0.3536  0.0682
 8423SOL    HW136728   0.157   0.533   1.941 -0.1331  0.6962  1.6333
 8423SOL    HW236729   0.296   0.468   1.940  0.0467 -0.9887  0.9818
 8424SOL     OW36730   1.268   1.140  15.027  0.1249  0.2634  0.5107
 8424SOL    HW136731   1.334   1.110  14.965 -3.3766 -3.0203 -1.6800
 8424SOL    HW236732   1.192   1.155  14.971 -0.1307  3.4177  1.7315
 8425SOL     OW36733   1.600   3.168   4.295  0.0593  0.0325  0.2674
 8425SOL    HW136734   1.674   3.145   4.240  0.1648  0.9141  0.0266
 8425SOL    HW236735   1.537   3.197   4.229 -0.1312 -1.1470 -0.0684
 8426SOL     OW36736   1.785   1.498   9.717  0.2508  0.1291 -0.2783
 8426SOL    HW136737   1.834   1.579   9.728 -0.8310  0.8053 -0.4609
 8426SOL    HW236738   1.778   1.470   9.808 -1.3795  0.1541 -0.3868
 8427SOL     OW36739   0.712   4.508   7.879 -0.2120 -0.4200 -0.5538
 8427SOL    HW136740   0.737   4.600   7.893 -0.1316 -0.4806 -0.2906
 8427SOL    HW236741   0.740   4.504   7.788  1.6694  0.9078 -0.0570
 8428SOL     OW36742   1.346   2.952   6.437 -0.4402 -0.3873  0.0176
 8428SOL    HW136743   1.439   2.939   6.418 -0.2161  1.1865  0.0010
 8428SOL    HW236744   1.336   3.041   6.402  0.1555 -1.0543 -1.8584
 8429SOL     OW36745   3.563   2.955   0.971  0.2872  0.0878 -0.0591
 8429SOL    HW136746   3.479   2.999   0.982 -1.1302 -2.4958 -0.5506
 8429SOL    HW236747   3.565   2.961   0.876  0.8062 -0.4459 -0.0811
 8430SOL     OW36748   0.631   4.491   5.268  0.2760  0.1506 -0.1206
 8430SOL    HW136749   0.700   4.440   5.227 -2.1784 -0.6112 -3.3645
 8430SOL    HW236750   0.595   4.421   5.323  0.0975 -0.0464 -0.4883
 8431SOL     OW36751   4.680   4.309  15.689 -0.1839  0.4810  0.2144
 8431SOL    HW136752   4.713   4.381  15.742  0.5584  0.5711 -0.3734
 8431SOL    HW236753   4.594   4.292  15.728 -0.0982 -0.8262 -0.1620
 8432SOL     OW36754   0.429   2.072  15.323  0.2314  0.1607 -0.0201
 8432SOL    HW136755   0.484   2.138  15.282  2.8906 -2.2299 -0.3005
 8432SOL    HW236756   0.485   1.996  15.311 -1.7037 -1.1784 -0.5455
 8433SOL     OW36757   1.052   0.797   2.873 -0.0762 -0.2796 -0.0423
 8433SOL    HW136758   1.113   0.870   2.884  1.0216 -1.2180  0.0713
 8433SOL    HW236759   1.031   0.810   2.780  2.8703 -1.8764 -0.9323
 8434SOL     OW36760   2.016   2.370   1.555 -0.6604 -0.5776 -0.3714
 8434SOL    HW136761   2.034   2.453   1.511 -1.3610 -0.7659 -1.0128
 8434SOL    HW236762   2.098   2.324   1.539  0.2179  1.9550 -3.1478
 8435SOL     OW36763   3.923   4.216   1.707 -0.2085  0.2339 -0.3644
 8435SOL    HW136764   3.951   4.203   1.616  0.0124  0.9961 -0.4021
 8435SOL    HW236765   3.939   4.307   1.728 -2.8923 -0.1292  3.2500
 8436SOL     OW36766   2.594   2.739   1.756  0.1544 -0.2491  0.3977
 8436SOL    HW136767   2.517   2.732   1.813 -0.3910  0.1067 -0.3068
 8436SOL    HW236768   2.661   2.710   1.819  1.2677  1.3552 -0.0475
 8437SOL     OW36769   0.721   4.515   0.341  0.1784 -0.7493  0.0111
 8437SOL    HW136770   0.806   4.553   0.318 -0.6025  1.0383  0.0538
 8437SOL    HW236771   0.673   4.536   0.262  0.6954  0.7387  0.0920
 8438SOL     OW36772   0.436   3.733   3.420 -0.2493  0.0184 -0.4682
 8438SOL    HW136773   0.460   3.696   3.335  1.4708 -0.6885  0.3368
 8438SOL    HW236774   0.386   3.659   3.456  0.9315 -0.3699  0.3662
 8439SOL     OW36775   1.717   1.425   8.265  0.3174  0.3664  0.7078
 8439SOL    HW136776   1.715   1.521   8.260 -0.8480  0.4257  2.5792
 8439SOL    HW236777   1.690   1.404   8.176 -2.3345  1.9626  1.1448
 8440SOL     OW36778   0.010   4.547  12.821  0.4370  0.1028 -0.2188
 8440SOL    HW136779   0.061   4.469  12.799  1.2734  1.0002 -1.5027
 8440SOL    HW236780   0.080   4.608  12.842  0.3748 -0.1301  0.6650
 8441SOL     OW36781   1.899   1.300   4.177 -0.3623 -0.2809  0.3567
 8441SOL    HW136782   1.911   1.287   4.271  2.4710 -0.3674 -0.0274
 8441SOL    HW236783   1.837   1.230   4.157 -0.9762  0.1641  0.6895
 8442SOL     OW36784   2.745   0.180   1.306  0.2235  0.2508 -0.1233
 8442SOL    HW136785   2.711   0.156   1.220  1.0402 -0.6890 -0.1899
 8442SOL    HW236786   2.667   0.166   1.360  1.4245  0.2946  1.6267
 8443SOL     OW36787   0.030   2.267   4.167  0.0467 -0.3144 -0.4827
 8443SOL    HW136788   4.691   2.201   4.195  0.8543 -1.1410 -0.6498
 8443SOL    HW236789   4.691   2.330   4.130  0.5739  0.4048 -0.1416
 8444SOL     OW36790   1.823   4.194   3.036  0.1370  0.0368  0.1307
 8444SOL    HW136791   1.880   4.252   2.985  3.5668 -4.3879 -1.0991
 8444SOL    HW236792   1.792   4.249   3.108 -0.5732 -1.6504  1.1080
 8445SOL     OW36793   4.662   1.714   4.824 -0.2853 -0.5507  0.1145
 8445SOL    HW136794   0.027   1.749   4.838  0.3147 -2.2751  0.5617
 8445SOL    HW236795   4.639   1.767   4.748  0.7129  0.8401  0.7752
 8446SOL     OW36796   2.051   0.703   8.077 -0.4429 -0.0478  0.1371
 8446SOL    HW136797   2.044   0.730   7.986 -1.7234 -1.3507 -0.1495
 8446SOL    HW236798   2.038   0.778   8.135 -2.7068 -1.7561  1.8639
 8447SOL     OW36799   4.437   3.877   5.532 -0.4747  0.4902 -0.1348
 8447SOL    HW136800   4.491   3.842   5.462 -0.3422 -0.9321  0.6797
 8447SOL    HW236801   4.354   3.877   5.483 -0.2127 -1.1517 -0.5557
 8448SOL     OW36802   2.936   1.685   2.207 -0.2979  0.2863 -0.1057
 8448SOL    HW136803   3.008   1.651   2.259  0.0048 -0.2735 -0.8912
 8448SOL    HW236804   2.961   1.661   2.118 -0.8845  1.9367 -0.7193
 8449SOL     OW36805   2.541   0.098   2.741 -0.0784  0.1795 -0.2281
 8449SOL    HW136806   2.535   0.192   2.758  1.2181  0.1035  0.6273
 8449SOL    HW236807   2.515   0.104   2.649  0.6968 -0.0101 -0.4500
 8450SOL     OW36808   3.171   3.360   6.736 -0.2978  0.0375 -0.1329
 8450SOL    HW136809   3.117   3.399   6.666 -1.5913  0.0321  0.8678
 8450SOL    HW236810   3.260   3.388   6.712  0.1729 -0.4840  1.0308
 8451SOL     OW36811   1.211   1.400   6.206  0.2755  0.2946 -0.3703
 8451SOL    HW136812   1.278   1.424   6.270 -0.9837  0.8152  0.7878
 8451SOL    HW236813   1.187   1.309   6.225  1.2746  0.0615 -0.2275
 8452SOL     OW36814   4.625   0.860   9.044 -0.8314  0.0799 -0.1540
 8452SOL    HW136815   4.672   0.941   9.063 -0.2441 -0.5828  1.2336
 8452SOL    HW236816   4.618   0.834   9.136  0.3447  0.9704  0.1878
 8453SOL     OW36817   1.410   3.958   0.069  0.2388  0.3089  0.1206
 8453SOL    HW136818   1.486   4.015   0.085  0.1898  0.8108 -1.4216
 8453SOL    HW236819   1.412   3.907   0.149  0.4523 -0.9148 -0.6691
 8454SOL     OW36820   3.114   2.390   7.496 -0.3255 -0.7784 -0.6543
 8454SOL    HW136821   3.074   2.420   7.577  0.9694  3.5729 -1.6567
 8454SOL    HW236822   3.127   2.469   7.443  0.3920 -0.5368 -0.1061
 8455SOL     OW36823   4.137   1.512   2.357  0.5030 -0.0888 -0.2233
 8455SOL    HW136824   4.092   1.473   2.282  0.4947 -0.8421  0.1793
 8455SOL    HW236825   4.097   1.599   2.351 -0.6616 -0.6191 -0.1169
 8456SOL     OW36826   3.016   1.038   4.601 -0.5118  0.2931 -0.2239
 8456SOL    HW136827   2.949   1.034   4.533 -1.1236 -0.3221  0.4213
 8456SOL    HW236828   3.045   0.948   4.593  1.7360  0.8108  1.9507
 8457SOL     OW36829   3.689   3.722   5.054  0.7148  0.1038  0.7863
 8457SOL    HW136830   3.699   3.707   5.148 -0.2260 -0.0522  0.8548
 8457SOL    HW236831   3.669   3.634   5.023 -1.3104  0.1720  1.8824
 8458SOL     OW36832   0.530   3.557  13.727  0.1480  0.2269 -0.0654
 8458SOL    HW136833   0.514   3.490  13.794 -1.1008  0.5814 -0.0117
 8458SOL    HW236834   0.625   3.568  13.730 -0.0613  1.7273  1.1928
 8459SOL     OW36835   0.221   0.277  15.950 -0.0224 -0.6698  0.1194
 8459SOL    HW136836   0.239   0.336  16.024 -1.6812 -0.9988  0.7972
 8459SOL    HW236837   0.284   0.302  15.883  1.4303 -2.4747  0.8230
 8460SOL     OW36838   1.602   0.592  13.353 -0.2234  0.5130 -0.3261
 8460SOL    HW136839   1.673   0.641  13.394 -0.0842 -0.6833  0.8484
 8460SOL    HW236840   1.642   0.580  13.267 -1.5783 -0.7326 -0.7832
 8461SOL     OW36841   0.011   2.931   4.158  0.3067 -0.4274  0.1844
 8461SOL    HW136842   0.087   2.915   4.102 -0.4726  1.5837 -1.4768
 8461SOL    HW236843   0.028   3.019   4.192 -1.5376  0.0884 -0.2244
 8462SOL     OW36844   4.289   2.140   1.591 -0.4378 -0.1208 -0.1374
 8462SOL    HW136845   4.324   2.216   1.637 -2.1469 -1.4378  3.3355
 8462SOL    HW236846   4.228   2.119   1.661  0.2464  0.6644  0.6899
 8463SOL     OW36847   2.403   0.538  14.629 -0.5644  0.0940 -0.3231
 8463SOL    HW136848   2.474   0.575  14.577  1.0332 -1.2716  0.8789
 8463SOL    HW236849   2.380   0.614  14.683 -0.1544  0.1332 -0.2021
 8464SOL     OW36850   2.411   0.578   8.614 -0.0707 -0.2850 -0.1695
 8464SOL    HW136851   2.460   0.637   8.557 -0.3531  0.4394  0.3508
 8464SOL    HW236852   2.397   0.508   8.549 -1.4888  0.4841 -0.7011
 8465SOL     OW36853   1.516   1.180  14.284 -0.4403  0.3842  0.1253
 8465SOL    HW136854   1.496   1.257  14.337  0.0262  1.4497 -1.2394
 8465SOL    HW236855   1.603   1.196  14.248 -1.0575  0.8768 -1.1393
 8466SOL     OW36856   1.839   3.551   8.911 -0.4280  0.4663  0.2042
 8466SOL    HW136857   1.859   3.643   8.890 -0.8337 -0.1855 -2.9841
 8466SOL    HW236858   1.816   3.520   8.824 -1.7453  3.3890 -0.4684
 8467SOL     OW36859   2.268   1.649  14.230 -0.5424  0.3687  0.5066
 8467SOL    HW136860   2.211   1.725  14.224  1.8421  2.1712  0.8460
 8467SOL    HW236861   2.347   1.685  14.271 -0.5712  1.1069 -0.0865
 8468SOL     OW36862   1.047   3.148  10.567 -0.3629 -0.4641 -0.1222
 8468SOL    HW136863   1.083   3.063  10.592  0.0943 -0.1872  0.1700
 8468SOL    HW236864   1.077   3.205  10.638  2.1723 -0.5305 -1.1558
 8469SOL     OW36865   4.119   3.266   3.363  0.6668  0.0855 -0.3671
 8469SOL    HW136866   4.127   3.251   3.457  0.7333  0.5699 -0.2912
 8469SOL    HW236867   4.094   3.178   3.337  0.4537  1.3576 -4.5472
 8470SOL     OW36868   0.707   2.018  15.012 -0.3168 -0.3290  0.1501
 8470SOL    HW136869   0.691   2.007  15.105  2.5588  1.5621  0.8820
 8470SOL    HW236870   0.616   2.001  14.988  0.1293 -1.1021 -1.0156
 8471SOL     OW36871   4.038   1.932   5.185 -0.5466  0.8551 -0.0308
 8471SOL    HW136872   3.969   1.866   5.197  0.9143 -0.7328 -0.4403
 8471SOL    HW236873   3.985   1.997   5.138  0.1526 -0.1276 -2.1377
 8472SOL     OW36874   3.647   2.722  17.257 -0.1315 -0.0678 -0.2309
 8472SOL    HW136875   3.591   2.775  17.200 -0.3805 -0.0952 -0.0152
 8472SOL    HW236876   3.671   2.652  17.197  1.2705 -0.2701  0.5704
 8473SOL     OW36877   2.970   1.018  11.151 -0.7351  0.5203 -0.2377
 8473SOL    HW136878   2.887   1.017  11.198 -1.3212  2.4509 -1.2031
 8473SOL    HW236879   2.991   0.926  11.139 -0.1163  0.7347 -0.7891
 8474SOL     OW36880   0.467   4.510  11.835  0.0159  0.0380  0.1256
 8474SOL    HW136881   0.515   4.513  11.918 -1.6899  0.7472  1.1087
 8474SOL    HW236882   0.404   4.578  11.860 -0.2449  0.0058 -0.4590
 8475SOL     OW36883   0.615   3.646   8.614  0.5136 -0.8384  0.3313
 8475SOL    HW136884   0.592   3.719   8.671 -0.9664 -0.4745 -0.7540
 8475SOL    HW236885   0.646   3.685   8.533  0.8716  1.0561  1.3861
 8476SOL     OW36886   2.170   2.393   7.732 -0.1662  0.0684 -0.0028
 8476SOL    HW136887   2.263   2.415   7.735  0.1957 -1.6281  1.7813
 8476SOL    HW236888   2.179   2.304   7.697  0.4956 -0.1610  0.7574
 8477SOL     OW36889   4.514   4.609   8.581 -0.2995 -0.5030  0.3131
 8477SOL    HW136890   4.437   4.566   8.544 -0.3284  0.3775 -0.6595
 8477SOL    HW236891   4.574   4.535   8.578  0.4166  0.1666 -1.5265
 8478SOL     OW36892   0.713   2.258   4.891  0.5668 -0.2618 -0.5288
 8478SOL    HW136893   0.674   2.231   4.807 -0.5220 -2.7716  0.7756
 8478SOL    HW236894   0.727   2.352   4.886  0.3620 -0.2397 -0.7321
 8479SOL     OW36895   2.735   4.539   3.855  0.1868 -0.0409  0.1704
 8479SOL    HW136896   2.768   4.626   3.877  0.0367  0.3699 -1.1734
 8479SOL    HW236897   2.806   4.493   3.811 -0.7514 -2.0613  0.7749
 8480SOL     OW36898   0.224   1.486  15.773  0.2033 -0.2979 -0.1342
 8480SOL    HW136899   0.314   1.454  15.774 -0.8179 -3.1026  1.9647
 8480SOL    HW236900   0.178   1.403  15.765 -1.2280  0.3888  0.9688
 8481SOL     OW36901   1.625   1.403   2.363  0.0920 -0.4147 -0.1951
 8481SOL    HW136902   1.577   1.480   2.332  2.1865  0.9864  0.0329
 8481SOL    HW236903   1.556   1.353   2.406 -0.7288  1.8431  1.1167
 8482SOL     OW36904   3.227   1.840   0.059  0.2777 -0.1521  0.2617
 8482SOL    HW136905   3.278   1.902   0.006 -0.6861 -1.5632 -2.3141
 8482SOL    HW236906   3.214   1.763   0.003 -0.9877 -0.8675  1.5484
 8483SOL     OW36907   0.292   2.370   2.714 -0.3047  0.2523 -0.0034
 8483SOL    HW136908   0.363   2.434   2.723 -0.2931  0.2505 -0.0793
 8483SOL    HW236909   0.222   2.405   2.769 -1.5133  0.2953 -1.5610
 8484SOL     OW36910   1.559   3.607   2.603 -0.7908 -0.2013 -0.0951
 8484SOL    HW136911   1.478   3.572   2.567 -0.6691  0.5859 -1.1199
 8484SOL    HW236912   1.522   3.648   2.681  2.0663 -2.6694  2.5762
 8485SOL     OW36913   3.938   1.359   7.177  0.4666 -0.1028 -0.5585
 8485SOL    HW136914   3.993   1.396   7.108  0.7800 -1.1097 -0.8474
 8485SOL    HW236915   3.960   1.266   7.178  2.6691  0.4328 -0.6163
 8486SOL     OW36916   4.477   0.141   6.427 -0.2825 -0.8581 -0.1959
 8486SOL    HW136917   4.481   0.062   6.374  1.1392 -0.3122 -0.9114
 8486SOL    HW236918   4.454   0.206   6.361  1.2148 -0.4659 -0.3319
 8487SOL     OW36919   3.070   0.813   5.988 -0.8000  0.3990 -0.1162
 8487SOL    HW136920   2.996   0.850   6.036 -0.1699 -1.1763  2.0964
 8487SOL    HW236921   3.109   0.889   5.946  0.5036  1.3812  2.8899
 8488SOL     OW36922   3.194   0.197   0.149 -0.5739 -0.3597 -0.2539
 8488SOL    HW136923   3.160   0.112   0.176 -0.4723 -0.4005 -0.2555
 8488SOL    HW236924   3.265   0.164   0.094 -0.4816 -1.9727  0.8368
 8489SOL     OW36925   2.342   1.021   7.554 -0.2344 -0.0414 -0.1040
 8489SOL    HW136926   2.365   1.114   7.554 -0.0005 -0.0995 -1.3669
 8489SOL    HW236927   2.300   1.008   7.469  1.5875  0.3352 -1.0599
 8490SOL     OW36928   2.744   0.252   8.551 -0.3256  0.2445  0.4352
 8490SOL    HW136929   2.802   0.328   8.558 -1.2536  0.8767  1.2417
 8490SOL    HW236930   2.698   0.254   8.636 -2.4899 -1.1040 -0.6992
 8491SOL     OW36931   1.178   0.929  14.759  0.3943  0.1284  0.5214
 8491SOL    HW136932   1.133   0.998  14.808 -1.4195 -2.0848  1.9983
 8491SOL    HW236933   1.176   0.972  14.674  1.3771 -1.8493 -0.5064
 8492SOL     OW36934   3.348   1.690   1.709 -0.2444 -0.1202  0.6340
 8492SOL    HW136935   3.264   1.643   1.703 -0.2143 -0.1447  0.4144
 8492SOL    HW236936   3.408   1.630   1.664 -1.8331 -1.7783  0.7184
 8493SOL     OW36937   1.932   0.478   2.757 -0.7197 -0.4322  0.7382
 8493SOL    HW136938   1.908   0.504   2.668  2.4957 -0.4300 -0.1208
 8493SOL    HW236939   1.883   0.547   2.802 -0.6825  0.7405 -1.0411
 8494SOL     OW36940   1.850   3.196  17.357 -0.7080  0.1316 -0.2787
 8494SOL    HW136941   1.889   3.177  17.443 -0.9642  0.6627 -0.0447
 8494SOL    HW236942   1.925   3.174  17.302 -1.2515 -1.5236 -0.3453
 8495SOL     OW36943   0.272   3.267  14.248 -0.1700  0.0478 -0.2362
 8495SOL    HW136944   0.308   3.354  14.229  1.0051 -0.6901 -1.4064
 8495SOL    HW236945   0.344   3.226  14.295 -1.2149 -1.0057  0.4468
 8496SOL     OW36946   1.053   2.962   5.360 -0.2263 -0.1085  0.3788
 8496SOL    HW136947   1.127   2.958   5.298 -2.6339 -0.6199 -2.4779
 8496SOL    HW236948   1.093   3.017   5.427  0.3398  1.3187 -1.1067
 8497SOL     OW36949   3.441   3.025  15.368 -1.1174 -0.4776  0.9718
 8497SOL    HW136950   3.536   3.020  15.353 -1.3258  0.5199 -0.6518
 8497SOL    HW236951   3.418   3.040  15.276  0.6558 -0.5936  0.5076
 8498SOL     OW36952   0.868   0.930  16.910  0.7516  0.1793 -0.2188
 8498SOL    HW136953   0.906   1.018  16.914 -0.4318  0.7067 -0.5829
 8498SOL    HW236954   0.861   0.907  16.818 -0.2358  0.4067 -0.2104
 8499SOL     OW36955   2.000   3.846   1.420  0.3674  0.3422  0.1196
 8499SOL    HW136956   1.949   3.906   1.474  0.2423 -0.0590  0.4396
 8499SOL    HW236957   2.000   3.768   1.474  2.0035  0.5410  0.4304
 8500SOL     OW36958   2.854   0.715  10.171 -0.0833 -0.0227  0.7052
 8500SOL    HW136959   2.856   0.810  10.166 -0.3330 -0.1144 -1.3004
 8500SOL    HW236960   2.855   0.690  10.263 -0.6689  0.9523  0.9749
 8501SOL     OW36961   0.946   3.624   2.923 -0.3842 -0.1037 -0.0018
 8501SOL    HW136962   0.899   3.660   2.998  0.4592 -1.6278  1.2567
 8501SOL    HW236963   0.881   3.594   2.860  0.3596 -2.0608  0.1639
 8502SOL     OW36964   1.396   0.124   4.564 -0.7198 -0.6201 -0.1548
 8502SOL    HW136965   1.448   0.163   4.635 -2.0636  2.6248 -0.9432
 8502SOL    HW236966   1.380   0.208   4.522 -0.9955  0.2168  1.6187
 8503SOL     OW36967   0.107   2.896   8.004 -0.0953  0.3815 -0.1864
 8503SOL    HW136968   0.164   2.950   8.059 -1.3131  0.6213  0.8362
 8503SOL    HW236969   0.052   2.858   8.073 -0.9703  2.8087  0.4498
 8504SOL     OW36970   4.095   4.579   3.012 -0.2239  0.5190  0.1422
 8504SOL    HW136971   4.011   4.615   2.983  0.2755  0.5587 -1.2517
 8504SOL    HW236972   4.065   4.531   3.089  0.6879  0.4361  0.4374
 8505SOL     OW36973   0.720   0.214   7.428 -0.6540 -0.3768  0.2199
 8505SOL    HW136974   0.783   0.171   7.485 -0.6697 -1.4327 -0.5597
 8505SOL    HW236975   0.638   0.211   7.477 -1.2397  0.4734 -0.7022
 8506SOL     OW36976   4.128   0.736   2.039  0.1512 -0.1901  0.1336
 8506SOL    HW136977   4.033   0.736   2.043  0.0959 -0.6172 -1.2501
 8506SOL    HW236978   4.156   0.649   2.070 -0.5805 -1.0615 -1.7011
 8507SOL     OW36979   4.074   1.816   3.111 -0.2555 -0.4674 -0.2102
 8507SOL    HW136980   4.021   1.772   3.178  1.7361 -2.1082  0.2709
 8507SOL    HW236981   4.087   1.748   3.045  0.3497  1.2205 -1.8332
 8508SOL     OW36982   3.643   1.738   2.420 -0.1131  0.2918  0.0945
 8508SOL    HW136983   3.641   1.771   2.509 -1.0836  0.3507  0.0438
 8508SOL    HW236984   3.697   1.659   2.422  0.4109  0.6954  1.6821
 8509SOL     OW36985   3.658   0.356  16.175  0.2909  0.2253 -0.2011
 8509SOL    HW136986   3.727   0.419  16.200  0.3330 -0.2123  0.7858
 8509SOL    HW236987   3.611   0.345  16.258  1.0783 -0.4021  0.1574
 8510SOL     OW36988   0.122   2.016   6.621  0.7859 -0.5328  0.7764
 8510SOL    HW136989   0.052   1.976   6.568  1.0349 -1.2367  0.9853
 8510SOL    HW236990   0.067   2.087   6.656  1.4445  1.2377 -1.7195
 8511SOL     OW36991   0.760   1.573  14.688  0.8368  0.1195 -0.0304
 8511SOL    HW136992   0.723   1.525  14.761 -3.0529  0.2174 -1.9464
 8511SOL    HW236993   0.801   1.508  14.630  0.6848  0.3546 -0.4039
 8512SOL     OW36994   3.213   4.594  16.900  0.1909 -0.1008 -0.5106
 8512SOL    HW136995   3.173   4.609  16.986  0.5348  1.2985 -0.6112
 8512SOL    HW236996   3.226   4.683  16.868  1.6071 -0.4744 -0.9795
 8513SOL     OW36997   3.105   2.260   4.423  0.0485  0.3241 -0.4160
 8513SOL    HW136998   3.090   2.347   4.385  0.0644  0.7887  0.6274
 8513SOL    HW236999   3.080   2.217   4.341 -1.3112 -0.0919  0.2125
 8514SOL     OW37000   1.948   3.810  11.338  0.0219 -0.2109 -0.4684
 8514SOL    HW137001   1.898   3.867  11.280  2.4623 -1.1855 -3.4744
 8514SOL    HW237002   2.041   3.826  11.324 -0.0335  2.9975  2.5696
 8515SOL     OW37003   3.801   0.797   7.574 -0.5968 -0.5970  0.4022
 8515SOL    HW137004   3.893   0.821   7.580 -0.8112  0.5130 -0.8506
 8515SOL    HW237005   3.783   0.805   7.481 -0.9906  1.1888  0.6296
 8516SOL     OW37006   0.898   1.596  13.743  0.4888 -0.1936 -0.3403
 8516SOL    HW137007   0.942   1.677  13.768  0.4664 -0.6962  1.2967
 8516SOL    HW237008   0.822   1.628  13.695  2.7037  5.0902 -0.3941
 8517SOL     OW37009   2.926   1.205   5.563  0.2704 -0.2124 -0.2617
 8517SOL    HW137010   2.862   1.138   5.538  0.8803  0.1750 -2.8212
 8517SOL    HW237011   2.943   1.183   5.655  1.8545 -0.8430 -0.6994
 8518SOL     OW37012   0.681   1.615   5.506  0.1736 -0.1537  0.2318
 8518SOL    HW137013   0.645   1.692   5.550 -1.4862 -1.0020  0.3551
 8518SOL    HW237014   0.642   1.640   5.422 -0.5409  0.4918  0.7552
 8519SOL     OW37015   0.106   1.408   1.798  0.4208 -0.0268 -0.2319
 8519SOL    HW137016   0.123   1.320   1.832  2.6567 -0.3158 -2.0823
 8519SOL    HW237017   0.091   1.402   1.703 -2.9134  1.2010  0.2168
 8520SOL     OW37018   3.985   2.084  14.349  0.2757 -0.8574  0.4106
 8520SOL    HW137019   4.046   2.071  14.422 -0.6263  0.0118  1.3118
 8520SOL    HW237020   3.956   2.174  14.364  1.3133 -0.1143 -2.0654
 8521SOL     OW37021   0.046   3.142  16.448  0.1602  0.1676 -0.6145
 8521SOL    HW137022   0.043   3.141  16.544 -0.8329 -1.2221 -0.6519
 8521SOL    HW237023   0.110   3.072  16.435 -0.2297 -0.3721  0.3137
 8522SOL     OW37024   1.097   0.911  12.612  0.2664  0.1800  0.6610
 8522SOL    HW137025   1.084   0.839  12.674  0.5664 -0.5915 -0.1793
 8522SOL    HW237026   1.189   0.936  12.619  0.5186 -0.4509 -0.5841
 8523SOL     OW37027   0.105   1.958   6.915  0.0106 -0.0993 -0.2520
 8523SOL    HW137028   0.175   1.957   6.980 -1.0980  0.5784  0.9640
 8523SOL    HW237029   0.130   1.880   6.866  1.3748  0.0702  0.1677
 8524SOL     OW37030   3.067   0.327  17.023 -0.4572 -0.5515  0.5003
 8524SOL    HW137031   3.070   0.326  16.927  0.3039  0.5439  0.5196
 8524SOL    HW237032   3.120   0.249  17.037 -1.6985 -1.3786  0.6338
 8525SOL     OW37033   0.961   3.882   0.568 -0.7864  0.0890 -0.3405
 8525SOL    HW137034   0.931   3.831   0.492 -2.2785 -0.9671  0.9591
 8525SOL    HW237035   0.885   3.928   0.603 -1.5142  0.0527 -1.8697
 8526SOL     OW37036   1.898   0.793  12.073 -0.5984 -0.0813 -0.1168
 8526SOL    HW137037   1.967   0.823  12.015 -0.7112 -0.9294 -0.6878
 8526SOL    HW237038   1.823   0.819  12.019  1.2664  0.4818 -2.4515
 8527SOL     OW37039   3.141   3.002  10.608  0.3581 -0.0375  0.5816
 8527SOL    HW137040   3.211   2.997  10.674 -1.1162 -0.6543  2.0982
 8527SOL    HW237041   3.137   3.088  10.566 -0.1374 -1.7706 -2.8491
 8528SOL     OW37042   0.639   1.361   5.124 -0.3775  0.0131 -0.0184
 8528SOL    HW137043   0.723   1.347   5.167  1.2934  0.9654 -3.0270
 8528SOL    HW237044   0.576   1.335   5.192  0.8683 -0.8474  0.8170
 8529SOL     OW37045   2.142   2.726   6.409 -0.0245  0.4276  0.1342
 8529SOL    HW137046   2.051   2.746   6.388  0.4658  0.7238 -1.6365
 8529SOL    HW237047   2.201   2.721   6.334 -0.1361  1.1480 -0.0026
 8530SOL     OW37048   1.603   4.197   4.993  1.0676 -0.0614 -0.3555
 8530SOL    HW137049   1.602   4.238   4.906  1.2724 -1.6660 -1.1131
 8530SOL    HW237050   1.509   4.191   5.007  1.0012  0.5722 -0.5417
 8531SOL     OW37051   3.405   3.533  11.991  0.5886  0.1120 -0.2878
 8531SOL    HW137052   3.385   3.581  11.910  1.9804  0.6852 -0.2900
 8531SOL    HW237053   3.452   3.458  11.954 -1.4301 -0.3480 -1.9421
 8532SOL     OW37054   0.762   4.146   0.576  0.0507  0.3050  0.3429
 8532SOL    HW137055   0.741   4.053   0.574 -0.4388  0.4142  0.5601
 8532SOL    HW237056   0.848   4.147   0.618 -0.4179 -2.0951  1.3267
 8533SOL     OW37057   3.057   2.446   8.734 -0.5771  0.2837  0.3125
 8533SOL    HW137058   3.037   2.480   8.646 -1.6621 -0.7439  0.1739
 8533SOL    HW237059   2.987   2.477   8.791 -1.7838  1.4050 -1.7700
 8534SOL     OW37060   0.406   2.796   2.019 -0.4458 -0.2977  0.1353
 8534SOL    HW137061   0.450   2.716   1.989 -0.4041  0.3864 -1.6120
 8534SOL    HW237062   0.374   2.761   2.102 -2.3559  0.0921 -0.4452
 8535SOL     OW37063   0.294   2.281   5.217 -0.4917 -0.1731 -0.6197
 8535SOL    HW137064   0.373   2.229   5.202  0.3007  0.7959  0.1890
 8535SOL    HW237065   0.333   2.363   5.247  0.0952 -1.1691  1.3544
 8536SOL     OW37066   0.096   1.667  15.541  0.1281  0.3292 -0.4637
 8536SOL    HW137067   0.141   1.636  15.620 -1.6885 -1.5990 -0.1958
 8536SOL    HW237068   0.130   1.755  15.522  0.9150  0.8862  3.5224
 8537SOL     OW37069   4.072   0.525   4.234 -0.7184 -0.4324 -0.0387
 8537SOL    HW137070   4.129   0.474   4.177 -0.3881 -0.0944 -0.0172
 8537SOL    HW237071   4.059   0.474   4.314 -2.9391 -0.1093 -0.2071
 8538SOL     OW37072   1.969   2.690   8.146  0.6293 -0.2097 -0.0297
 8538SOL    HW137073   2.050   2.689   8.094  0.2876  0.2998 -0.5711
 8538SOL    HW237074   1.949   2.784   8.138 -0.9734 -0.7421 -2.2837
 8539SOL     OW37075   1.017   1.966   2.386 -0.1025  0.8712 -0.2674
 8539SOL    HW137076   1.111   1.952   2.392 -0.1899  0.3498 -0.1136
 8539SOL    HW237077   1.018   2.056   2.355  1.7033  0.3384 -1.8042
 8540SOL     OW37078   0.574   3.661   3.165  0.2903  0.2534  0.3815
 8540SOL    HW137079   0.565   3.570   3.135 -1.4227  1.0136 -1.4124
 8540SOL    HW237080   0.532   3.717   3.100 -0.0309 -0.5032 -0.0711
 8541SOL     OW37081   4.162   2.636   8.838  0.3770  0.0518 -0.5318
 8541SOL    HW137082   4.077   2.621   8.798  0.6850  0.8866 -1.5240
 8541SOL    HW237083   4.142   2.619   8.930 -0.4150  2.2742 -0.2992
 8542SOL     OW37084   2.784   2.404   8.950  0.3965  0.2338  0.1974
 8542SOL    HW137085   2.714   2.444   9.001 -1.8072 -2.6696 -0.5538
 8542SOL    HW237086   2.852   2.472   8.952  1.7036 -1.0828  0.7742
 8543SOL     OW37087   1.275   1.133   6.358  0.0943 -0.3918 -0.4610
 8543SOL    HW137088   1.315   1.047   6.348  0.6450 -0.0433 -1.1906
 8543SOL    HW237089   1.215   1.147   6.285 -1.1894 -1.4110  0.4060
 8544SOL     OW37090   0.424   1.501   9.875  0.3509  0.4322 -0.0809
 8544SOL    HW137091   0.491   1.567   9.861  1.7542 -1.1876 -0.9266
 8544SOL    HW237092   0.482   1.427   9.894 -0.3737 -0.3673 -0.9849
 8545SOL     OW37093   1.144   3.843   9.251 -0.1320  0.5809 -0.1778
 8545SOL    HW137094   1.157   3.907   9.321  0.6913  2.5738 -2.1523
 8545SOL    HW237095   1.049   3.850   9.245 -0.0677 -1.0429 -3.0789
 8546SOL     OW37096   1.946   1.700   7.729 -0.0621  0.2181  0.0605
 8546SOL    HW137097   1.879   1.663   7.671 -0.6045  1.4106 -0.0684
 8546SOL    HW237098   1.891   1.703   7.806 -0.0120 -1.3399  0.1581
 8547SOL     OW37099   0.749   2.529   4.494 -0.0904  0.0648 -0.3337
 8547SOL    HW137100   0.729   2.618   4.465 -0.5316  1.0823  3.0490
 8547SOL    HW237101   0.723   2.485   4.413 -0.0847  0.6438 -0.6449
 8548SOL     OW37102   0.780   4.514   7.599 -0.1071 -0.0926 -0.1750
 8548SOL    HW137103   0.705   4.469   7.559 -0.1840 -0.1150 -0.0044
 8548SOL    HW237104   0.854   4.475   7.553  0.6524  0.3168  0.7060
 8549SOL     OW37105   3.775   3.508   3.660 -0.0652 -0.2246  0.4606
 8549SOL    HW137106   3.696   3.536   3.706 -0.2105  0.7558 -0.3957
 8549SOL    HW237107   3.803   3.589   3.616  0.0032  0.5601  1.9061
 8550SOL     OW37108   3.646   0.266   8.845 -0.3081  0.8039  0.6575
 8550SOL    HW137109   3.580   0.331   8.821 -0.9465 -0.3832 -0.8288
 8550SOL    HW237110   3.637   0.211   8.767  2.7218  1.0314  0.1280
 8551SOL     OW37111   2.681   4.616   7.797 -0.1932 -0.0661 -0.7259
 8551SOL    HW137112   2.668   4.657   7.882  1.6198 -0.8677 -0.0575
 8551SOL    HW237113   2.772   4.589   7.804  0.4325  2.5144  0.9932
 8552SOL     OW37114   2.234   0.721   1.427 -0.2398 -0.3623 -0.0409
 8552SOL    HW137115   2.271   0.787   1.369  0.6093 -1.4126 -0.7015
 8552SOL    HW237116   2.177   0.774   1.483 -0.4786 -0.3484 -0.2971
 8553SOL     OW37117   4.495   0.179   1.358  0.7774  0.1018  0.0782
 8553SOL    HW137118   4.501   0.168   1.263  0.7128 -0.4892  0.1457
 8553SOL    HW237119   4.430   0.249   1.365  1.6906  1.3149 -3.1752
 8554SOL     OW37120   2.835   3.459  15.543  0.0325 -0.6147  0.2309
 8554SOL    HW137121   2.844   3.470  15.638  2.2435  0.4073 -0.1048
 8554SOL    HW237122   2.918   3.429  15.508 -0.0417 -1.2577  0.5975
 8555SOL     OW37123   0.775   3.537   6.627  0.1225 -0.1433  0.1177
 8555SOL    HW137124   0.858   3.532   6.674  0.0259 -0.5940  0.2436
 8555SOL    HW237125   0.792   3.455   6.579 -3.4690 -0.2939 -0.9137
 8556SOL     OW37126   1.670   2.285   6.731  0.6777  0.0249  0.2468
 8556SOL    HW137127   1.720   2.311   6.654 -1.3410  1.0124 -0.7235
 8556SOL    HW237128   1.742   2.260   6.789  1.7439  0.3509 -0.9347
 8557SOL     OW37129   4.548   3.363  13.520 -0.3797 -0.3492 -0.3489
 8557SOL    HW137130   4.591   3.432  13.470 -0.4916 -0.9209 -1.2402
 8557SOL    HW237131   4.463   3.361  13.475 -2.5461 -0.9819  3.7517
 8558SOL     OW37132   2.175   3.983   6.669  0.2296 -0.2814 -0.3808
 8558SOL    HW137133   2.267   3.960   6.655  0.4450  0.3557 -0.0071
 8558SOL    HW237134   2.195   4.025   6.753  2.4096 -1.0029 -0.5310
 8559SOL     OW37135   1.131   2.194   7.948  0.0465 -0.2988  0.4864
 8559SOL    HW137136   1.135   2.277   7.901 -1.3886 -1.8201 -2.3182
 8559SOL    HW237137   1.108   2.227   8.035 -1.0265  1.9664 -0.6546
 8560SOL     OW37138   4.384   4.559   7.794  0.4940 -0.5001 -0.3328
 8560SOL    HW137139   4.377   4.648   7.758 -1.6115 -0.0684  1.1122
 8560SOL    HW237140   4.422   4.576   7.880  0.6988 -0.5472 -0.4164
 8561SOL     OW37141   3.200   3.186   9.443  0.0735  0.2360 -0.3592
 8561SOL    HW137142   3.170   3.218   9.358 -0.3699  1.5549  0.2943
 8561SOL    HW237143   3.193   3.094   9.420 -0.2887 -0.0183  0.7655
 8562SOL     OW37144   4.658   0.227   2.491 -0.1415 -0.1648  0.3830
 8562SOL    HW137145   4.651   0.191   2.402 -3.4010 -0.0917  0.6295
 8562SOL    HW237146   0.026   0.230   2.520  0.0241  0.1181 -0.1789
 8563SOL     OW37147   2.065   0.718  12.327 -0.0579 -0.4545  0.0744
 8563SOL    HW137148   2.013   0.768  12.264  0.9922 -1.5722 -1.6637
 8563SOL    HW237149   2.026   0.731  12.414 -0.4226  1.6200 -0.3983
 8564SOL     OW37150   3.362   1.211  10.289 -0.2112  0.2713  0.4331
 8564SOL    HW137151   3.325   1.295  10.319  0.0159  0.3136  0.5978
 8564SOL    HW237152   3.302   1.196  10.216  0.0460 -1.4091  0.5812
 8565SOL     OW37153   3.715   1.935   4.706 -0.1017  0.0351  0.0586
 8565SOL    HW137154   3.800   1.955   4.667  0.6763 -0.0243  1.7420
 8565SOL    HW237155   3.657   1.941   4.629  1.5103  1.5784 -1.0148
 8566SOL     OW37156   0.247   0.585   9.268  0.1100  0.0883  0.0604
 8566SOL    HW137157   0.176   0.585   9.333  0.0170  0.6713 -0.0392
 8566SOL    HW237158   0.192   0.589   9.190  1.4576  1.6446 -0.8164
 8567SOL     OW37159   3.247   0.049  13.178  0.7193  0.0451 -0.2478
 8567SOL    HW137160   3.315   0.086  13.122  0.6810 -1.2161 -1.1358
 8567SOL    HW237161   3.262   4.680  13.159 -0.8250  0.1330 -2.0055
 8568SOL     OW37162   2.376   0.538   5.998  0.0871  0.0017  0.4293
 8568SOL    HW137163   2.421   0.459   5.967 -0.6464 -0.1946 -0.1413
 8568SOL    HW237164   2.290   0.530   5.958 -0.3276 -0.2278  1.3761
 8569SOL     OW37165   3.537   3.708  10.307 -0.0714  0.1942  0.3919
 8569SOL    HW137166   3.479   3.756  10.366  0.3074  2.2505 -0.9044
 8569SOL    HW237167   3.618   3.759  10.307  0.0373  0.0308 -0.2616
 8570SOL     OW37168   3.655   0.603   1.391  0.4865  0.1534  0.1158
 8570SOL    HW137169   3.611   0.597   1.307  0.3058 -1.1214  0.3011
 8570SOL    HW237170   3.724   0.536   1.392 -0.6985 -1.0608  0.5927
 8571SOL     OW37171   1.084   0.029  13.748  0.3431  0.4490  0.3335
 8571SOL    HW137172   1.029   0.108  13.750 -1.7588 -1.0079 -0.3564
 8571SOL    HW237173   1.020   4.687  13.775 -0.3358  1.6476  1.6259
 8572SOL     OW37174   3.869   4.441   3.495  0.0859  0.1756 -0.3158
 8572SOL    HW137175   3.949   4.400   3.464  1.2867  2.4527 -0.2025
 8572SOL    HW237176   3.853   4.516   3.438  0.4478  0.7989  0.4014
 8573SOL     OW37177   2.951   2.864  10.781  0.1989 -0.0910 -0.1382
 8573SOL    HW137178   2.966   2.921  10.705  0.5918 -0.0811 -0.0525
 8573SOL    HW237179   2.956   2.927  10.853 -1.4359 -1.3528  1.0806
 8574SOL     OW37180   3.346   2.586   3.474  0.0315 -0.2518  0.4528
 8574SOL    HW137181   3.400   2.640   3.416  0.4574 -0.4157  0.6927
 8574SOL    HW237182   3.276   2.647   3.496  0.4075  0.0788  0.7189
 8575SOL     OW37183   3.146   2.882   3.307  0.3534  1.0240 -0.4584
 8575SOL    HW137184   3.159   2.900   3.214 -2.1395  1.4129 -0.7096
 8575SOL    HW237185   3.173   2.956   3.361  1.1992 -0.0444  0.5917
 8576SOL     OW37186   4.103   4.443  12.190  0.1687 -0.3038 -0.2789
 8576SOL    HW137187   4.044   4.397  12.130 -1.3158  2.3946 -0.9171
 8576SOL    HW237188   4.032   4.493  12.230  0.3496  0.2550 -0.6474
 8577SOL     OW37189   3.754   0.883   5.564 -0.1694 -0.1437 -0.0087
 8577SOL    HW137190   3.769   0.968   5.522 -1.0344  0.8012  1.5904
 8577SOL    HW237191   3.732   0.918   5.650 -0.4447 -0.8283  0.1990
 8578SOL     OW37192   0.866   0.265  12.027  0.3946  0.0876 -0.4530
 8578SOL    HW137193   0.885   0.192  12.086  0.0311  0.5367  0.2347
 8578SOL    HW237194   0.801   0.308  12.084 -1.5725 -2.1081 -1.0313
 8579SOL     OW37195   0.559   0.482  13.406 -0.2514  0.5245 -0.1988
 8579SOL    HW137196   0.643   0.522  13.430  0.5429 -0.4031 -1.4889
 8579SOL    HW237197   0.501   0.558  13.421  0.4506  0.7428  1.3838
 8580SOL     OW37198   2.995   3.990   2.434 -0.1477  0.0388 -0.3175
 8580SOL    HW137199   3.087   3.971   2.414  0.4167  2.0827  0.3731
 8580SOL    HW237200   2.979   4.056   2.367  1.8030  0.1852 -0.6262
 8581SOL     OW37201   3.949   2.001   4.586  0.0842 -0.4030  0.2728
 8581SOL    HW137202   3.954   1.921   4.533 -1.3226  1.0328 -2.0128
 8581SOL    HW237203   4.007   2.055   4.533  0.5949  0.9659  2.2239
 8582SOL     OW37204   3.554   0.585   4.162 -0.3825  0.1426 -0.1604
 8582SOL    HW137205   3.599   0.629   4.090 -1.0738  1.5065  0.2393
 8582SOL    HW237206   3.588   0.628   4.240 -2.1992  0.5388  0.4099
 8583SOL     OW37207   2.957   0.981   7.715 -0.3723 -0.2582  0.1767
 8583SOL    HW137208   2.944   1.002   7.808  0.3789 -1.0139  0.4561
 8583SOL    HW237209   2.867   0.992   7.684 -1.2476  1.6277  3.3258
 8584SOL     OW37210   4.262   4.014  12.077 -0.8221 -0.2618  0.1013
 8584SOL    HW137211   4.232   4.077  12.012  0.2197 -0.5736 -0.6819
 8584SOL    HW237212   4.214   4.047  12.153  1.5203  2.9544  0.2191
 8585SOL     OW37213   3.324   2.160   2.516 -0.9217 -0.6931 -0.0509
 8585SOL    HW137214   3.248   2.120   2.559 -1.3413 -0.3654 -0.4915
 8585SOL    HW237215   3.324   2.242   2.566 -0.2209  0.3702 -1.8167
 8586SOL     OW37216   3.284   1.825   2.261 -0.0996 -0.4905 -0.1661
 8586SOL    HW137217   3.358   1.867   2.304 -1.7571  1.2548  0.9639
 8586SOL    HW237218   3.330   1.752   2.220  0.7815  0.0319 -0.0968
 8587SOL     OW37219   4.510   0.276  14.107 -0.2180  0.7073  0.4178
 8587SOL    HW137220   4.557   0.196  14.128 -1.3248 -0.1942 -0.5576
 8587SOL    HW237221   4.501   0.319  14.192  2.1019  0.0913  0.9575
 8588SOL     OW37222   1.241   1.434   2.901  0.4692 -0.0447  0.1658
 8588SOL    HW137223   1.301   1.378   2.851 -0.1187 -0.3762 -0.1760
 8588SOL    HW237224   1.214   1.373   2.970  0.0198  1.0459  0.9431
 8589SOL     OW37225   0.497   1.300  12.904 -0.0744 -0.4218 -0.1525
 8589SOL    HW137226   0.556   1.308  12.829  2.1108  0.0923  1.6173
 8589SOL    HW237227   0.540   1.369  12.955  0.4276 -0.4136 -0.5817
 8590SOL     OW37228   3.448   1.209   4.024  0.2653 -0.1483 -0.2624
 8590SOL    HW137229   3.502   1.180   3.950 -1.9248 -2.3384 -1.0061
 8590SOL    HW237230   3.362   1.209   3.983  0.4106 -1.3541 -0.5511
 8591SOL     OW37231   3.116   4.514   9.040  0.2402  0.1504  0.5593
 8591SOL    HW137232   3.196   4.543   8.997 -0.9433  1.4928 -0.7472
 8591SOL    HW237233   3.078   4.454   8.976 -0.2415 -0.4356  1.3968
 8592SOL     OW37234   1.224   1.447   2.258 -0.4772 -0.2601  0.3099
 8592SOL    HW137235   1.273   1.382   2.206 -0.3109 -1.7179  2.2823
 8592SOL    HW237236   1.137   1.446   2.217 -0.5258  0.6370  0.3908
 8593SOL     OW37237   1.477   3.057  13.420 -0.3906  0.4008 -0.3500
 8593SOL    HW137238   1.387   3.029  13.402  0.5838 -1.5867 -2.0482
 8593SOL    HW237239   1.516   3.052  13.333  1.7328  0.5182  0.5959
 8594SOL     OW37240   0.605   1.857  15.246  0.6090  0.3665  0.0275
 8594SOL    HW137241   0.616   1.793  15.176  1.4623 -0.7892  1.1948
 8594SOL    HW237242   0.679   1.842  15.306 -2.6045 -0.5985  3.7392
 8595SOL     OW37243   4.502   1.187   1.225 -0.9842 -0.1867  0.1080
 8595SOL    HW137244   4.429   1.241   1.193 -1.5644  1.0559  3.5309
 8595SOL    HW237245   4.480   1.102   1.186 -1.9043  1.4377 -2.9287
 8596SOL     OW37246   2.413   2.795   7.199  0.3747 -0.2214  0.2052
 8596SOL    HW137247   2.367   2.711   7.199 -0.1436  0.0579 -1.6013
 8596SOL    HW237248   2.506   2.771   7.197  0.2609 -0.5157 -1.2319
 8597SOL     OW37249   2.184   0.480   8.988 -0.3082  0.3556 -0.0662
 8597SOL    HW137250   2.214   0.563   9.024 -0.6495  0.2299  0.5283
 8597SOL    HW237251   2.134   0.449   9.064  0.1633 -0.0439  0.0834
 8598SOL     OW37252   3.751   0.877  10.960  0.1547 -0.8325  0.2590
 8598SOL    HW137253   3.806   0.952  10.939 -0.4221 -0.2483  0.8186
 8598SOL    HW237254   3.683   0.909  11.020  1.1073 -1.0276  1.4414
 8599SOL     OW37255   0.445   1.730   7.967  0.8629 -0.0947 -0.0252
 8599SOL    HW137256   0.405   1.802   8.016  0.2153 -0.0794 -0.5658
 8599SOL    HW237257   0.392   1.653   7.989 -0.7392  0.7463 -0.9055
 8600SOL     OW37258   1.287   0.326   4.419 -0.2269  0.5226 -0.1288
 8600SOL    HW137259   1.324   0.412   4.436  2.0704 -0.2624 -1.0956
 8600SOL    HW237260   1.322   0.304   4.333 -0.4008 -1.9318  0.4245
 8601SOL     OW37261   2.469   1.744  10.018  0.1745  0.1023 -0.0830
 8601SOL    HW137262   2.505   1.721   9.933  0.4565  0.3578 -0.0352
 8601SOL    HW237263   2.517   1.689  10.081 -1.6391 -1.4292 -0.0288
 8602SOL     OW37264   1.652   2.934   9.308 -0.2057 -0.2350  0.2117
 8602SOL    HW137265   1.560   2.961   9.308  0.3965  1.7947 -0.6563
 8602SOL    HW237266   1.670   2.910   9.399  2.3092  4.7348  1.0083
 8603SOL     OW37267   1.768   0.351  12.443 -0.5106  0.4040  0.2657
 8603SOL    HW137268   1.797   0.344  12.352  3.3607  1.8064  1.3929
 8603SOL    HW237269   1.845   0.389  12.485  0.5545 -2.2281  0.6369
 8604SOL     OW37270   3.002   0.909   7.049 -0.5517 -0.5998 -0.1469
 8604SOL    HW137271   3.015   1.000   7.077  0.5970 -1.1437  1.0732
 8604SOL    HW237272   2.950   0.877   7.123  1.3065  0.3391  1.5692
 8605SOL     OW37273   2.103   3.415   8.985 -0.1786  0.0169  0.0137
 8605SOL    HW137274   2.038   3.417   9.055  0.1965 -1.8369  0.4232
 8605SOL    HW237275   2.045   3.444   8.915 -0.8662 -0.4434  0.3945
 8606SOL     OW37276   1.727   3.352   5.276 -0.3485  0.3688 -0.1520
 8606SOL    HW137277   1.786   3.336   5.203 -1.4481  0.6999 -1.1271
 8606SOL    HW237278   1.789   3.377   5.344 -0.3462  2.2209 -0.8075
 8607SOL     OW37279   0.862   3.332   4.659  0.0165  0.2093 -0.0814
 8607SOL    HW137280   0.958   3.338   4.666 -0.0927  2.1467 -0.1151
 8607SOL    HW237281   0.849   3.239   4.639  0.9842  0.0227  0.1679
 8608SOL     OW37282   4.586   0.533   7.418  0.5171  0.1308 -0.0255
 8608SOL    HW137283   4.593   0.628   7.411 -1.5091  0.2526 -0.4396
 8608SOL    HW237284   4.520   0.525   7.349  0.0636  3.2290  0.0308
 8609SOL     OW37285   1.309   3.890   8.672 -0.3192 -0.4140 -0.1503
 8609SOL    HW137286   1.307   3.972   8.721  0.4838  0.1176 -1.0082
 8609SOL    HW237287   1.351   3.912   8.589  0.8408  0.4785  0.6661
 8610SOL     OW37288   2.070   0.104   4.774 -0.3938 -0.6258 -0.3838
 8610SOL    HW137289   2.043   0.027   4.822 -0.6952 -0.0485  0.3765
 8610SOL    HW237290   2.003   0.169   4.796 -0.1167 -0.5135  0.1297
 8611SOL     OW37291   3.657   1.769   6.767 -0.2477  0.0294  0.2660
 8611SOL    HW137292   3.685   1.847   6.814  0.9176 -0.3747  0.2321
 8611SOL    HW237293   3.573   1.746   6.807  0.4952 -2.0297  0.6397
 8612SOL     OW37294   2.871   0.660   6.938  0.5360 -0.1723  0.3977
 8612SOL    HW137295   2.920   0.733   6.976 -0.7063  0.3875  0.9142
 8612SOL    HW237296   2.918   0.596   6.991 -0.1609 -1.9134 -1.0775
 8613SOL     OW37297   4.142   1.448   1.106  0.3836 -0.4376 -0.5460
 8613SOL    HW137298   4.182   1.514   1.163  0.4769 -0.7171 -0.2936
 8613SOL    HW237299   4.062   1.428   1.154  1.1866 -2.7774 -0.2119
 8614SOL     OW37300   3.247   0.012   8.845 -0.2879  0.3664  0.3521
 8614SOL    HW137301   3.319   0.075   8.834 -0.5274  0.8956  1.8405
 8614SOL    HW237302   3.292   4.657   8.875 -1.7771 -1.5636 -2.4594
 8615SOL     OW37303   4.591   0.809  12.396  0.2095  0.0500  0.1812
 8615SOL    HW137304   4.530   0.818  12.470 -2.0764 -0.5979 -1.6269
 8615SOL    HW237305   4.620   0.898  12.377  0.0607 -0.0285 -0.4106
 8616SOL     OW37306   4.038   2.038   5.864  0.2627 -0.0719 -0.0138
 8616SOL    HW137307   4.000   2.094   5.795 -1.4493 -1.2022 -0.0019
 8616SOL    HW237308   4.076   1.978   5.799 -0.4546 -1.4726  0.8844
 8617SOL     OW37309   3.387   4.035   5.828 -0.6887 -0.0299  0.0655
 8617SOL    HW137310   3.448   4.066   5.895 -1.4969  0.5367  0.5306
 8617SOL    HW237311   3.392   4.105   5.762  2.0488  1.2820  1.6715
 8618SOL     OW37312   0.761   1.802   2.855  0.0699  0.4100  0.1548
 8618SOL    HW137313   0.758   1.706   2.855 -2.0093  0.4715 -1.4367
 8618SOL    HW237314   0.769   1.821   2.761  0.7191  0.6621  0.2606
 8619SOL     OW37315   1.162   1.878   4.709 -0.5129 -0.0487 -0.3624
 8619SOL    HW137316   1.203   1.915   4.631  0.3269 -2.3453 -1.0196
 8619SOL    HW237317   1.228   1.907   4.772  1.1667 -0.2186 -2.0529
 8620SOL     OW37318   3.980   1.189  16.812 -0.1389  0.0012 -0.6153
 8620SOL    HW137319   3.956   1.117  16.872  0.5127  1.0643  0.9355
 8620SOL    HW237320   3.905   1.190  16.754 -1.8437 -0.4005  1.5715
 8621SOL     OW37321   3.543   0.909   1.181  0.2832 -0.5522 -0.5181
 8621SOL    HW137322   3.534   0.894   1.275  0.4872  0.0007 -0.4079
 8621SOL    HW237323   3.633   0.941   1.181  0.0128  0.2391  0.3673
 8622SOL     OW37324   2.394   1.468   4.027 -0.2833 -0.2339 -0.2201
 8622SOL    HW137325   2.347   1.433   4.103  0.2879 -0.3073  0.1034
 8622SOL    HW237326   2.399   1.561   4.051  0.9866 -0.3691  0.0162
 8623SOL     OW37327   2.615   3.389   9.084  0.6585  0.4185 -0.4488
 8623SOL    HW137328   2.550   3.392   9.154  1.4659 -1.3270  0.3658
 8623SOL    HW237329   2.628   3.295   9.091 -1.4514  0.3440  2.3791
 8624SOL     OW37330   1.288   1.427   5.643  0.7566 -0.0314 -0.0638
 8624SOL    HW137331   1.341   1.508   5.647  0.4049  0.1480  0.8724
 8624SOL    HW237332   1.220   1.446   5.706 -0.3769 -3.2412 -0.3449
 8625SOL     OW37333   2.270   1.654   2.982 -0.2519 -0.0118  0.0824
 8625SOL    HW137334   2.292   1.740   2.947  0.8015 -1.2173 -2.2246
 8625SOL    HW237335   2.325   1.591   2.935 -0.1873 -0.8460  1.2594
 8626SOL     OW37336   3.265   1.134   5.779 -0.0890  0.4733 -0.4178
 8626SOL    HW137337   3.310   1.201   5.830  1.0542 -1.1419  0.7141
 8626SOL    HW237338   3.273   1.170   5.691  1.4532  2.3615  0.5001
 8627SOL     OW37339   3.221   1.904   6.688 -0.5291 -0.0871  0.6419
 8627SOL    HW137340   3.155   1.837   6.706 -0.3726 -0.8273 -1.5621
 8627SOL    HW237341   3.221   1.949   6.772 -1.1288 -1.7903  1.5468
 8628SOL     OW37342   0.669   2.299  12.515  0.0792 -0.2118 -0.0321
 8628SOL    HW137343   0.650   2.247  12.437  3.3252 -2.4365  0.6583
 8628SOL    HW237344   0.666   2.231  12.583 -0.1263 -0.3979 -0.2316
 8629SOL     OW37345   3.457   3.283  16.104 -0.3839  0.3130  0.1083
 8629SOL    HW137346   3.527   3.316  16.161 -2.0050  3.1005  0.4266
 8629SOL    HW237347   3.423   3.365  16.070 -0.4082  0.1276 -0.3112
 8630SOL     OW37348   1.167   3.048   6.006  1.1140  0.3300 -0.2690
 8630SOL    HW137349   1.103   3.107   5.965 -1.7777 -2.0891  0.7157
 8630SOL    HW237350   1.249   3.095   5.992  2.4654 -1.6870  0.9839
 8631SOL     OW37351   2.972   4.126  12.951  0.5484 -0.2192  0.5544
 8631SOL    HW137352   2.940   4.060  12.890  2.8405 -0.8470  0.0182
 8631SOL    HW237353   2.909   4.109  13.020  0.5367  0.8926  0.8271
 8632SOL     OW37354   2.543   2.632   6.036 -0.0045  0.8593  0.6488
 8632SOL    HW137355   2.608   2.578   6.082  0.6137  0.7515 -0.3516
 8632SOL    HW237356   2.596   2.659   5.961  2.6027  0.4483  2.3390
 8633SOL     OW37357   4.009   4.194   2.569 -0.1268  0.3369  0.6796
 8633SOL    HW137358   3.993   4.281   2.604  1.5284  0.7964  0.3166
 8633SOL    HW237359   3.925   4.149   2.563  1.3212 -2.1352 -0.8883
 8634SOL     OW37360   0.241   2.149   9.426 -0.3071 -0.3099 -0.5056
 8634SOL    HW137361   0.179   2.086   9.463 -0.2648  0.1794  0.3856
 8634SOL    HW237362   0.256   2.205   9.501 -0.4044  0.9270 -1.4114
 8635SOL     OW37363   3.135   2.384   2.991 -0.7387  0.3778 -0.0746
 8635SOL    HW137364   3.123   2.479   2.979 -1.4331  0.1907 -0.8668
 8635SOL    HW237365   3.161   2.378   3.082 -0.5189 -0.0368 -0.1642
 8636SOL     OW37366   2.542   3.237   2.480 -0.1018  0.2770 -0.6746
 8636SOL    HW137367   2.630   3.256   2.447  0.6292 -1.3122  0.3647
 8636SOL    HW237368   2.561   3.156   2.527 -0.6817  0.3613 -0.2984
 8637SOL     OW37369   3.618   2.691   4.147  0.1532 -0.2475 -0.4047
 8637SOL    HW137370   3.617   2.634   4.224 -2.8240  0.8023  0.3271
 8637SOL    HW237371   3.601   2.622   4.084 -0.5341 -2.1627  1.8829
 8638SOL     OW37372   1.227   1.025   8.082  0.2056  0.5191 -0.2449
 8638SOL    HW137373   1.194   1.061   8.164 -0.2521  0.6037 -0.4635
 8638SOL    HW237374   1.263   1.101   8.035 -0.0818 -1.2733 -3.3838
 8639SOL     OW37375   0.889   2.757   3.039  0.1603  0.4487  0.4153
 8639SOL    HW137376   0.957   2.691   3.053  0.9858  0.7941 -1.8642
 8639SOL    HW237377   0.885   2.753   2.943  2.0498 -2.0695  0.4225
 8640SOL     OW37378   2.079   2.364   2.944 -0.0572 -0.2736  0.3516
 8640SOL    HW137379   2.122   2.347   2.860 -0.4846  0.7148 -0.0660
 8640SOL    HW237380   2.037   2.278   2.951  0.1535 -0.5005 -1.0667
 8641SOL     OW37381   3.527   3.451  10.210  0.1573 -0.3458  0.0151
 8641SOL    HW137382   3.537   3.540  10.245 -0.9019 -0.5577  0.8462
 8641SOL    HW237383   3.480   3.466  10.128  0.9458 -0.8669 -0.5325
 8642SOL     OW37384   3.063   4.181   4.722  0.5990  0.1354 -0.2995
 8642SOL    HW137385   3.049   4.155   4.631 -0.2019 -1.4205  0.2670
 8642SOL    HW237386   3.117   4.259   4.714 -1.0326  1.3286  0.3874
 8643SOL     OW37387   0.880   3.489   3.218 -0.3653 -0.0457 -0.1316
 8643SOL    HW137388   0.880   3.394   3.228  0.7883  0.1429  1.7555
 8643SOL    HW237389   0.791   3.510   3.192 -0.2211 -0.8645 -1.2895
 8644SOL     OW37390   3.362   0.940   6.966 -0.0631  0.6212  0.5495
 8644SOL    HW137391   3.401   1.022   6.936  0.9802 -0.7515 -1.8864
 8644SOL    HW237392   3.267   0.951   6.961 -0.1541 -0.5693 -0.3326
 8645SOL     OW37393   2.537   4.104  13.505  0.0544 -0.2422 -0.2263
 8645SOL    HW137394   2.452   4.113  13.547  0.3801  1.5585  0.0791
 8645SOL    HW237395   2.559   4.197  13.495 -2.1351  0.2447 -0.5210
 8646SOL     OW37396   1.758   1.373   4.592  0.1456 -0.5015  0.1251
 8646SOL    HW137397   1.814   1.330   4.528 -1.2350 -0.5537 -1.0320
 8646SOL    HW237398   1.741   1.454   4.544 -2.6244  0.1780  2.2277
 8647SOL     OW37399   3.840   3.901   4.014  0.3369  0.2419  0.0269
 8647SOL    HW137400   3.790   3.957   4.073  0.8926 -0.2945  1.0008
 8647SOL    HW237401   3.842   3.816   4.058 -0.8758  0.1237 -0.1361
 8648SOL     OW37402   2.704   0.808   3.905 -0.2371 -0.2951  0.7172
 8648SOL    HW137403   2.770   0.870   3.873  0.5470 -1.1699  0.6695
 8648SOL    HW237404   2.748   0.763   3.977  1.7038  0.7411  0.1652
 8649SOL     OW37405   1.686   4.359   3.249 -0.0067  0.2481  0.8773
 8649SOL    HW137406   1.592   4.379   3.245  0.0429  0.1121 -0.7993
 8649SOL    HW237407   1.692   4.272   3.288  0.8942  0.6076  1.5433
 8650SOL     OW37408   1.915   3.354  12.721  0.0550  0.9151 -0.0086
 8650SOL    HW137409   1.942   3.346  12.813  0.3744 -0.7161 -0.2397
 8650SOL    HW237410   1.996   3.372  12.672  0.4788  0.0044  0.3461
 8651SOL     OW37411   0.152   1.257   0.283 -0.1181  0.0100 -0.0004
 8651SOL    HW137412   0.216   1.230   0.217  1.0800 -1.0937  1.6183
 8651SOL    HW237413   0.197   1.200   0.346  1.1091  0.4180 -0.5058
 8652SOL     OW37414   4.506   3.464   7.800 -0.4260  0.0179 -0.5679
 8652SOL    HW137415   4.495   3.378   7.839 -2.0971  0.2155 -0.6330
 8652SOL    HW237416   4.576   3.503   7.852 -1.8837  0.7319  0.8519
 8653SOL     OW37417   4.361   1.202   6.693  0.5232 -0.2480  0.7076
 8653SOL    HW137418   4.325   1.113   6.700 -1.2771  0.5499  1.6793
 8653SOL    HW237419   4.414   1.190   6.614 -2.4946 -1.1106 -1.1983
 8654SOL     OW37420   1.042   3.117  17.099  0.3608 -0.0940 -0.4278
 8654SOL    HW137421   1.113   3.062  17.132 -0.2355  0.1535  1.2337
 8654SOL    HW237422   0.996   3.054  17.043 -1.3597  2.2889 -1.6883
 8655SOL     OW37423   2.407   1.143   9.504  0.4267  0.0650  0.1214
 8655SOL    HW137424   2.348   1.087   9.454 -0.8068  1.4529  0.0283
 8655SOL    HW237425   2.472   1.084   9.541 -1.1402  1.0688  4.4939
 8656SOL     OW37426   0.498   1.783   8.271 -0.3419 -0.1380 -0.3470
 8656SOL    HW137427   0.413   1.743   8.252  0.1382 -1.0804 -0.5240
 8656SOL    HW237428   0.478   1.869   8.235 -0.0025  0.7825  1.6402
 8657SOL     OW37429   4.522   0.208   1.824  0.1835 -0.4421  0.0005
 8657SOL    HW137430   4.593   0.202   1.888  3.3288  3.5407 -3.0763
 8657SOL    HW237431   4.534   0.117   1.795  0.7548 -0.3262 -0.1377
 8658SOL     OW37432   1.653   0.560   7.683  0.0961 -0.3984 -0.0925
 8658SOL    HW137433   1.561   0.581   7.667  0.3894  2.1323  1.7308
 8658SOL    HW237434   1.697   0.577   7.599  1.3013  1.8954  1.0157
 8659SOL     OW37435   1.767   2.280   3.971 -0.2543  0.0043  0.0122
 8659SOL    HW137436   1.793   2.256   3.883 -0.2139  3.7124 -0.9872
 8659SOL    HW237437   1.676   2.250   3.966 -0.3578  0.1759  0.7755
 8660SOL     OW37438   1.255   0.680   4.888 -0.7045 -0.8270 -0.0961
 8660SOL    HW137439   1.327   0.672   4.951 -1.0232  1.5955  0.5807
 8660SOL    HW237440   1.253   0.590   4.856 -0.0870 -1.5116  1.7537
 8661SOL     OW37441   2.878   3.639   8.555  0.0188 -0.3105 -0.0843
 8661SOL    HW137442   2.839   3.604   8.475  0.0940 -2.5141  0.8540
 8661SOL    HW237443   2.968   3.608   8.546 -0.7019 -1.6379 -2.7274
 8662SOL     OW37444   0.353   0.050  15.212  0.5913  0.4059 -0.2007
 8662SOL    HW137445   0.365   4.699  15.153 -2.1810 -0.2224  0.0417
 8662SOL    HW237446   0.321   0.124  15.160  2.7233  1.7854  0.4549
 8663SOL     OW37447   4.035   1.556   8.008  0.3899  0.3589 -0.0154
 8663SOL    HW137448   4.095   1.488   7.980  0.4085 -0.0584  1.0329
 8663SOL    HW237449   4.026   1.605   7.926  1.5541 -0.6652 -0.7495
 8664SOL     OW37450   3.666   1.837   2.679  0.3472 -0.0187  0.6446
 8664SOL    HW137451   3.666   1.780   2.756 -2.0450 -1.2966 -0.3178
 8664SOL    HW237452   3.759   1.860   2.681  0.1780  0.7960 -1.0267
 8665SOL     OW37453   1.427   4.444   8.159  0.2319 -0.2445  0.1022
 8665SOL    HW137454   1.416   4.493   8.240  0.5942  1.5770 -0.9411
 8665SOL    HW237455   1.494   4.379   8.181  1.3875  1.6269  2.1606
 8666SOL     OW37456   3.638   2.532   7.214  0.3708 -0.2691 -0.0559
 8666SOL    HW137457   3.582   2.586   7.269 -0.2069  0.7324 -1.6227
 8666SOL    HW237458   3.611   2.548   7.123  0.2357  0.0307  0.0393
 8667SOL     OW37459   1.243   0.179   8.918  0.2143 -0.4353 -0.0818
 8667SOL    HW137460   1.310   0.189   8.986  0.2844  0.4984 -0.2855
 8667SOL    HW237461   1.196   0.104   8.953  0.6412 -0.3397  0.6894
 8668SOL     OW37462   1.993   2.187  10.086 -0.3371 -0.0527 -0.0209
 8668SOL    HW137463   2.048   2.127  10.136 -0.3113  0.5206  0.6420
 8668SOL    HW237464   1.941   2.230  10.155 -1.2527 -2.0642  0.5310
 8669SOL     OW37465   3.298   0.299   9.036  0.1321 -0.3703 -0.0206
 8669SOL    HW137466   3.226   0.345   9.080 -0.1419 -1.7336  0.9709
 8669SOL    HW237467   3.295   0.211   9.075  1.4053 -0.3961  0.0054
 8670SOL     OW37468   3.874   1.138   1.752 -0.4350 -0.2348  0.5878
 8670SOL    HW137469   3.939   1.094   1.806 -0.0113  2.5007  2.2817
 8670SOL    HW237470   3.852   1.217   1.800 -1.7386 -0.1595 -0.1114
 8671SOL     OW37471   0.852   0.537  13.495  0.3083 -0.8519  0.4648
 8671SOL    HW137472   0.872   0.475  13.425  1.3276  0.5125 -0.4552
 8671SOL    HW237473   0.938   0.561  13.529 -0.3624  1.8625  0.2685
 8672SOL     OW37474   3.986   3.479   5.665  0.4052 -0.1978 -0.0030
 8672SOL    HW137475   4.060   3.512   5.613  0.5074  0.7755  0.7553
 8672SOL    HW237476   3.995   3.386   5.647 -1.4594 -0.2299 -0.7287
 8673SOL     OW37477   2.786   2.751   5.601 -0.4484  0.2908 -0.0094
 8673SOL    HW137478   2.833   2.830   5.629 -1.7725  0.3108  2.2109
 8673SOL    HW237479   2.699   2.778   5.572 -0.4905  1.9275  1.5974
 8674SOL     OW37480   3.615   4.498   1.695 -0.6655  0.3449 -0.2392
 8674SOL    HW137481   3.580   4.409   1.695  1.0599 -0.3386  0.2632
 8674SOL    HW237482   3.614   4.520   1.602 -0.8510  1.4659  0.0311
 8675SOL     OW37483   3.159   3.727   5.987  0.3513 -0.0151 -0.3393
 8675SOL    HW137484   3.190   3.655   6.043 -0.6995  0.8936  1.4207
 8675SOL    HW237485   3.072   3.734   6.027  0.6986 -4.1137  1.1061
 8676SOL     OW37486   3.240   3.120   4.790 -0.6997  0.0664 -0.0102
 8676SOL    HW137487   3.287   3.165   4.860  0.6035  1.0154 -1.4906
 8676SOL    HW237488   3.271   3.169   4.714  1.2981 -2.9265 -1.0986
 8677SOL     OW37489   2.829   1.514  10.012 -0.3201  0.3364  0.1789
 8677SOL    HW137490   2.868   1.601  10.015  1.8501 -0.6666  1.3429
 8677SOL    HW237491   2.736   1.535  10.019 -0.1243  1.9378 -2.1461
 8678SOL     OW37492   3.847   0.902   0.884 -0.3394  0.3551 -0.6643
 8678SOL    HW137493   3.792   0.962   0.832 -1.3095  0.4263  0.4331
 8678SOL    HW237494   3.832   0.816   0.846  1.3181  0.3335 -1.2384
 8679SOL     OW37495   3.086   0.064   7.395  0.0331  0.0999 -0.0900
 8679SOL    HW137496   3.011   0.118   7.368 -0.2941 -0.4782 -0.3324
 8679SOL    HW237497   3.045   4.706   7.422  2.4249 -1.6569 -1.8327
 8680SOL     OW37498   1.690   3.022   9.600 -0.1259  0.1730 -0.0781
 8680SOL    HW137499   1.783   3.027   9.622 -0.2261  4.8138 -0.6519
 8680SOL    HW237500   1.670   3.108   9.561  0.6616  0.8179  0.9400
 8681SOL     OW37501   0.770   0.296   9.128 -0.3395  0.0973 -0.1817
 8681SOL    HW137502   0.766   0.303   9.223  1.0881  2.2395 -0.2809
 8681SOL    HW237503   0.683   0.261   9.113 -0.3042  0.9148 -2.2942
 8682SOL     OW37504   1.871   0.892   8.694 -0.5635 -0.1353 -0.4086
 8682SOL    HW137505   1.854   0.982   8.667 -0.9926  0.3260  1.4369
 8682SOL    HW237506   1.950   0.888   8.640 -1.3892 -1.0596 -1.5594
 8683SOL     OW37507   0.718   0.090   7.959  0.2812 -0.6093  0.0121
 8683SOL    HW137508   0.631   0.078   7.998  0.8559  1.2027  1.8449
 8683SOL    HW237509   0.779   0.108   8.030 -1.8716  1.4799  1.3302
 8684SOL     OW37510   1.696   1.354  11.760  0.0560 -0.0674 -0.7418
 8684SOL    HW137511   1.783   1.394  11.770  0.7276 -2.1150  1.6949
 8684SOL    HW237512   1.641   1.426  11.731  1.4607  0.5332 -1.8982
 8685SOL     OW37513   2.694   2.141  16.787  0.5654 -0.7379 -0.4804
 8685SOL    HW137514   2.607   2.171  16.761  0.7000 -0.5911 -0.7574
 8685SOL    HW237515   2.673   2.058  16.830 -2.8096  0.9805  1.2108
 8686SOL     OW37516   0.868   2.920   8.031  0.2127 -0.6462 -0.5133
 8686SOL    HW137517   0.921   2.883   7.960  0.2493  0.8380 -1.2559
 8686SOL    HW237518   0.794   2.859   8.027 -2.6470  2.7346  1.0933
 8687SOL     OW37519   3.526   0.065  11.464  0.3348  0.1418  0.4863
 8687SOL    HW137520   3.584   0.077  11.389  1.8804  0.6411  1.7412
 8687SOL    HW237521   3.452   0.113  11.426  0.4356  0.9124  1.2675
 8688SOL     OW37522   2.138   0.492  11.296 -0.5545  0.3023 -0.0214
 8688SOL    HW137523   2.174   0.524  11.213  0.8151 -0.0187  0.4593
 8688SOL    HW237524   2.186   0.549  11.357 -1.6038  2.2257 -0.9754
 8689SOL     OW37525   1.233   1.424  15.061  0.1101 -0.3363 -0.2450
 8689SOL    HW137526   1.198   1.448  14.975 -2.2640  0.8009  1.0336
 8689SOL    HW237527   1.254   1.334  15.039  0.6771 -0.7122  1.8838
 8690SOL     OW37528   4.624   3.922   7.251 -0.0281 -0.2043  0.1775
 8690SOL    HW137529   4.530   3.905   7.253 -0.3497  1.8362  2.1478
 8690SOL    HW237530   4.645   3.888   7.164 -1.3699  0.9004 -0.5772
 8691SOL     OW37531   0.924   3.466   5.794 -0.2030  0.0460  0.1623
 8691SOL    HW137532   0.828   3.471   5.792 -0.2344 -0.5824  0.0497
 8691SOL    HW237533   0.938   3.439   5.703  0.6830  1.7594 -0.1973
 8692SOL     OW37534   1.958   3.251  11.095 -0.1443 -0.4660 -0.1743
 8692SOL    HW137535   2.002   3.219  11.174 -2.0217 -0.3658  0.9123
 8692SOL    HW237536   1.919   3.330  11.131 -0.1724  0.3971 -2.1304
 8693SOL     OW37537   2.073   0.918  15.052  0.4729  0.2398 -0.0458
 8693SOL    HW137538   2.164   0.924  15.078  0.2537  0.3509  0.7023
 8693SOL    HW237539   2.034   0.845  15.101 -0.4579  0.7750  0.0236
 8694SOL     OW37540   3.087   3.429   3.750 -0.3490 -0.0256 -0.3252
 8694SOL    HW137541   3.178   3.460   3.745 -0.4245  0.3800  0.7535
 8694SOL    HW237542   3.070   3.475   3.833 -0.7444 -3.0357  1.2443
 8695SOL     OW37543   0.953   4.360   2.084  0.2843 -0.1454 -0.3014
 8695SOL    HW137544   0.919   4.324   2.166  0.9848 -0.5157 -0.1778
 8695SOL    HW237545   0.989   4.286   2.036  1.8567  2.4311 -3.1382
 8696SOL     OW37546   2.889   1.297   8.904 -0.0014 -0.2948  0.0594
 8696SOL    HW137547   2.799   1.299   8.873 -0.5984  3.8232  2.0886
 8696SOL    HW237548   2.884   1.242   8.983  2.4015  1.7517  1.6285
 8697SOL     OW37549   3.183   2.098   5.270  0.2775 -0.2530 -0.0941
 8697SOL    HW137550   3.156   2.171   5.215  1.4054  0.2164 -0.0324
 8697SOL    HW237551   3.213   2.032   5.207 -2.2131 -0.3869 -1.1587
 8698SOL     OW37552   4.075   4.272   6.624  0.0748 -0.3106  0.1818
 8698SOL    HW137553   3.984   4.279   6.596  1.1432 -1.2902 -3.5572
 8698SOL    HW237554   4.128   4.284   6.545 -1.7698  0.0365 -1.0089
 8699SOL     OW37555   2.456   3.551   7.095  0.3331  0.4231  0.1538
 8699SOL    HW137556   2.459   3.638   7.057 -0.5840 -0.8683 -2.8984
 8699SOL    HW237557   2.548   3.534   7.115 -0.0617 -0.2720  1.4299
 8700SOL     OW37558   3.950   1.299   3.468 -0.3571 -0.4015 -0.3164
 8700SOL    HW137559   4.021   1.245   3.503 -1.2424 -0.0870  2.0005
 8700SOL    HW237560   3.989   1.324   3.384 -0.0736 -0.5701 -0.2374
 8701SOL     OW37561   1.585   1.587  11.705  0.3262 -0.5496  0.4881
 8701SOL    HW137562   1.646   1.651  11.742 -0.7007  1.0125 -0.5186
 8701SOL    HW237563   1.554   1.650  11.641  0.9739 -0.3185  0.4053
 8702SOL     OW37564   0.909   2.530   8.266  0.2948 -0.1100 -0.4908
 8702SOL    HW137565   0.946   2.519   8.353  1.2877 -0.9909 -1.0184
 8702SOL    HW237566   0.932   2.446   8.226  0.3216 -0.0241 -0.6568
 8703SOL     OW37567   2.353   1.900   2.859  0.6013 -0.3624  0.0348
 8703SOL    HW137568   2.434   1.897   2.807  0.6029  1.0869 -0.0549
 8703SOL    HW237569   2.347   1.994   2.873  0.9671 -0.2231 -0.7304
 8704SOL     OW37570   1.557   3.836  17.548 -0.4567  0.2102  0.7165
 8704SOL    HW137571   1.648   3.859  17.529 -0.5949  1.4958  1.6607
 8704SOL    HW237572   1.570   3.758  17.603 -0.1314 -0.3823 -0.1784
 8705SOL     OW37573   4.530   0.155   5.138  0.0452  0.4697 -0.4279
 8705SOL    HW137574   4.462   0.166   5.072  1.5427 -1.8722 -2.3670
 8705SOL    HW237575   4.519   0.240   5.181 -0.2798  0.6473 -0.8630
 8706SOL     OW37576   1.668   1.949   8.458  0.3049  0.7047  0.3431
 8706SOL    HW137577   1.649   2.004   8.534  1.8479  0.4249  0.9204
 8706SOL    HW237578   1.606   1.978   8.391  0.7317 -0.3051 -0.4828
 8707SOL     OW37579   3.354   0.792   6.094 -0.0390 -0.0060  0.1491
 8707SOL    HW137580   3.369   0.829   6.006 -0.0610 -0.4796 -0.0549
 8707SOL    HW237581   3.270   0.836   6.109 -0.3101 -1.3903  2.5872
 8708SOL     OW37582   0.369   2.760  11.211  0.2315  0.3104  0.9554
 8708SOL    HW137583   0.451   2.806  11.228 -0.3995  1.6959  0.2114
 8708SOL    HW237584   0.328   2.825  11.154  2.7534  1.7476  0.7896
 8709SOL     OW37585   0.042   2.521   3.459  0.6231  0.4225  0.0725
 8709SOL    HW137586   4.701   2.581   3.422 -1.7861 -0.2331  3.2014
 8709SOL    HW237587   4.708   2.465   3.511 -1.1028  1.5667 -0.5951
 8710SOL     OW37588   0.456   2.241  11.865 -0.1454  0.8159 -0.1919
 8710SOL    HW137589   0.469   2.274  11.776 -1.0749  0.5321 -0.4283
 8710SOL    HW237590   0.544   2.252  11.900  0.1685 -1.4379 -0.2709
 8711SOL     OW37591   3.042   3.314   1.285  0.0351 -0.5604  0.2877
 8711SOL    HW137592   3.040   3.245   1.351  0.1859  0.8935  1.8338
 8711SOL    HW237593   2.951   3.342   1.272 -0.0212 -0.7867  0.1963
 8712SOL     OW37594   1.749   0.925  16.017 -0.0599 -0.1803 -0.0158
 8712SOL    HW137595   1.805   0.943  15.941 -0.6291 -1.4454 -0.7494
 8712SOL    HW237596   1.671   0.969  15.985  1.5648  2.4398 -0.3383
 8713SOL     OW37597   2.553   3.553   4.219  0.9286  0.6695  0.5654
 8713SOL    HW137598   2.543   3.464   4.255  1.7822  0.8764  1.3149
 8713SOL    HW237599   2.647   3.568   4.232  0.9185  0.3354  1.0340
 8714SOL     OW37600   1.748   1.644   6.714 -0.8279  0.7626 -0.5957
 8714SOL    HW137601   1.683   1.712   6.730 -2.4687 -0.7088 -0.9779
 8714SOL    HW237602   1.733   1.638   6.620  1.0737  2.9246 -1.0164
 8715SOL     OW37603   0.286   1.831   2.271  0.4905  0.3314 -0.0747
 8715SOL    HW137604   0.237   1.758   2.234  0.0567  1.2687 -1.3536
 8715SOL    HW237605   0.214   1.881   2.309 -0.5060 -1.4479  0.4119
 8716SOL     OW37606   2.316   4.346   7.406  0.0550  0.0254 -0.6227
 8716SOL    HW137607   2.325   4.310   7.494 -0.4735 -0.8137 -0.9087
 8716SOL    HW237608   2.407   4.359   7.379  0.2306  1.1373  0.5384
 8717SOL     OW37609   0.493   0.059   6.920 -0.6295 -0.5278 -0.6453
 8717SOL    HW137610   0.514   0.010   6.999  1.4945  0.5404 -0.5530
 8717SOL    HW237611   0.518   4.723   6.849 -3.9264 -2.7273  0.0603
 8718SOL     OW37612   1.178   3.695  13.062  0.4025  0.7679  0.2477
 8718SOL    HW137613   1.190   3.769  13.122 -0.4709  1.4217 -0.3766
 8718SOL    HW237614   1.270   3.674  13.048 -0.2029 -1.7843  0.1581
 8719SOL     OW37615   3.528   0.772   4.986 -0.0741 -1.0688  0.3762
 8719SOL    HW137616   3.525   0.805   4.896  1.0129 -1.7487  0.0866
 8719SOL    HW237617   3.505   0.682   4.966 -1.5653 -0.7044  0.4942
 8720SOL     OW37618   1.192   3.768   3.227 -0.1904  0.1878 -0.4118
 8720SOL    HW137619   1.261   3.755   3.292 -0.8933 -1.2455  0.0650
 8720SOL    HW237620   1.142   3.837   3.271  1.3863 -0.3419  2.1934
 8721SOL     OW37621   1.937   1.553  14.226  0.1320 -0.0562 -0.4920
 8721SOL    HW137622   2.007   1.559  14.162 -0.3054 -0.6906 -1.0417
 8721SOL    HW237623   1.951   1.464  14.259  2.8722 -0.0808 -1.7469
 8722SOL     OW37624   3.493   2.225   1.065  0.1309  0.2211  0.5857
 8722SOL    HW137625   3.575   2.256   1.025  1.2899 -0.9247  2.0926
 8722SOL    HW237626   3.424   2.253   1.004  0.1588 -0.2633  0.3330
 8723SOL     OW37627   0.175   4.608  13.058  0.3129  0.3980 -0.2271
 8723SOL    HW137628   0.270   4.600  13.049  0.7012  1.7166  2.8963
 8723SOL    HW237629   0.152   4.519  13.086  0.9541 -0.5343 -2.6729
 8724SOL     OW37630   2.124   4.588   9.042 -0.4995 -0.0009 -0.3078
 8724SOL    HW137631   2.037   4.550   9.024 -0.9536  1.4807 -1.2060
 8724SOL    HW237632   2.179   4.510   9.038 -2.5202 -1.4820  0.6525
 8725SOL     OW37633   4.274   1.791   4.825  0.0592  0.1114  0.3540
 8725SOL    HW137634   4.264   1.699   4.798 -0.7490  0.9262 -2.1340
 8725SOL    HW237635   4.355   1.811   4.778  0.4303  0.8118  1.2920
 8726SOL     OW37636   1.996   0.208  10.813 -0.4406  0.2527 -0.2545
 8726SOL    HW137637   2.052   0.255  10.752 -0.6569  0.0773 -0.5913
 8726SOL    HW237638   2.030   0.121  10.795 -1.4338 -0.7195  2.5118
 8727SOL     OW37639   0.250   1.896   2.860  0.2358 -0.4697  0.4231
 8727SOL    HW137640   0.335   1.940   2.853 -0.7361  1.2432 -0.5203
 8727SOL    HW237641   0.235   1.891   2.766 -0.2482 -1.6867  0.5727
 8728SOL     OW37642   2.822   3.139   1.128  0.2414  0.1692 -0.3290
 8728SOL    HW137643   2.769   3.149   1.208  1.6190 -1.5292  0.7821
 8728SOL    HW237644   2.784   3.057   1.096  0.6089  0.3640 -1.2457
 8729SOL     OW37645   2.040   0.909   5.686  0.9104  0.0287  0.5128
 8729SOL    HW137646   2.112   0.875   5.739  0.7526 -0.0077  0.6999
 8729SOL    HW237647   1.966   0.902   5.746 -0.0965 -2.8230 -1.0751
 8730SOL     OW37648   4.637   0.545   6.147 -0.1556 -0.3635  0.2256
 8730SOL    HW137649   4.579   0.525   6.074 -1.1173  2.5884  0.2177
 8730SOL    HW237650   4.600   0.477   6.204 -1.4188  0.2665  0.1444
 8731SOL     OW37651   4.058   3.925   2.059  0.0399 -0.1061  0.6399
 8731SOL    HW137652   3.997   3.906   1.988  0.3090 -0.9431  0.6324
 8731SOL    HW237653   4.012   3.998   2.102  1.3149 -0.0029  1.8303
 8732SOL     OW37654   2.448   1.077   7.170 -0.8147 -0.5288 -0.1198
 8732SOL    HW137655   2.483   0.989   7.157 -0.8909 -0.6905  0.7712
 8732SOL    HW237656   2.524   1.130   7.195 -1.2924 -0.2064  0.6262
 8733SOL     OW37657   4.475   2.676   6.102 -0.4797 -0.4634  0.1129
 8733SOL    HW137658   4.540   2.628   6.050 -0.2193 -0.6430  0.5955
 8733SOL    HW237659   4.426   2.718   6.032 -1.0187  0.7433  1.2249
 8734SOL     OW37660   2.534   0.934   6.831  0.1522  0.6367 -0.4871
 8734SOL    HW137661   2.596   1.006   6.821  1.6636 -0.3935  1.4919
 8734SOL    HW237662   2.579   0.860   6.790  0.0190 -0.3213  1.0879
 8735SOL     OW37663   2.453   4.058   0.749 -0.4051  0.0753  0.1774
 8735SOL    HW137664   2.433   3.972   0.711  2.6790 -0.8818  0.7247
 8735SOL    HW237665   2.410   4.126   0.698  0.2374  0.7919  0.5892
 8736SOL     OW37666   3.760   1.535   4.793 -0.5801  0.2749  0.1592
 8736SOL    HW137667   3.795   1.612   4.748 -0.3313  1.6195  2.6969
 8736SOL    HW237668   3.828   1.468   4.787  0.0493  1.0422 -1.2049
 8737SOL     OW37669   1.826   4.706  10.261  0.0901  0.1097  0.0192
 8737SOL    HW137670   1.871   4.704  10.346  0.1504  1.9061  0.0216
 8737SOL    HW237671   1.837   4.617  10.227  0.4438  0.0266  0.3432
 8738SOL     OW37672   2.116   2.807   4.140 -0.0139  0.2834  0.4649
 8738SOL    HW137673   2.182   2.772   4.080  1.4361  0.2096  2.1128
 8738SOL    HW237674   2.130   2.743   4.209 -0.1675 -0.0227  0.2169
 8739SOL     OW37675   4.219   3.657   5.755  0.1120  0.1492  0.5544
 8739SOL    HW137676   4.141   3.611   5.788 -0.9082  0.6043 -1.2196
 8739SOL    HW237677   4.222   3.624   5.665 -1.9211  0.3874  0.3838
 8740SOL     OW37678   0.044   2.294  13.750  0.1894 -0.1736  0.0287
 8740SOL    HW137679   4.685   2.278  13.796  0.5369 -1.7978  0.0848
 8740SOL    HW237680   0.037   2.387  13.729  2.6825 -0.1825 -0.8398
 8741SOL     OW37681   2.953   3.003  10.356  0.1631  0.4938 -0.3045
 8741SOL    HW137682   2.986   2.952  10.430  1.2815  2.0300  0.2552
 8741SOL    HW237683   2.859   2.986  10.363  0.1034  0.6611 -0.7020
 8742SOL     OW37684   2.756   1.131   6.702  0.1205 -0.3540  0.2551
 8742SOL    HW137685   2.740   1.123   6.608  0.4980 -0.7138  0.2210
 8742SOL    HW237686   2.849   1.154   6.707 -0.5720  2.7619 -1.1599
 8743SOL     OW37687   3.272   3.480  10.660 -0.3138  0.0128 -0.1776
 8743SOL    HW137688   3.367   3.473  10.644 -0.3657 -0.4047 -0.2991
 8743SOL    HW237689   3.260   3.575  10.665  2.8614  0.3912  0.4798
 8744SOL     OW37690   2.902   3.422  11.681  0.0620  0.0006 -0.0595
 8744SOL    HW137691   2.862   3.374  11.609 -0.3992 -0.7025  0.6698
 8744SOL    HW237692   2.979   3.463  11.641  0.0877  0.3671  0.3588
 8745SOL     OW37693   3.700   2.079  12.234  0.0383 -0.9038  0.0247
 8745SOL    HW137694   3.613   2.084  12.274 -0.5725  0.8610 -1.5030
 8745SOL    HW237695   3.728   2.163  12.198 -1.3833 -0.7894 -0.7996
 8746SOL     OW37696   0.352   2.658   2.225 -0.5059  0.7009  0.0686
 8746SOL    HW137697   0.428   2.603   2.242 -0.5277  0.2064 -1.4452
 8746SOL    HW237698   0.302   2.597   2.170  0.9317  0.5939 -1.1161
 8747SOL     OW37699   2.031   0.721   4.066  0.4705  0.0922  0.1566
 8747SOL    HW137700   1.977   0.799   4.077  0.1550 -0.1258  0.1446
 8747SOL    HW237701   1.981   0.673   4.000  0.3582 -1.1662  1.1565
 8748SOL     OW37702   0.437   1.212   0.028  1.0359 -0.0857  0.0862
 8748SOL    HW137703   0.377   1.139   0.043 -1.1044  1.7921  0.5721
 8748SOL    HW237704   0.386   1.270  17.668 -1.1423  1.3797  3.5672
 8749SOL     OW37705   1.478   3.750   2.816 -0.0634  0.1315  0.5786
 8749SOL    HW137706   1.544   3.747   2.886 -1.1861 -1.1929  1.6110
 8749SOL    HW237707   1.404   3.726   2.873 -0.3481  0.9219  0.5390
 8750SOL     OW37708   0.092   1.353   7.609 -0.3397  0.5835 -0.3123
 8750SOL    HW137709   0.025   1.421   7.609 -1.3366 -0.4010  1.2841
 8750SOL    HW237710   0.165   1.413   7.595  0.1766 -0.0491 -0.3292
 8751SOL     OW37711   3.403   1.051   9.051 -0.0144 -0.1705  0.2951
 8751SOL    HW137712   3.482   1.000   9.064  0.1687  0.1719  0.5166
 8751SOL    HW237713   3.354   1.039   9.132  1.2284  0.3683  1.1261
 8752SOL     OW37714   4.465   4.218   3.867 -0.7781 -0.1955  0.0743
 8752SOL    HW137715   4.525   4.203   3.794 -0.7780  1.4438 -0.2637
 8752SOL    HW237716   4.470   4.129   3.901  1.9617 -0.0858 -0.0471
 8753SOL     OW37717   1.497   0.550  15.293 -0.4350 -0.2026 -0.0886
 8753SOL    HW137718   1.446   0.624  15.258  1.0814  0.3165 -1.2139
 8753SOL    HW237719   1.459   0.481  15.238 -0.6859  0.1928 -0.4164
 8754SOL     OW37720   1.772   1.357   5.176  0.2116 -0.1927 -0.3047
 8754SOL    HW137721   1.735   1.438   5.140  0.5139 -0.2052 -0.6445
 8754SOL    HW237722   1.860   1.351   5.140 -0.0118  2.3240 -1.2850
 8755SOL     OW37723   0.247   1.116   4.248  0.2795 -0.3347  0.1363
 8755SOL    HW137724   0.311   1.154   4.308  1.2216  1.1778 -1.8322
 8755SOL    HW237725   0.262   1.172   4.173  0.6201  0.7207  0.9917
 8756SOL     OW37726   1.652   1.050   0.013 -0.0245  0.2638 -0.1754
 8756SOL    HW137727   1.655   0.955   0.024  1.6215  0.2911 -0.4991
 8756SOL    HW237728   1.558   1.049  17.689 -0.4019 -1.5107  1.6719
 8757SOL     OW37729   0.289   1.255   8.714 -0.1564  0.3607  0.6282
 8757SOL    HW137730   0.373   1.245   8.668 -1.0081 -1.1515 -0.5768
 8757SOL    HW237731   0.253   1.170   8.691 -1.6867  1.1328  0.1306
 8758SOL     OW37732   3.071   4.442   7.119 -0.2947  0.2437 -0.5262
 8758SOL    HW137733   3.095   4.450   7.212  3.2569  1.1040 -1.5433
 8758SOL    HW237734   3.046   4.534   7.110  1.0450  0.8297  1.5817
 8759SOL     OW37735   0.244   3.007   3.270 -0.2379  0.4137  0.6298
 8759SOL    HW137736   0.243   2.912   3.281 -1.9028  0.3619 -0.0708
 8759SOL    HW237737   0.194   3.019   3.189  0.3487 -1.7794 -0.0735
 8760SOL     OW37738   3.470   3.373   9.201  0.3268  0.7338  0.1390
 8760SOL    HW137739   3.501   3.338   9.284  1.7290 -0.7296 -1.0165
 8760SOL    HW237740   3.430   3.300   9.154  3.2494  1.1366 -3.0099
 8761SOL     OW37741   2.459   3.999  12.289  0.4010  0.0825 -0.2487
 8761SOL    HW137742   2.449   3.993  12.194  0.5800  0.1835 -0.2732
 8761SOL    HW237743   2.552   3.980  12.298  0.9030  2.3525 -0.6869
 8762SOL     OW37744   4.062   3.379   8.158 -0.1080 -0.1639 -0.1689
 8762SOL    HW137745   4.070   3.420   8.072 -0.4699 -0.7987 -0.5103
 8762SOL    HW237746   4.035   3.456   8.207 -1.0794 -1.1854  0.9117
 8763SOL     OW37747   3.204   1.482   4.498  0.0071  0.1765  0.0979
 8763SOL    HW137748   3.271   1.418   4.523 -0.6438  0.2506  2.0260
 8763SOL    HW237749   3.149   1.425   4.446 -1.4636 -0.2090  2.0845
 8764SOL     OW37750   2.140   3.689  16.028  0.0762  0.3188  0.3403
 8764SOL    HW137751   2.226   3.724  16.052  0.2978  0.9767 -1.4597
 8764SOL    HW237752   2.102   3.685  16.116 -2.3421 -1.1053 -0.7769
 8765SOL     OW37753   4.663   1.730   4.117  0.0890  0.0066 -0.0867
 8765SOL    HW137754   0.010   1.789   4.143  1.2241  0.0628 -3.2634
 8765SOL    HW237755   4.587   1.783   4.140 -0.3113 -0.2774 -0.7593
 8766SOL     OW37756   3.347   4.298   4.409  0.9681  0.3592  0.0019
 8766SOL    HW137757   3.348   4.255   4.324  0.7861  0.7175 -0.1811
 8766SOL    HW237758   3.379   4.231   4.469 -0.2463 -0.2159  0.0202
 8767SOL     OW37759   1.526   0.989   7.566  0.0428 -0.4875 -0.0738
 8767SOL    HW137760   1.604   0.946   7.531  1.1028  3.1224 -2.0739
 8767SOL    HW237761   1.539   1.078   7.534 -2.8169  0.0524  0.2855
 8768SOL     OW37762   0.471   3.035   1.913 -0.1896  0.0454  0.4422
 8768SOL    HW137763   0.447   2.952   1.953 -0.0794  0.0868  0.5933
 8768SOL    HW237764   0.391   3.083   1.935 -0.8442 -0.8944  0.0873
 8769SOL     OW37765   3.220   0.381  17.358  0.1659  0.6260 -0.6318
 8769SOL    HW137766   3.126   0.364  17.368  0.3215  2.4498  3.9948
 8769SOL    HW237767   3.213   0.462  17.309 -0.6518  0.1401 -1.3257
 8770SOL     OW37768   3.854   3.955   8.069 -0.7797 -0.0701 -0.4836
 8770SOL    HW137769   3.916   3.903   8.120  0.2122  1.8443  0.2343
 8770SOL    HW237770   3.876   4.047   8.085 -0.2318 -0.2793 -0.0390
 8771SOL     OW37771   4.584   4.036  17.125 -0.4069  0.4153  0.3677
 8771SOL    HW137772   4.667   4.075  17.095  0.3148 -0.5932  1.0560
 8771SOL    HW237773   4.606   4.024  17.218  3.0844 -0.8902 -0.6217
 8772SOL     OW37774   2.937   3.911   3.765  0.1226 -0.1191  0.6167
 8772SOL    HW137775   2.988   3.850   3.712  0.5125  1.0863 -0.4148
 8772SOL    HW237776   2.987   3.922   3.845  0.3905  0.3998  0.3824
 8773SOL     OW37777   1.161   4.255   5.402 -0.3800  0.4751  0.3599
 8773SOL    HW137778   1.172   4.161   5.392 -2.0777  0.3272 -0.1746
 8773SOL    HW237779   1.126   4.263   5.491  0.9580  0.0835  0.9111
 8774SOL     OW37780   3.504   3.404   5.202 -0.1963  0.3602  0.2642
 8774SOL    HW137781   3.594   3.393   5.172 -1.0877 -3.3052 -1.1031
 8774SOL    HW237782   3.474   3.462   5.132  1.1251  0.2484 -0.3857
 8775SOL     OW37783   3.882   1.657   6.920  0.0144  0.4487  0.1393
 8775SOL    HW137784   3.933   1.738   6.928 -0.7040  0.6966  2.0474
 8775SOL    HW237785   3.814   1.690   6.862 -1.2610 -1.3306  0.6179
 8776SOL     OW37786   0.628   2.809   3.173 -0.1597 -0.7562 -0.6237
 8776SOL    HW137787   0.636   2.874   3.103  1.3013 -1.3321 -1.0034
 8776SOL    HW237788   0.681   2.742   3.130  0.9819  0.5072 -1.2150
 8777SOL     OW37789   3.822   4.601   2.201 -0.1333 -0.2460 -0.0319
 8777SOL    HW137790   3.792   4.686   2.234  0.9107  0.0385  0.1787
 8777SOL    HW237791   3.807   4.602   2.107 -0.5270  0.9088  0.0420
 8778SOL     OW37792   1.408   0.806  15.444 -0.2753 -0.0310 -0.0943
 8778SOL    HW137793   1.438   0.846  15.525 -1.8892  1.6695 -0.3610
 8778SOL    HW237794   1.325   0.767  15.472  0.4750 -0.6634  1.2729
 8779SOL     OW37795   2.107   2.582   9.486 -0.1098 -0.1654 -0.5487
 8779SOL    HW137796   2.093   2.492   9.515 -0.0943 -0.4748 -1.4869
 8779SOL    HW237797   2.076   2.576   9.395 -0.2436 -0.0922 -0.5089
 8780SOL     OW37798   4.226   1.154  11.870 -0.3999 -0.0443  0.0606
 8780SOL    HW137799   4.229   1.198  11.785 -1.7653  0.6971  0.3985
 8780SOL    HW237800   4.296   1.196  11.919 -0.6878  0.1626  0.2939
 8781SOL     OW37801   0.365   2.871   8.392 -0.4245 -0.0256  0.1276
 8781SOL    HW137802   0.404   2.810   8.329 -1.2134 -1.0836  0.6936
 8781SOL    HW237803   0.388   2.814   8.465  1.6881 -1.4281 -1.6165
 8782SOL     OW37804   2.988   3.170   4.780  0.1318  0.2143  0.5222
 8782SOL    HW137805   2.981   3.157   4.874 -0.2501 -0.7554  0.3552
 8782SOL    HW237806   3.082   3.155   4.780  0.0908 -0.0606 -0.1501
 8783SOL     OW37807   0.073   2.882  10.056 -0.0059  0.1112  0.3079
 8783SOL    HW137808   0.063   2.975  10.076 -0.7427  0.2517 -0.6736
 8783SOL    HW237809   0.096   2.885   9.963 -0.7365 -2.4161  0.0504
 8784SOL     OW37810   0.438   4.301   9.789  0.4010 -0.1403  0.1362
 8784SOL    HW137811   0.453   4.276   9.697 -0.9555  4.6834 -1.4377
 8784SOL    HW237812   0.397   4.388   9.781  0.8466 -0.0184 -0.8365
 8785SOL     OW37813   4.171   0.336   5.293  0.0397 -0.6559  0.1686
 8785SOL    HW137814   4.109   0.381   5.237 -0.2664 -1.2234  0.0492
 8785SOL    HW237815   4.163   0.248   5.255 -3.0935 -0.1742 -0.2192
 8786SOL     OW37816   4.715   2.394   2.109  0.4005 -0.1156 -0.1984
 8786SOL    HW137817   4.715   2.338   2.031  0.9698 -0.8350  0.3188
 8786SOL    HW237818   4.682   2.328   2.171  0.9526 -0.3708 -0.1790
 8787SOL     OW37819   3.738   1.234   6.494  0.7358  0.2457  0.5414
 8787SOL    HW137820   3.732   1.261   6.402  0.7843  0.1446  0.5092
 8787SOL    HW237821   3.788   1.315   6.509 -0.6526  0.9433  1.3961
 8788SOL     OW37822   3.518   0.713  17.313  0.0301  0.6192  0.5657
 8788SOL    HW137823   3.444   0.760  17.351  0.4254  0.9216  0.9629
 8788SOL    HW237824   3.592   0.763  17.348  2.1996 -1.2396 -1.3012
 8789SOL     OW37825   1.590   3.446  10.066 -0.5906 -0.4219  0.0539
 8789SOL    HW137826   1.656   3.414  10.005 -0.6080  0.9226 -0.6754
 8789SOL    HW237827   1.608   3.396  10.146 -0.2628  2.3905  1.7240
 8790SOL     OW37828   3.823   2.282   6.867 -0.1381 -0.2348  0.2056
 8790SOL    HW137829   3.794   2.301   6.956 -0.2020  0.8958 -0.0663
 8790SOL    HW237830   3.917   2.273   6.882 -0.4159 -1.0385  1.4786
 8791SOL     OW37831   3.922   1.021   4.821 -0.6817 -0.0366  0.4480
 8791SOL    HW137832   3.860   1.018   4.749  0.7999 -1.8627 -0.7476
 8791SOL    HW237833   4.000   1.054   4.776 -1.9540 -1.1618 -2.5828
 8792SOL     OW37834   0.485   0.635  12.387  0.1632 -0.0181 -0.4028
 8792SOL    HW137835   0.550   0.657  12.320 -0.7498 -1.2633 -1.6903
 8792SOL    HW237836   0.454   0.552  12.351 -1.5081  0.1015  0.7185
 8793SOL     OW37837   2.034   3.984  12.678 -0.3851  0.0235  0.6459
 8793SOL    HW137838   2.032   4.080  12.670 -1.5040 -0.1184 -0.8984
 8793SOL    HW237839   2.074   3.982  12.764  0.7102  0.0307  0.1386
 8794SOL     OW37840   4.002   3.352   6.348  0.5299  0.3374 -0.6468
 8794SOL    HW137841   3.968   3.285   6.408  0.8015 -1.2062 -2.2229
 8794SOL    HW237842   3.989   3.430   6.402 -1.8777 -0.0978 -0.5707
 8795SOL     OW37843   1.572   3.480   3.219  0.2288  0.1341  0.2820
 8795SOL    HW137844   1.536   3.517   3.138  0.4614  0.0583  0.1452
 8795SOL    HW237845   1.499   3.499   3.278  0.8466 -0.0724  1.1103
 8796SOL     OW37846   0.639   2.017  13.689 -0.1506 -0.1735  0.2484
 8796SOL    HW137847   0.645   2.103  13.731  1.5581  0.0256 -0.4011
 8796SOL    HW237848   0.666   2.020  13.597 -1.1703  0.1076 -0.0420
 8797SOL     OW37849   0.230   4.321   3.526  0.0272 -0.0834 -0.1786
 8797SOL    HW137850   0.277   4.309   3.609  0.7313  1.9170 -0.2841
 8797SOL    HW237851   0.269   4.394   3.478  1.7462 -0.4489  0.6472
 8798SOL     OW37852   0.735   2.979   4.147  0.4052 -0.3200  0.1770
 8798SOL    HW137853   0.713   3.047   4.083  0.4457  0.5891  1.1320
 8798SOL    HW237854   0.649   2.948   4.175  0.9958 -2.1152 -0.0056
 8799SOL     OW37855   0.878   4.519   4.006 -0.3991 -0.1840  0.3156
 8799SOL    HW137856   0.846   4.563   3.928  0.3857  1.8950  1.1633
 8799SOL    HW237857   0.808   4.535   4.070 -0.0530  0.8998  0.4245
 8800SOL     OW37858   0.305   1.358  14.775  0.0137  0.8082 -0.2881
 8800SOL    HW137859   0.352   1.439  14.792 -0.3795  1.3643 -1.8748
 8800SOL    HW237860   0.360   1.291  14.815  2.7647  2.7181 -0.8888
 8801SOL     OW37861   3.712   2.724  15.128 -0.1289  0.1758 -0.1673
 8801SOL    HW137862   3.677   2.747  15.214 -0.5852  1.1326 -0.6106
 8801SOL    HW237863   3.637   2.684  15.083  0.3204 -0.7042 -0.1378
 8802SOL     OW37864   0.318   1.562   1.932 -0.2938 -0.3640 -0.0304
 8802SOL    HW137865   0.261   1.639   1.925 -0.2752 -0.2058  1.5979
 8802SOL    HW237866   0.283   1.502   1.866 -1.6547 -0.3983  0.7173
 8803SOL     OW37867   1.218   0.997   1.644 -0.0873 -0.1874 -0.3903
 8803SOL    HW137868   1.161   1.020   1.571  2.3474  1.2027 -1.8483
 8803SOL    HW237869   1.184   0.912   1.670 -1.1746  0.8192  1.4328
 8804SOL     OW37870   2.434   2.513   0.816 -0.0906 -0.4755  0.1641
 8804SOL    HW137871   2.512   2.458   0.815 -1.0746 -1.9090  0.9700
 8804SOL    HW237872   2.447   2.558   0.733 -0.7480  1.9200  1.3486
 8805SOL     OW37873   2.859   2.819   6.396 -0.2083  0.0172  0.3370
 8805SOL    HW137874   2.837   2.763   6.471  0.8172  1.8928  2.0437
 8805SOL    HW237875   2.819   2.901   6.424  0.0678 -0.2036  1.3991
 8806SOL     OW37876   2.519   1.767   7.279  0.7279 -0.1746 -0.3812
 8806SOL    HW137877   2.482   1.769   7.367  1.5752 -0.7578 -0.0059
 8806SOL    HW237878   2.509   1.675   7.255 -0.7866 -0.2909  0.7145
 8807SOL     OW37879   3.621   1.270   5.812 -0.2555 -0.0450  0.7874
 8807SOL    HW137880   3.595   1.264   5.720 -0.9042 -3.5367  1.1889
 8807SOL    HW237881   3.541   1.297   5.857 -0.2643  1.8003 -0.3240
 8808SOL     OW37882   1.734   0.111  17.604 -0.1622 -0.2856  0.0684
 8808SOL    HW137883   1.746   0.150  17.518  2.2332  4.0341  2.4056
 8808SOL    HW237884   1.724   0.184  17.664 -0.7980 -0.0615 -0.3182
 8809SOL     OW37885   2.424   3.375  17.601 -0.4396 -0.3103 -0.4962
 8809SOL    HW137886   2.505   3.417  17.628 -0.8669  1.0321 -1.2858
 8809SOL    HW237887   2.368   3.453  17.593  0.3831  0.4889  1.4734
 8810SOL     OW37888   2.368   3.676   2.472 -0.2173  0.0173  0.2938
 8810SOL    HW137889   2.296   3.690   2.411 -1.3404  0.5428  1.7508
 8810SOL    HW237890   2.443   3.643   2.422 -1.6232 -0.5548 -1.4330
 8811SOL     OW37891   2.489   4.424   3.836  0.0410  0.1731 -0.0362
 8811SOL    HW137892   2.580   4.455   3.844  0.3097 -0.5178 -0.4430
 8811SOL    HW237893   2.491   4.360   3.907  1.6023 -1.7155 -1.7592
 8812SOL     OW37894   4.632   1.618   2.461 -0.3474 -0.2433  0.1227
 8812SOL    HW137895   4.555   1.606   2.405  0.1505  2.9448 -1.2588
 8812SOL    HW237896   4.695   1.556   2.424 -2.5514 -2.3807 -0.0480
 8813SOL     OW37897   1.241   0.384   0.515 -0.1685  0.2746  0.8181
 8813SOL    HW137898   1.276   0.384   0.604  0.9857 -1.0373  0.3696
 8813SOL    HW237899   1.178   0.456   0.515  0.1946  0.6026 -0.7303
 8814SOL     OW37900   3.860   0.970   2.547 -0.1776  1.0167 -0.1595
 8814SOL    HW137901   3.776   1.014   2.535 -0.0693  1.3769  0.4250
 8814SOL    HW237902   3.922   1.037   2.517  1.4963 -0.5646 -0.1986
 8815SOL     OW37903   2.020   2.546   5.949 -0.3075 -0.3641 -0.3974
 8815SOL    HW137904   1.994   2.489   5.877  2.4232  0.1460 -1.8113
 8815SOL    HW237905   2.100   2.577   5.905  1.4007 -1.1619  2.1122
 8816SOL     OW37906   2.446   0.601   5.248 -0.1167  0.2354 -0.6013
 8816SOL    HW137907   2.403   0.526   5.290 -1.0266  0.0807 -1.8059
 8816SOL    HW237908   2.536   0.599   5.282  0.9646 -0.8938 -3.5236
 8817SOL     OW37909   1.025   3.375   2.884 -0.5234 -0.0751 -0.1893
 8817SOL    HW137910   1.022   3.465   2.916 -1.4184 -0.2291  0.1503
 8817SOL    HW237911   1.097   3.347   2.941  0.5354  0.2001 -1.3967
 8818SOL     OW37912   1.866   4.070   3.639  0.1422 -0.3048 -0.2505
 8818SOL    HW137913   1.909   4.109   3.716 -1.0382 -0.2338  0.3777
 8818SOL    HW237914   1.894   4.141   3.581 -0.7176 -0.7719 -1.2214
 8819SOL     OW37915   1.694   3.686   2.973 -0.0309  0.0911  0.0469
 8819SOL    HW137916   1.746   3.610   2.999  0.4054 -0.0386 -1.2008
 8819SOL    HW237917   1.739   3.748   3.030 -1.4003  0.4447  0.7465
 8820SOL     OW37918   3.640   0.406   7.834  0.0882  0.2319  0.6371
 8820SOL    HW137919   3.711   0.465   7.810  1.1095 -1.7989 -1.3978
 8820SOL    HW237920   3.617   0.445   7.918  0.1325 -1.1770  1.3058
 8821SOL     OW37921   2.854   0.844   7.284 -0.1414 -0.2251 -0.4437
 8821SOL    HW137922   2.896   0.906   7.344  1.1648 -0.8554 -0.7234
 8821SOL    HW237923   2.816   0.782   7.347 -1.2452  0.6882 -0.2096
 8822SOL     OW37924   2.392   4.566   4.212  0.2117 -0.1393  0.5654
 8822SOL    HW137925   2.417   4.484   4.256 -0.2457 -0.0225  1.0474
 8822SOL    HW237926   2.322   4.523   4.163  0.4886  0.6291 -0.5020
 8823SOL     OW37927   1.854   2.914  12.305 -0.0088 -0.0178 -0.2585
 8823SOL    HW137928   1.930   2.882  12.353  0.3948  1.0212 -0.2021
 8823SOL    HW237929   1.841   3.004  12.334 -0.2551 -0.6318  1.5461
 8824SOL     OW37930   4.280   3.065   2.226  0.8415  0.2011  0.2578
 8824SOL    HW137931   4.227   3.144   2.220  0.6367 -0.0187 -0.8113
 8824SOL    HW237932   4.362   3.090   2.184  1.2949  1.6320  1.9599
 8825SOL     OW37933   2.668   4.672  14.419 -0.9161 -0.3254  0.4475
 8825SOL    HW137934   2.670   4.696  14.327 -1.4727 -0.2235  0.4614
 8825SOL    HW237935   2.680   0.032  14.464  0.1760 -0.0020 -0.4586
 8826SOL     OW37936   4.687   4.657   9.932  0.1771  0.1209 -0.3954
 8826SOL    HW137937   4.649   4.684  10.015  0.0628 -0.4348 -0.2640
 8826SOL    HW237938   0.005   0.015   9.904  2.3295 -0.2202  1.8258
 8827SOL     OW37939   0.999   2.980   4.174  0.0913 -0.0289 -0.2973
 8827SOL    HW137940   0.995   2.896   4.219 -2.5412  0.7370  0.8837
 8827SOL    HW237941   0.906   3.002   4.166  0.2415  1.2302  1.3907
 8828SOL     OW37942   2.705   3.406   2.267  0.0990 -0.0484  0.6434
 8828SOL    HW137943   2.618   3.403   2.306 -1.1718  1.5020 -2.0694
 8828SOL    HW237944   2.685   3.426   2.176 -2.2832  2.3139  1.6723
 8829SOL     OW37945   1.741   1.036   4.359 -1.0006 -0.1841  0.0601
 8829SOL    HW137946   1.670   1.064   4.417 -1.5984  2.1636 -1.7890
 8829SOL    HW237947   1.804   1.102   4.389 -0.1849  0.0062 -2.0273
 8830SOL     OW37948   0.264   0.557   5.607 -0.3997  0.8199  0.7010
 8830SOL    HW137949   0.315   0.547   5.687 -0.0295  3.4051  0.7984
 8830SOL    HW237950   0.325   0.519   5.544 -0.7976  1.1444  0.1187
 8831SOL     OW37951   3.645   2.270   1.347 -0.1090 -0.1405 -0.0490
 8831SOL    HW137952   3.610   2.323   1.419 -1.6205 -1.2120 -0.0037
 8831SOL    HW237953   3.584   2.300   1.280 -0.5893 -1.4983 -0.2046
 8832SOL     OW37954   0.204   4.375  12.714 -0.6206  0.0163 -0.1600
 8832SOL    HW137955   0.286   4.347  12.755 -1.0386  1.3559  1.6137
 8832SOL    HW237956   0.191   4.301  12.655  0.6267 -1.4524  1.3963
 8833SOL     OW37957   1.317   2.723   4.301  0.1947 -0.3301  0.7995
 8833SOL    HW137958   1.314   2.734   4.206  0.0896  0.3324  0.8785
 8833SOL    HW237959   1.288   2.634   4.319 -2.3582  0.3670  0.1814
 8834SOL     OW37960   2.810   0.074   9.279 -0.0164  0.0801 -0.0257
 8834SOL    HW137961   2.887   0.063   9.335  0.5084  0.4695 -0.6726
 8834SOL    HW237962   2.741   0.101   9.339  1.9976 -0.8307  2.7053
 8835SOL     OW37963   2.638   3.710   4.645 -0.0428  0.2784 -0.2351
 8835SOL    HW137964   2.616   3.621   4.673 -0.0684 -0.4340 -2.5482
 8835SOL    HW237965   2.561   3.728   4.591  0.0235  0.2663 -0.3340
 8836SOL     OW37966   3.413   0.762  11.243  0.3273  0.1068 -0.0914
 8836SOL    HW137967   3.373   0.695  11.188  0.6965  0.6249 -0.9917
 8836SOL    HW237968   3.451   0.709  11.314  1.2530  0.3602 -0.3907
 8837SOL     OW37969   2.659   4.251   0.765 -0.2232  0.7173  0.2526
 8837SOL    HW137970   2.720   4.181   0.744 -1.4549 -0.3457  0.2343
 8837SOL    HW237971   2.591   4.191   0.796  0.3368 -0.3055 -0.5161
 8838SOL     OW37972   4.420   0.620   5.932 -0.1859  0.1459  0.3820
 8838SOL    HW137973   4.368   0.619   5.851  1.0562  0.6981 -0.4170
 8838SOL    HW237974   4.504   0.645   5.893  0.4892 -0.8605  1.2089
 8839SOL     OW37975   4.170   2.955  15.700  0.0659  0.1375  0.2147
 8839SOL    HW137976   4.136   2.876  15.741 -1.0827  1.1525  1.2306
 8839SOL    HW237977   4.103   3.022  15.713 -0.1752 -0.4814  2.1383
 8840SOL     OW37978   1.217   0.231   5.469 -0.0269 -0.2819  0.8780
 8840SOL    HW137979   1.248   0.142   5.485 -0.5605 -0.2187  2.2542
 8840SOL    HW237980   1.161   0.248   5.544  1.0449 -0.0398  1.6258
 8841SOL     OW37981   4.370   0.774  17.439 -0.4487 -0.5134 -0.3914
 8841SOL    HW137982   4.382   0.694  17.490  1.2958 -0.0678 -0.0938
 8841SOL    HW237983   4.447   0.759  17.383  0.1203  1.1914 -0.0602
 8842SOL     OW37984   4.171   0.953  10.950 -0.7043 -0.3044  0.5583
 8842SOL    HW137985   4.115   0.879  10.971  0.0561 -1.8280 -2.7608
 8842SOL    HW237986   4.239   0.950  11.018 -0.6825  1.7142  0.6243
 8843SOL     OW37987   1.475   4.087   9.377 -0.0472 -0.2701  0.2586
 8843SOL    HW137988   1.509   4.142   9.306 -0.1267 -0.9002 -0.2684
 8843SOL    HW237989   1.484   4.001   9.335  1.1846  0.0065 -0.0539
 8844SOL     OW37990   3.874   0.677   7.008  0.0344 -0.0055  0.3717
 8844SOL    HW137991   3.812   0.743   6.976  2.0562  1.0118 -1.5184
 8844SOL    HW237992   3.844   0.603   6.956 -0.5871  0.6034 -0.1552
 8845SOL     OW37993   1.881   0.814  11.688  0.7544 -0.2546 -0.3852
 8845SOL    HW137994   1.804   0.867  11.708 -0.0408 -1.7945  0.6211
 8845SOL    HW237995   1.945   0.844  11.753  0.7839 -1.5193  0.1721
 8846SOL     OW37996   0.646   0.495   2.800 -0.0542  0.1973  0.2310
 8846SOL    HW137997   0.602   0.482   2.716  0.1020 -1.4166  0.4061
 8846SOL    HW237998   0.574   0.509   2.862 -0.8596  0.9936 -0.8667
 8847SOL     OW37999   0.798   1.119   2.608  0.1874  0.3813 -0.5970
 8847SOL    HW138000   0.865   1.146   2.545  2.5187 -0.2620  1.5906
 8847SOL    HW238001   0.833   1.033   2.632 -1.8793  0.1015  1.3924
 8848SOL     OW38002   4.341   4.621   6.651 -0.1030  0.3881  0.6358
 8848SOL    HW138003   4.329   4.538   6.696  0.3834  0.3503  0.6941
 8848SOL    HW238004   4.250   4.652   6.655 -0.3077  0.1701 -1.7939
 8849SOL     OW38005   3.537   2.844   6.958 -0.3912  0.2237  0.8045
 8849SOL    HW138006   3.472   2.855   6.889  1.1609  4.4241  0.0414
 8849SOL    HW238007   3.580   2.773   6.912 -0.4142  1.3254 -0.8935
 8850SOL     OW38008   1.375   3.025   9.091 -0.6664 -0.8764 -0.2905
 8850SOL    HW138009   1.369   3.026   8.995 -1.8597  0.7878 -0.2172
 8850SOL    HW238010   1.337   3.111   9.109  0.1116 -0.6879  0.4385
 8851SOL     OW38011   2.894   2.725  11.570  0.4763 -0.1905 -0.0627
 8851SOL    HW138012   2.974   2.709  11.521  0.2141 -0.3654 -0.4412
 8851SOL    HW238013   2.890   2.653  11.633  0.7506 -1.2132 -1.2122
 8852SOL     OW38014   2.843   1.464   7.064  0.3037  0.0023  0.2291
 8852SOL    HW138015   2.819   1.433   6.977  4.9521 -0.7176 -0.8150
 8852SOL    HW238016   2.776   1.428   7.122  0.2593  2.1155  1.5266
 8853SOL     OW38017   3.956   2.077   1.851  0.1441 -0.4060 -0.1486
 8853SOL    HW138018   4.050   2.087   1.836 -0.0027  2.3897  0.9057
 8853SOL    HW238019   3.917   2.076   1.764 -0.4189  2.3250  0.0800
 8854SOL     OW38020   3.727   4.501   6.443 -0.3592  0.2504  0.2149
 8854SOL    HW138021   3.672   4.513   6.366 -0.7548 -2.1634  0.1148
 8854SOL    HW238022   3.814   4.516   6.404 -1.8011  2.8268 -1.9750
 8855SOL     OW38023   3.726   3.208   8.836  0.1692 -0.1585  0.3325
 8855SOL    HW138024   3.662   3.140   8.815 -0.8339  1.2115 -1.0842
 8855SOL    HW238025   3.775   3.225   8.755 -2.9103  0.2581 -1.4511
 8856SOL     OW38026   0.825   4.719   0.964  0.7453 -0.1319  0.1921
 8856SOL    HW138027   0.870   4.687   1.043 -2.3458 -0.2006  1.9361
 8856SOL    HW238028   0.738   0.010   1.001  0.5192 -0.3360 -0.2610
 8857SOL     OW38029   1.006   1.364   5.490 -0.2089 -0.0177 -0.5509
 8857SOL    HW138030   1.002   1.459   5.500  0.3434  0.0752 -1.2616
 8857SOL    HW238031   1.054   1.360   5.407 -0.8619  0.7088 -0.9589
 8858SOL     OW38032   1.025   2.759  14.476  0.2054  0.3305  0.2141
 8858SOL    HW138033   1.083   2.683  14.486 -1.2734 -0.7021  0.8031
 8858SOL    HW238034   0.986   2.757  14.563  0.8825  1.3895  0.5425
 8859SOL     OW38035   0.384   0.197   2.881 -0.3529  0.1476  0.0144
 8859SOL    HW138036   0.386   0.175   2.974 -2.1695 -1.1338 -0.2581
 8859SOL    HW238037   0.434   0.125   2.843  1.5504  1.8794 -0.7943
 8860SOL     OW38038   1.627   3.922   7.822 -0.4343  0.0290 -0.0516
 8860SOL    HW138039   1.574   3.999   7.802 -0.6237  0.0185  0.4176
 8860SOL    HW238040   1.555   3.863   7.799  0.1119 -0.2452 -1.0638
 8861SOL     OW38041   1.440   2.722   8.732  0.2246 -0.1142  0.2655
 8861SOL    HW138042   1.494   2.698   8.657  2.4520  2.5884  0.9679
 8861SOL    HW238043   1.361   2.756   8.689  0.3771  0.7510  0.6556
 8862SOL     OW38044   0.898   2.767   2.758 -0.3343  0.1010  0.0430
 8862SOL    HW138045   0.983   2.802   2.730 -0.7980  0.0693 -1.4250
 8862SOL    HW238046   0.849   2.839   2.719  0.2618 -0.2617 -1.3591
 8863SOL     OW38047   2.993   0.543   3.748 -0.0026 -0.4057 -0.3794
 8863SOL    HW138048   2.901   0.564   3.764 -0.0729 -0.8484 -0.2032
 8863SOL    HW238049   3.037   0.560   3.831  2.9612 -1.9420 -1.6103
 8864SOL     OW38050   2.211   1.760   8.588 -0.3207  0.0871  0.0767
 8864SOL    HW138051   2.138   1.704   8.614  0.7735 -1.3868 -0.0771
 8864SOL    HW238052   2.176   1.838   8.632 -3.4742  0.1065 -2.4749
 8865SOL     OW38053   4.096   0.820   6.000 -0.0909 -0.4690 -0.1734
 8865SOL    HW138054   4.086   0.915   6.001  1.1885 -0.3534  1.8604
 8865SOL    HW238055   4.158   0.811   6.072 -0.4455  1.3042  0.3568
 8866SOL     OW38056   3.193   4.054  10.087  0.9155 -1.1750  0.3307
 8866SOL    HW138057   3.124   4.073  10.024  0.3979 -1.7489  0.7166
 8866SOL    HW238058   3.160   4.085  10.172  0.4868  3.3394 -1.4729
 8867SOL     OW38059   4.603   1.893   5.074 -0.0548 -0.1593  0.3575
 8867SOL    HW138060   4.622   1.973   5.025  0.4724 -0.0368  0.7602
 8867SOL    HW238061   4.589   1.841   4.994 -0.1295  0.3451  0.0385
 8868SOL     OW38062   0.727   2.010   8.234  0.5994  0.0842 -0.0176
 8868SOL    HW138063   0.754   1.981   8.147  1.4507 -1.6453  0.8342
 8868SOL    HW238064   0.777   1.964   8.301  0.0932  0.7411  0.8113
 8869SOL     OW38065   4.021   0.459   5.650  0.2093  0.7544  0.7720
 8869SOL    HW138066   3.995   0.511   5.574 -1.0432  0.2941  0.8795
 8869SOL    HW238067   3.958   0.502   5.708 -1.2191 -1.2357  0.6968
 8870SOL     OW38068   2.828   0.275   4.866  0.9811  0.8268  0.2877
 8870SOL    HW138069   2.914   0.233   4.862  0.7829  0.3414  1.2668
 8870SOL    HW238070   2.852   0.332   4.939  0.0138  0.4212  0.9262
 8871SOL     OW38071   2.871   2.741   5.336 -0.0295  0.0136  0.3635
 8871SOL    HW138072   2.790   2.790   5.320 -0.0127 -0.2764 -0.6028
 8871SOL    HW238073   2.875   2.759   5.430  0.7232  1.2708  0.1007
 8872SOL     OW38074   0.386   4.083   3.941  0.0695 -0.2696  0.1230
 8872SOL    HW138075   0.401   4.151   3.875  1.6225 -0.9203 -0.2032
 8872SOL    HW238076   0.314   4.118   3.993  0.8553  0.8936  0.4284
 8873SOL     OW38077   0.950   0.525   5.317 -0.0276  0.4506 -0.0383
 8873SOL    HW138078   0.968   0.431   5.326  2.6399  0.7867 -1.9644
 8873SOL    HW238079   1.037   0.563   5.330 -0.7472  1.3825  2.0367
 8874SOL     OW38080   0.263   1.356   2.673 -0.1912  0.2156  0.0577
 8874SOL    HW138081   0.195   1.419   2.695  0.5297  0.5993  1.2296
 8874SOL    HW238082   0.325   1.412   2.626  1.1067 -2.6372 -1.6033
 8875SOL     OW38083   0.995   1.139   2.446  1.0674  0.1256 -0.4294
 8875SOL    HW138084   1.068   1.089   2.483  1.2903 -0.3496 -1.5196
 8875SOL    HW238085   1.017   1.147   2.353 -2.0428  1.5470 -1.0587
 8876SOL     OW38086   2.284   3.354   5.506 -0.5737 -0.0102  0.0373
 8876SOL    HW138087   2.322   3.411   5.440  1.7971 -0.1733  1.2781
 8876SOL    HW238088   2.360   3.297   5.520  0.3133  1.7679  2.5021
 8877SOL     OW38089   1.680   0.588  16.137  0.2584 -0.0800  0.2822
 8877SOL    HW138090   1.637   0.524  16.081 -1.2474  0.0492  1.2881
 8877SOL    HW238091   1.695   0.529  16.211  1.6964  1.8496  1.5163
 8878SOL     OW38092   2.980   0.539  14.146  0.2887 -0.2921 -0.2611
 8878SOL    HW138093   3.018   0.608  14.092  1.6506 -1.8213 -1.2835
 8878SOL    HW238094   3.031   0.467  14.108  0.5228 -0.1011 -0.3113
 8879SOL     OW38095   1.112   4.599  11.007 -0.0026  0.0983 -0.0677
 8879SOL    HW138096   1.108   4.524  11.067  2.8877 -1.0712 -1.2908
 8879SOL    HW238097   1.049   4.560  10.946 -2.1162  1.0900  1.5262
 8880SOL     OW38098   2.100   3.505   4.928  0.1779  0.5768  0.1515
 8880SOL    HW138099   2.131   3.469   4.845 -1.3945 -1.5011  0.4482
 8880SOL    HW238100   2.044   3.573   4.891  1.4885  1.1835 -0.7238
 8881SOL     OW38101   4.303   0.699   8.178 -0.2210  0.6431  0.1633
 8881SOL    HW138102   4.339   0.690   8.090 -2.4524  0.8214 -0.7581
 8881SOL    HW238103   4.320   0.612   8.216  1.6248  0.6986 -0.5210
 8882SOL     OW38104   2.197   4.618  16.299 -0.5249 -0.3091 -0.3812
 8882SOL    HW138105   2.232   4.671  16.370 -1.9254  1.9459 -1.3707
 8882SOL    HW238106   2.271   4.562  16.275 -0.5711 -0.7623  0.5373
 8883SOL     OW38107   3.515   2.038   6.329  0.4934  0.1726  0.6722
 8883SOL    HW138108   3.464   1.966   6.367 -0.8773  1.1575  0.7337
 8883SOL    HW238109   3.600   2.000   6.349  0.2882 -1.2506 -1.2787
 8884SOL     OW38110   0.716   0.617   1.945  0.4036 -0.3489  0.3801
 8884SOL    HW138111   0.626   0.616   1.977  0.2877 -0.0841  0.0649
 8884SOL    HW238112   0.711   0.670   1.865 -0.4741 -0.2082  0.5259
 8885SOL     OW38113   3.742   0.425   0.399 -0.4049 -0.0546  0.6880
 8885SOL    HW138114   3.701   0.367   0.463  0.4371 -3.0958 -1.5600
 8885SOL    HW238115   3.712   0.501   0.449 -2.7862 -1.0900  0.7973
 8886SOL     OW38116   4.343   0.674   0.884 -0.4781 -0.6679  0.0794
 8886SOL    HW138117   4.283   0.728   0.937 -0.7982 -0.2729 -0.6804
 8886SOL    HW238118   4.390   0.625   0.951  0.9807 -0.2772 -0.6630
 8887SOL     OW38119   1.261   2.303   6.530 -0.2187 -0.1480 -0.4075
 8887SOL    HW138120   1.286   2.368   6.464 -0.8536 -1.6291 -2.1008
 8887SOL    HW238121   1.185   2.272   6.481  0.2741  0.8268 -1.7790
 8888SOL     OW38122   0.251   3.768  15.018 -0.1190  0.3822 -0.0032
 8888SOL    HW138123   0.309   3.793  14.946  0.3620  2.6593  1.1962
 8888SOL    HW238124   0.188   3.839  15.017 -0.2400  0.2679 -0.6524
 8889SOL     OW38125   0.277   2.205  13.994  0.6815  0.8737 -0.4378
 8889SOL    HW138126   0.241   2.208  14.082  2.6017 -0.6203  0.3955
 8889SOL    HW238127   0.277   2.112  13.971  1.2583 -0.4243  4.8966
 8890SOL     OW38128   0.332   1.302   6.666  0.4088  0.3975  0.0450
 8890SOL    HW138129   0.420   1.331   6.690  0.1079  0.3406  1.2125
 8890SOL    HW238130   0.356   1.211   6.679 -0.2471  0.4411  1.6204
 8891SOL     OW38131   3.454   2.490   7.009  0.4847 -0.1507  0.0737
 8891SOL    HW138132   3.434   2.406   7.050 -1.4579  0.4096  0.2988
 8891SOL    HW238133   3.379   2.499   6.950  2.7862 -0.9454 -2.9666
 8892SOL     OW38134   2.996   0.324   0.740 -0.1626 -0.6562 -0.4280
 8892SOL    HW138135   2.931   0.264   0.777  0.1058 -0.1501  0.8498
 8892SOL    HW238136   3.053   0.258   0.699  2.0289  0.6691  0.4868
 8893SOL     OW38137   4.339   1.862   0.257  0.3329  0.2975 -0.2723
 8893SOL    HW138138   4.254   1.893   0.288 -0.2155 -0.6760 -0.8052
 8893SOL    HW238139   4.406   1.891   0.319 -1.9451  0.9658  1.8593
 8894SOL     OW38140   3.948   3.572   0.391  0.1132  0.6438  0.1264
 8894SOL    HW138141   3.996   3.551   0.311 -1.2989  1.3639 -0.9001
 8894SOL    HW238142   4.012   3.627   0.438 -0.1504  1.2264 -0.2010
 8895SOL     OW38143   4.206   3.640   7.433  0.6157  0.1593 -0.1843
 8895SOL    HW138144   4.250   3.646   7.348 -0.6912 -2.1084 -1.0197
 8895SOL    HW238145   4.125   3.594   7.412  0.6789  0.0952 -0.2875
 8896SOL     OW38146   4.207   3.429  14.649 -0.4674 -0.7711 -0.5074
 8896SOL    HW138147   4.254   3.484  14.587  0.3804 -1.4105 -0.4317
 8896SOL    HW238148   4.118   3.464  14.653  0.0167  0.1886  1.4710
 8897SOL     OW38149   4.125   1.657  17.435 -0.0350 -0.5985 -0.1510
 8897SOL    HW138150   4.111   1.660  17.341  0.8881  1.9934 -0.2300
 8897SOL    HW238151   4.099   1.566  17.446 -0.3190 -0.3522  1.2156
 8898SOL     OW38152   0.462   1.816   5.529  0.1130  0.0868  0.3642
 8898SOL    HW138153   0.415   1.778   5.455 -0.0568  1.8489 -0.4497
 8898SOL    HW238154   0.381   1.835   5.577  0.4178 -1.2207  1.3772
 8899SOL     OW38155   3.334   1.553   0.419 -0.2665 -0.0168  0.3044
 8899SOL    HW138156   3.322   1.640   0.380 -0.2636 -0.3769 -0.4953
 8899SOL    HW238157   3.259   1.559   0.478 -0.4099 -1.1579  0.2319
 8900SOL     OW38158   3.698   3.454   5.009  0.4526 -0.4035  0.6324
 8900SOL    HW138159   3.782   3.412   5.026  0.2689 -1.0603 -0.1401
 8900SOL    HW238160   3.654   3.415   4.934  0.2584  2.9294 -0.9870
 8901SOL     OW38161   3.995   4.112  11.165 -0.4797  0.1588  0.1013
 8901SOL    HW138162   3.984   4.023  11.131  0.5622  0.6377 -1.4622
 8901SOL    HW238163   4.013   4.152  11.080 -2.3079  0.5092 -0.1143
 8902SOL     OW38164   0.864   3.336   4.935  0.6256 -0.2313 -0.2523
 8902SOL    HW138165   0.856   3.355   4.842  0.0597  1.7444  0.2020
 8902SOL    HW238166   0.779   3.297   4.954  0.3044  0.7966  0.4342
 8903SOL     OW38167   0.436   2.266   1.711  0.0896 -0.0786  0.0283
 8903SOL    HW138168   0.488   2.332   1.757  1.9679 -0.7261 -1.1771
 8903SOL    HW238169   0.504   2.210   1.674  0.0494 -0.0122 -0.1459
 8904SOL     OW38170   1.183   2.423   2.636 -0.2833  0.1617  0.0610
 8904SOL    HW138171   1.116   2.460   2.693  1.0485  2.4966  0.1307
 8904SOL    HW238172   1.233   2.504   2.625 -1.3592  1.0756  2.0076
 8905SOL     OW38173   0.548   4.467  16.552  0.3096  0.0357  0.0455
 8905SOL    HW138174   0.584   4.429  16.472 -0.0835 -0.0489 -0.0923
 8905SOL    HW238175   0.510   4.388  16.589  0.6831  0.5074  1.4236
 8906SOL     OW38176   3.418   4.193   2.660  0.1276  0.1620  0.0611
 8906SOL    HW138177   3.349   4.228   2.717  1.1340 -2.3092  2.7884
 8906SOL    HW238178   3.411   4.259   2.592 -0.9884 -0.4563 -0.4269
 8907SOL     OW38179   3.227   1.520  16.158  0.1474 -0.1828  0.6468
 8907SOL    HW138180   3.231   1.596  16.216 -0.3499  0.3820 -0.0619
 8907SOL    HW238181   3.248   1.556  16.072  0.6329 -0.4855  0.6386
 8908SOL     OW38182   3.092   0.340  13.252 -0.1793  0.0878 -0.2908
 8908SOL    HW138183   3.087   0.432  13.276 -1.0301 -0.1841  0.6229
 8908SOL    HW238184   3.177   0.320  13.292  0.4771  0.0057 -1.7219
 8909SOL     OW38185   4.336   0.208   6.650  0.0329  0.6060 -0.2665
 8909SOL    HW138186   4.317   0.117   6.673 -0.3726  0.4712 -1.1668
 8909SOL    HW238187   4.386   0.203   6.569  0.0636  2.7026 -0.3795
 8910SOL     OW38188   2.460   2.015   4.581  0.1170  0.1217  0.3718
 8910SOL    HW138189   2.545   2.050   4.554 -0.4044  1.3167  0.2719
 8910SOL    HW238190   2.444   2.055   4.666 -0.0070 -1.0555  0.9077
 8911SOL     OW38191   1.976   3.612   6.930 -0.0056  0.2293 -0.5067
 8911SOL    HW138192   1.960   3.707   6.933  0.4162  0.3147 -0.9213
 8911SOL    HW238193   1.914   3.575   6.993 -1.0618 -0.1965 -1.8066
 8912SOL     OW38194   0.506   4.669   2.205  1.1066 -0.0249 -0.1074
 8912SOL    HW138195   0.492   4.598   2.268 -1.9750 -0.1494 -0.9696
 8912SOL    HW238196   0.569   4.633   2.143 -0.5173 -0.1667 -1.6572
 8913SOL     OW38197   3.435   2.079  12.322 -0.6242  0.6231  0.5215
 8913SOL    HW138198   3.395   1.993  12.312  0.1668  0.7358 -3.5189
 8913SOL    HW238199   3.365   2.143  12.307 -0.3886  0.4503 -1.2450
 8914SOL     OW38200   3.440   1.063   1.792  0.4929 -0.6247 -0.1550
 8914SOL    HW138201   3.500   1.051   1.718  0.3824 -0.3247 -0.2911
 8914SOL    HW238202   3.352   1.043   1.763  0.4092  1.0633 -1.0760
 8915SOL     OW38203   0.084   3.264   2.642  0.9475 -0.3967 -0.8155
 8915SOL    HW138204   0.047   3.335   2.695 -0.8171 -0.5638 -1.8404
 8915SOL    HW238205   0.136   3.220   2.709 -1.9363 -1.7533  0.4943
 8916SOL     OW38206   2.324   1.935   0.758 -0.1415 -0.1907 -0.5765
 8916SOL    HW138207   2.303   1.999   0.690  0.1087 -0.1396 -0.6046
 8916SOL    HW238208   2.394   1.981   0.803  0.4055 -1.7416  0.1673
 8917SOL     OW38209   0.858   4.346  10.517  0.2878 -0.5653 -0.2788
 8917SOL    HW138210   0.914   4.295  10.459  0.7169  0.7544 -1.0329
 8917SOL    HW238211   0.910   4.342  10.598  1.1129  1.9182 -0.6768
 8918SOL     OW38212   1.703   0.093   9.196 -0.3398  0.4488 -0.0236
 8918SOL    HW138213   1.744   0.157   9.137  1.0974  0.5144  1.0530
 8918SOL    HW238214   1.753   0.094   9.277  1.3362 -1.1774 -1.0339
 8919SOL     OW38215   1.758   1.009   6.150  0.4139 -0.0416 -0.0230
 8919SOL    HW138216   1.723   1.091   6.115 -0.9289 -0.6954 -0.2322
 8919SOL    HW238217   1.717   0.944   6.093 -1.7710  0.1557  1.3334
 8920SOL     OW38218   0.368   2.035   4.701  0.1920  0.7181 -0.7756
 8920SOL    HW138219   0.426   2.102   4.664 -0.9870  3.0181  1.5314
 8920SOL    HW238220   0.401   1.961   4.649 -0.3219  0.1196 -0.2390
 8921SOL     OW38221   3.401   4.684   3.809  0.1394  0.4481  0.0105
 8921SOL    HW138222   3.420   4.671   3.716 -2.0977  1.2747 -0.5489
 8921SOL    HW238223   3.369   4.603   3.849  2.1621 -1.7045 -2.7453
 8922SOL     OW38224   4.342   4.380  11.688  0.5815  0.4090  0.2400
 8922SOL    HW138225   4.295   4.395  11.606 -1.6128  1.9526  1.7889
 8922SOL    HW238226   4.278   4.376  11.759 -1.0722  1.1428 -1.2225
 8923SOL     OW38227   4.671   1.342   4.764  0.1922 -0.1023  0.1535
 8923SOL    HW138228   4.722   1.302   4.693  0.3863 -0.1965  0.3448
 8923SOL    HW238229   4.688   1.279   4.833  1.2366 -0.2106 -0.1969
 8924SOL     OW38230   0.666   2.093   3.666  0.2222 -0.1482  0.1857
 8924SOL    HW138231   0.683   1.999   3.661 -0.5270 -0.1184 -2.8165
 8924SOL    HW238232   0.693   2.132   3.583  0.3912  0.7489  0.6607
 8925SOL     OW38233   0.468   4.630  10.038 -0.3531 -0.5994 -0.2054
 8925SOL    HW138234   0.379   4.664  10.031 -0.9471 -2.3013 -0.7233
 8925SOL    HW238235   0.471   4.603  10.130  1.4261 -0.6150 -0.2644
 8926SOL     OW38236   3.781   0.363   3.772  0.1312 -0.0927 -0.5636
 8926SOL    HW138237   3.735   0.442   3.744 -1.1711 -1.5004 -2.3290
 8926SOL    HW238238   3.728   0.346   3.850  0.6255 -0.7472 -0.3705
 8927SOL     OW38239   3.030   0.869   6.778  0.1791 -0.5464  0.1187
 8927SOL    HW138240   3.045   0.959   6.750  0.4339 -0.5829  0.1361
 8927SOL    HW238241   3.011   0.870   6.872 -1.0290  1.0355 -0.1602
 8928SOL     OW38242   1.653   4.415   4.431 -0.5358 -0.4919 -0.0037
 8928SOL    HW138243   1.644   4.468   4.351  0.5723 -1.5152 -0.7939
 8928SOL    HW238244   1.597   4.476   4.479 -0.3296  0.2484 -0.6987
 8929SOL     OW38245   1.295   0.576   6.236 -0.2899  0.1856  0.2719
 8929SOL    HW138246   1.311   0.490   6.198  3.1114  1.1243 -0.3672
 8929SOL    HW238247   1.367   0.622   6.194  0.2814 -0.6999  0.2893
 8930SOL     OW38248   1.485   2.897   7.400 -0.5048 -0.0080 -0.2024
 8930SOL    HW138249   1.510   2.862   7.486  2.6905  2.7798  0.0420
 8930SOL    HW238250   1.565   2.935   7.362  0.1670  0.3273  1.5251
 8931SOL     OW38251   3.414   2.980   3.023 -0.5398  0.1967 -0.1317
 8931SOL    HW138252   3.467   3.039   2.970  1.9228 -0.0298  2.1229
 8931SOL    HW238253   3.427   3.012   3.112  1.9632 -1.2311  0.0122
 8932SOL     OW38254   4.070   3.406   5.942  0.0267 -0.6230  0.3683
 8932SOL    HW138255   4.062   3.424   5.848 -1.9838 -1.2999  0.3950
 8932SOL    HW238256   3.981   3.376   5.962 -0.9988  1.1307 -1.5723
 8933SOL     OW38257   4.542   2.583   2.235  0.3273 -0.5851 -0.1198
 8933SOL    HW138258   4.497   2.586   2.150 -0.6962  0.0227  0.4345
 8933SOL    HW238259   4.618   2.534   2.207  0.5782 -0.7743  0.8952
 8934SOL     OW38260   0.767   4.712   3.491  0.1968  0.0011  0.1672
 8934SOL    HW138261   0.848   0.011   3.444  0.5445 -0.7578  0.4078
 8934SOL    HW238262   0.694   4.699   3.430 -0.0208 -2.2728  0.9271
 8935SOL     OW38263   1.772   0.834   7.548 -0.1371  0.6718  0.6399
 8935SOL    HW138264   1.765   0.752   7.499  1.6901 -0.4202  2.1862
 8935SOL    HW238265   1.773   0.896   7.475  0.1779  0.2769  0.3117
 8936SOL     OW38266   3.035   0.265  13.673  0.1641  0.3242 -0.4597
 8936SOL    HW138267   3.020   0.359  13.683 -2.7721 -0.3096  1.2765
 8936SOL    HW238268   3.131   0.261  13.673  0.0424 -2.6378 -0.1820
 8937SOL     OW38269   3.521   0.216   3.035 -0.3377  0.8844 -0.0498
 8937SOL    HW138270   3.440   0.182   2.995  0.0856 -1.4547  1.1099
 8937SOL    HW238271   3.519   0.301   2.990 -0.6538  1.6380  1.3925
 8938SOL     OW38272   4.537   2.863   5.086  0.1084 -0.4679 -0.6974
 8938SOL    HW138273   4.465   2.914   5.123 -0.2841  0.5744 -2.8921
 8938SOL    HW238274   4.548   2.810   5.165 -1.7588  1.4554  0.8488
 8939SOL     OW38275   1.684   1.225  16.051 -0.5344 -0.0717 -0.9801
 8939SOL    HW138276   1.755   1.280  16.084 -1.8604 -0.5514  2.7302
 8939SOL    HW238277   1.648   1.181  16.128 -2.0828  0.5232 -1.3625
 8940SOL     OW38278   1.823   3.459   6.388 -0.1268  0.2481 -0.3899
 8940SOL    HW138279   1.850   3.372   6.415 -0.4195 -0.0210 -0.9605
 8940SOL    HW238280   1.905   3.499   6.417 -1.1114  0.1433  2.5533
 8941SOL     OW38281   4.661   3.888  10.714 -0.2339  0.0453  0.5824
 8941SOL    HW138282   4.709   3.857  10.791  1.0237 -0.0116 -0.2267
 8941SOL    HW238283   4.619   3.972  10.732 -3.5453 -1.5062 -0.0031
 8942SOL     OW38284   3.134   2.889   2.628 -0.1101 -0.1301 -0.2062
 8942SOL    HW138285   3.082   2.970   2.631  0.6095  0.3014  0.6023
 8942SOL    HW238286   3.146   2.871   2.535 -1.9621  2.8091 -1.0209
 8943SOL     OW38287   4.128   3.221   1.101 -0.1188  0.0031 -0.1804
 8943SOL    HW138288   4.087   3.159   1.040 -0.0522 -0.6293  0.4146
 8943SOL    HW238289   4.124   3.307   1.059 -1.1357 -0.3301 -0.7603
 8944SOL     OW38290   0.666   1.307   6.106 -0.1803 -0.0375 -0.6586
 8944SOL    HW138291   0.639   1.218   6.085  1.1284 -0.2751 -1.3424
 8944SOL    HW238292   0.578   1.344   6.101 -0.0427  0.4948  1.1104
 8945SOL     OW38293   0.550   4.600   6.686 -0.3481 -0.4189  0.3670
 8945SOL    HW138294   0.465   4.564   6.658 -0.7749  0.8619  0.0407
 8945SOL    HW238295   0.589   4.635   6.605  2.1656  0.1354  1.8252
 8946SOL     OW38296   2.107   0.881   6.793  0.3158  0.7433 -0.1777
 8946SOL    HW138297   2.154   0.949   6.745  0.8030  0.3337 -0.2803
 8946SOL    HW238298   2.155   0.859   6.873 -2.0157 -3.6867 -0.0164
 8947SOL     OW38299   2.162   3.704  14.675  0.1543 -0.1109  0.0394
 8947SOL    HW138300   2.136   3.679  14.764  1.0898 -1.2868 -0.0233
 8947SOL    HW238301   2.200   3.627  14.633  1.8697 -0.8017  2.8197
 8948SOL     OW38302   4.537   3.180  14.346  0.0557 -0.1837  0.1796
 8948SOL    HW138303   4.627   3.152  14.364  1.0885  2.2073 -1.3479
 8948SOL    HW238304   4.535   3.150  14.255  0.5227  0.1695  0.0521
 8949SOL     OW38305   3.319   3.864   6.202 -0.1275 -0.0347 -0.3910
 8949SOL    HW138306   3.411   3.848   6.181 -0.0377 -1.1582  0.8291
 8949SOL    HW238307   3.309   3.953   6.167 -2.1978 -0.0447  0.1359
 8950SOL     OW38308   3.743   2.374  13.732 -0.1654 -0.1561 -0.3652
 8950SOL    HW138309   3.741   2.279  13.739 -3.4389 -0.2279 -2.5714
 8950SOL    HW238310   3.814   2.396  13.671 -0.5118  1.7693 -0.0667
 8951SOL     OW38311   2.683   2.585   6.856 -0.3132 -0.4202 -0.7824
 8951SOL    HW138312   2.635   2.621   6.930  1.5964  1.8412 -0.6394
 8951SOL    HW238313   2.703   2.494   6.880 -1.8875 -0.2312  1.2222
 8952SOL     OW38314   0.404   2.845   2.428  0.2747  0.1285 -0.3180
 8952SOL    HW138315   0.371   2.794   2.354  1.0741 -0.8566 -0.0001
 8952SOL    HW238316   0.341   2.915   2.413  1.1106  1.6295  3.1992
 8953SOL     OW38317   1.557   2.503   4.653  0.0375 -0.0747  0.1863
 8953SOL    HW138318   1.580   2.525   4.743  3.2629 -0.7134 -0.4608
 8953SOL    HW238319   1.532   2.413   4.672  0.0388 -0.6687 -2.5806
 8954SOL     OW38320   0.058   1.210  11.906 -0.4529  0.3200 -0.6477
 8954SOL    HW138321   0.151   1.216  11.884 -0.3386 -1.8136 -0.7249
 8954SOL    HW238322   0.045   1.138  11.969  1.6272  0.4184 -0.1163
 8955SOL     OW38323   2.220   1.410   4.729 -0.0889  0.0002 -0.3452
 8955SOL    HW138324   2.136   1.433   4.769  0.5290 -0.2783  1.1230
 8955SOL    HW238325   2.214   1.476   4.660  1.6053 -0.1560 -0.6527
 8956SOL     OW38326   2.568   3.038  10.739  0.3014  0.3583 -0.2353
 8956SOL    HW138327   2.476   3.017  10.728  0.1958 -0.9668  3.3267
 8956SOL    HW238328   2.616   2.981  10.679 -0.3282 -0.5346  0.1104
 8957SOL     OW38329   0.571   0.742   4.856  0.0519  0.4360  0.0019
 8957SOL    HW138330   0.635   0.812   4.869 -0.6031  0.7369  1.5923
 8957SOL    HW238331   0.616   0.659   4.846  2.2717  1.5593  0.7449
 8958SOL     OW38332   1.283   4.518  14.731  0.0103 -0.2118 -0.1253
 8958SOL    HW138333   1.354   4.509  14.794  1.1510 -0.1959 -1.4064
 8958SOL    HW238334   1.241   4.596  14.767 -0.3916 -0.5963  0.2463
 8959SOL     OW38335   0.377   4.470  10.267 -0.1598 -0.2693 -0.0841
 8959SOL    HW138336   0.375   4.403  10.199 -0.2366  0.9092 -1.2247
 8959SOL    HW238337   0.311   4.427  10.322 -0.0469 -1.2852 -0.7492
 8960SOL     OW38338   4.618   4.635  15.634 -0.1238 -0.4762  0.2337
 8960SOL    HW138339   4.698   4.605  15.592 -0.3149  0.3189 -0.7120
 8960SOL    HW238340   4.561   4.601  15.565 -1.7455  2.7762 -0.0194
 8961SOL     OW38341   1.712   4.540  16.629 -0.0303  0.1759 -0.6010
 8961SOL    HW138342   1.683   4.631  16.629 -0.6018 -0.0098 -0.8401
 8961SOL    HW238343   1.728   4.515  16.720  0.8759  1.3310 -0.4446
 8962SOL     OW38344   0.892   3.866   9.560  0.0284  0.2531  0.3769
 8962SOL    HW138345   0.811   3.902   9.595 -0.3818 -0.5602  0.2553
 8962SOL    HW238346   0.861   3.781   9.530  0.8962 -0.5378  1.7399
 8963SOL     OW38347   2.233   1.793  10.848 -0.4702  0.4408  0.4181
 8963SOL    HW138348   2.246   1.701  10.823  4.2732  1.3547 -0.4944
 8963SOL    HW238349   2.257   1.838  10.767  2.5754 -1.7415  0.0948
 8964SOL     OW38350   3.174   0.720  10.210  0.3761  0.4167  0.2823
 8964SOL    HW138351   3.174   0.798  10.154 -0.9688 -1.6412 -2.5319
 8964SOL    HW238352   3.155   0.760  10.296  0.4972 -0.7227  0.8352
 8965SOL     OW38353   4.676   0.778   4.104  0.3449  0.1000 -0.5719
 8965SOL    HW138354   4.617   0.759   4.177 -0.1298  1.6201 -0.5602
 8965SOL    HW238355   0.032   0.742   4.143 -0.0633 -0.8822 -0.6452
 8966SOL     OW38356   4.076   3.265   7.027  0.6097  0.3639  0.7399
 8966SOL    HW138357   4.047   3.322   6.956  1.4769  0.0568  0.1456
 8966SOL    HW238358   4.013   3.194   7.012  1.6648 -0.1360 -1.2643
 8967SOL     OW38359   4.217   2.863   5.568  0.2651  0.2010  0.2777
 8967SOL    HW138360   4.198   2.912   5.648  0.8488  0.4350  0.2726
 8967SOL    HW238361   4.137   2.810   5.571  2.2592 -2.7700  0.5068
 8968SOL     OW38362   2.976   3.070   5.870  0.4098 -0.2324 -0.2516
 8968SOL    HW138363   3.019   3.131   5.809 -0.1097  2.8207  2.4011
 8968SOL    HW238364   3.039   3.067   5.942 -1.1582 -3.0660  0.9962
 8969SOL     OW38365   1.721   4.259   8.744 -0.1947 -0.7418 -0.2483
 8969SOL    HW138366   1.811   4.239   8.717  0.6458 -1.3626  3.0861
 8969SOL    HW238367   1.718   4.350   8.713  0.2410 -0.6285  0.0538
 8970SOL     OW38368   2.114   2.538   5.071  0.0000 -0.4477  0.4025
 8970SOL    HW138369   2.067   2.458   5.093 -0.2828 -0.8629 -1.6491
 8970SOL    HW238370   2.044   2.599   5.094 -0.8781 -0.8358 -1.2009
 8971SOL     OW38371   0.758   4.025   4.067 -0.0256 -0.1168 -0.4164
 8971SOL    HW138372   0.731   4.055   4.154 -1.2924  2.1214 -1.5802
 8971SOL    HW238373   0.809   4.101   4.041  1.9167 -1.3096 -0.0824
 8972SOL     OW38374   3.017   4.039   7.172  1.0734  0.1214  0.0059
 8972SOL    HW138375   3.000   4.105   7.239  1.2920 -1.2848  1.4467
 8972SOL    HW238376   2.930   4.004   7.153  1.8090 -1.6855 -0.0797
 8973SOL     OW38377   2.860   2.915   6.714 -0.0318 -0.2750  0.5111
 8973SOL    HW138378   2.824   2.999   6.685 -0.7480 -0.7785 -0.0539
 8973SOL    HW238379   2.879   2.938   6.805  0.4792  0.0628  0.3188
 8974SOL     OW38380   0.085   3.009  10.844  0.1475  0.3766  0.4992
 8974SOL    HW138381   0.013   3.023  10.906  1.3075  0.7580  1.7827
 8974SOL    HW238382   0.094   2.914  10.852 -1.2806  0.1062 -1.2088
 8975SOL     OW38383   2.193   1.177   2.985  0.7146 -0.1865 -0.1085
 8975SOL    HW138384   2.200   1.254   2.929 -1.0964 -1.1987 -1.7301
 8975SOL    HW238385   2.176   1.110   2.919  1.3702 -0.7474  0.2959
 8976SOL     OW38386   2.230   0.307   4.058 -0.4685 -0.4999 -0.0398
 8976SOL    HW138387   2.196   0.283   3.971  0.3233  0.0032 -0.4885
 8976SOL    HW238388   2.284   0.230   4.076  1.1126  0.8657  1.0715
 8977SOL     OW38389   3.882   4.242   7.786  0.6459  0.2909 -0.3724
 8977SOL    HW138390   3.905   4.235   7.878  1.2146  0.1213 -0.5276
 8977SOL    HW238391   3.960   4.233   7.730  0.2794  2.6901 -1.2823
 8978SOL     OW38392   4.525   0.308   4.458  0.6057 -0.1217  0.1419
 8978SOL    HW138393   4.587   0.249   4.415  1.6341  0.6974  0.5199
 8978SOL    HW238394   4.486   0.332   4.374  1.7225 -0.6918 -0.5382
 8979SOL     OW38395   0.413   3.781  13.439  0.7893  0.4395  0.4336
 8979SOL    HW138396   0.383   3.864  13.476 -0.0921  0.0334  0.6260
 8979SOL    HW238397   0.361   3.719  13.489  0.8243  0.8168  0.9423
 8980SOL     OW38398   4.597   0.270   4.841  0.0214  0.3784 -0.1609
 8980SOL    HW138399   4.676   0.291   4.791 -0.8360  0.3618 -1.5249
 8980SOL    HW238400   4.640   0.232   4.918 -0.6770  0.5005  0.2818
 8981SOL     OW38401   2.246   3.908   5.042 -0.0711 -0.2805  0.4544
 8981SOL    HW138402   2.308   3.979   5.060 -0.2500  0.6702 -2.6735
 8981SOL    HW238403   2.300   3.853   4.984 -0.2136 -0.9206  0.9276
 8982SOL     OW38404   4.110   3.105   0.130  0.1859 -0.1063  0.0545
 8982SOL    HW138405   4.156   3.126   0.049  0.0085 -0.2392 -0.0778
 8982SOL    HW238406   4.021   3.133   0.109 -0.1462 -0.5936  0.7836
 8983SOL     OW38407   3.151   1.499   1.674 -0.4227 -0.3780  0.4543
 8983SOL    HW138408   3.199   1.457   1.603 -0.3826 -0.9014  0.7904
 8983SOL    HW238409   3.059   1.475   1.658 -0.7111  1.4426 -0.5905
 8984SOL     OW38410   1.634   3.165   5.511 -0.1864  0.1052  0.3506
 8984SOL    HW138411   1.626   3.258   5.491  1.4505  0.7711  2.7512
 8984SOL    HW238412   1.693   3.136   5.441  2.3204  1.7080  1.8097
 8985SOL     OW38413   2.954   0.709   6.588 -0.6122 -0.7582  0.6860
 8985SOL    HW138414   3.024   0.643   6.587 -0.2110 -0.2867 -1.8348
 8985SOL    HW238415   2.976   0.778   6.650  0.5666 -0.1238 -0.4320
 8986SOL     OW38416   4.668   1.896   9.891 -0.3003 -0.1873 -0.0962
 8986SOL    HW138417   0.028   1.872   9.851 -0.4603 -1.4906  0.3324
 8986SOL    HW238418   4.613   1.848   9.828  2.1683  0.9858 -3.1355
 8987SOL     OW38419   3.645   4.414   9.960  0.3083 -0.3879 -0.7961
 8987SOL    HW138420   3.600   4.461   9.890  1.1714  1.2676 -0.2354
 8987SOL    HW238421   3.571   4.397  10.019  0.2094 -1.9621 -1.3856
 8988SOL     OW38422   4.049   4.309   3.358 -0.8061  0.0979 -0.1138
 8988SOL    HW138423   4.093   4.232   3.394  2.0786  1.4003 -0.8446
 8988SOL    HW238424   4.094   4.327   3.276  1.2578 -2.0327  0.5117
 8989SOL     OW38425   4.592   0.154   7.321  0.1279  0.1282 -0.2250
 8989SOL    HW138426   4.593   0.071   7.369 -0.8572  1.2192  1.6777
 8989SOL    HW238427   4.674   0.164   7.273 -0.1036 -1.0530 -0.8577
 8990SOL     OW38428   4.177   0.061  14.685  0.2514  0.1838 -0.5783
 8990SOL    HW138429   4.264   0.090  14.657  0.9337  0.0213  1.3167
 8990SOL    HW238430   4.161   0.121  14.758 -3.1373 -1.1550 -0.2095
 8991SOL     OW38431   3.673   1.552   5.188 -0.1609  0.0083 -0.1135
 8991SOL    HW138432   3.588   1.545   5.144  0.1208  1.4605 -0.9030
 8991SOL    HW238433   3.729   1.606   5.133  0.2091 -0.1786  0.0808
 8992SOL     OW38434   0.504   3.704   7.162 -0.1470 -0.1173 -0.2068
 8992SOL    HW138435   0.467   3.647   7.229 -0.9527  0.1028 -0.4608
 8992SOL    HW238436   0.596   3.680   7.151  0.3568  1.0703  1.4978
 8993SOL     OW38437   0.667   2.925   2.635 -0.4751 -0.0183  0.6233
 8993SOL    HW138438   0.611   2.911   2.559 -1.0158 -3.9025  1.7532
 8993SOL    HW238439   0.681   3.019   2.622  0.3491 -0.2332 -0.0298
 8994SOL     OW38440   2.481   2.762   2.455 -0.0741 -0.9082  0.0274
 8994SOL    HW138441   2.453   2.851   2.432  0.4957 -0.9765 -0.9142
 8994SOL    HW238442   2.441   2.748   2.541  0.6687 -1.2594  0.3146
 8995SOL     OW38443   0.936   2.135   6.128 -0.1937  0.1857 -0.1212
 8995SOL    HW138444   0.978   2.133   6.042 -2.0798  0.9687 -1.0674
 8995SOL    HW238445   1.003   2.086   6.175 -0.3397 -1.0564 -1.2272
 8996SOL     OW38446   3.405   1.016   9.871  0.1470  0.5733 -0.2262
 8996SOL    HW138447   3.486   0.967   9.851  0.2336  0.2880  0.8221
 8996SOL    HW238448   3.387   1.078   9.800 -1.7270  0.7221  0.3887
 8997SOL     OW38449   0.498   0.068   8.128 -0.7026  0.5186 -0.4096
 8997SOL    HW138450   0.436   0.111   8.068 -0.2777 -0.1786 -1.3482
 8997SOL    HW238451   0.453   0.081   8.211  2.2977 -1.6054  1.5139
 8998SOL     OW38452   0.331   0.048   4.559 -0.2853  0.0637  0.5657
 8998SOL    HW138453   0.337   4.682   4.593 -2.2960 -0.2733  0.0378
 8998SOL    HW238454   0.407   0.083   4.606  0.1559 -2.3006  1.5993
 8999SOL     OW38455   4.190   2.336   4.990  0.1203 -0.7311 -0.3860
 8999SOL    HW138456   4.235   2.388   4.924 -0.0763 -0.9275 -0.6746
 8999SOL    HW238457   4.217   2.251   4.957 -1.9038 -1.1477 -1.0027
 9000SOL     OW38458   2.151   2.180   1.209 -0.0876 -0.3313 -0.2520
 9000SOL    HW138459   2.200   2.111   1.164 -0.9208 -1.5636  0.7311
 9000SOL    HW238460   2.188   2.253   1.158 -2.1639 -1.0043 -2.6889
 9001SOL     OW38461   0.146   1.901  10.583  0.0220 -0.4310  0.6569
 9001SOL    HW138462   0.061   1.858  10.580  0.5743 -1.5634  1.1590
 9001SOL    HW238463   0.198   1.829  10.618  0.0336 -0.0498  1.4234
 9002SOL     OW38464   2.541   2.549   2.769  0.1444  0.7085 -0.0465
 9002SOL    HW138465   2.537   2.641   2.793  1.0868  0.6606  0.2714
 9002SOL    HW238466   2.632   2.548   2.741  0.4634 -1.5253  1.0403
 9003SOL     OW38467   3.404   2.586   5.035 -0.1824 -0.2056  0.3916
 9003SOL    HW138468   3.380   2.535   4.958  0.8345  0.6787 -0.5050
 9003SOL    HW238469   3.491   2.620   5.015 -0.0807 -1.9625 -2.0648
 9004SOL     OW38470   0.438   0.383  14.051  0.0983 -0.2777  0.1824
 9004SOL    HW138471   0.491   0.380  13.971 -0.3277  0.2775 -0.1302
 9004SOL    HW238472   0.477   0.460  14.092 -1.2202 -0.0890  1.0550
 9005SOL     OW38473   3.657   1.660   8.441  0.2673  0.2764  0.1053
 9005SOL    HW138474   3.712   1.586   8.414 -2.2972  0.0192 -4.3545
 9005SOL    HW238475   3.616   1.616   8.515 -0.8926  0.4659 -0.4160
 9006SOL     OW38476   3.818   4.278   4.062  0.3807 -0.0837 -0.6911
 9006SOL    HW138477   3.739   4.225   4.052 -0.5170  1.1318 -0.0433
 9006SOL    HW238478   3.790   4.328   4.139  3.3463  0.6161 -0.0567
 9007SOL     OW38479   4.721   3.461  17.200  0.7249  0.0861 -0.3445
 9007SOL    HW138480   4.655   3.492  17.261  0.1859 -1.9944  0.1103
 9007SOL    HW238481   0.066   3.443  17.264 -0.0988 -1.0232  0.2146
 9008SOL     OW38482   0.806   3.736  15.358 -0.1521 -0.1987 -0.0016
 9008SOL    HW138483   0.765   3.805  15.305  0.1583 -0.9808 -1.2586
 9008SOL    HW238484   0.821   3.667  15.293  3.7041 -0.8304  1.6036
 9009SOL     OW38485   1.562   1.854   6.707  0.1308  0.0234 -0.1283
 9009SOL    HW138486   1.604   1.878   6.624 -0.7462 -0.1048 -0.6096
 9009SOL    HW238487   1.487   1.911   6.724  0.3390  0.8739 -1.9878
 9010SOL     OW38488   0.114   2.081  13.586 -0.3869  0.3757  0.1520
 9010SOL    HW138489   0.203   2.110  13.570  0.2313 -1.9900 -0.7824
 9010SOL    HW238490   0.071   2.164  13.603 -0.2303  0.3986  0.4299
 9011SOL     OW38491   4.391   0.933   1.996 -0.1269  0.0318 -0.8430
 9011SOL    HW138492   4.397   0.858   2.055  1.0385  2.1730  1.7797
 9011SOL    HW238493   4.405   1.007   2.055  3.4146 -0.5318 -1.0020
 9012SOL     OW38494   3.276   2.761   8.019  0.0240  0.2099  0.2938
 9012SOL    HW138495   3.201   2.708   8.044  0.3281 -0.3588 -0.0064
 9012SOL    HW238496   3.237   2.848   8.016  2.4479  1.1900 -3.8794
 9013SOL     OW38497   3.195   0.768   3.248 -0.9338 -0.3975  0.1562
 9013SOL    HW138498   3.152   0.735   3.327  1.5321 -1.5055  1.0333
 9013SOL    HW238499   3.277   0.721   3.264 -1.6063 -1.7526 -0.4086
 9014SOL     OW38500   3.061   4.559   0.522 -0.2978  0.1973  0.1403
 9014SOL    HW138501   3.081   4.524   0.609 -0.9318 -0.9142 -0.1594
 9014SOL    HW238502   3.092   4.484   0.470 -2.3683  0.5182 -1.5494
 9015SOL     OW38503   2.143   4.456  10.416 -0.4481  0.1382  0.7961
 9015SOL    HW138504   2.084   4.461  10.491 -0.3159  0.1106  0.9007
 9015SOL    HW238505   2.085   4.474  10.341  1.7209  1.3705 -0.5853
 9016SOL     OW38506   4.422   1.597   2.317 -0.1945  0.4807  0.0151
 9016SOL    HW138507   4.327   1.589   2.319 -0.3160  1.9003  0.3819
 9016SOL    HW238508   4.439   1.687   2.288  3.6085 -0.6756 -1.3374
 9017SOL     OW38509   2.556   2.130   6.777 -0.4550  0.4389  0.7610
 9017SOL    HW138510   2.608   2.050   6.767 -0.3293  0.5664  0.4030
 9017SOL    HW238511   2.572   2.185   6.701 -0.0799 -1.6275 -0.6403
 9018SOL     OW38512   4.525   1.581   3.348  0.4652 -0.1146 -0.1578
 9018SOL    HW138513   4.446   1.633   3.364  0.1551 -0.5225 -0.3733
 9018SOL    HW238514   4.486   1.498   3.320  0.9250  0.9879 -4.0454
 9019SOL     OW38515   2.191   0.225  11.357  0.1082  0.3673  0.6244
 9019SOL    HW138516   2.104   0.191  11.336 -0.0451  0.5519  0.9601
 9019SOL    HW238517   2.183   0.313  11.322  0.7288 -0.5945 -1.9082
 9020SOL     OW38518   4.292   2.036  10.677  0.1184  0.7303  0.0759
 9020SOL    HW138519   4.313   2.024  10.584 -1.4846 -0.0589 -0.1774
 9020SOL    HW238520   4.211   2.086  10.684  0.0855  0.8074 -0.8994
 9021SOL     OW38521   1.630   0.772   7.857  0.2654  0.4719  0.0207
 9021SOL    HW138522   1.560   0.770   7.792  1.3117 -1.6939 -1.0228
 9021SOL    HW238523   1.686   0.699   7.832  2.0471  1.6600  0.4977
 9022SOL     OW38524   2.327   3.377  17.111  0.0486 -0.3062 -0.0476
 9022SOL    HW138525   2.264   3.414  17.173 -0.3527  0.7183 -1.0763
 9022SOL    HW238526   2.398   3.363  17.175  1.2190 -2.4838 -1.8541
 9023SOL     OW38527   0.805   0.964   7.470 -0.3554  0.4549 -0.3102
 9023SOL    HW138528   0.896   0.968   7.439 -0.2483 -0.6224 -0.1254
 9023SOL    HW238529   0.798   0.883   7.521 -2.0289  0.2436 -0.8627
 9024SOL     OW38530   1.513   0.360   5.907  0.1852  0.2915 -0.4841
 9024SOL    HW138531   1.474   0.360   5.994 -1.1962  1.2822 -1.1104
 9024SOL    HW238532   1.605   0.364   5.934  0.8199 -1.7545 -2.3609
 9025SOL     OW38533   4.613   2.225   0.566  0.5160 -0.1262  0.0042
 9025SOL    HW138534   4.577   2.174   0.638 -1.4105  1.5524  0.2238
 9025SOL    HW238535   4.630   2.311   0.605  1.2996 -1.2436  2.1038
 9026SOL     OW38536   2.594   4.324   7.203  0.2718 -0.6248  0.4400
 9026SOL    HW138537   2.622   4.295   7.289  2.5613 -1.6984 -0.6593
 9026SOL    HW238538   2.673   4.324   7.149 -0.4286 -1.3233 -0.6001
 9027SOL     OW38539   1.912   3.921   0.835  0.4230  0.2299  0.0204
 9027SOL    HW138540   1.913   3.903   0.929 -1.7381 -0.4505 -0.0763
 9027SOL    HW238541   1.877   3.838   0.803  3.0882 -0.9179  0.0917
 9028SOL     OW38542   2.214   0.680   9.225 -0.5198  0.3688  0.0426
 9028SOL    HW138543   2.143   0.739   9.201 -1.7278 -1.5943 -1.1743
 9028SOL    HW238544   2.161   0.621   9.279 -2.0808  0.2072 -1.6669
 9029SOL     OW38545   2.613   3.942   2.229 -0.0268  0.2455  0.8931
 9029SOL    HW138546   2.523   3.974   2.231 -0.8469 -1.9138 -1.3620
 9029SOL    HW238547   2.660   4.025   2.239 -0.3292  0.8000 -2.2453
 9030SOL     OW38548   2.150   0.162   9.106 -0.0451 -0.4684  0.0471
 9030SOL    HW138549   2.184   0.076   9.079  0.7039  0.0190 -0.5748
 9030SOL    HW238550   2.229   0.211   9.085 -1.5330  1.4786 -0.9443
 9031SOL     OW38551   2.874   3.418   2.967  0.1537 -0.2315 -0.1157
 9031SOL    HW138552   2.912   3.503   2.990  1.8465 -0.5030 -1.9470
 9031SOL    HW238553   2.941   3.375   2.914 -0.1362 -1.0672  0.1957
 9032SOL     OW38554   2.515   4.652   2.073 -0.0800 -0.7179  0.3068
 9032SOL    HW138555   2.447   4.629   2.136  0.7105  1.5049  1.9711
 9032SOL    HW238556   2.466   4.699   2.006  0.1352  0.1386  0.7527
 9033SOL     OW38557   0.385   1.737   7.706  0.2267 -0.6432  0.0880
 9033SOL    HW138558   0.419   1.735   7.795  2.2027 -1.4565 -0.6958
 9033SOL    HW238559   0.409   1.825   7.677 -1.5032  0.0885  0.8454
 9034SOL     OW38560   3.942   1.262   1.520  0.2566 -0.2338 -0.0259
 9034SOL    HW138561   3.936   1.209   1.599 -2.4396  3.0291  1.9711
 9034SOL    HW238562   3.960   1.353   1.543 -0.6238  0.1707 -0.9065
 9035SOL     OW38563   0.848   0.975  12.470 -0.3000 -0.3544 -0.1447
 9035SOL    HW138564   0.923   0.946  12.523 -0.7178 -0.2505  0.5044
 9035SOL    HW238565   0.775   0.947  12.524 -0.7400  0.6256 -0.2349
 9036SOL     OW38566   3.109   4.507   0.783  0.1033 -0.6506 -0.2284
 9036SOL    HW138567   3.114   4.575   0.851 -1.5263  0.6627 -1.4252
 9036SOL    HW238568   3.106   4.427   0.836 -0.0910  0.4291  1.3873
 9037SOL     OW38569   1.697   1.108   5.659  0.2812  0.0315  0.5112
 9037SOL    HW138570   1.642   1.146   5.727 -0.8803 -1.0221  0.1575
 9037SOL    HW238571   1.623   1.107   5.597  0.2953 -0.2812  0.5018
 9038SOL     OW38572   0.913   3.200   9.438  0.2227 -0.3978  0.1267
 9038SOL    HW138573   0.930   3.271   9.376 -1.2236 -2.1041 -2.2146
 9038SOL    HW238574   0.867   3.136   9.383  0.7002 -0.7174  0.1010
 9039SOL     OW38575   3.149   0.598   0.521  0.3037  0.0591  0.3378
 9039SOL    HW138576   3.210   0.526   0.536 -3.3546 -2.3022  3.8330
 9039SOL    HW238577   3.090   0.555   0.460 -3.9400  3.2206  2.2067
 9040SOL     OW38578   2.213   0.477   7.661 -0.2218 -0.7635  0.4769
 9040SOL    HW138579   2.190   0.566   7.636  2.3052 -0.6858 -1.6428
 9040SOL    HW238580   2.184   0.465   7.752 -1.7506 -1.9140 -0.1762
 9041SOL     OW38581   1.110   1.380   8.946 -0.0835  0.7100  0.0222
 9041SOL    HW138582   1.046   1.397   9.016 -0.9757  1.0750 -0.8742
 9041SOL    HW238583   1.099   1.460   8.895  0.4543  0.6784 -0.1351
 9042SOL     OW38584   2.287   4.187   4.899 -0.0880 -0.1343 -0.5411
 9042SOL    HW138585   2.287   4.108   4.844 -2.2009 -0.5604  0.0916
 9042SOL    HW238586   2.282   4.254   4.831  0.3709  2.0250  1.5483
 9043SOL     OW38587   1.697   4.429   6.916  0.3314  0.3280  0.1584
 9043SOL    HW138588   1.612   4.463   6.889 -1.2562 -1.3798  3.1056
 9043SOL    HW238589   1.743   4.513   6.921  0.5943  0.2218 -0.4031
 9044SOL     OW38590   3.563   0.970  11.125 -0.0183  0.2178 -0.1276
 9044SOL    HW138591   3.520   1.051  11.154 -0.8693 -0.0088 -0.7728
 9044SOL    HW238592   3.525   0.909  11.189  1.5383 -1.0592 -0.4257
 9045SOL     OW38593   2.038   0.472  14.169 -0.2613 -0.0724 -0.0258
 9045SOL    HW138594   2.048   0.550  14.115 -0.5608  1.3140  1.8973
 9045SOL    HW238595   2.081   0.501  14.250  1.5543 -0.4207 -0.8545
 9046SOL     OW38596   2.851   3.390   9.585  0.0637  0.0946  0.1182
 9046SOL    HW138597   2.869   3.446   9.660  0.1082  0.5680 -0.2412
 9046SOL    HW238598   2.756   3.384   9.576 -0.1229  1.1217  1.3462
 9047SOL     OW38599   1.296   2.492   8.908  0.0232  0.2940  0.5744
 9047SOL    HW138600   1.230   2.562   8.902 -0.9529 -0.6357  0.4954
 9047SOL    HW238601   1.312   2.461   8.819  0.7450  0.2973  0.6993
 9048SOL     OW38602   2.909   3.779   4.625 -0.1848  0.0560  0.3595
 9048SOL    HW138603   2.871   3.867   4.626  1.1454  0.6192  0.7435
 9048SOL    HW238604   2.831   3.723   4.625 -2.6680  3.4907 -0.2318
 9049SOL     OW38605   4.314   0.536  10.662  0.8009 -0.1996  0.0442
 9049SOL    HW138606   4.344   0.555  10.751  1.8477  2.0159 -0.7684
 9049SOL    HW238607   4.258   0.611  10.644 -2.2334 -2.2568  0.9566
 9050SOL     OW38608   0.002   4.722  15.230  0.5767  0.1014 -0.6133
 9050SOL    HW138609   4.648   4.679  15.194  1.6402 -2.9689  0.7615
 9050SOL    HW238610   4.694   0.085  15.254  0.7656 -0.1107  0.3967
 9051SOL     OW38611   2.088   3.148   8.384  0.6552 -0.3916 -0.0015
 9051SOL    HW138612   2.118   3.186   8.466  0.4399  2.0765 -1.0851
 9051SOL    HW238613   2.167   3.104   8.351  1.3834 -0.7350  2.1834
 9052SOL     OW38614   1.497   4.336   4.123  0.2066 -0.2241  0.1888
 9052SOL    HW138615   1.525   4.401   4.188  0.2251 -0.6149  0.5696
 9052SOL    HW238616   1.445   4.395   4.069 -1.7823 -1.0016  1.2636
 9053SOL     OW38617   2.111   3.084   5.828  0.1195  0.3769 -0.1156
 9053SOL    HW138618   2.027   3.129   5.824  0.0040  0.4396  3.1287
 9053SOL    HW238619   2.159   3.160   5.862 -0.0687  0.3202  0.2724
 9054SOL     OW38620   4.547   1.888   8.961  0.0935 -0.1841 -0.8043
 9054SOL    HW138621   4.525   1.917   8.872  1.0619  1.2712 -0.5637
 9054SOL    HW238622   4.459   1.891   8.999  0.2991  0.8295 -0.4049
 9055SOL     OW38623   2.931   3.103   3.400  0.1311 -0.8303 -0.1341
 9055SOL    HW138624   2.871   3.155   3.347  1.6136  0.9050 -0.0914
 9055SOL    HW238625   2.891   3.021   3.368  0.1780 -0.6292 -0.7013
 9056SOL     OW38626   3.531   3.749   5.459  0.7767 -0.9645  0.2212
 9056SOL    HW138627   3.589   3.680   5.493  1.0313 -0.4192  0.8914
 9056SOL    HW238628   3.461   3.736   5.523 -0.6514  0.0165 -1.1571
 9057SOL     OW38629   0.181   4.250   2.882 -0.0943 -0.5607  0.2134
 9057SOL    HW138630   0.209   4.334   2.918 -0.2436 -0.3976 -0.0569
 9057SOL    HW238631   0.251   4.245   2.816 -0.4143 -0.6818 -0.1152
 9058SOL     OW38632   4.245   0.302  14.057 -0.0322  0.3306  0.6147
 9058SOL    HW138633   4.218   0.231  14.116 -0.3906 -0.4076 -0.4291
 9058SOL    HW238634   4.340   0.304  14.069 -0.0766  0.0044  1.0426
 9059SOL     OW38635   3.786   4.207   0.948 -0.2380 -0.0051 -0.2317
 9059SOL    HW138636   3.717   4.273   0.939 -1.3797 -1.5173 -2.5376
 9059SOL    HW238637   3.804   4.185   0.857  0.4173  0.9375 -0.3320
 9060SOL     OW38638   1.328   3.448  12.361  0.2585  0.1028 -0.0024
 9060SOL    HW138639   1.422   3.464  12.358  0.3853 -0.5411  0.5581
 9060SOL    HW238640   1.309   3.451  12.455 -1.4967  1.4115 -0.4065
 9061SOL     OW38641   0.639   3.829  14.938  0.3081 -0.3767  0.5214
 9061SOL    HW138642   0.617   3.847  15.030 -1.9298 -0.7327  0.0704
 9061SOL    HW238643   0.570   3.875  14.890  0.6025  3.8066  4.0970
 9062SOL     OW38644   3.257   0.349   5.953 -0.4436 -0.6610  0.7056
 9062SOL    HW138645   3.208   0.431   5.964  0.4475  0.2286 -1.8462
 9062SOL    HW238646   3.305   0.363   6.035 -0.2019 -0.9440  0.6140
 9063SOL     OW38647   1.768   0.520   4.763 -0.3593 -0.2543  0.4228
 9063SOL    HW138648   1.799   0.557   4.845 -1.7930  0.6292  0.5643
 9063SOL    HW238649   1.762   0.426   4.780  0.9781 -0.5828 -0.9069
 9064SOL     OW38650   0.268   2.168   5.994 -0.1378 -0.5458 -0.1601
 9064SOL    HW138651   0.229   2.255   5.989 -2.7145 -1.6323  1.0959
 9064SOL    HW238652   0.344   2.161   5.936 -0.6188  0.6400 -0.9190
 9065SOL     OW38653   4.326   2.035  17.696 -0.1190  0.1701 -0.1695
 9065SOL    HW138654   4.293   1.949  17.669  0.3732  0.5797 -2.0478
 9065SOL    HW238655   4.377   2.010   0.077 -3.3803  0.3452  2.0459
 9066SOL     OW38656   2.787   1.583  17.620  0.1091  0.1020  0.2040
 9066SOL    HW138657   2.860   1.575  17.682  0.1456 -1.6081 -0.0602
 9066SOL    HW238658   2.748   1.666  17.645 -0.5743 -0.0472 -0.3790
 9067SOL     OW38659   4.283   2.361   2.255  0.2870  1.0567 -0.2151
 9067SOL    HW138660   4.334   2.411   2.191  1.0470 -0.7196 -1.0095
 9067SOL    HW238661   4.241   2.289   2.209  2.9953 -0.8991  0.3710
 9068SOL     OW38662   1.435   0.980   7.227 -0.3088  0.3841  0.1028
 9068SOL    HW138663   1.353   0.975   7.177 -0.6217  0.3304  0.6243
 9068SOL    HW238664   1.507   0.998   7.166 -2.1169  1.1655 -1.8035
 9069SOL     OW38665   2.359   4.055   3.017 -0.5688 -0.4045 -0.5305
 9069SOL    HW138666   2.444   4.084   3.051 -1.5912  1.2448  0.6026
 9069SOL    HW238667   2.352   4.123   2.949  4.4011 -0.2724 -0.9326
 9070SOL     OW38668   0.985   2.693   3.599  0.3644 -0.2316 -0.0469
 9070SOL    HW138669   1.011   2.762   3.537 -2.9243  2.4008  1.5100
 9070SOL    HW238670   0.891   2.685   3.582  0.6451 -0.6165 -1.4287
 9071SOL     OW38671   4.696   3.224   3.897 -0.6117  0.7225  0.2033
 9071SOL    HW138672   4.658   3.311   3.884 -0.2588  0.6250 -1.5059
 9071SOL    HW238673   4.617   3.174   3.877  0.5132 -1.6350  1.6435
 9072SOL     OW38674   3.689   2.498  10.778  0.2545 -0.2817  0.7310
 9072SOL    HW138675   3.595   2.517  10.781  0.1131 -1.4457  3.2889
 9072SOL    HW238676   3.714   2.531  10.691 -0.7175 -0.4455  0.3898
 9073SOL     OW38677   2.384   1.896  10.314  0.0616 -0.0311  0.7627
 9073SOL    HW138678   2.462   1.914  10.261 -0.4467 -0.1561 -0.0386
 9073SOL    HW238679   2.353   1.817  10.269  0.5788 -0.4773  1.1932
 9074SOL     OW38680   0.483   3.860   6.262 -0.1569  0.1534  0.3427
 9074SOL    HW138681   0.492   3.956   6.268  0.3694  0.1131  0.0992
 9074SOL    HW238682   0.573   3.846   6.234 -0.0930 -0.0077  0.6248
 9075SOL     OW38683   4.174   4.193   5.675 -0.6507 -0.1693 -0.2500
 9075SOL    HW138684   4.186   4.267   5.616  0.8181 -1.8336 -2.0427
 9075SOL    HW238685   4.247   4.140   5.643 -0.9497  0.6351 -2.2707
 9076SOL     OW38686   4.510   1.490   1.319 -0.4073  0.0949  0.0936
 9076SOL    HW138687   4.549   1.565   1.274 -0.8026  0.8309  0.9667
 9076SOL    HW238688   4.509   1.432   1.243  1.6309 -0.0989  0.2232
 9077SOL     OW38689   4.525   0.540   1.541  0.1518 -0.4698 -0.6584
 9077SOL    HW138690   4.609   0.568   1.505  0.4590  0.1073  0.4795
 9077SOL    HW238691   4.476   0.512   1.464 -0.1634 -1.6502 -0.0316
 9078SOL     OW38692   0.727   0.976   4.958 -0.0204  0.1857 -0.6492
 9078SOL    HW138693   0.778   1.055   4.940  1.4725 -0.6209  0.0287
 9078SOL    HW238694   0.674   1.002   5.033  2.2781 -2.7259  1.9849
 9079SOL     OW38695   3.291   0.946   2.319  0.2424 -0.2359 -0.1651
 9079SOL    HW138696   3.242   0.900   2.251 -0.1405  1.9038 -1.3366
 9079SOL    HW238697   3.369   0.965   2.266  0.4424  2.0818  0.9520
 9080SOL     OW38698   4.184   2.176  16.492  0.1157  0.0160 -0.0821
 9080SOL    HW138699   4.250   2.175  16.423 -1.0500  0.4652 -1.2080
 9080SOL    HW238700   4.163   2.086  16.517 -2.0461  0.8575  1.1348
 9081SOL     OW38701   2.727   0.066   5.780 -0.9688 -0.2450  0.2643
 9081SOL    HW138702   2.773   4.714   5.817 -0.5930  0.1802  0.6759
 9081SOL    HW238703   2.639   0.031   5.789 -0.3964 -0.9199  3.1414
 9082SOL     OW38704   2.545   0.049  13.834  0.5476 -0.1176  0.2241
 9082SOL    HW138705   2.474   0.101  13.873 -0.3697 -0.6333 -0.7434
 9082SOL    HW238706   2.614   0.114  13.818  1.9919 -1.5404  0.6891
 9083SOL     OW38707   1.077   4.257   3.669 -0.2033  0.3600  0.1001
 9083SOL    HW138708   1.126   4.265   3.587 -0.1421  1.9620  0.3072
 9083SOL    HW238709   1.118   4.317   3.730 -0.1136 -0.3427  0.7327
 9084SOL     OW38710   3.309   2.411  14.492  0.1574  0.4961  0.1858
 9084SOL    HW138711   3.344   2.328  14.523 -0.9775 -0.5893 -1.4389
 9084SOL    HW238712   3.273   2.400  14.404  0.8676  0.7327 -0.1375
 9085SOL     OW38713   1.414   4.367   5.390  0.3169  0.0006 -0.2701
 9085SOL    HW138714   1.466   4.292   5.420  1.6732  1.7528  1.7709
 9085SOL    HW238715   1.323   4.342   5.406  0.4470 -0.5653 -0.4078
 9086SOL     OW38716   3.097   3.582   5.464  0.2656  0.0337 -0.0257
 9086SOL    HW138717   3.179   3.535   5.449  2.1732  2.7106  1.9595
 9086SOL    HW238718   3.087   3.557   5.555  0.5090 -0.3721 -0.1112
 9087SOL     OW38719   0.010   1.477  16.405 -0.9311 -0.5410 -0.1756
 9087SOL    HW138720   0.091   1.465  16.356 -0.8617  1.9921 -0.6448
 9087SOL    HW238721   0.039   1.466  16.496 -0.5333 -2.6126 -0.5440
 9088SOL     OW38722   1.318   1.277  10.139 -0.0765  0.0394  0.2190
 9088SOL    HW138723   1.372   1.243  10.068 -0.0086 -0.6627  0.6097
 9088SOL    HW238724   1.384   1.306  10.201 -0.3189  1.1577 -0.0513
 9089SOL     OW38725   1.200   0.958   2.494  0.1494 -0.4365  0.2970
 9089SOL    HW138726   1.192   0.865   2.472  0.7004 -0.5602  0.6116
 9089SOL    HW238727   1.289   0.969   2.526 -0.1426  0.5862  0.7745
 9090SOL     OW38728   1.071   0.752   3.480 -0.0783  0.3519  0.0506
 9090SOL    HW138729   1.116   0.767   3.564 -1.7985 -1.4346  1.2972
 9090SOL    HW238730   1.093   0.661   3.461  1.0501  0.8253 -0.9216
 9091SOL     OW38731   0.575   2.181  16.299 -0.0259  0.1024  0.6917
 9091SOL    HW138732   0.498   2.231  16.325  0.2893  1.6879 -1.3961
 9091SOL    HW238733   0.635   2.207  16.369  0.3295 -1.3111  0.9089
 9092SOL     OW38734   4.498   2.388  13.030  0.5756 -0.3195 -0.7501
 9092SOL    HW138735   4.450   2.410  13.110 -0.2765  2.0000 -1.9245
 9092SOL    HW238736   4.426   2.386  12.967 -0.4141 -0.6582  0.3749
 9093SOL     OW38737   1.297   1.498   7.216  0.4091  0.8286  0.0566
 9093SOL    HW138738   1.340   1.466   7.295  1.1146  2.5246  0.3481
 9093SOL    HW238739   1.302   1.418   7.163 -1.3670  1.0624 -0.4568
 9094SOL     OW38740   4.448   0.097  15.423 -0.2576 -0.1166  0.1333
 9094SOL    HW138741   4.406   0.113  15.338  0.5742 -0.8363 -0.4136
 9094SOL    HW238742   4.416   0.171  15.475  0.8191  1.4948 -1.4835
 9095SOL     OW38743   1.663   2.395   4.982  0.7130 -0.2089 -0.4450
 9095SOL    HW138744   1.644   2.302   4.994 -0.9929  0.3671  1.3799
 9095SOL    HW238745   1.759   2.402   4.978  0.7424 -1.6018 -2.1415
 9096SOL     OW38746   2.579   0.231   8.779 -0.3515  0.3404  0.2971
 9096SOL    HW138747   2.574   0.276   8.864 -0.1197 -2.3859  1.7375
 9096SOL    HW238748   2.557   0.139   8.791  1.3960 -0.3142 -1.5405
 9097SOL     OW38749   4.498   2.078   7.392  0.0459 -0.4748  0.0310
 9097SOL    HW138750   4.552   2.010   7.351 -0.8544 -0.5562 -1.0273
 9097SOL    HW238751   4.429   2.102   7.330 -0.4632 -0.4622  0.6001
 9098SOL     OW38752   0.775   2.240   5.162 -0.7425  0.0811  0.1455
 9098SOL    HW138753   0.740   2.233   5.073 -0.7551  0.0587  0.1522
 9098SOL    HW238754   0.710   2.183   5.203 -1.2079  1.6332  1.6011
 9099SOL     OW38755   3.599   0.979   0.442 -0.1213 -0.2180  0.2104
 9099SOL    HW138756   3.602   0.903   0.385 -2.7316  1.7821 -2.5713
 9099SOL    HW238757   3.541   0.942   0.509 -0.5077  0.4602  0.2609
 9100SOL     OW38758   4.402   0.975  11.108  0.0901 -0.2858 -0.3866
 9100SOL    HW138759   4.461   0.942  11.039  0.1504 -2.1577  0.5420
 9100SOL    HW238760   4.436   0.940  11.190  0.2615  0.2028 -0.2509
 9101SOL     OW38761   3.515   3.401   6.546  0.7889 -0.0444 -0.0507
 9101SOL    HW138762   3.501   3.434   6.635 -0.3104 -0.5655 -0.0221
 9101SOL    HW238763   3.587   3.342   6.568  2.7642  1.4135 -2.7478
 9102SOL     OW38764   4.376   4.646   5.703 -0.0052  0.3824 -0.3770
 9102SOL    HW138765   4.334   4.716   5.754  3.4864  1.8175  0.5182
 9102SOL    HW238766   4.384   4.696   5.621 -1.2741 -0.2585 -0.8888
 9103SOL     OW38767   0.888   2.060   1.469  0.4439  0.1228 -0.0208
 9103SOL    HW138768   0.897   2.106   1.386  0.3987  1.6134  0.8068
 9103SOL    HW238769   0.962   2.085   1.525  0.6116 -1.2337  0.3580
 9104SOL     OW38770   0.830   3.482   7.873 -0.1440 -0.0704  0.2863
 9104SOL    HW138771   0.905   3.532   7.904  0.4953 -2.6348  2.9133
 9104SOL    HW238772   0.816   3.415   7.940  1.3703  0.5276  1.1990
 9105SOL     OW38773   4.099   4.442   9.203  0.4840 -0.8183  0.1894
 9105SOL    HW138774   4.069   4.514   9.259 -1.9236 -2.0988  0.5327
 9105SOL    HW238775   4.129   4.377   9.266  0.2849 -0.6940  0.4137
 9106SOL     OW38776   1.971   4.305   4.545  0.0034 -0.1547 -0.0884
 9106SOL    HW138777   1.894   4.267   4.504 -0.6110  1.3457 -0.3183
 9106SOL    HW238778   1.970   4.260   4.629  1.3798 -2.0896 -1.1013
 9107SOL     OW38779   3.575   2.141   5.389  0.8054  0.1172 -0.6126
 9107SOL    HW138780   3.564   2.062   5.335 -0.3466 -0.2032  0.1042
 9107SOL    HW238781   3.520   2.208   5.349 -1.2387 -1.0411  0.2702
 9108SOL     OW38782   3.287   3.700   0.644  0.6258 -0.7144  0.0460
 9108SOL    HW138783   3.337   3.743   0.575 -2.6596 -0.0369 -1.8833
 9108SOL    HW238784   3.324   3.615   0.619  0.5289 -0.9745  0.7726
 9109SOL     OW38785   2.449   1.751   2.604 -0.3452 -0.1228 -0.8331
 9109SOL    HW138786   2.372   1.790   2.646  0.5386 -0.3855  1.0265
 9109SOL    HW238787   2.447   1.679   2.667  0.3560  1.5813  1.1502
 9110SOL     OW38788   2.143   0.409   0.117 -0.1208 -0.5937  0.0419
 9110SOL    HW138789   2.101   0.477   0.065  0.9202 -2.3119 -3.0173
 9110SOL    HW238790   2.227   0.451   0.136 -1.0209  0.7914  0.9752
 9111SOL     OW38791   4.314   4.588   1.495  0.3659 -0.0781  0.1073
 9111SOL    HW138792   4.279   4.504   1.465 -0.8393 -0.0208  1.3438
 9111SOL    HW238793   4.314   4.626   1.407  0.4717 -0.6099 -0.1218
 9112SOL     OW38794   0.751   3.653  12.457  0.3140 -0.4644 -0.0524
 9112SOL    HW138795   0.701   3.680  12.380  1.6170 -1.9753 -1.4349
 9112SOL    HW238796   0.798   3.574  12.429  0.2441 -0.4582 -0.1854
 9113SOL     OW38797   1.802   0.261   2.568 -0.0155  0.1500  0.5165
 9113SOL    HW138798   1.830   0.198   2.634 -0.7230  1.2924  1.9021
 9113SOL    HW238799   1.832   0.216   2.488 -1.6877  1.2404 -0.7306
 9114SOL     OW38800   0.029   0.690  15.515  0.3289  0.3760  0.7774
 9114SOL    HW138801   0.060   0.703  15.425 -1.4002 -1.1937 -0.0421
 9114SOL    HW238802   0.071   0.610  15.544  0.4115  0.4298  0.8064
 9115SOL     OW38803   3.231   0.639   6.495  0.1472 -0.0057 -0.2497
 9115SOL    HW138804   3.208   0.604   6.409 -0.3349  1.5886 -0.7797
 9115SOL    HW238805   3.198   0.728   6.481  0.2836  0.2215  0.9097
 9116SOL     OW38806   1.987   2.265   6.156 -0.0377 -0.0601  0.3882
 9116SOL    HW138807   1.951   2.321   6.088  3.6380 -0.3685 -1.8040
 9116SOL    HW238808   2.065   2.232   6.112 -3.3322 -1.3985 -4.3566
 9117SOL     OW38809   1.519   1.277   3.598 -0.6410 -0.5206  0.3104
 9117SOL    HW138810   1.596   1.248   3.647 -0.8994 -0.3271  0.8299
 9117SOL    HW238811   1.558   1.356   3.561  2.4383 -2.2580 -0.1272
 9118SOL     OW38812   3.461   1.566   5.030  0.3209  0.3817  0.2627
 9118SOL    HW138813   3.496   1.625   4.964 -1.0938 -1.1306 -1.8354
 9118SOL    HW238814   3.382   1.613   5.057 -2.5017 -3.4293 -1.4699
 9119SOL     OW38815   0.040   4.377   4.602 -0.0248 -0.3772  0.5500
 9119SOL    HW138816   0.049   4.429   4.682  0.5612 -0.5066  0.5680
 9119SOL    HW238817   0.113   4.315   4.606 -0.6981 -1.1767  0.6537
 9120SOL     OW38818   1.526   4.276   3.566  0.2860  0.3896 -0.1033
 9120SOL    HW138819   1.566   4.189   3.558  0.4636  0.3933  0.7883
 9120SOL    HW238820   1.473   4.273   3.645 -0.3826 -0.8524 -0.5957
 9121SOL     OW38821   1.999   1.016   4.598 -0.1030  1.0514 -1.0354
 9121SOL    HW138822   2.003   0.942   4.537  2.5552  0.8729 -0.6573
 9121SOL    HW238823   2.009   0.977   4.685  1.1825  2.1674 -0.6698
 9122SOL     OW38824   1.342   3.287  10.960 -0.0684 -0.4622  0.4405
 9122SOL    HW138825   1.433   3.313  10.941 -0.0777 -1.8258 -1.4453
 9122SOL    HW238826   1.296   3.370  10.969  0.7404  0.0484 -0.0139
 9123SOL     OW38827   2.526   1.347   8.357  0.1092  0.2831  0.4347
 9123SOL    HW138828   2.449   1.347   8.414 -1.4265 -2.0757 -1.6465
 9123SOL    HW238829   2.482   1.366   8.275  0.0974 -0.7165  0.2195
 9124SOL     OW38830   3.194   3.263  10.512 -0.2826  0.3261 -0.0936
 9124SOL    HW138831   3.179   3.288  10.421 -1.8518  1.8622  0.5841
 9124SOL    HW238832   3.212   3.345  10.559  4.5076  0.9561 -3.0635
 9125SOL     OW38833   2.104   3.343   7.878  0.2308 -0.0892  0.8423
 9125SOL    HW138834   2.172   3.411   7.879  1.0614 -0.8673 -1.4950
 9125SOL    HW238835   2.081   3.343   7.971 -1.6886 -0.4466  0.3556
 9126SOL     OW38836   1.664   4.184   8.173 -0.4520 -0.6168  0.0889
 9126SOL    HW138837   1.732   4.178   8.240  0.1483  0.3175 -0.4310
 9126SOL    HW238838   1.679   4.095   8.139 -0.4639 -0.0231 -1.4593
 9127SOL     OW38839   1.779   4.101  13.814 -0.2448 -0.6324  0.1409
 9127SOL    HW138840   1.710   4.084  13.877 -2.1099  0.2247 -1.6793
 9127SOL    HW238841   1.830   4.175  13.848  1.3917 -0.2202 -3.1254
 9128SOL     OW38842   4.259   0.574  14.749 -0.0013 -0.7145  0.0363
 9128SOL    HW138843   4.206   0.638  14.702  2.1102  2.2331  1.6748
 9128SOL    HW238844   4.206   0.583  14.828 -0.2651  0.0765 -0.2315
 9129SOL     OW38845   0.432   4.487   2.396  0.1204 -0.0677  0.0796
 9129SOL    HW138846   0.490   4.437   2.454  1.4433 -0.1809 -1.3300
 9129SOL    HW238847   0.351   4.438   2.403 -0.3451  0.4981 -1.3696
 9130SOL     OW38848   4.394   1.330   7.954  0.2002  0.5711 -0.3321
 9130SOL    HW138849   4.438   1.407   7.919 -0.6269  1.4110  0.4439
 9130SOL    HW238850   4.415   1.342   8.046  0.0882 -0.5278 -0.1575
 9131SOL     OW38851   0.680   3.891   0.594  0.1961 -0.6992 -0.2478
 9131SOL    HW138852   0.623   3.850   0.659 -0.9426  0.6401 -0.4095
 9131SOL    HW238853   0.615   3.912   0.527  0.1807 -0.8469 -0.2808
 9132SOL     OW38854   4.175   1.721   5.081  0.3389 -0.8652 -0.0778
 9132SOL    HW138855   4.214   1.773   5.011  1.2120  0.0582  1.1083
 9132SOL    HW238856   4.132   1.780   5.142  0.6640 -0.2386 -0.4535
 9133SOL     OW38857   1.245   3.358  12.609 -0.3570 -1.0429  0.5798
 9133SOL    HW138858   1.198   3.281  12.577 -1.7993 -0.2527  0.7816
 9133SOL    HW238859   1.173   3.400  12.656  0.4454  3.1219 -1.8643
 9134SOL     OW38860   2.707   4.226   6.592  0.0568 -0.6000 -0.1209
 9134SOL    HW138861   2.770   4.156   6.574 -0.4741 -0.7564 -1.3810
 9134SOL    HW238862   2.690   4.261   6.504 -1.8760  1.9099  1.2446
 9135SOL     OW38863   3.473   3.018   9.730 -0.0582 -0.2325  0.3112
 9135SOL    HW138864   3.543   3.011   9.795 -1.9540 -0.4318  2.3345
 9135SOL    HW238865   3.464   2.935   9.683 -0.3849  1.2040 -2.1583
 9136SOL     OW38866   1.549   2.654   9.498 -0.7488  0.3896 -0.1551
 9136SOL    HW138867   1.629   2.612   9.466 -1.8777 -1.8762  0.0134
 9136SOL    HW238868   1.470   2.612   9.462 -0.7956 -1.1681  1.8094
 9137SOL     OW38869   0.509   2.807   3.874  0.1352  0.3671  0.3750
 9137SOL    HW138870   0.541   2.881   3.823 -2.0688 -0.1123 -1.7208
 9137SOL    HW238871   0.560   2.739   3.830 -0.5138 -1.4993  2.5105
 9138SOL     OW38872   1.666   1.525   8.721 -0.0919 -0.1024  0.2183
 9138SOL    HW138873   1.721   1.603   8.729 -2.4461  1.4722  1.0060
 9138SOL    HW238874   1.624   1.514   8.806 -2.4657 -1.5265 -1.1439
 9139SOL     OW38875   2.394   0.169  11.854 -0.0692 -0.2403  0.1002
 9139SOL    HW138876   2.352   0.143  11.936 -1.9308  1.1360 -0.4066
 9139SOL    HW238877   2.343   0.247  11.833 -0.5055 -0.5120  0.1585
 9140SOL     OW38878   0.689   2.872   8.962  0.1549 -0.1182 -0.1299
 9140SOL    HW138879   0.645   2.950   8.928  0.3354  0.7031  1.5103
 9140SOL    HW238880   0.738   2.906   9.037  1.6373 -2.4541 -0.0578
 9141SOL     OW38881   3.263   3.812  12.870  0.3478 -0.2581  0.6167
 9141SOL    HW138882   3.196   3.743  12.865 -2.0517  2.3195 -2.5519
 9141SOL    HW238883   3.314   3.776  12.797  0.0546 -0.2804  0.4223
 9142SOL     OW38884   3.919   1.011  16.203 -0.5153  0.4618  0.2028
 9142SOL    HW138885   3.987   1.043  16.262  0.0898 -0.3591 -0.0556
 9142SOL    HW238886   3.877   1.089  16.166 -0.3861  0.0843 -0.7314
 9143SOL     OW38887   2.471   2.143   0.857  0.1171 -0.5369 -0.5739
 9143SOL    HW138888   2.520   2.209   0.808  0.4598 -0.0366  0.4197
 9143SOL    HW238889   2.466   2.188   0.942 -2.3065 -0.1830 -0.9259
 9144SOL     OW38890   2.851   0.868   2.134 -0.0442  0.0006  0.2164
 9144SOL    HW138891   2.775   0.811   2.148  0.2905  0.2714  3.0296
 9144SOL    HW238892   2.830   0.909   2.050  0.3942 -0.3612 -0.0700
 9145SOL     OW38893   4.680   3.164   8.341 -0.2218  0.2898  0.2674
 9145SOL    HW138894   4.606   3.218   8.315  2.3377  3.2327 -0.8925
 9145SOL    HW238895   4.636   3.108   8.404  0.8534 -0.4277  0.3845
 9146SOL     OW38896   2.972   0.586   1.890  0.3833  0.0367 -0.3340
 9146SOL    HW138897   3.055   0.539   1.880 -0.1528 -0.8741 -0.5164
 9146SOL    HW238898   2.917   0.540   1.954 -1.7562 -0.4049 -2.5115
 9147SOL     OW38899   1.954   4.150  13.454 -0.2486  0.5426  0.6691
 9147SOL    HW138900   1.900   4.195  13.390  1.2446  2.1126  0.5104
 9147SOL    HW238901   1.964   4.221  13.518 -1.6959  0.7773  0.6224
 9148SOL     OW38902   4.628   0.982   6.764 -0.2081  0.1655  0.6094
 9148SOL    HW138903   4.680   1.050   6.723  0.4929 -1.1456 -0.6699
 9148SOL    HW238904   4.664   0.987   6.853 -0.7315  0.6730  0.7940
 9149SOL     OW38905   0.194   0.671  15.821 -0.4621  0.2537  0.1616
 9149SOL    HW138906   0.165   0.648  15.909  2.6437 -0.8902  0.8845
 9149SOL    HW238907   0.218   0.763  15.818 -1.2532  0.4491 -0.4046
 9150SOL     OW38908   4.070   1.408  17.210  0.1475 -0.4075  0.1124
 9150SOL    HW138909   4.150   1.458  17.226 -0.2895  0.6094 -0.9018
 9150SOL    HW238910   4.082   1.389  17.117 -0.8279  3.5523 -0.8322
 9151SOL     OW38911   4.540   1.419   8.156  0.3152 -0.2363  0.0840
 9151SOL    HW138912   4.630   1.385   8.153 -0.3432 -1.8566 -1.5203
 9151SOL    HW238913   4.546   1.505   8.114 -0.0307  0.4466  1.4417
 9152SOL     OW38914   0.430   2.844   5.340  0.1793 -0.4032 -0.3297
 9152SOL    HW138915   0.337   2.849   5.319  0.0725 -1.6623 -0.1785
 9152SOL    HW238916   0.427   2.828   5.435  0.9165  0.1999 -0.2062
 9153SOL     OW38917   2.306   0.216   6.312  0.1534  0.0792 -0.0402
 9153SOL    HW138918   2.373   0.186   6.374 -1.2878  0.4098  1.6871
 9153SOL    HW238919   2.342   0.168   6.237 -1.9616  0.8238 -1.5170
 9154SOL     OW38920   4.690   4.134   2.424 -0.6888  0.1200 -0.4715
 9154SOL    HW138921   4.686   4.050   2.379  2.0757 -0.2478 -0.0390
 9154SOL    HW238922   0.024   4.102   2.493 -0.0487  0.2282 -0.9496
 9155SOL     OW38923   2.902   0.027  15.323  0.5673 -0.1131  0.0614
 9155SOL    HW138924   2.972   0.057  15.265  1.2917 -0.9706  0.4798
 9155SOL    HW238925   2.868   0.107  15.363 -1.2420  0.2168 -2.1913
 9156SOL     OW38926   1.692   4.591   5.350  0.7820  0.6773 -0.3090
 9156SOL    HW138927   1.776   4.632   5.371  1.0223  0.2568 -0.4542
 9156SOL    HW238928   1.717   4.506   5.315 -0.4847 -0.3461  1.2647
 9157SOL     OW38929   1.371   3.970   2.332 -0.3306  0.2269  0.0477
 9157SOL    HW138930   1.393   3.958   2.425  0.6869 -1.2590 -0.3996
 9157SOL    HW238931   1.461   3.963   2.301 -0.2359 -1.2463  0.6450
 9158SOL     OW38932   1.877   3.859  11.597  0.0318 -0.0835 -0.4345
 9158SOL    HW138933   1.797   3.908  11.612  1.1804  1.8589 -0.7246
 9158SOL    HW238934   1.879   3.865  11.501  2.5198  2.6642 -0.1989
 9159SOL     OW38935   1.109   1.425  15.631  0.0808 -0.0047  0.3108
 9159SOL    HW138936   1.204   1.420  15.621 -0.6272 -1.4831 -5.4038
 9159SOL    HW238937   1.074   1.439  15.543  1.2842  2.1922  0.1894
 9160SOL     OW38938   4.680   3.116  13.452  0.5097 -0.2148  0.3650
 9160SOL    HW138939   4.647   3.200  13.482 -0.1029  0.0232 -0.9810
 9160SOL    HW238940   4.634   3.048  13.502  0.3750 -0.8598 -0.6399
 9161SOL     OW38941   0.585   2.886  15.405  0.5649  0.4958  0.7070
 9161SOL    HW138942   0.575   2.858  15.497 -1.3162 -0.9043  0.0646
 9161SOL    HW238943   0.521   2.837  15.353  2.1912  0.2148 -1.0176
 9162SOL     OW38944   2.707   1.286  10.820  0.4942  0.2552 -0.1303
 9162SOL    HW138945   2.702   1.225  10.746 -1.2988 -0.8942  0.9337
 9162SOL    HW238946   2.694   1.223  10.891  1.3644  2.3601  1.9039
 9163SOL     OW38947   0.417   4.718   0.286  0.2187 -0.5728  0.3762
 9163SOL    HW138948   0.457   0.080   0.304 -3.3794  1.3788 -0.8321
 9163SOL    HW238949   0.478   4.677   0.225  2.0122  0.0798  1.7092
 9164SOL     OW38950   2.831   1.599   7.651  0.3050 -0.2654  0.8299
 9164SOL    HW138951   2.749   1.641   7.676  0.2882  0.7351 -0.9194
 9164SOL    HW238952   2.896   1.668   7.634 -1.0691  1.0506  0.9614
 9165SOL     OW38953   2.808   0.820  14.947 -0.3663  0.2916 -0.3922
 9165SOL    HW138954   2.758   0.788  14.871  1.7441 -0.6063 -1.4142
 9165SOL    HW238955   2.895   0.837  14.912  0.1755 -1.2107  0.2262
 9166SOL     OW38956   0.567   1.033   7.947 -0.4422  0.2772 -0.2987
 9166SOL    HW138957   0.582   1.104   7.884 -0.5368 -0.8617 -1.6153
 9166SOL    HW238958   0.502   1.074   8.004 -1.1509  2.4416 -2.6261
 9167SOL     OW38959   2.492   3.386  17.322 -0.4820  0.5365 -1.1758
 9167SOL    HW138960   2.445   3.349  17.397  1.6546 -0.7720 -0.5089
 9167SOL    HW238961   2.523   3.465  17.366 -0.6626 -0.3978  0.6026
 9168SOL     OW38962   2.654   3.555   3.488 -0.9955 -0.3459  0.2704
 9168SOL    HW138963   2.664   3.642   3.448 -0.6588  0.3107  1.7717
 9168SOL    HW238964   2.613   3.587   3.569 -1.4857 -0.1533 -0.0546
 9169SOL     OW38965   3.246   0.763  17.063  0.5165  0.1272 -0.0123
 9169SOL    HW138966   3.222   0.777  16.972  0.7708  1.7085  0.1605
 9169SOL    HW238967   3.307   0.834  17.084 -0.2028  1.2717 -1.7693
 9170SOL     OW38968   2.692   2.490   8.717  0.5879  0.2407  0.3039
 9170SOL    HW138969   2.744   2.427   8.767  1.0295 -1.0565 -1.7906
 9170SOL    HW238970   2.603   2.455   8.710  0.9107 -0.1917 -1.6250
 9171SOL     OW38971   2.305   0.632  12.199 -0.3765  0.2478 -0.3665
 9171SOL    HW138972   2.395   0.659  12.215 -0.3468  1.1008 -2.0463
 9171SOL    HW238973   2.253   0.651  12.277 -0.0529 -2.4421  0.5154
 9172SOL     OW38974   4.125   3.196   0.590  0.5337  0.2738  0.1196
 9172SOL    HW138975   4.098   3.111   0.624  0.0030 -0.0510 -1.1077
 9172SOL    HW238976   4.061   3.203   0.519  0.2265  4.7226  0.8328
 9173SOL     OW38977   1.442   4.678   2.674  0.4358 -0.3269  0.2019
 9173SOL    HW138978   1.361   4.631   2.692  0.7137 -0.9998 -0.3342
 9173SOL    HW238979   1.463   4.720   2.758  1.8990  0.9292 -0.7832
 9174SOL     OW38980   3.096   1.513   2.337 -0.1003  0.1746 -0.1238
 9174SOL    HW138981   3.091   1.424   2.304 -0.3300  0.9986 -2.3248
 9174SOL    HW238982   3.183   1.535   2.371  0.7382 -0.2784 -1.9915
 9175SOL     OW38983   3.795   0.411   6.439  0.8378 -0.2410 -0.3765
 9175SOL    HW138984   3.734   0.449   6.375  1.3177  0.7233 -0.2726
 9175SOL    HW238985   3.768   0.320   6.434 -1.2459  0.3482  0.0104
 9176SOL     OW38986   4.705   4.496  10.269  0.3668 -0.1504  0.4571
 9176SOL    HW138987   0.023   4.474  10.186  0.8239  0.4568  0.5216
 9176SOL    HW238988   0.047   4.555  10.307 -0.0768  0.4450  0.3165
 9177SOL     OW38989   0.919   0.098   4.319  0.0531 -0.0667  0.4492
 9177SOL    HW138990   0.867   0.035   4.369 -0.0204  1.0648  1.8220
 9177SOL    HW238991   0.889   0.171   4.373 -1.1088 -0.2574  0.0547
 9178SOL     OW38992   2.832   2.576   2.723  0.3170  0.1325 -0.4926
 9178SOL    HW138993   2.817   2.663   2.760 -0.5509 -0.4679  0.5728
 9178SOL    HW238994   2.861   2.595   2.634  2.7976  2.9451  0.9060
 9179SOL     OW38995   1.435   2.462   0.982 -0.1110  0.2345  0.0258
 9179SOL    HW138996   1.495   2.510   0.925 -2.2473  3.4430  0.4344
 9179SOL    HW238997   1.496   2.390   0.996 -0.8961 -0.5278 -0.4137
 9180SOL     OW38998   4.083   0.452   7.814 -0.5073  0.1623 -0.0968
 9180SOL    HW138999   4.108   0.503   7.891  0.9850  0.5381 -0.8351
 9180SOL    HW239000   3.999   0.489   7.785 -0.6862  0.1166  0.3641
 9181SOL     OW39001   0.075   0.770   5.153 -0.5321 -0.1329 -0.2266
 9181SOL    HW139002   4.718   0.792   5.199 -0.6930  0.0483 -0.5976
 9181SOL    HW239003   0.042   0.698   5.099  1.2920  0.6311 -2.3576
 9182SOL     OW39004   0.905   3.352   8.482 -0.7925  0.7303 -0.1863
 9182SOL    HW139005   0.974   3.411   8.451 -1.3389  1.1538 -0.5869
 9182SOL    HW239006   0.885   3.388   8.569 -1.8921 -0.8349  0.2091
 9183SOL     OW39007   4.632   3.246  12.474  0.0524  0.6196  0.2468
 9183SOL    HW139008   4.673   3.282  12.553  1.0840 -2.7459  1.2118
 9183SOL    HW239009   4.554   3.301  12.465 -0.0905  0.6014  1.4528
 9184SOL     OW39010   2.005   3.945  15.991  0.2888 -0.9807  0.7635
 9184SOL    HW139011   2.058   3.961  16.069 -0.2883  0.4511  0.8534
 9184SOL    HW239012   2.019   3.855  15.960  1.2659 -0.1064 -1.3488
 9185SOL     OW39013   0.348   0.644   0.771 -0.3885 -0.2478 -0.1467
 9185SOL    HW139014   0.268   0.610   0.731 -0.4682 -0.3757  0.1180
 9185SOL    HW239015   0.325   0.619   0.861 -1.2783 -0.3008 -0.3948
 9186SOL     OW39016   3.368   2.903   6.760 -0.0137  0.0746  0.2184
 9186SOL    HW139017   3.300   2.852   6.715  0.0341 -0.9415  1.2956
 9186SOL    HW239018   3.339   2.989   6.729 -2.0320 -0.2221  1.2773
 9187SOL     OW39019   2.076   1.851   3.355 -0.1580 -0.2337  0.2315
 9187SOL    HW139020   2.105   1.770   3.314 -1.0812 -0.2586 -0.3739
 9187SOL    HW239021   2.132   1.915   3.310  0.4202 -1.4897 -0.8211
 9188SOL     OW39022   4.683   1.424  15.354 -0.2096 -0.1690  0.6801
 9188SOL    HW139023   4.698   1.340  15.397  0.5203 -0.9583 -1.1448
 9188SOL    HW239024   4.678   1.409  15.260  1.8735  0.4875  0.4538
 9189SOL     OW39025   1.816   2.917   3.337 -0.3265  0.3617 -0.3982
 9189SOL    HW139026   1.807   2.821   3.338  0.1616  0.2972 -2.3224
 9189SOL    HW239027   1.839   2.932   3.245  0.2151  0.6256 -0.2220
 9190SOL     OW39028   2.963   3.571   9.308  0.0631 -0.6348 -0.2102
 9190SOL    HW139029   2.911   3.579   9.228  0.7722 -1.2938 -0.7569
 9190SOL    HW239030   2.963   3.660   9.341  0.4957 -0.5127 -0.5366
 9191SOL     OW39031   0.109   4.396  14.876  0.1854 -0.1637 -0.6302
 9191SOL    HW139032   0.038   4.349  14.919  0.1513  1.2612  0.8665
 9191SOL    HW239033   0.163   4.321  14.851 -0.2434 -0.5978 -0.2556
 9192SOL     OW39034   4.166   1.128   2.801 -0.1501 -0.2432 -0.0663
 9192SOL    HW139035   4.162   1.087   2.714  2.7675 -0.4046 -0.1232
 9192SOL    HW239036   4.255   1.103   2.825 -0.0905 -0.4657 -0.5092
 9193SOL     OW39037   4.458   4.295   8.034 -0.2081 -0.0596  0.2561
 9193SOL    HW139038   4.462   4.221   8.094 -1.2621 -1.3891 -1.3027
 9193SOL    HW239039   4.475   4.369   8.091 -0.6593  0.0317  0.2736
 9194SOL     OW39040   2.962   4.018   9.501 -0.1046 -0.1043  0.2127
 9194SOL    HW139041   3.044   4.023   9.551  1.0774 -0.3482 -1.7219
 9194SOL    HW239042   2.907   4.064   9.564  0.8102  1.5056 -0.1555
 9195SOL     OW39043   2.243   2.103  16.039  0.0514  0.1550 -0.2947
 9195SOL    HW139044   2.212   2.089  15.949  1.0086 -0.7591 -0.4881
 9195SOL    HW239045   2.187   2.172  16.073  3.4238  3.4665 -1.4496
 9196SOL     OW39046   4.634   3.973  11.790  0.3266  0.0250  0.4122
 9196SOL    HW139047   4.704   3.943  11.848  0.7172 -0.8032 -0.4812
 9196SOL    HW239048   4.615   4.064  11.810  0.8553  0.6121 -1.7494
 9197SOL     OW39049   3.342   0.385   0.565  0.5605 -0.3008  0.4350
 9197SOL    HW139050   3.374   0.348   0.483 -0.7549 -1.2547  0.3512
 9197SOL    HW239051   3.297   0.309   0.602  0.9474 -0.2552  0.9951
 9198SOL     OW39052   2.380   3.950   0.403  0.1328 -0.0455  0.1373
 9198SOL    HW139053   2.361   4.003   0.325  2.7177  0.1040 -0.3791
 9198SOL    HW239054   2.447   4.013   0.429  1.2266 -1.7511  1.4004
 9199SOL     OW39055   3.449   0.814  15.678 -0.0099  0.2407 -0.3902
 9199SOL    HW139056   3.429   0.903  15.708 -1.5325 -0.2812  0.1173
 9199SOL    HW239057   3.542   0.814  15.654  0.4060 -0.9461  1.1910
 9200SOL     OW39058   0.021   0.029   8.697 -0.1464 -0.1100 -0.0858
 9200SOL    HW139059   4.656   4.720   8.682  1.1168 -2.8824 -1.4660
 9200SOL    HW239060   0.078   4.684   8.664  1.4411  1.3064 -0.3308
 9201SOL     OW39061   0.591   0.159  15.996 -0.5633  0.1402 -0.0877
 9201SOL    HW139062   0.553   0.124  16.076  0.8152  2.3666  1.5538
 9201SOL    HW239063   0.561   0.088  15.939  2.5505 -1.0085 -0.3149
 9202SOL     OW39064   4.217   2.122   1.874  0.2902  0.0526  0.0065
 9202SOL    HW139065   4.284   2.077   1.924  1.2142  0.5352 -0.7988
 9202SOL    HW239066   4.188   2.182   1.942  3.3818  2.7246 -1.0499
 9203SOL     OW39067   1.043   2.259   6.368  0.4453 -0.2233  0.1376
 9203SOL    HW139068   1.056   2.166   6.387  1.1123 -1.0174 -4.3389
 9203SOL    HW239069   0.973   2.231   6.310  1.2388  0.5910 -1.2205
 9204SOL     OW39070   2.742   1.657  16.862 -0.0209  0.2172  0.3643
 9204SOL    HW139071   2.800   1.696  16.927 -1.2725  0.0812  1.5663
 9204SOL    HW239072   2.687   1.733  16.850 -0.7680 -0.0194  2.3001
 9205SOL     OW39073   0.604   4.097  12.138 -0.0807  0.3656 -0.3678
 9205SOL    HW139074   0.678   4.043  12.167  1.0856  2.2526  0.1259
 9205SOL    HW239075   0.576   4.132  12.222 -1.8448  0.6815 -1.0994
 9206SOL     OW39076   2.560   3.233   4.687 -0.4052  0.6730  0.4206
 9206SOL    HW139077   2.533   3.179   4.762  2.5202 -1.8589 -0.3472
 9206SOL    HW239078   2.631   3.175   4.660  1.1293  1.8816  1.9028
 9207SOL     OW39079   1.179   3.432   8.723 -0.0437  0.4929  0.1967
 9207SOL    HW139080   1.136   3.504   8.676 -0.5294  0.1987  0.1938
 9207SOL    HW239081   1.184   3.369   8.652 -2.2795  2.4775 -1.7122
 9208SOL     OW39082   2.272   4.319  16.852 -0.4646  0.1994 -0.1420
 9208SOL    HW139083   2.201   4.266  16.817  1.6290 -0.8229 -2.8997
 9208SOL    HW239084   2.223   4.383  16.903  0.5772  0.0400  1.0667
 9209SOL     OW39085   0.600   3.602   3.748  0.2763 -0.2479  0.0194
 9209SOL    HW139086   0.602   3.685   3.700  1.8416 -0.0989  0.3520
 9209SOL    HW239087   0.640   3.543   3.685 -2.1066 -0.9456 -0.8283
 9210SOL     OW39088   0.214   1.901   2.574 -0.1217  0.3148  0.5135
 9210SOL    HW139089   0.143   1.953   2.537 -0.6530 -1.6550 -1.2814
 9210SOL    HW239090   0.286   1.964   2.567  0.2078 -0.3639 -2.4283
 9211SOL     OW39091   0.255   3.363   5.880  0.0196  0.2075  0.0190
 9211SOL    HW139092   0.299   3.401   5.805 -1.5886  1.6477 -0.1913
 9211SOL    HW239093   0.264   3.268   5.865 -2.7912 -0.0026 -0.5016
 9212SOL     OW39094   1.747   1.675   1.031 -0.2325 -0.0686 -0.2171
 9212SOL    HW139095   1.808   1.706   1.098 -1.9559  0.7805  0.9607
 9212SOL    HW239096   1.812   1.663   0.962 -1.5113  1.6724 -1.6781
 9213SOL     OW39097   3.181   3.864   8.942 -0.2021 -0.4208  0.2840
 9213SOL    HW139098   3.168   3.778   8.903  2.7863 -0.9596  0.5047
 9213SOL    HW239099   3.108   3.906   8.896  0.2873  1.4755  1.2362
 9214SOL     OW39100   3.782   4.693  11.506 -0.6953  0.6373 -0.5977
 9214SOL    HW139101   3.815   0.058  11.493  0.3006  0.5464  1.2801
 9214SOL    HW239102   3.805   4.664  11.418 -1.3507 -3.8201  0.7035
 9215SOL     OW39103   3.902   0.689   5.817  0.1949 -0.4194  0.4612
 9215SOL    HW139104   3.972   0.738   5.860  0.0500  0.8041 -0.6893
 9215SOL    HW239105   3.847   0.667   5.892 -0.0792  2.5662  1.1439
 9216SOL     OW39106   3.891   4.024   4.689  0.1820 -0.4123 -0.4453
 9216SOL    HW139107   3.815   3.982   4.648  0.6737 -0.8096 -0.9586
 9216SOL    HW239108   3.891   4.004   4.782 -1.3481  0.8450 -0.1739
 9217SOL     OW39109   3.212   3.763   8.383 -0.0973  0.2598 -0.3353
 9217SOL    HW139110   3.198   3.835   8.445 -0.0793 -0.1302  0.1216
 9217SOL    HW239111   3.259   3.803   8.310  0.7233 -2.0993 -1.0941
 9218SOL     OW39112   2.487   1.517   6.313  0.2706 -0.2777 -0.2150
 9218SOL    HW139113   2.566   1.551   6.271  0.7234 -1.7567 -0.5803
 9218SOL    HW239114   2.431   1.594   6.321  0.3360 -0.2991  0.4912
 9219SOL     OW39115   4.339   0.167  15.151  0.4381  0.3836 -0.3065
 9219SOL    HW139116   4.422   0.203  15.121 -0.2587  0.3114 -2.3446
 9219SOL    HW239117   4.343   0.076  15.119 -0.3276  1.1729 -2.6320
 9220SOL     OW39118   4.112   3.115   3.086  0.2825  0.2869  0.4910
 9220SOL    HW139119   4.169   3.043   3.059 -0.1192  0.1691 -0.0242
 9220SOL    HW239120   4.120   3.181   3.017 -1.6569  0.8408  0.8021
 9221SOL     OW39121   1.118   3.146   8.149  0.2065 -0.0628 -0.2971
 9221SOL    HW139122   1.117   3.148   8.053 -3.1866  1.3913 -0.2373
 9221SOL    HW239123   1.178   3.219   8.164 -0.4563  0.3496  0.3466
 9222SOL     OW39124   1.122   3.533   8.387  0.5694  0.2263  0.1087
 9222SOL    HW139125   1.203   3.582   8.400  0.6407  0.6361 -1.8836
 9222SOL    HW239126   1.086   3.577   8.309 -3.9437 -1.0892  1.4389
 9223SOL     OW39127   2.764   3.007   4.110  0.2495 -0.2045  0.4669
 9223SOL    HW139128   2.671   3.026   4.094  0.3177  0.8415  1.2878
 9223SOL    HW239129   2.770   3.022   4.204 -1.3915 -0.0017  0.5421
 9224SOL     OW39130   1.153   3.498   3.260 -0.3940 -0.2495  0.4668
 9224SOL    HW139131   1.061   3.477   3.244 -0.2331 -0.1951 -0.4871
 9224SOL    HW239132   1.155   3.592   3.274  1.8372 -0.3023  0.4551
 9225SOL     OW39133   4.648   4.682   7.513  0.2278 -0.1948 -0.2373
 9225SOL    HW139134   0.003   4.632   7.490  0.7169  0.2937  0.3866
 9225SOL    HW239135   4.601   4.619   7.568  0.6271 -1.4574 -1.3251
 9226SOL     OW39136   2.443   2.117   4.831 -0.0612 -0.0180 -0.1966
 9226SOL    HW139137   2.506   2.095   4.900 -0.9414 -0.9376  0.3078
 9226SOL    HW239138   2.484   2.188   4.782  1.3406  0.1518  1.2010
 9227SOL     OW39139   2.060   1.855   6.019  0.1498 -0.7176  0.2402
 9227SOL    HW139140   1.984   1.859   6.078 -0.4759  2.1510 -0.7883
 9227SOL    HW239141   2.075   1.944   5.988 -1.5425 -0.7610 -0.6710
 9228SOL     OW39142   0.781   4.346   8.805 -0.1473  0.1587 -0.1331
 9228SOL    HW139143   0.794   4.346   8.711 -1.4223  5.0825 -0.3203
 9228SOL    HW239144   0.695   4.305   8.809  0.2791 -0.5850  1.7691
 9229SOL     OW39145   3.167   2.472   8.340 -0.0039 -0.5240 -0.1981
 9229SOL    HW139146   3.257   2.484   8.308  0.0869  2.1614  1.0246
 9229SOL    HW239147   3.139   2.405   8.278 -0.2701 -0.3409 -0.2749
 9230SOL     OW39148   4.403   4.076   5.293  0.1885 -0.2896  0.5666
 9230SOL    HW139149   4.471   4.070   5.226  0.4026 -1.6440  0.9044
 9230SOL    HW239150   4.432   4.155   5.339 -0.9942  0.1708  0.5012
 9231SOL     OW39151   2.628   3.637   5.322 -0.0084 -0.3233 -0.4925
 9231SOL    HW139152   2.612   3.654   5.415 -1.6095  3.7663 -1.5306
 9231SOL    HW239153   2.701   3.575   5.316 -1.1919 -1.7709 -0.0600
 9232SOL     OW39154   2.350   0.064   9.409  0.4597 -0.4772  1.4202
 9232SOL    HW139155   2.428   0.119   9.407 -0.2582  0.5893  2.2020
 9232SOL    HW239156   2.284   0.133   9.418 -1.4395 -1.8256 -2.4033
 9233SOL     OW39157   2.763   3.374   5.965  0.0555  0.5090 -0.2909
 9233SOL    HW139158   2.733   3.383   6.055  1.7809  0.1232  0.3140
 9233SOL    HW239159   2.840   3.318   5.973  1.2074  2.0741 -0.4882
 9234SOL     OW39160   2.828   2.298   5.247  0.7099 -0.1958  0.9151
 9234SOL    HW139161   2.858   2.208   5.257  0.8053 -0.1908  0.6588
 9234SOL    HW239162   2.752   2.304   5.305  0.1685  1.2390  0.0499
 9235SOL     OW39163   2.689   1.626  11.019  0.1401  0.3965 -0.5323
 9235SOL    HW139164   2.595   1.644  11.027 -0.0960 -0.7595 -0.6928
 9235SOL    HW239165   2.708   1.546  11.067 -0.2326  0.8042  0.2911
 9236SOL     OW39166   0.474   1.030   3.089 -0.6391  0.2933  0.2409
 9236SOL    HW139167   0.496   1.001   3.177 -1.8278  1.2429  0.8578
 9236SOL    HW239168   0.449   0.946   3.050  0.7097  0.2391 -0.5056
 9237SOL     OW39169   1.806   1.814   5.277 -0.5554  0.1260 -0.4231
 9237SOL    HW139170   1.867   1.760   5.325 -0.8635 -0.9924 -1.2830
 9237SOL    HW239171   1.725   1.804   5.328 -0.2210  1.5546  0.4015
 9238SOL     OW39172   0.994   3.746  12.646  0.2333 -0.0191  0.3559
 9238SOL    HW139173   0.907   3.721  12.614  0.1831  2.0720 -1.0606
 9238SOL    HW239174   1.041   3.786  12.573  0.7219  1.1365  1.3064
 9239SOL     OW39175   0.878   4.299   8.406  0.3221 -0.0874  0.4441
 9239SOL    HW139176   0.928   4.256   8.337 -0.3371 -1.5651  0.8940
 9239SOL    HW239177   0.948   4.294   8.471 -0.8525 -1.2714  1.6111
 9240SOL     OW39178   0.855   4.556  17.369 -0.6362  0.2314 -0.4924
 9240SOL    HW139179   0.925   4.617  17.394 -1.4335  0.0164  2.2765
 9240SOL    HW239180   0.841   4.509  17.452 -0.3188  0.5485 -0.2576
 9241SOL     OW39181   0.187   1.813  13.587  0.8279 -0.1979  0.2709
 9241SOL    HW139182   0.136   1.893  13.594  2.1990  0.8001 -1.0265
 9241SOL    HW239183   0.262   1.852  13.631  0.7544  0.2038  0.0356
 9242SOL     OW39184   3.764   2.770   5.761 -0.2770  0.4044 -0.0347
 9242SOL    HW139185   3.681   2.816   5.775  1.1421  2.0745  3.0460
 9242SOL    HW239186   3.821   2.803   5.830  0.2279 -2.6240  0.9922
 9243SOL     OW39187   4.085   4.580   1.133  0.7339  0.4767 -0.0257
 9243SOL    HW139188   4.163   4.601   1.185 -0.1391  1.3314  0.9373
 9243SOL    HW239189   4.080   4.661   1.081 -0.9128 -1.4296 -2.8567
 9244SOL     OW39190   0.286   1.108   2.824 -0.2951 -0.1353  0.6100
 9244SOL    HW139191   0.295   1.179   2.761  2.2314 -0.9253  0.0647
 9244SOL    HW239192   0.259   1.035   2.767  0.2576 -0.1781  0.4042
 9245SOL     OW39193   2.873   0.785   0.805  0.3759 -0.6773 -0.6277
 9245SOL    HW139194   2.874   0.714   0.742 -1.0262 -0.1147 -1.2796
 9245SOL    HW239195   2.963   0.807   0.830  0.5965 -1.4671 -0.7402
 9246SOL     OW39196   0.243   0.812  12.150  0.7359 -0.3331 -0.3141
 9246SOL    HW139197   0.281   0.826  12.237 -1.6695  0.6938  0.5459
 9246SOL    HW239198   0.261   0.719  12.136  1.1630 -0.3377  0.2641
 9247SOL     OW39199   2.759   4.269  11.052  0.4142  0.1174  0.1168
 9247SOL    HW139200   2.777   4.180  11.021  0.8916 -0.0316  0.8037
 9247SOL    HW239201   2.689   4.308  11.000  2.3414  1.5539 -1.4026
 9248SOL     OW39202   2.100   3.975   8.815  0.0025 -0.1176  0.5270
 9248SOL    HW139203   2.058   4.057   8.842 -0.4951 -0.6552  1.3723
 9248SOL    HW239204   2.150   3.963   8.895 -1.1067 -0.6675  1.1406
 9249SOL     OW39205   3.966   3.066   0.921  0.1365  0.3351  0.6723
 9249SOL    HW139206   3.933   2.987   0.964 -1.2062  1.1032  1.0147
 9249SOL    HW239207   4.034   3.036   0.860 -0.5474 -1.9409  1.0446
 9250SOL     OW39208   2.821   3.108  14.736 -0.8006  0.1452 -0.4883
 9250SOL    HW139209   2.884   3.095  14.665 -0.3395 -0.8889  0.1132
 9250SOL    HW239210   2.763   3.036  14.711 -0.1252  0.3681 -2.6921
 9251SOL     OW39211   2.351   2.943   6.243  0.2475 -0.4149  0.2612
 9251SOL    HW139212   2.398   2.860   6.236  1.4991  0.2474  0.6993
 9251SOL    HW239213   2.394   3.000   6.180 -0.8647  1.0681  0.8435
 9252SOL     OW39214   3.165   3.845  14.299  0.3570 -0.4946 -0.5509
 9252SOL    HW139215   3.088   3.893  14.330  1.7301  0.7459  1.0015
 9252SOL    HW239216   3.160   3.872  14.208  1.2097 -0.5926 -0.6238
 9253SOL     OW39217   2.263   1.103   3.781 -0.1569  0.4205 -0.4667
 9253SOL    HW139218   2.333   1.048   3.815 -0.1724  0.8994  0.3389
 9253SOL    HW239219   2.302   1.191   3.783  0.5630  0.0864 -0.1777
 9254SOL     OW39220   2.528   0.326   2.124 -0.0418 -0.1847 -0.3671
 9254SOL    HW139221   2.453   0.288   2.078  0.0129 -0.9970  0.2234
 9254SOL    HW239222   2.483   0.397   2.171  0.1781 -0.6470  0.5384
 9255SOL     OW39223   4.202   0.773   2.900 -0.3969  0.4825 -0.2033
 9255SOL    HW139224   4.229   0.688   2.863 -1.2084 -0.1951  0.7575
 9255SOL    HW239225   4.248   0.835   2.844  3.8487 -1.6783  0.9007
 9256SOL     OW39226   3.112   0.663  12.773 -0.0167  0.6613 -0.2277
 9256SOL    HW139227   3.164   0.606  12.830 -0.9792 -0.3658 -0.3705
 9256SOL    HW239228   3.042   0.693  12.829 -0.8656 -0.1469 -0.8588
 9257SOL     OW39229   4.556   3.748   5.328  0.3729  0.1203  0.2543
 9257SOL    HW139230   4.599   3.671   5.364 -0.6892  0.1513  1.6222
 9257SOL    HW239231   4.634   3.773   5.280  0.8054  1.2211  1.5245
 9258SOL     OW39232   1.860   4.526   5.914 -0.3108  0.0889  0.3658
 9258SOL    HW139233   1.860   4.454   5.851  0.5954  1.0261 -0.7070
 9258SOL    HW239234   1.907   4.599   5.874  1.0278 -0.5208  0.8324
 9259SOL     OW39235   3.283   3.549  10.355 -0.3956  0.2158 -0.2256
 9259SOL    HW139236   3.250   3.463  10.327  0.3443  0.0339 -0.5409
 9259SOL    HW239237   3.367   3.552  10.310 -1.6361 -1.8277 -2.7605
 9260SOL     OW39238   0.886   1.028   3.227 -0.1363 -0.4996  0.5036
 9260SOL    HW139239   0.980   1.015   3.238  0.0939 -0.9912 -1.9540
 9260SOL    HW239240   0.877   1.123   3.236 -0.4382 -0.4728 -0.0960
 9261SOL     OW39241   4.113   3.730   1.609 -0.9411  0.2500 -0.3229
 9261SOL    HW139242   4.107   3.659   1.546  0.0838 -0.6919  0.6478
 9261SOL    HW239243   4.019   3.741   1.623 -1.3030 -0.4749 -2.2566
 9262SOL     OW39244   2.408   2.836   8.721  0.2358 -0.0512 -0.5094
 9262SOL    HW139245   2.405   2.900   8.792  0.5389  0.1975 -0.7190
 9262SOL    HW239246   2.499   2.821   8.697  0.2078 -2.5146  0.8679
 9263SOL     OW39247   0.314   3.692  15.900 -0.2031 -0.3031 -0.1932
 9263SOL    HW139248   0.391   3.682  15.844  0.7929 -0.6043  1.2522
 9263SOL    HW239249   0.335   3.633  15.972 -1.0781 -0.1317  0.2006
 9264SOL     OW39250   3.604   0.856   4.038 -0.2185 -0.2985  0.5090
 9264SOL    HW139251   3.676   0.801   4.006 -0.8798 -0.6871 -0.3229
 9264SOL    HW239252   3.525   0.839   3.986  0.1284  0.4034 -0.2544
 9265SOL     OW39253   3.178   3.127  13.129 -0.1637 -0.1895 -0.5189
 9265SOL    HW139254   3.148   3.145  13.040 -1.9843 -0.9126 -0.0413
 9265SOL    HW239255   3.133   3.187  13.188  1.1587 -0.5944  0.8954
 9266SOL     OW39256   0.086   2.812  14.510 -0.1799  0.0568 -0.3711
 9266SOL    HW139257   0.132   2.895  14.494  1.6801 -0.6468  1.2783
 9266SOL    HW239258   4.722   2.849  14.512  0.6849  2.2620 -2.3072
 9267SOL     OW39259   3.588   3.459   7.719  0.2276 -0.1173 -0.3092
 9267SOL    HW139260   3.587   3.380   7.773  1.1941  0.8263  1.0917
 9267SOL    HW239261   3.608   3.526   7.784  0.4666  0.5103 -1.0284
 9268SOL     OW39262   2.440   3.303   4.348  0.3170 -0.0716  0.6506
 9268SOL    HW139263   2.407   3.225   4.304 -0.2072  0.4266  0.1629
 9268SOL    HW239264   2.495   3.272   4.420 -0.8967 -1.0459  1.1688
 9269SOL     OW39265   0.745   3.131   5.976  0.2729 -0.0844  0.4994
 9269SOL    HW139266   0.653   3.118   6.002 -0.1764  1.1688 -0.4452
 9269SOL    HW239267   0.772   3.042   5.956 -3.3044 -0.9752 -0.4854
 9270SOL     OW39268   2.192   0.148   7.985  0.6479 -0.4226  0.1721
 9270SOL    HW139269   2.108   0.124   8.026 -1.2602 -0.0352 -3.5617
 9270SOL    HW239270   2.152   0.141   7.899  1.7636  2.3266 -0.5579
 9271SOL     OW39271   0.388   0.747   7.112  0.6602  0.1029 -0.4872
 9271SOL    HW139272   0.462   0.715   7.062  1.3567  2.1198 -0.7206
 9271SOL    HW239273   0.400   0.841   7.115 -1.2572  0.3247  0.4975
 9272SOL     OW39274   3.490   1.502   3.669 -0.1225  0.1662 -0.0245
 9272SOL    HW139275   3.526   1.450   3.597 -1.4321  1.9500 -1.9622
 9272SOL    HW239276   3.413   1.539   3.626  1.0721 -0.7340 -2.8948
 9273SOL     OW39277   0.758   0.915   4.675 -0.1362  0.7832 -0.0503
 9273SOL    HW139278   0.802   0.930   4.759 -1.0546  1.6560  0.2809
 9273SOL    HW239279   0.827   0.942   4.615  0.0268 -1.5898 -0.9133
 9274SOL     OW39280   2.503   0.349   5.850  0.3473  0.5154  0.0705
 9274SOL    HW139281   2.556   0.384   5.778 -0.5782  1.9130  0.0738
 9274SOL    HW239282   2.472   0.272   5.802 -2.1773  1.4492  0.2114
 9275SOL     OW39283   4.432   4.101   8.230 -0.2355 -0.1998 -0.4489
 9275SOL    HW139284   4.367   4.099   8.300  0.9042 -1.1236  0.5874
 9275SOL    HW239285   4.407   4.033   8.168  0.9277  0.5983 -1.7847
 9276SOL     OW39286   0.048   2.448   5.202  0.3798  0.4660 -0.0396
 9276SOL    HW139287   4.707   2.379   5.188  1.7396 -0.4745 -1.5898
 9276SOL    HW239288   0.126   2.393   5.205  1.3534  1.7770 -1.2473
 9277SOL     OW39289   3.966   2.249   2.879  0.3490  0.4620  0.3185
 9277SOL    HW139290   3.979   2.261   2.785  1.4514  0.5467  0.4794
 9277SOL    HW239291   4.013   2.167   2.890 -0.7313  0.1179  2.2737
 9278SOL     OW39292   4.164   2.703   7.413 -0.4631 -0.3081  0.2432
 9278SOL    HW139293   4.124   2.648   7.481 -1.0058 -0.0470  0.1325
 9278SOL    HW239294   4.222   2.751   7.471 -2.3213  1.8850  0.2764
 9279SOL     OW39295   1.721   2.445   6.066  0.0827 -0.3016 -0.3712
 9279SOL    HW139296   1.675   2.431   6.149  4.1736 -0.5154  1.8263
 9279SOL    HW239297   1.771   2.520   6.098 -3.0266  2.2434 -1.4344
 9280SOL     OW39298   2.898   3.070   7.211  0.5135  0.5372 -0.1463
 9280SOL    HW139299   2.874   3.058   7.302  3.4261  1.4209  0.7460
 9280SOL    HW239300   2.980   3.117   7.230  1.3152 -0.1299 -1.9294
 9281SOL     OW39301   3.090   4.681   0.251  0.3432 -0.3827  0.0661
 9281SOL    HW139302   3.165   4.667   0.308  0.7764  2.6837  0.2389
 9281SOL    HW239303   3.025   4.700   0.319  1.5770 -1.3832  1.5247
 9282SOL     OW39304   2.075   4.046   3.452 -0.1705 -0.5186 -0.5135
 9282SOL    HW139305   2.104   4.107   3.520 -0.9754 -0.5598 -0.1342
 9282SOL    HW239306   2.152   4.057   3.397 -1.5768 -0.2785 -2.3991
 9283SOL     OW39307   0.492   2.555   2.762  0.4064 -0.0562  0.8104
 9283SOL    HW139308   0.425   2.624   2.763  1.0668  0.5877  0.3952
 9283SOL    HW239309   0.558   2.595   2.705 -0.2042  2.1996  1.6585
 9284SOL     OW39310   3.300   0.434  10.313  0.2763  0.0887 -0.0303
 9284SOL    HW139311   3.313   0.416  10.220 -0.6412  4.4042 -0.9933
 9284SOL    HW239312   3.293   0.529  10.310  0.2020  0.1913  3.2039
 9285SOL     OW39313   2.694   3.929   7.935 -0.4379 -0.2139 -0.0584
 9285SOL    HW139314   2.631   3.859   7.918 -1.8139  0.4341  2.4155
 9285SOL    HW239315   2.650   3.967   8.010  0.5768  1.0887 -0.1283
 9286SOL     OW39316   3.577   1.446   1.969  0.0722  0.0150 -0.0983
 9286SOL    HW139317   3.628   1.411   2.042  0.7220  1.1025 -0.0312
 9286SOL    HW239318   3.497   1.395   1.977 -0.0628 -0.1501 -2.4434
 9287SOL     OW39319   3.054   1.149   5.245 -0.0813 -0.2883  0.0856
 9287SOL    HW139320   3.083   1.071   5.292  1.3963 -0.6253 -1.3652
 9287SOL    HW239321   2.960   1.135   5.257 -0.2521 -0.3620 -1.3222
 9288SOL     OW39322   1.205   4.400   4.652 -0.4463  0.2479 -0.1510
 9288SOL    HW139323   1.167   4.328   4.702  1.0010 -1.0000 -0.8302
 9288SOL    HW239324   1.161   4.469   4.701  0.0139  0.6751 -0.3395
 9289SOL     OW39325   2.843   3.749  10.065  0.0997  0.2244  0.3646
 9289SOL    HW139326   2.886   3.680  10.015  0.9724  0.2881  1.0196
 9289SOL    HW239327   2.839   3.822  10.003 -1.9024  0.4379  0.7661
 9290SOL     OW39328   1.575   4.621   2.418 -0.0460 -0.4709 -0.1812
 9290SOL    HW139329   1.528   4.660   2.492  0.3468  1.2052 -0.7920
 9290SOL    HW239330   1.605   4.537   2.453  0.8176 -0.3540 -0.6350
 9291SOL     OW39331   2.337   2.535  13.345 -0.4174 -0.0976 -0.4469
 9291SOL    HW139332   2.333   2.555  13.251  0.0519 -1.7917 -0.8324
 9291SOL    HW239333   2.431   2.519  13.354 -0.1400  0.3031 -2.5664
 9292SOL     OW39334   1.944   4.349   3.554 -0.0501 -0.1992  0.3369
 9292SOL    HW139335   2.019   4.344   3.495  0.9148 -0.1041  1.5677
 9292SOL    HW239336   1.907   4.432   3.523 -0.1298 -0.5147 -0.4158
 9293SOL     OW39337   1.756   2.024  11.338  0.1177 -0.7642 -0.5259
 9293SOL    HW139338   1.781   1.933  11.353 -1.2633 -1.0637 -0.0629
 9293SOL    HW239339   1.760   2.060  11.426 -0.9216 -1.7033 -0.1056
 9294SOL     OW39340   3.414   1.683   4.202  0.4455  0.4726  0.2440
 9294SOL    HW139341   3.375   1.595   4.205 -3.4065  2.1504 -0.8596
 9294SOL    HW239342   3.332   1.732   4.214 -0.6297 -1.0070 -1.0258
 9295SOL     OW39343   4.384   3.727  16.394  0.7929  0.0136  0.3202
 9295SOL    HW139344   4.394   3.641  16.354 -1.4631  0.0161 -0.2484
 9295SOL    HW239345   4.397   3.700  16.485  0.6907  0.6608  0.5240
 9296SOL     OW39346   2.653   2.471   1.302 -0.3543  0.3010  0.4932
 9296SOL    HW139347   2.680   2.381   1.287 -1.6474 -0.1881  1.1287
 9296SOL    HW239348   2.574   2.461   1.356 -1.1275 -0.6522 -0.8177
 9297SOL     OW39349   3.374   3.900   4.757 -0.1893 -0.1147 -0.0676
 9297SOL    HW139350   3.314   3.830   4.733 -0.9139  1.0091 -1.5706
 9297SOL    HW239351   3.324   3.938   4.830 -2.7505 -0.6071 -1.5477
 9298SOL     OW39352   3.120   1.510   0.619  0.5858 -0.4740 -0.1835
 9298SOL    HW139353   3.060   1.444   0.585  0.3822  0.7945 -2.3124
 9298SOL    HW239354   3.101   1.494   0.711  0.6933  0.6639  0.0379
 9299SOL     OW39355   0.908   2.768   3.344  0.3400 -0.9313 -0.1367
 9299SOL    HW139356   0.919   2.786   3.251  0.4406  0.4789  0.1419
 9299SOL    HW239357   0.873   2.679   3.341  0.4348 -0.9216 -1.2749
 9300SOL     OW39358   2.037   1.578  13.459  0.0883 -0.2015  1.2963
 9300SOL    HW139359   1.986   1.500  13.483 -0.8557  0.1150  0.2777
 9300SOL    HW239360   2.115   1.538  13.419 -0.6552  0.3656 -0.6992
 9301SOL     OW39361   0.177   0.790   8.713 -0.5439 -0.3167  0.1134
 9301SOL    HW139362   0.271   0.786   8.732 -0.4134 -3.2769 -1.1229
 9301SOL    HW239363   0.147   0.734   8.784  1.8342 -1.7580 -0.0222
 9302SOL     OW39364   4.056   0.926   7.624  0.3571 -0.1253 -0.6776
 9302SOL    HW139365   4.073   0.993   7.559  1.2690  0.1432 -0.1595
 9302SOL    HW239366   4.145   0.892   7.631  0.8713  1.3800  0.1067
 9303SOL     OW39367   0.623   0.568   6.573 -0.1966 -0.0785 -0.5357
 9303SOL    HW139368   0.614   0.473   6.577  1.7768 -0.1981  1.4699
 9303SOL    HW239369   0.539   0.603   6.603  0.0829  0.5491 -0.4821
 9304SOL     OW39370   4.528   2.154   4.234 -0.5845 -0.6883 -0.7740
 9304SOL    HW139371   4.468   2.227   4.219 -2.2423 -1.3565  2.7179
 9304SOL    HW239372   4.479   2.075   4.209 -0.3521 -0.5662 -1.6244
 9305SOL     OW39373   0.988   0.197  15.631  0.2618 -0.2119 -0.0145
 9305SOL    HW139374   0.985   0.106  15.601 -0.2144  0.3686 -1.7453
 9305SOL    HW239375   0.898   0.224  15.613  0.4285  0.6006  0.3831
 9306SOL     OW39376   3.553   2.522   4.798  0.1857  0.4124 -0.2804
 9306SOL    HW139377   3.508   2.590   4.747 -1.0173  0.7155  1.2058
 9306SOL    HW239378   3.587   2.466   4.727 -0.0120  0.8273 -0.7027
 9307SOL     OW39379   4.107   0.795   4.924  0.4149  0.6390  0.3403
 9307SOL    HW139380   4.128   0.754   4.839  0.7272  0.5857  0.4426
 9307SOL    HW239381   4.062   0.875   4.898  1.3664  0.1584 -2.8134
 9308SOL     OW39382   3.966   2.402   2.250  0.1439  0.6536 -0.1213
 9308SOL    HW139383   4.018   2.473   2.288 -0.3009  0.4695  0.8289
 9308SOL    HW239384   3.889   2.448   2.217  1.4370  0.1656 -3.7739
 9309SOL     OW39385   3.319   3.787  11.402 -0.5602 -0.1960 -0.6190
 9309SOL    HW139386   3.356   3.775  11.314  0.9998  1.2368 -0.1475
 9309SOL    HW239387   3.333   3.701  11.441 -1.0438 -0.0142 -0.0506
 9310SOL     OW39388   4.035   2.292   0.434 -0.0258  0.1502  0.1780
 9310SOL    HW139389   4.110   2.352   0.443 -1.6266  2.2028 -0.1974
 9310SOL    HW239390   3.975   2.328   0.499 -0.5673 -0.9738  0.3060
 9311SOL     OW39391   1.211   0.504   6.698  0.3635  0.7965  0.1604
 9311SOL    HW139392   1.152   0.439   6.736  2.4483 -2.3648 -2.0889
 9311SOL    HW239393   1.224   0.552   6.780 -3.1809 -1.4147  2.0415
 9312SOL     OW39394   2.025   1.800   4.936 -0.2001 -0.7148  0.0788
 9312SOL    HW139395   2.012   1.705   4.935 -0.4957 -0.6627 -2.2423
 9312SOL    HW239396   1.946   1.829   4.981  0.3392  1.3771 -0.3301
 9313SOL     OW39397   3.523   2.213   9.682  0.0987  0.3447  0.2796
 9313SOL    HW139398   3.568   2.281   9.632  0.5621  0.0492  0.2929
 9313SOL    HW239399   3.596   2.175   9.731 -0.9137  0.8326  2.1674
 9314SOL     OW39400   3.723   2.933   4.235  0.5338  0.4020 -0.5086
 9314SOL    HW139401   3.815   2.912   4.250  0.5942  0.6789 -0.5000
 9314SOL    HW239402   3.700   2.844   4.209 -1.0856 -0.0435  2.4791
 9315SOL     OW39403   3.556   0.117   8.094 -0.2041  0.7708  0.8437
 9315SOL    HW139404   3.632   0.060   8.081 -0.4369  0.5960  0.2100
 9315SOL    HW239405   3.592   0.194   8.137 -2.1311  1.1443  1.7736
 9316SOL     OW39406   4.544   4.107  14.782 -0.0111 -0.1438 -0.2726
 9316SOL    HW139407   4.462   4.156  14.771 -0.8452 -1.2950  0.8751
 9316SOL    HW239408   4.573   4.128  14.871  0.7659  1.1891 -0.8305
 9317SOL     OW39409   4.536   4.532   3.019  0.6405  0.1663  0.6671
 9317SOL    HW139410   4.457   4.532   2.964 -0.6675 -1.0692  2.5544
 9317SOL    HW239411   4.503   4.521   3.108  0.9620  0.1843  0.7900
 9318SOL     OW39412   0.889   2.900   6.610 -0.2858  0.3439 -0.2433
 9318SOL    HW139413   0.877   2.807   6.627  1.8679  0.1381  0.1574
 9318SOL    HW239414   0.828   2.917   6.538  0.4019  0.9790 -0.6817
 9319SOL     OW39415   3.653   3.285   3.209  0.0779  0.2126 -0.3444
 9319SOL    HW139416   3.685   3.202   3.175 -1.1438 -0.4037  0.0258
 9319SOL    HW239417   3.627   3.331   3.130  2.1436 -0.6942 -1.5440
 9320SOL     OW39418   2.730   4.465  17.665 -0.1120  0.3524 -0.0080
 9320SOL    HW139419   2.697   4.546  17.626 -0.0514  0.1111 -0.5462
 9320SOL    HW239420   2.734   4.508   0.054  0.4949 -0.4847  0.3874
 9321SOL     OW39421   4.016   1.983   9.159  0.7115 -0.2474  0.3363
 9321SOL    HW139422   3.930   1.967   9.122  0.1580  1.2633  0.9488
 9321SOL    HW239423   4.016   2.068   9.205  0.6148 -0.3705  0.5629
 9322SOL     OW39424   1.638   3.778   6.523  0.6598  0.0855  0.1802
 9322SOL    HW139425   1.596   3.860   6.547  0.1445 -0.0924 -0.1156
 9322SOL    HW239426   1.702   3.782   6.595  2.2639  1.0246 -1.3041
 9323SOL     OW39427   4.295   2.028   2.277  0.7376 -0.1140 -0.0563
 9323SOL    HW139428   4.338   2.007   2.194  1.2698 -2.4467  0.8094
 9323SOL    HW239429   4.235   2.097   2.250  1.9636  1.3131  0.8150
 9324SOL     OW39430   1.425   1.942  14.718 -0.0243 -0.1588  0.6958
 9324SOL    HW139431   1.353   1.878  14.724  0.6335 -0.8573  1.1568
 9324SOL    HW239432   1.481   1.906  14.786 -0.6164  0.0157  1.2742
 9325SOL     OW39433   3.894   4.690   4.213 -0.6257  0.3578 -0.1878
 9325SOL    HW139434   3.879   4.639   4.133  0.4424 -1.7285  0.9590
 9325SOL    HW239435   3.842   4.634   4.270 -1.4471  0.3706 -0.9177
 9326SOL     OW39436   2.861   2.028   6.588 -0.7858  0.5481  0.4300
 9326SOL    HW139437   2.948   2.032   6.547 -1.7684 -1.2980 -1.8856
 9326SOL    HW239438   2.826   1.962   6.528  1.0033  0.3088 -0.3631
 9327SOL     OW39439   3.484   3.291   5.985 -0.0835 -0.3780  0.3451
 9327SOL    HW139440   3.469   3.332   6.070  2.7938 -2.4858  1.8218
 9327SOL    HW239441   3.475   3.369   5.930  1.4208 -1.1042 -0.9164
 9328SOL     OW39442   1.793   3.306   3.604  0.0805  0.3958 -0.0474
 9328SOL    HW139443   1.704   3.315   3.571 -0.6356 -2.4274  1.0952
 9328SOL    HW239444   1.839   3.361   3.541 -1.6719 -0.1520 -1.7736
 9329SOL     OW39445   1.437   3.417   7.334  0.4490  0.6603 -0.3321
 9329SOL    HW139446   1.386   3.338   7.319  0.7006  0.0295  2.1441
 9329SOL    HW239447   1.423   3.471   7.257 -1.5253  3.0167  1.6857
 9330SOL     OW39448   3.987   3.595   2.052 -0.5722  0.2242 -0.5749
 9330SOL    HW139449   4.020   3.651   1.982 -2.9626  0.9830 -1.0635
 9330SOL    HW239450   4.065   3.552   2.088 -0.8132  0.2578  0.0001
 9331SOL     OW39451   1.949   2.269   9.298 -0.7363  0.2232 -0.1600
 9331SOL    HW139452   1.981   2.193   9.346  0.7364  0.1683 -1.2519
 9331SOL    HW239453   1.886   2.225   9.240  0.3011 -0.2153 -0.9498
 9332SOL     OW39454   0.171   1.827   1.914 -0.6460 -0.0733 -0.1334
 9332SOL    HW139455   0.203   1.857   1.999  1.0331 -0.2808 -0.6930
 9332SOL    HW239456   0.222   1.885   1.857  1.3476 -1.3754  0.3308
 9333SOL     OW39457   0.285   3.691   9.424  0.7915 -0.0093 -0.1789
 9333SOL    HW139458   0.253   3.611   9.464 -0.1068 -0.2615 -1.3938
 9333SOL    HW239459   0.244   3.678   9.338 -1.7392 -1.2477  1.2366
 9334SOL     OW39460   1.188   2.209   4.973  0.0720 -0.3142 -0.8238
 9334SOL    HW139461   1.256   2.236   4.912  1.9902  0.8943  1.8681
 9334SOL    HW239462   1.197   2.279   5.038 -3.0196 -0.0269 -0.7019
 9335SOL     OW39463   1.087   0.201   4.132 -0.0520  0.4573  0.8760
 9335SOL    HW139464   1.016   0.169   4.189 -1.1879  0.2300 -0.6725
 9335SOL    HW239465   1.166   0.167   4.174  1.7014  3.4090 -0.0027
 9336SOL     OW39466   1.442   2.806   2.007 -0.1854 -0.1282  0.4366
 9336SOL    HW139467   1.459   2.777   1.917 -1.9719  0.9420 -0.2421
 9336SOL    HW239468   1.378   2.871   1.978  1.5079  1.9378  1.3704
 9337SOL     OW39469   2.121   3.404   6.521 -0.6573  0.3549 -0.2486
 9337SOL    HW139470   2.153   3.456   6.594  1.2412  0.1170 -0.9133
 9337SOL    HW239471   2.106   3.321   6.566  0.9810  0.2095  0.0200
 9338SOL     OW39472   2.824   0.124   3.338  0.0077  0.1006 -0.6129
 9338SOL    HW139473   2.739   0.168   3.340 -0.1544 -0.2232 -0.4096
 9338SOL    HW239474   2.877   0.176   3.397  1.7649  0.1067 -2.1952
 9339SOL     OW39475   1.895   1.185  14.131  0.3710  0.6457 -0.1757
 9339SOL    HW139476   1.869   1.094  14.121  1.6913  0.0114  2.1846
 9339SOL    HW239477   1.805   1.217  14.120  0.5032  0.8926 -0.5133
 9340SOL     OW39478   2.609   3.396   7.714 -0.4588  0.2747 -0.3224
 9340SOL    HW139479   2.608   3.450   7.792  0.6419  0.0286 -0.1361
 9340SOL    HW239480   2.700   3.416   7.691 -0.2165 -1.3767 -0.8170
 9341SOL     OW39481   3.007   0.354   9.497 -0.2327 -0.7299  0.3661
 9341SOL    HW139482   3.096   0.366   9.530 -0.2412  0.0139  0.1055
 9341SOL    HW239483   2.961   0.424   9.543  0.0999 -0.7142  0.6774
 9342SOL     OW39484   2.246   4.034   2.420 -0.1522  0.0594 -0.9417
 9342SOL    HW139485   2.313   4.028   2.488 -2.5979  0.8291  1.5068
 9342SOL    HW239486   2.238   4.129   2.419 -0.4558  0.0551  1.9230
 9343SOL     OW39487   3.536   1.170   6.931  0.1621 -0.0301  0.3447
 9343SOL    HW139488   3.562   1.226   7.003  0.6274 -1.8102  1.5692
 9343SOL    HW239489   3.580   1.214   6.859 -0.2087 -1.1759 -0.5833
 9344SOL     OW39490   1.891   4.291   7.243  0.3133 -0.2153 -0.7556
 9344SOL    HW139491   1.889   4.379   7.281  0.2294 -0.7838  0.5555
 9344SOL    HW239492   1.818   4.249   7.289 -0.4738 -0.6795 -2.4502
 9345SOL     OW39493   0.647   0.419   9.402 -0.0306  0.1804 -0.1840
 9345SOL    HW139494   0.623   0.500   9.447 -1.2550 -0.0875 -0.3525
 9345SOL    HW239495   0.743   0.425   9.400 -0.0637  1.3821  1.5313
 9346SOL     OW39496   2.703   3.834   1.738  0.5683  0.4017  0.4795
 9346SOL    HW139497   2.625   3.884   1.762  0.7416 -0.2564  2.4231
 9346SOL    HW239498   2.720   3.789   1.821  1.3082  2.1025  1.2493
 9347SOL     OW39499   3.182   3.276  11.693  0.6087  0.2696  0.1308
 9347SOL    HW139500   3.159   3.363  11.660 -0.5762  0.1226  0.5798
 9347SOL    HW239501   3.113   3.265  11.758  2.0695 -1.2986  1.4070
 9348SOL     OW39502   0.025   1.940   9.124 -0.2044  0.8318  0.3643
 9348SOL    HW139503   4.682   1.919   9.059 -2.3049  1.0799  2.4504
 9348SOL    HW239504   0.086   1.869   9.108 -0.4630  0.7680 -0.3154
 9349SOL     OW39505   2.980   3.176   8.332  0.1682 -0.0655 -0.3089
 9349SOL    HW139506   3.040   3.249   8.317 -0.8514  0.7534 -0.4033
 9349SOL    HW239507   3.014   3.105   8.278 -0.0019 -0.2045 -0.2314
 9350SOL     OW39508   2.006   1.606   5.166  0.0870  0.2847  0.0934
 9350SOL    HW139509   2.031   1.524   5.207  1.4708  0.0997 -1.1318
 9350SOL    HW239510   1.931   1.585   5.111 -0.6371 -0.9795  1.5688
 9351SOL     OW39511   0.863   3.836   8.123  0.5423 -0.0608 -0.6890
 9351SOL    HW139512   0.809   3.831   8.044 -2.2118 -0.2526  1.2075
 9351SOL    HW239513   0.863   3.931   8.131 -0.3615 -0.3698  2.7858
 9352SOL     OW39514   3.035   3.595   3.299 -0.0718 -0.2634 -0.2931
 9352SOL    HW139515   3.002   3.546   3.375  0.0568  0.8886  0.5025
 9352SOL    HW239516   3.110   3.537   3.285 -0.9715 -1.2656 -1.0227
 9353SOL     OW39517   1.833   3.228  10.870 -0.0156  0.1459 -0.1024
 9353SOL    HW139518   1.865   3.142  10.843 -0.3144 -0.6502  2.0567
 9353SOL    HW239519   1.896   3.245  10.940  0.0934 -0.1917 -0.1220
 9354SOL     OW39520   4.366   2.627   5.838 -0.3950 -0.1390  1.3022
 9354SOL    HW139521   4.346   2.533   5.842 -0.7177 -0.1096  0.5036
 9354SOL    HW239522   4.393   2.643   5.747 -2.8217  1.9804  0.9572
 9355SOL     OW39523   1.856   1.973   2.480 -0.0679 -0.2752  0.1919
 9355SOL    HW139524   1.778   1.970   2.424  0.2030 -2.3467 -0.0775
 9355SOL    HW239525   1.890   1.885   2.468  0.9740  0.1614 -0.0962
 9356SOL     OW39526   4.249   0.757   4.372 -0.1805  0.6468 -0.3250
 9356SOL    HW139527   4.186   0.685   4.375  1.3009 -0.6103  0.4777
 9356SOL    HW239528   4.314   0.737   4.440  0.4534  0.8777 -0.8558
 9357SOL     OW39529   3.947   1.685   8.222 -0.1980 -0.9621  0.5689
 9357SOL    HW139530   3.869   1.720   8.179 -0.1375 -1.1619  0.2913
 9357SOL    HW239531   3.972   1.624   8.152 -0.1593 -2.3973  1.8345
 9358SOL     OW39532   1.420   3.830   6.974 -0.3267  0.1307 -0.0513
 9358SOL    HW139533   1.465   3.765   6.919  0.4353  0.6359 -0.0246
 9358SOL    HW239534   1.460   3.909   6.938 -2.4083 -0.6395 -4.0835
 9359SOL     OW39535   1.895   0.705   5.012 -0.5250  0.1376 -0.2001
 9359SOL    HW139536   1.837   0.779   4.994 -1.3753 -0.4216  0.2235
 9359SOL    HW239537   1.964   0.752   5.058 -2.1878  0.8168  1.6081
 9360SOL     OW39538   2.699   2.759   1.418 -0.0658  0.4550  0.1380
 9360SOL    HW139539   2.638   2.804   1.359 -0.1413  0.6547  0.3707
 9360SOL    HW239540   2.657   2.759   1.504 -1.2297 -0.8676 -0.4280
 9361SOL     OW39541   4.459   0.120   4.244  0.5375  0.0109  0.1024
 9361SOL    HW139542   4.553   0.138   4.240  0.7545 -0.8829  1.2087
 9361SOL    HW239543   4.444   0.080   4.158  0.7878  0.0306  0.0485
 9362SOL     OW39544   4.392   0.929  14.568 -0.2164 -0.6692  0.2128
 9362SOL    HW139545   4.371   0.870  14.495  3.3986 -2.0615  0.2735
 9362SOL    HW239546   4.322   0.993  14.560 -0.6615 -0.9325  2.2360
 9363SOL     OW39547   3.561   1.353  11.342  0.5927  0.1475 -0.2698
 9363SOL    HW139548   3.498   1.284  11.317  2.3123 -1.8955  1.0610
 9363SOL    HW239549   3.528   1.374  11.429  0.5988 -1.0350  0.0215
 9364SOL     OW39550   3.267   3.529  12.230  0.4498 -0.0759 -0.4769
 9364SOL    HW139551   3.225   3.446  12.206  0.3234 -0.3994  0.8375
 9364SOL    HW239552   3.308   3.559  12.150  2.8511 -2.4455 -0.1314
 9365SOL     OW39553   1.205   4.609  12.735  0.3928 -0.5519  0.0551
 9365SOL    HW139554   1.179   4.612  12.827 -0.1508  0.1611 -0.1156
 9365SOL    HW239555   1.279   4.549  12.730 -0.2603 -1.2455 -1.1412
 9366SOL     OW39556   3.641   3.388   7.431 -0.6107 -0.2795 -0.1763
 9366SOL    HW139557   3.594   3.463   7.398 -0.9824 -0.7275 -0.6597
 9366SOL    HW239558   3.682   3.416   7.513 -0.3388 -1.3197  0.0477
 9367SOL     OW39559   0.374   1.850   5.244 -0.3156 -0.0251  0.3087
 9367SOL    HW139560   0.435   1.777   5.230 -0.2181  0.3020 -0.9382
 9367SOL    HW239561   0.367   1.884   5.155  1.1838  0.6450  0.4375
 9368SOL     OW39562   2.662   4.128   3.522  0.5468 -0.1303 -0.5386
 9368SOL    HW139563   2.604   4.183   3.574  0.1415  0.6342 -1.8151
 9368SOL    HW239564   2.731   4.190   3.501  0.6060  1.0282  3.0442
 9369SOL     OW39565   3.401   2.564   8.194  0.0184  0.3766  0.1680
 9369SOL    HW139566   3.379   2.611   8.114 -2.1186  0.4231  0.7956
 9369SOL    HW239567   3.379   2.633   8.257 -1.6181 -0.5765  0.6358
 9370SOL     OW39568   2.668   4.148   5.371 -0.2523  0.6384  0.7709
 9370SOL    HW139569   2.607   4.110   5.308 -0.7190  0.0743  1.5496
 9370SOL    HW239570   2.659   4.081   5.439  0.5473  2.3146  2.5435
 9371SOL     OW39571   2.380   2.586  13.079  0.1485 -0.3705 -0.1670
 9371SOL    HW139572   2.381   2.675  13.043 -0.0371  0.3275  1.5372
 9371SOL    HW239573   2.391   2.529  13.003 -0.3726  2.7566 -2.5726
 9372SOL     OW39574   3.551   0.544  16.020 -0.4488 -0.6281  0.0812
 9372SOL    HW139575   3.612   0.601  16.066 -1.4206 -1.5561  2.4794
 9372SOL    HW239576   3.560   0.464  16.071 -2.9944 -1.2375 -0.3849
 9373SOL     OW39577   2.356   1.369   3.768 -0.3810  0.2607 -0.4560
 9373SOL    HW139578   2.320   1.438   3.711  1.4027  0.3489 -1.4757
 9373SOL    HW239579   2.355   1.420   3.849 -2.0157  0.6809 -0.7225
 9374SOL     OW39580   1.400   0.895   6.895 -0.1570  0.0853 -0.1998
 9374SOL    HW139581   1.433   0.968   6.844 -0.4236 -0.5150 -1.2407
 9374SOL    HW239582   1.400   0.836   6.820  2.9447 -0.8864  0.5479
 9375SOL     OW39583   3.935   0.237   6.811 -0.1711  0.6642  0.0855
 9375SOL    HW139584   3.856   0.291   6.806 -0.4863  0.0819 -1.4193
 9375SOL    HW239585   3.939   0.215   6.904 -1.3277  0.5987  0.1110
 9376SOL     OW39586   2.799   1.703  13.134 -0.1927  0.0700  0.1781
 9376SOL    HW139587   2.806   1.701  13.038 -1.9183 -1.2451  0.0804
 9376SOL    HW239588   2.821   1.612  13.156  1.4784  0.1366 -1.2469
 9377SOL     OW39589   1.107   0.841   3.200 -0.4392  0.0925  0.1099
 9377SOL    HW139590   1.114   0.762   3.145 -0.0465  0.7549 -0.7931
 9377SOL    HW239591   1.092   0.808   3.289 -1.2582  2.4402  0.8311
 9378SOL     OW39592   3.082   3.422   5.789  0.1024 -0.0526 -0.0497
 9378SOL    HW139593   3.142   3.371   5.843  1.5307  1.2138 -0.4449
 9378SOL    HW239594   3.071   3.501   5.843  2.0615  0.6161 -0.6122
 9379SOL     OW39595   3.714   1.198  15.126  0.4862 -0.6465 -0.1394
 9379SOL    HW139596   3.766   1.167  15.052  1.5479  0.7328  0.0427
 9379SOL    HW239597   3.778   1.204  15.197  0.8056 -2.6854 -0.2680
 9380SOL     OW39598   3.875   3.930   2.407  0.4063 -0.1282 -0.2874
 9380SOL    HW139599   3.793   3.938   2.456  0.0316  1.5626 -1.1926
 9380SOL    HW239600   3.878   3.842   2.369  0.4808  0.1937 -1.0351
 9381SOL     OW39601   2.099   3.524   3.811  0.3712 -0.0955 -0.3626
 9381SOL    HW139602   2.016   3.557   3.776  0.3144  0.5893  0.4283
 9381SOL    HW239603   2.141   3.485   3.734  0.9233  0.3908 -0.3092
 9382SOL     OW39604   0.171   3.103   4.343 -0.3106 -0.0273 -0.4654
 9382SOL    HW139605   0.126   3.182   4.315 -1.3591  0.0513  1.4587
 9382SOL    HW239606   0.105   3.048   4.385 -1.9497  2.8166  0.6628
 9383SOL     OW39607   3.767   3.862  10.284 -0.2741 -0.4522 -0.3461
 9383SOL    HW139608   3.815   3.827  10.359 -0.4809 -0.8485 -0.4018
 9383SOL    HW239609   3.757   3.953  10.314  2.2489  0.1307 -1.2624
 9384SOL     OW39610   2.441   0.102   7.665 -0.1362  0.4106 -0.4451
 9384SOL    HW139611   2.400   0.164   7.605 -0.0591  2.7978  1.9659
 9384SOL    HW239612   2.457   0.149   7.746  0.3801 -2.1714  0.9424
 9385SOL     OW39613   2.299   0.263   6.681  0.0340 -0.6992  0.4966
 9385SOL    HW139614   2.352   0.305   6.748 -2.6120  0.8153  1.6517
 9385SOL    HW239615   2.352   0.187   6.656 -0.9651 -1.1967 -0.1132
 9386SOL     OW39616   2.661   0.852  10.810  0.5041  0.2517  0.2711
 9386SOL    HW139617   2.725   0.818  10.873  1.5101  0.3405 -0.6988
 9386SOL    HW239618   2.626   0.774  10.768  0.2726  0.1490  0.6573
 9387SOL     OW39619   0.605   0.626   3.410 -0.8391 -0.0074 -0.0160
 9387SOL    HW139620   0.616   0.709   3.364  2.2524 -0.0601  0.6506
 9387SOL    HW239621   0.644   0.626   3.497 -1.0398  1.8691  0.0730
 9388SOL     OW39622   3.476   4.541   3.200  0.3944  0.3678 -0.0285
 9388SOL    HW139623   3.499   4.451   3.178 -1.5039  0.3948 -2.1699
 9388SOL    HW239624   3.400   4.563   3.146 -0.1585  0.1400  0.6578
 9389SOL     OW39625   1.816   2.419   2.749  0.0149 -0.1656  0.0374
 9389SOL    HW139626   1.742   2.447   2.695 -1.2421 -1.4529  1.0885
 9389SOL    HW239627   1.823   2.326   2.728  0.4405 -0.1804  0.2474
 9390SOL     OW39628   0.721   0.468  16.269  0.1849  0.4056 -0.1398
 9390SOL    HW139629   0.808   0.462  16.307  0.0108 -3.6899 -0.3312
 9390SOL    HW239630   0.735   0.432  16.181  1.1894 -2.2986  1.1040
 9391SOL     OW39631   2.064   2.261   6.429  0.1160  0.1330 -0.9305
 9391SOL    HW139632   2.024   2.260   6.342  1.7561  3.1784 -1.7550
 9391SOL    HW239633   2.140   2.316   6.408  0.3295  0.2719  0.1914
 9392SOL     OW39634   3.161   0.750   4.035  0.2196  0.1242  0.3097
 9392SOL    HW139635   3.119   0.834   4.016  2.5597  1.2086  0.0390
 9392SOL    HW239636   3.174   0.760   4.129  0.8051  0.3635  0.2004
 9393SOL     OW39637   4.126   1.060   5.552 -0.1438 -0.3628  0.0107
 9393SOL    HW139638   4.071   1.055   5.474 -0.9607  1.4252  0.4612
 9393SOL    HW239639   4.108   0.971   5.580 -0.7176 -0.0553  0.6200
 9394SOL     OW39640   4.242   3.363   1.901  0.2907  0.1629  0.1160
 9394SOL    HW139641   4.333   3.343   1.878  0.3816  1.3954 -0.5982
 9394SOL    HW239642   4.246   3.422   1.977  1.7109  2.2655 -1.5748
 9395SOL     OW39643   2.306   0.430   4.813 -0.0128 -0.3735  0.1880
 9395SOL    HW139644   2.222   0.428   4.767  0.4949  0.3403 -0.7811
 9395SOL    HW239645   2.375   0.442   4.747 -1.9203 -0.2366 -1.7853
 9396SOL     OW39646   3.836   3.914   2.803  0.2734  0.2130  0.3242
 9396SOL    HW139647   3.784   3.890   2.726 -0.9870 -0.7913  1.5069
 9396SOL    HW239648   3.844   4.008   2.782  1.2698  0.0460 -0.0340
 9397SOL     OW39649   1.528   0.814   4.684 -0.1342 -0.2070 -0.2484
 9397SOL    HW139650   1.481   0.878   4.739  1.0931  0.6384 -0.1810
 9397SOL    HW239651   1.571   0.761   4.752  1.4088  1.3380 -0.0337
 9398SOL     OW39652   2.677   0.002   7.531 -0.0129  0.0747  0.4916
 9398SOL    HW139653   2.587   0.028   7.551 -0.2538  0.2994 -0.8393
 9398SOL    HW239654   2.709   4.712   7.620 -0.1476 -0.2849  0.4846
 9399SOL     OW39655   0.483   2.940  14.711  0.2386 -0.3028  0.0003
 9399SOL    HW139656   0.438   2.904  14.788  2.6194 -1.1481  0.9783
 9399SOL    HW239657   0.572   2.927  14.744 -0.6438 -1.6967  1.8715
 9400SOL     OW39658   1.802   2.819   3.079 -0.6544 -0.4340 -0.3157
 9400SOL    HW139659   1.886   2.864   3.074 -0.4472 -0.7618  0.2456
 9400SOL    HW239660   1.836   2.734   3.105  0.4242 -0.0783 -0.5570
 9401SOL     OW39661   2.564   2.750  17.078 -0.4689 -0.1056  0.2008
 9401SOL    HW139662   2.513   2.831  17.089 -2.6561 -1.5116  0.4020
 9401SOL    HW239663   2.597   2.767  16.990 -0.7902 -1.8428 -0.2456
 9402SOL     OW39664   2.551   0.789   9.111  0.0598 -0.1181 -0.5525
 9402SOL    HW139665   2.597   0.871   9.130  1.7949 -1.1699 -0.2741
 9402SOL    HW239666   2.469   0.821   9.073 -0.4631  0.1832  0.8186
 9403SOL     OW39667   1.189   3.825  15.493 -0.0769  0.2495  0.1661
 9403SOL    HW139668   1.142   3.888  15.439  0.1266 -1.5811 -2.1704
 9403SOL    HW239669   1.246   3.878  15.548 -0.7047 -0.9485  1.9667
 9404SOL     OW39670   4.463   3.444   4.051  0.3648  0.2052  0.0424
 9404SOL    HW139671   4.550   3.481   4.069 -0.1328  0.9159  0.9644
 9404SOL    HW239672   4.447   3.388   4.127  0.1260  1.8376  1.1952
 9405SOL     OW39673   4.680   3.499   9.287  0.3658 -0.2450  0.7823
 9405SOL    HW139674   4.644   3.547   9.361 -0.2158 -1.5675  1.3491
 9405SOL    HW239675   4.696   3.412   9.325  1.3868 -0.4747 -0.1687
 9406SOL     OW39676   1.281   3.228   8.472  0.8345  0.1637 -0.7974
 9406SOL    HW139677   1.349   3.161   8.477  0.9388  0.4636  1.8025
 9406SOL    HW239678   1.289   3.283   8.394  3.3334  1.3699  0.2786
 9407SOL     OW39679   0.063   2.997   6.093  0.6000 -0.3106 -0.4428
 9407SOL    HW139680   0.072   2.902   6.102 -0.4274 -0.6699 -3.3820
 9407SOL    HW239681   4.691   3.000   6.097  0.6017 -0.0255 -0.6332
 9408SOL     OW39682   3.842   0.738   2.731  0.7939 -0.2282  0.0786
 9408SOL    HW139683   3.769   0.751   2.792 -0.6434 -0.8940 -1.5144
 9408SOL    HW239684   3.830   0.817   2.679 -0.1738 -0.4240 -0.0019
 9409SOL     OW39685   2.824   3.363   4.945 -0.7028 -0.3505  0.3400
 9409SOL    HW139686   2.897   3.309   4.976 -0.5455 -1.3888 -1.8067
 9409SOL    HW239687   2.748   3.306   4.955 -1.9761  0.8385 -2.6181
 9410SOL     OW39688   2.173   4.419   8.535 -0.4177  0.3546  0.1025
 9410SOL    HW139689   2.140   4.479   8.601 -0.3302 -0.4568  0.8946
 9410SOL    HW239690   2.134   4.455   8.455  0.0125 -0.9920 -0.7111
 9411SOL     OW39691   1.978   1.864   8.045 -0.0739  0.0804 -0.2257
 9411SOL    HW139692   1.905   1.913   8.009 -0.3660 -0.3600 -0.2336
 9411SOL    HW239693   2.051   1.919   8.016  0.1007 -0.7967 -1.4407
 9412SOL     OW39694   1.191   3.898   7.157 -0.1727  0.3697  0.4650
 9412SOL    HW139695   1.257   3.919   7.223  0.4782 -1.8191  0.5041
 9412SOL    HW239696   1.248   3.881   7.082 -0.5543 -0.5824  0.3877
 9413SOL     OW39697   2.450   0.061   6.543 -0.0614 -0.0082  0.3304
 9413SOL    HW139698   2.527   0.050   6.488  0.6671 -1.9233  1.7404
 9413SOL    HW239699   2.432   4.692   6.557 -1.4354  0.4394  1.5813
 9414SOL     OW39700   3.059   1.194   8.686 -0.3863 -0.0955 -0.0176
 9414SOL    HW139701   3.013   1.209   8.768  1.0497  3.7197  0.0490
 9414SOL    HW239702   3.099   1.110   8.710  1.5425  0.4071 -1.4649
 9415SOL     OW39703   2.790   4.044   4.235 -0.1759 -0.3065 -0.0393
 9415SOL    HW139704   2.712   4.037   4.290  0.9644 -2.1593  1.3440
 9415SOL    HW239705   2.863   4.014   4.289 -0.1739  1.5032  0.9618
 9416SOL     OW39706   2.038   3.148  17.034 -0.0118 -0.0255 -0.5065
 9416SOL    HW139707   2.074   3.216  16.977  1.9243 -1.0961 -0.5441
 9416SOL    HW239708   2.095   3.134  17.109 -1.1363  0.0497  0.3633
 9417SOL     OW39709   1.717   3.847   4.981 -0.6475 -0.1212  0.4223
 9417SOL    HW139710   1.807   3.829   4.956  0.0073  0.8472  2.0848
 9417SOL    HW239711   1.672   3.863   4.898 -0.0492  0.9221  0.3049
 9418SOL     OW39712   2.477   4.475   6.047  0.4200  0.1112 -0.6594
 9418SOL    HW139713   2.507   4.416   5.978 -1.2877 -0.3394 -1.0309
 9418SOL    HW239714   2.557   4.467   6.099  0.1870  0.9970 -0.1686
 9419SOL     OW39715   1.387   0.789  15.155  0.5972 -0.2279 -0.1737
 9419SOL    HW139716   1.432   0.859  15.108 -0.3895  1.8021  1.8993
 9419SOL    HW239717   1.388   0.834  15.240  1.8741  1.3217 -1.0017
 9420SOL     OW39718   2.162   1.490  11.778  0.0255 -0.0035 -0.2064
 9420SOL    HW139719   2.229   1.426  11.803 -1.5164 -2.0414 -1.3129
 9420SOL    HW239720   2.219   1.566  11.770 -1.0986  0.6932 -1.3643
 9421SOL     OW39721   3.100   2.274   9.520  0.1552  0.5372  0.0938
 9421SOL    HW139722   3.025   2.283   9.460  0.6127 -0.6214 -0.6479
 9421SOL    HW239723   3.178   2.281   9.465 -0.4892  0.1782 -0.8710
 9422SOL     OW39724   3.119   3.297  12.156 -0.2880 -0.2730  0.4987
 9422SOL    HW139725   3.099   3.332  12.070  2.9970 -1.4883 -0.7243
 9422SOL    HW239726   3.137   3.205  12.138 -0.8283 -0.1161 -0.8112
 9423SOL     OW39727   4.324   2.098   4.840 -0.1367  0.5074 -0.3411
 9423SOL    HW139728   4.337   2.107   4.746 -0.7657  1.8747 -0.3071
 9423SOL    HW239729   4.267   2.021   4.843 -3.1357  2.6079 -3.2042
 9424SOL     OW39730   3.851   1.694   5.037 -0.0969  0.4266  0.0091
 9424SOL    HW139731   3.842   1.647   4.954  1.3485  1.0877 -0.5224
 9424SOL    HW239732   3.849   1.783   5.002 -0.1822  0.1603 -0.6515
 9425SOL     OW39733   1.304   4.060  11.354  0.6840  0.0555 -0.1814
 9425SOL    HW139734   1.368   4.033  11.287 -1.4449  0.4168 -2.3731
 9425SOL    HW239735   1.345   4.054  11.440 -0.5991  1.6070  0.5467
 9426SOL     OW39736   2.864   2.810   7.584  0.5699 -0.4967  0.3734
 9426SOL    HW139737   2.791   2.805   7.645 -1.2194  0.9887 -1.6139
 9426SOL    HW239738   2.937   2.800   7.644  1.0480  3.3859  0.4347
 9427SOL     OW39739   0.268   3.505   4.017 -0.0092 -0.0179 -0.5855
 9427SOL    HW139740   0.291   3.529   4.106  0.5120 -0.8347 -0.4947
 9427SOL    HW239741   0.187   3.454   4.024 -1.2201  2.0035  0.0226
 9428SOL     OW39742   4.452   2.240   7.032  0.0592  0.0282  0.0716
 9428SOL    HW139743   4.415   2.303   6.970 -1.9031  1.2098  2.4759
 9428SOL    HW239744   4.539   2.238   6.991  0.3687  0.9951  0.6958
 9429SOL     OW39745   2.978   4.507   3.760 -0.0100 -0.0918  0.3447
 9429SOL    HW139746   3.021   4.572   3.815  1.2794 -1.3879  0.8260
 9429SOL    HW239747   2.993   4.538   3.670  0.1128  2.3614  1.2203
 9430SOL     OW39748   2.513   0.636   6.435  0.3546 -0.1198  0.5893
 9430SOL    HW139749   2.452   0.566   6.409  1.1399 -0.3543 -0.6012
 9430SOL    HW239750   2.541   0.658   6.346  1.4068 -1.4378  0.5976
 9431SOL     OW39751   3.401   4.540   6.706  0.8372 -0.3074 -0.1027
 9431SOL    HW139752   3.320   4.502   6.671  0.1864 -0.4396  1.5604
 9431SOL    HW239753   3.403   4.521   6.800 -0.4352  1.0713  0.2028
 9432SOL     OW39754   2.159   3.573  13.536  0.9904  0.4723  0.4637
 9432SOL    HW139755   2.197   3.614  13.458  2.1594 -1.1488  0.1608
 9432SOL    HW239756   2.211   3.617  13.604  0.9461  0.4554  0.5081
 9433SOL     OW39757   2.304   0.041   4.420  0.1095  0.1731  0.2324
 9433SOL    HW139758   2.319   0.098   4.495 -0.2648  0.3970  0.1390
 9433SOL    HW239759   2.336   4.677   4.443  1.5534  0.9461  1.1356
 9434SOL     OW39760   1.056   0.601   9.926  0.4537 -0.4289 -0.3186
 9434SOL    HW139761   1.088   0.672   9.982  2.2064 -0.9436 -0.6420
 9434SOL    HW239762   1.066   0.524   9.983  1.3641  0.0595  0.1802
 9435SOL     OW39763   0.754   4.213  17.333  0.0795 -0.1869 -0.2035
 9435SOL    HW139764   0.806   4.134  17.320  0.5909  0.0387  0.4773
 9435SOL    HW239765   0.684   4.186  17.392 -1.2629  1.9960 -0.7789
 9436SOL     OW39766   2.132   3.992  14.128 -0.1365  0.2241 -0.4499
 9436SOL    HW139767   2.100   3.984  14.039 -0.1548  1.1917 -0.5338
 9436SOL    HW239768   2.090   4.072  14.161  0.8670  0.9701 -0.9885
 9437SOL     OW39769   3.804   1.947   3.027 -0.1684 -0.3414  0.6817
 9437SOL    HW139770   3.756   1.866   3.012  1.7554 -1.3836  0.1544
 9437SOL    HW239771   3.892   1.923   2.996 -0.2105 -0.9115  0.9999
 9438SOL     OW39772   3.502   3.287   3.633 -0.0864  0.1921 -0.3495
 9438SOL    HW139773   3.596   3.280   3.649 -0.2279  1.3339  1.0325
 9438SOL    HW239774   3.472   3.335   3.710  1.3413 -0.5334  0.6583
 9439SOL     OW39775   1.375   2.704  16.752  0.2424 -0.2604  0.1791
 9439SOL    HW139776   1.308   2.738  16.694 -1.4473 -0.3083  2.1183
 9439SOL    HW239777   1.447   2.736  16.698  1.6600 -0.9492  1.6583
 9440SOL     OW39778   4.464   3.308   2.717 -0.2698 -0.2939 -0.4536
 9440SOL    HW139779   4.546   3.352   2.738 -0.3134 -0.7299  0.6027
 9440SOL    HW239780   4.410   3.322   2.795  0.7389 -1.6795  0.4983
 9441SOL     OW39781   4.419   1.900   1.581 -0.4950  0.5762  0.0945
 9441SOL    HW139782   4.385   1.990   1.574 -2.9813 -0.3740 -0.2379
 9441SOL    HW239783   4.440   1.879   1.490  0.0241 -1.1821  0.6277
 9442SOL     OW39784   4.304   4.029   3.588  0.4446  0.4485  0.0938
 9442SOL    HW139785   4.360   3.971   3.536 -0.1341 -1.4710  1.6069
 9442SOL    HW239786   4.297   3.993   3.676 -3.6155 -1.8064 -1.1757
 9443SOL     OW39787   0.156   1.819   9.745  0.0040  0.8501 -0.3987
 9443SOL    HW139788   0.226   1.885   9.750  2.3490 -1.7997  1.4668
 9443SOL    HW239789   0.162   1.781   9.658 -0.1658 -1.2221  0.5107
 9444SOL     OW39790   3.320   1.069   1.388 -0.5025 -0.0567  0.2688
 9444SOL    HW139791   3.382   0.999   1.408  0.2332  0.9751  1.5569
 9444SOL    HW239792   3.244   1.025   1.350 -1.1178  0.1068  1.3364
 9445SOL     OW39793   1.581   0.330   4.373 -0.4306 -0.9656  0.2874
 9445SOL    HW139794   1.564   0.359   4.463  0.8551  1.0258 -0.1015
 9445SOL    HW239795   1.634   0.255   4.398  1.5551  0.4891  0.4711
 9446SOL     OW39796   2.133   4.375   3.857 -1.0025  0.0354  0.0243
 9446SOL    HW139797   2.192   4.373   3.782 -0.1577 -0.9629  0.7260
 9446SOL    HW239798   2.102   4.466   3.863 -1.4482 -0.2661  2.1146
 9447SOL     OW39799   0.119   2.631   0.966  0.5750 -0.1119  0.5410
 9447SOL    HW139800   0.152   2.596   0.883  1.4688  0.6959  0.5574
 9447SOL    HW239801   0.034   2.665   0.939  0.3784 -1.6162 -0.7707
 9448SOL     OW39802   4.006   3.474   1.786 -0.4404 -0.0211 -0.5416
 9448SOL    HW139803   3.957   3.431   1.857  1.4204 -1.7311 -0.3013
 9448SOL    HW239804   4.098   3.465   1.808 -0.7710 -1.2726  0.3248
 9449SOL     OW39805   0.263   0.867   4.344  0.3390  0.4377 -0.1238
 9449SOL    HW139806   0.358   0.876   4.355  0.5024  1.6813 -2.4026
 9449SOL    HW239807   0.241   0.953   4.310  0.9317  1.4436  2.0520
 9450SOL     OW39808   3.274   0.495   4.062  0.3542  0.5747 -0.2694
 9450SOL    HW139809   3.217   0.572   4.057  1.5411  1.3458 -1.9625
 9450SOL    HW239810   3.363   0.527   4.078 -0.6997  2.4277  1.8212
 9451SOL     OW39811   0.638   2.041  12.984  0.2309 -0.2304  0.2532
 9451SOL    HW139812   0.624   2.036  13.079 -3.7295  1.1480 -0.2309
 9451SOL    HW239813   0.653   2.136  12.978 -1.2534 -0.1074 -1.4577
 9452SOL     OW39814   0.497   3.633  11.500 -0.8301 -0.0940 -0.6253
 9452SOL    HW139815   0.571   3.642  11.440  0.5882  1.2480  1.2979
 9452SOL    HW239816   0.462   3.722  11.498  1.2712  0.7410 -0.7445
 9453SOL     OW39817   3.906   3.854   1.821 -0.4657 -0.1063  0.4797
 9453SOL    HW139818   3.817   3.819   1.826 -0.2844 -0.7926 -1.1089
 9453SOL    HW239819   3.894   3.935   1.770 -0.8231 -0.2702  0.3062
 9454SOL     OW39820   0.271   0.084   9.916 -0.6253  0.2252 -0.1681
 9454SOL    HW139821   0.259   4.715   9.893  1.8848 -0.1488  0.0113
 9454SOL    HW239822   0.183   0.115   9.892 -1.1799 -1.2810 -0.0709
 9455SOL     OW39823   3.326   3.450   7.887 -0.4430 -0.3080  0.5721
 9455SOL    HW139824   3.363   3.362   7.886  1.4262  0.4846  1.0859
 9455SOL    HW239825   3.233   3.428   7.889 -0.1763 -1.4627 -0.3251
 9456SOL     OW39826   3.022   4.672  14.959  0.6386  0.1114 -0.7281
 9456SOL    HW139827   2.941   4.722  14.973  0.4744 -0.9698  2.0238
 9456SOL    HW239828   2.995   4.586  14.991 -0.9621 -0.1901 -2.8792
 9457SOL     OW39829   1.342   4.106   4.490 -0.3975 -0.6590 -0.4695
 9457SOL    HW139830   1.298   4.093   4.574 -0.2817  2.1698  0.0405
 9457SOL    HW239831   1.274   4.156   4.444  1.2735  2.2083  0.1411
 9458SOL     OW39832   0.130   1.151   1.917 -0.6908  0.4341  0.0402
 9458SOL    HW139833   0.225   1.137   1.918 -0.4723  1.9195 -0.6931
 9458SOL    HW239834   0.096   1.070   1.880  0.1179 -0.3363  0.9455
 9459SOL     OW39835   4.509   3.510   2.416 -0.3184 -0.5500 -0.4802
 9459SOL    HW139836   4.421   3.547   2.426 -1.5519 -3.6112  0.0604
 9459SOL    HW239837   4.505   3.415   2.421 -3.5364 -0.4205 -0.7795
 9460SOL     OW39838   3.393   1.910  10.909 -0.1461 -0.2558 -0.4345
 9460SOL    HW139839   3.388   1.818  10.936 -0.3046  0.1854  1.0198
 9460SOL    HW239840   3.420   1.890  10.819 -0.5660 -0.2365 -0.5682
 9461SOL     OW39841   0.837   3.045   2.073  0.6173  0.8888 -0.0501
 9461SOL    HW139842   0.926   3.036   2.107  0.7453 -0.9508 -0.8860
 9461SOL    HW239843   0.853   3.048   1.979 -2.6136 -2.3627 -0.6690
 9462SOL     OW39844   1.181   4.677  13.039  0.3237  0.3406  0.2382
 9462SOL    HW139845   1.123   4.605  13.013  3.5294 -1.7130 -1.2787
 9462SOL    HW239846   1.208   4.652  13.128 -0.0669 -1.2846 -0.0940
 9463SOL     OW39847   0.064   2.619   8.599 -0.3733 -0.0186 -0.0607
 9463SOL    HW139848   0.155   2.649   8.602 -1.0144  1.7114  1.9302
 9463SOL    HW239849   0.035   2.666   8.521 -0.2110  0.5931  0.2544
 9464SOL     OW39850   1.520   0.018   0.732 -0.6892  0.3329  0.4905
 9464SOL    HW139851   1.440   4.695   0.757  0.8636 -2.4978  0.1309
 9464SOL    HW239852   1.488   0.102   0.766  0.1249  0.8218  0.0466
 9465SOL     OW39853   3.165   2.628   9.409 -0.2454  0.1531 -0.3759
 9465SOL    HW139854   3.104   2.609   9.481  0.2315  0.6708  0.1649
 9465SOL    HW239855   3.243   2.662   9.455 -0.3118  0.9446 -0.8547
 9466SOL     OW39856   0.697   0.510   4.856  0.7814  0.5748  0.2696
 9466SOL    HW139857   0.769   0.490   4.915  1.7030 -0.4260 -1.2213
 9466SOL    HW239858   0.730   0.471   4.775  0.2903 -2.1772  1.3911
 9467SOL     OW39859   2.016   3.082   3.446 -0.2559 -0.8791  0.2141
 9467SOL    HW139860   2.087   3.017   3.445 -0.4639 -1.1142  0.8067
 9467SOL    HW239861   1.953   3.033   3.393 -2.1737  0.1006  1.6043
 9468SOL     OW39862   1.135   3.427  15.633 -0.2036  0.2086 -0.2007
 9468SOL    HW139863   1.163   3.493  15.570 -0.2152  2.0496  1.7197
 9468SOL    HW239864   1.083   3.493  15.680  0.6647  0.5956  0.2249
 9469SOL     OW39865   3.184   4.372   9.484  0.0323  0.4555 -0.0064
 9469SOL    HW139866   3.216   4.285   9.460 -0.8750  0.5717 -1.6861
 9469SOL    HW239867   3.206   4.373   9.577  0.4494 -1.1234 -0.0815
 9470SOL     OW39868   3.440   0.160   3.420 -0.1091 -0.2107  0.4590
 9470SOL    HW139869   3.509   0.184   3.480  0.9004  1.4403 -1.3709
 9470SOL    HW239870   3.495   0.135   3.345 -0.2654  0.1749  0.2160
 9471SOL     OW39871   4.266   4.490   0.691  0.6087 -0.3995  0.0407
 9471SOL    HW139872   4.202   4.549   0.650 -0.5731 -1.7398 -0.0254
 9471SOL    HW239873   4.208   4.443   0.750 -0.5788 -0.4310 -1.1468
 9472SOL     OW39874   4.457   2.031   7.822 -0.2185 -0.2670  0.2751
 9472SOL    HW139875   4.505   2.095   7.770 -1.9698  0.4344 -0.4777
 9472SOL    HW239876   4.375   2.080   7.828  0.8760  1.7191 -0.7327
 9473SOL     OW39877   0.331   2.472   4.989  0.1280 -0.3752 -0.1541
 9473SOL    HW139878   0.392   2.453   5.061  1.1322  2.1843 -0.3010
 9473SOL    HW239879   0.300   2.552   5.032  0.1015 -1.4282  1.8044
 9474SOL     OW39880   4.617   1.122  13.059  0.8243  0.0395 -0.5063
 9474SOL    HW139881   4.533   1.133  13.105  0.6132  1.7008 -1.2790
 9474SOL    HW239882   4.593   1.139  12.968 -2.1973 -2.6550 -0.2343
 9475SOL     OW39883   1.645   2.117  11.110 -0.1318  0.2641 -0.0666
 9475SOL    HW139884   1.711   2.075  11.166  1.0730  0.3722 -1.3916
 9475SOL    HW239885   1.595   2.148  11.185  0.6082 -0.5552  0.7742
 9476SOL     OW39886   2.357   2.910   2.678 -0.1690  0.0632  0.0133
 9476SOL    HW139887   2.335   2.952   2.760 -1.8088 -1.7168  0.4854
 9476SOL    HW239888   2.271   2.907   2.635 -0.6036  1.1097  0.8189
 9477SOL     OW39889   1.401   1.497   5.245  1.2591 -0.4317  0.4385
 9477SOL    HW139890   1.356   1.577   5.271 -0.2550 -0.9341 -0.6299
 9477SOL    HW239891   1.475   1.535   5.198 -0.0562  0.4507 -0.8938
 9478SOL     OW39892   3.297   1.692  15.940  0.1566  0.6134  0.1181
 9478SOL    HW139893   3.245   1.734  15.872 -0.0447 -1.0860 -0.7732
 9478SOL    HW239894   3.312   1.774  15.987 -0.4493  0.4512  0.5992
 9479SOL     OW39895   3.975   0.200   2.673  0.1595  0.0342 -0.0462
 9479SOL    HW139896   3.899   0.237   2.718  0.2368 -0.4011  0.4400
 9479SOL    HW239897   4.024   0.282   2.667 -0.9408  0.7429  0.7966
 9480SOL     OW39898   1.362   3.327   5.256  0.2398 -0.8090 -0.3155
 9480SOL    HW139899   1.364   3.282   5.340 -0.9836 -0.8051 -0.2870
 9480SOL    HW239900   1.438   3.293   5.208  0.1792 -1.4891  0.0777
 9481SOL     OW39901   0.194   4.575   7.521 -0.0181 -0.4097  0.1671
 9481SOL    HW139902   0.277   4.528   7.523 -0.3085 -0.9263 -0.1733
 9481SOL    HW239903   0.207   4.649   7.462 -0.7120 -1.1749 -0.9471
 9482SOL     OW39904   2.903   4.189   5.220  0.0705  0.6163 -0.1686
 9482SOL    HW139905   2.814   4.165   5.244 -0.4955 -0.0399 -2.9085
 9482SOL    HW239906   2.897   4.225   5.132 -1.1632 -1.4741 -0.9307
 9483SOL     OW39907   1.119   3.320   3.621 -0.4091  0.0386  0.1274
 9483SOL    HW139908   1.199   3.320   3.568  0.8563 -0.9726  2.0175
 9483SOL    HW239909   1.103   3.227   3.639 -0.5564  0.0889  0.2495
 9484SOL     OW39910   3.662   1.257   4.443  0.3893  0.4365  0.5161
 9484SOL    HW139911   3.669   1.309   4.363  1.3463 -0.4889 -0.0018
 9484SOL    HW239912   3.648   1.169   4.409 -2.3228  1.1956 -0.3397
 9485SOL     OW39913   3.931   2.095   4.042  0.2721  0.3443  0.1749
 9485SOL    HW139914   3.956   2.041   4.116 -2.6560 -2.2707 -0.7641
 9485SOL    HW239915   3.989   2.066   3.971 -0.6920  0.5566 -0.7001
 9486SOL     OW39916   2.901   4.213   7.690 -0.5028  0.3255  0.1084
 9486SOL    HW139917   2.824   4.269   7.691  0.3304  1.5096 -1.3784
 9486SOL    HW239918   2.952   4.254   7.760  0.5328  0.3841 -0.6692
 9487SOL     OW39919   2.338   4.445  13.397  0.4924 -0.0258  0.0691
 9487SOL    HW139920   2.299   4.358  13.397 -0.4129  0.3768  1.6442
 9487SOL    HW239921   2.422   4.433  13.441  0.7280 -1.1604 -0.6752
 9488SOL     OW39922   3.107   4.073   8.260  0.1697  0.2645  1.1458
 9488SOL    HW139923   3.194   4.111   8.269  0.6104 -0.9463  1.9557
 9488SOL    HW239924   3.111   4.011   8.333 -1.4642 -1.8008 -0.4969
 9489SOL     OW39925   2.278   4.162  13.528 -0.3516  0.1103  0.0274
 9489SOL    HW139926   2.253   4.097  13.463 -0.8845 -0.8681  1.2023
 9489SOL    HW239927   2.217   4.150  13.601 -0.0236  1.8858  0.5947
 9490SOL     OW39928   2.403   1.310   3.135  0.4424  0.0254 -0.3257
 9490SOL    HW139929   2.330   1.280   3.081  0.4493 -3.1385  1.4248
 9490SOL    HW239930   2.360   1.311   3.221 -1.9339 -0.8840 -1.5102
 9491SOL     OW39931   4.070   0.143  15.297  0.3286 -0.2321  0.5487
 9491SOL    HW139932   4.119   0.062  15.316 -0.3375 -0.5450  0.9131
 9491SOL    HW239933   4.137   0.198  15.256 -2.2572  0.3680 -2.9077
 9492SOL     OW39934   4.438   2.203  17.487  0.1221 -0.2384  0.5333
 9492SOL    HW139935   4.418   2.156  17.568  2.0734  1.0305  1.7410
 9492SOL    HW239936   4.366   2.172  17.432 -1.7082  2.6060  1.3191
 9493SOL     OW39937   1.430   0.314  15.075 -0.0577  0.3808 -0.5150
 9493SOL    HW139938   1.509   0.286  15.122 -0.9523 -0.0008  0.7626
 9493SOL    HW239939   1.427   0.237  15.019 -1.9530  0.6795 -0.8441
 9494SOL     OW39940   3.463   4.019   3.651  0.2861  0.2632  0.2602
 9494SOL    HW139941   3.557   4.027   3.667  0.5275 -0.7449 -0.7070
 9494SOL    HW239942   3.447   4.106   3.614 -0.5842  0.4402  1.0594
 9495SOL     OW39943   0.113   0.152   0.162  0.2691 -0.3362  0.5164
 9495SOL    HW139944   0.122   0.102   0.081 -1.6518  1.9366 -1.0764
 9495SOL    HW239945   0.119   0.240   0.126 -1.3988 -0.1175  0.7729
 9496SOL     OW39946   0.747   1.194  12.110 -0.3074 -0.0299  0.5346
 9496SOL    HW139947   0.696   1.250  12.052 -1.2142 -0.1463  1.2174
 9496SOL    HW239948   0.680   1.129  12.131  0.1004  0.8324  4.6516
 9497SOL     OW39949   1.994   4.549   5.425 -0.4754  0.1324 -0.6111
 9497SOL    HW139950   2.044   4.516   5.350 -0.5255 -2.7445  0.6127
 9497SOL    HW239951   1.958   4.464   5.450 -1.2190  0.5222 -0.3760
 9498SOL     OW39952   2.498   4.252   4.037  0.2192 -0.0961  0.3229
 9498SOL    HW139953   2.420   4.205   4.065  0.9304  0.1196  2.6714
 9498SOL    HW239954   2.524   4.277   4.125  0.0058 -0.8898  0.6086
 9499SOL     OW39955   3.726   1.254   5.211 -0.1516  0.0072  0.1884
 9499SOL    HW139956   3.645   1.203   5.203 -0.9462  1.3035 -0.1124
 9499SOL    HW239957   3.694   1.344   5.200 -0.2072 -0.0395 -0.0484
 9500SOL     OW39958   4.547   0.307  11.285  0.3633  1.0236 -0.5807
 9500SOL    HW139959   4.533   0.379  11.223  0.7463  1.0634 -0.6207
 9500SOL    HW239960   4.642   0.317  11.297  0.3184  0.2760  0.3492
 9501SOL     OW39961   4.173   0.156  17.639  0.7006 -0.2223 -0.4060
 9501SOL    HW139962   4.207   0.083  17.586 -0.8364 -0.5480 -0.9220
 9501SOL    HW239963   4.166   0.226  17.574 -0.2560  0.1603  0.1150
 9502SOL     OW39964   3.926   0.510   1.837 -0.0474  0.1955 -0.6250
 9502SOL    HW139965   3.980   0.487   1.761 -0.1849 -2.3612  0.0465
 9502SOL    HW239966   3.920   0.605   1.830  2.1999  0.5153  2.1083
 9503SOL     OW39967   3.374   2.127  11.097  0.0921  0.0985  0.6761
 9503SOL    HW139968   3.281   2.114  11.081 -0.0348  0.9745  0.6866
 9503SOL    HW239969   3.416   2.062  11.041 -0.7548  0.5437 -0.4769
 9504SOL     OW39970   1.584   3.697   6.050 -0.3419 -0.1587  0.0862
 9504SOL    HW139971   1.587   3.604   6.028 -2.2611 -0.4672  1.0994
 9504SOL    HW239972   1.646   3.710   6.122 -0.5732 -0.6589  0.3805
 9505SOL     OW39973   3.961   4.711  13.062 -0.0684 -0.4404  0.2482
 9505SOL    HW139974   3.881   4.675  13.100  0.2836 -3.4630 -1.8386
 9505SOL    HW239975   3.928   0.073  13.036 -2.2958 -1.6454 -0.8908
 9506SOL     OW39976   1.432   3.319   1.798 -0.2929 -0.8840 -0.1712
 9506SOL    HW139977   1.507   3.374   1.821 -2.3572  1.2846  1.3014
 9506SOL    HW239978   1.363   3.356   1.853  0.7904 -0.4641  0.9063
 9507SOL     OW39979   0.645   4.362  10.831  0.0119  0.1112 -0.0692
 9507SOL    HW139980   0.713   4.421  10.800  0.5001  0.9231  2.4984
 9507SOL    HW239981   0.686   4.279  10.858  1.8134  0.3241 -2.2062
 9508SOL     OW39982   0.063   4.596   5.752 -0.6287  0.3130  0.4151
 9508SOL    HW139983   0.131   4.610   5.817 -0.4634  1.4942 -0.0191
 9508SOL    HW239984   0.025   4.515   5.787  1.0586 -1.7223 -2.4669
 9509SOL     OW39985   1.153   3.367  16.777  0.1930  0.0920  0.1732
 9509SOL    HW139986   1.192   3.308  16.713  2.5175 -0.7762  2.3644
 9509SOL    HW239987   1.185   3.344  16.864  1.1930 -1.9965 -0.7567
 9510SOL     OW39988   1.521   0.765  15.957  0.2434  0.6041 -0.0336
 9510SOL    HW139989   1.591   0.764  16.023  1.6570 -1.5102 -1.5763
 9510SOL    HW239990   1.548   0.693  15.900  1.4585  1.0426 -0.0177
 9511SOL     OW39991   1.210   1.811   4.182 -0.0074  0.0695  0.5620
 9511SOL    HW139992   1.188   1.822   4.274 -0.1500 -0.7312  0.6263
 9511SOL    HW239993   1.137   1.853   4.136  0.5300 -1.4790 -1.7237
 9512SOL     OW39994   2.830   0.204   7.387  0.3106  0.2238  0.5472
 9512SOL    HW139995   2.779   0.167   7.460  1.4335 -0.5913  0.9108
 9512SOL    HW239996   2.777   0.177   7.312 -0.4908  0.0666  1.1687
 9513SOL     OW39997   3.736   0.102   2.369  0.5538  0.0753 -0.3257
 9513SOL    HW139998   3.677   0.165   2.326  0.0152  0.4752  1.0044
 9513SOL    HW239999   3.802   0.155   2.413 -0.6865  0.2024  1.4032
 9514SOL     OW40000   2.190   3.427   2.910  0.0377 -0.3630 -0.1925
 9514SOL    HW140001   2.246   3.399   2.838  0.9982  0.9034  0.0627
 9514SOL    HW240002   2.198   3.522   2.915 -0.8164 -0.3605  1.4655
 9515SOL     OW40003   1.307   2.377   8.316 -0.4036  0.4307  0.6720
 9515SOL    HW140004   1.313   2.433   8.238 -2.0818  0.7415  0.7560
 9515SOL    HW240005   1.345   2.437   8.380 -2.0895 -1.1745  3.1629
 9516SOL     OW40006   0.192   2.523   8.224  0.5248 -0.6974 -0.2317
 9516SOL    HW140007   0.284   2.545   8.205 -0.2941  0.2097 -3.1499
 9516SOL    HW240008   0.176   2.595   8.286 -1.1906 -0.2798 -1.1782
 9517SOL     OW40009   2.185   1.469   2.499 -0.7396  0.2169  0.3784
 9517SOL    HW140010   2.257   1.526   2.473  0.1160 -1.6626 -1.4152
 9517SOL    HW240011   2.182   1.402   2.431  1.3358  0.2362  0.2559
 9518SOL     OW40012   1.785   4.636  14.600  0.4371 -0.1545 -0.6101
 9518SOL    HW140013   1.801   4.672  14.513 -1.3941  2.4159  0.1246
 9518SOL    HW240014   1.874   4.650  14.633 -0.5852 -2.7816  3.2790
 9519SOL     OW40015   3.158   3.613   8.775  0.3325  0.7878  0.4396
 9519SOL    HW140016   3.213   3.540   8.803 -1.7890 -2.5205 -4.0232
 9519SOL    HW240017   3.143   3.590   8.683 -1.7698 -0.5642  1.1065
 9520SOL     OW40018   1.858   1.353   7.624 -0.2974 -0.0427  0.3767
 9520SOL    HW140019   1.839   1.323   7.713 -1.6070 -2.3713 -0.6914
 9520SOL    HW240020   1.933   1.298   7.602  0.7313  1.0983  1.0297
 9521SOL     OW40021   0.405   2.855   6.573 -0.1136 -0.5771  0.3997
 9521SOL    HW140022   0.453   2.917   6.518  0.8462 -1.2682  0.4613
 9521SOL    HW240023   0.332   2.831   6.516 -0.4514  0.7089  0.2767
 9522SOL     OW40024   0.075   0.658  13.001  0.5856  0.1671  0.3268
 9522SOL    HW140025   0.161   0.620  13.018  0.9901  0.9228  0.0114
 9522SOL    HW240026   0.050   0.696  13.085  3.8034 -0.5294  1.6060
 9523SOL     OW40027   3.851   2.229   0.222  0.3100  0.9782  0.0199
 9523SOL    HW140028   3.847   2.289   0.148  3.9202 -1.3696 -2.0969
 9523SOL    HW240029   3.925   2.257   0.276 -1.1367  0.5169  2.2275
 9524SOL     OW40030   1.807   3.278   6.107  0.1911  0.2550  0.0845
 9524SOL    HW140031   1.838   3.282   6.197 -0.1049  1.7649  0.1262
 9524SOL    HW240032   1.731   3.335   6.094  2.5663  3.8225  1.6658
 9525SOL     OW40033   4.322   2.813   7.899 -0.0977  0.0562  0.2805
 9525SOL    HW140034   4.330   2.854   7.986  0.3033  1.0501 -0.2242
 9525SOL    HW240035   4.405   2.768   7.887  0.2158  0.6898  0.0633
 9526SOL     OW40036   1.946   0.742  11.422 -0.5706  0.6022  0.3450
 9526SOL    HW140037   1.927   0.798  11.498  2.0923  1.4501  0.3732
 9526SOL    HW240038   2.039   0.723  11.432 -1.0754 -3.0571 -2.0436
 9527SOL     OW40039   3.617   1.712  10.715 -0.1986  0.1419  0.0527
 9527SOL    HW140040   3.700   1.728  10.760  0.4190  0.2168 -1.1081
 9527SOL    HW240041   3.591   1.796  10.678  1.8261 -0.1532 -2.0135
 9528SOL     OW40042   2.444   2.662   5.547  0.2198  0.5494 -0.9487
 9528SOL    HW140043   2.407   2.574   5.541 -1.0338  0.8504  2.3242
 9528SOL    HW240044   2.370   2.719   5.565  1.7062  1.9725  0.7132
 9529SOL     OW40045   3.988   0.200   3.346 -0.2447 -0.4032  0.2674
 9529SOL    HW140046   3.989   0.266   3.276  1.8449 -0.3486  0.3281
 9529SOL    HW240047   3.989   0.250   3.428  1.9624  0.8926 -0.5392
 9530SOL     OW40048   4.639   1.147  15.476  0.4226 -0.2324 -0.3171
 9530SOL    HW140049   4.684   1.079  15.427 -1.4484 -0.1555 -2.1480
 9530SOL    HW240050   4.550   1.126  15.448  0.9274 -0.8057 -1.4517
 9531SOL     OW40051   4.342   0.809   9.000  0.5062 -0.1560  0.5113
 9531SOL    HW140052   4.309   0.817   9.090 -0.9594  1.7687 -0.2072
 9531SOL    HW240053   4.434   0.811   9.028  0.4187  2.1000  0.6696
 9532SOL     OW40054   0.021   0.277   3.350  0.0248  0.0159 -0.4490
 9532SOL    HW140055   4.680   0.234   3.407  1.6782  1.0228  2.2046
 9532SOL    HW240056   0.046   0.339   3.419 -1.1850 -0.9739  0.8850
 9533SOL     OW40057   1.102   2.829   1.886 -0.1881  0.2454 -0.5957
 9533SOL    HW140058   1.010   2.809   1.907  1.1606 -1.6343  3.5141
 9533SOL    HW240059   1.145   2.743   1.885  0.6701  0.6685 -0.1662
 9534SOL     OW40060   3.195   0.706   1.455  0.3002  0.3317 -0.2618
 9534SOL    HW140061   3.244   0.660   1.524 -1.6495 -0.0134  0.8913
 9534SOL    HW240062   3.119   0.649   1.457 -0.1545  1.0144  1.6310
 9535SOL     OW40063   0.733   1.123   5.709 -0.6464  0.2402 -0.5336
 9535SOL    HW140064   0.750   1.216   5.695  1.4022 -0.0350  0.1641
 9535SOL    HW240065   0.643   1.113   5.676 -1.4846 -1.0850  2.1607
 9536SOL     OW40066   2.929   4.689   7.104 -0.2578 -0.1716  0.2874
 9536SOL    HW140067   2.842   4.706   7.142 -0.0929  0.2274  0.4814
 9536SOL    HW240068   2.957   0.057   7.097  1.2129 -0.7661 -1.5887
 9537SOL     OW40069   2.851   2.769   2.941  0.5402  0.2375  0.6045
 9537SOL    HW140070   2.934   2.726   2.958 -0.3762 -1.7889 -0.1147
 9537SOL    HW240071   2.856   2.855   2.983  1.0555  2.1167 -3.3177
 9538SOL     OW40072   2.722   3.931   0.519  0.5433  0.2239 -0.1970
 9538SOL    HW140073   2.759   4.011   0.481  1.3153  0.5931  1.3573
 9538SOL    HW240074   2.627   3.945   0.514  0.3212 -1.9936 -2.4171
 9539SOL     OW40075   0.374   2.772  14.927  0.1682 -0.0119 -0.0133
 9539SOL    HW140076   0.293   2.727  14.902  0.0645 -0.3865  0.9818
 9539SOL    HW240077   0.360   2.771  15.022 -0.6748 -0.9090 -0.1382
 9540SOL     OW40078   0.088   3.344   8.773 -0.3856 -0.1887 -0.1253
 9540SOL    HW140079   0.018   3.321   8.834 -0.7034 -0.0985 -0.4525
 9540SOL    HW240080   0.169   3.337   8.823 -0.9805  0.0624  0.8678
 9541SOL     OW40081   2.786   2.741   3.898  0.6042  0.0533 -0.3910
 9541SOL    HW140082   2.848   2.787   3.842  1.3779  0.4896  0.8223
 9541SOL    HW240083   2.797   2.798   3.975  1.0085 -1.1788  0.4600
 9542SOL     OW40084   3.264   0.150   1.871 -0.3944 -0.2081  0.0517
 9542SOL    HW140085   3.182   0.153   1.821 -1.2707 -0.7687  1.4410
 9542SOL    HW240086   3.324   0.106   1.811 -0.2082  1.5439 -1.0517
 9543SOL     OW40087   3.258   1.419   0.117  0.0747 -0.4438 -0.1392
 9543SOL    HW140088   3.256   1.469   0.036  1.2270 -1.6171 -0.8862
 9543SOL    HW240089   3.351   1.428   0.138 -0.6441 -0.1251  2.9539
 9544SOL     OW40090   2.152   3.181  11.634 -0.6497 -0.4101 -0.2260
 9544SOL    HW140091   2.088   3.243  11.670  0.9305  0.7439  0.6386
 9544SOL    HW240092   2.220   3.199  11.699 -2.9661 -0.1278  2.1219
 9545SOL     OW40093   2.011   3.794   3.535  0.0167  0.0071  0.4964
 9545SOL    HW140094   1.951   3.796   3.610  0.1923  0.9848  0.6162
 9545SOL    HW240095   2.010   3.887   3.510 -2.0680 -0.2127 -0.2198
 9546SOL     OW40096   0.243   0.544   4.431  0.2508 -0.3834  0.5997
 9546SOL    HW140097   0.272   0.634   4.415  1.4096 -1.0703 -1.0591
 9546SOL    HW240098   0.282   0.526   4.517  0.6812  0.3749  0.5663
 9547SOL     OW40099   0.085   3.679   3.288 -0.1168  0.1896 -0.2248
 9547SOL    HW140100   0.120   3.753   3.238  0.1256  0.8064  0.8690
 9547SOL    HW240101   0.024   3.722   3.347  1.7969  2.0874  0.3432
 9548SOL     OW40102   3.507   0.048   6.342 -0.2386 -0.4406 -0.2458
 9548SOL    HW140103   3.483   0.136   6.314  2.0969  0.1261 -0.4653
 9548SOL    HW240104   3.584   0.068   6.395 -0.4660  1.0319 -0.4831
 9549SOL     OW40105   3.361   1.523   8.046 -0.1653 -0.5881  0.0391
 9549SOL    HW140106   3.424   1.580   8.090 -1.0277  0.7518 -0.4411
 9549SOL    HW240107   3.339   1.575   7.968  0.0052 -0.6401 -0.0457
 9550SOL     OW40108   2.343   0.974   8.440 -0.2004  0.1738 -0.1141
 9550SOL    HW140109   2.347   0.890   8.394 -2.3851  0.0098  0.0031
 9550SOL    HW240110   2.436   0.997   8.439  0.2639 -1.4975  2.6339
 9551SOL     OW40111   1.668   3.495   4.199  0.2708 -0.0438 -0.2147
 9551SOL    HW140112   1.728   3.518   4.128 -0.7376 -0.3194 -1.1467
 9551SOL    HW240113   1.584   3.520   4.162 -1.0650 -1.1025  2.0799
 9552SOL     OW40114   2.264   0.602   1.168 -0.2309 -0.1873 -0.0523
 9552SOL    HW140115   2.240   0.606   1.261  1.5405  1.4074  0.3477
 9552SOL    HW240116   2.243   0.510   1.155 -0.7514 -0.0304 -0.3379
 9553SOL     OW40117   2.553   0.597   7.368 -0.1693 -0.0661 -0.3292
 9553SOL    HW140118   2.647   0.577   7.374 -0.1508  0.0690 -0.1449
 9553SOL    HW240119   2.530   0.599   7.461 -1.8944 -0.8969 -0.7483
 9554SOL     OW40120   3.644   3.017   9.144 -0.4919 -0.7718 -0.2511
 9554SOL    HW140121   3.590   2.969   9.081  1.1972 -2.2092 -0.6063
 9554SOL    HW240122   3.583   3.016   9.218  1.1356 -1.4402  1.0866
 9555SOL     OW40123   0.925   1.035   4.501  0.1244 -0.0259 -0.0242
 9555SOL    HW140124   0.900   1.112   4.451  1.2392  1.5601  1.8491
 9555SOL    HW240125   1.004   1.061   4.549 -0.4383  0.8589  0.4131
 9556SOL     OW40126   4.671   1.723   0.245  0.0426  0.1720 -0.0589
 9556SOL    HW140127   4.715   1.639   0.257 -0.3377 -0.5002 -3.3427
 9556SOL    HW240128   4.698   1.761   0.329 -0.5040 -1.4190  0.8311
 9557SOL     OW40129   0.885   3.103   8.391 -0.1220  0.0623  0.4691
 9557SOL    HW140130   0.797   3.070   8.403  0.1362 -1.1390 -0.9440
 9557SOL    HW240131   0.877   3.196   8.412 -1.3209  0.6400 -2.5383
 9558SOL     OW40132   1.679   0.096   3.181  0.1564 -0.1066  0.0674
 9558SOL    HW140133   1.685   0.145   3.098 -0.2297 -0.4691 -0.1723
 9558SOL    HW240134   1.724   0.147   3.249 -1.5622  3.1493 -1.2320
 9559SOL     OW40135   3.213   0.658   8.865 -0.7278  0.1188 -0.1902
 9559SOL    HW140136   3.193   0.708   8.943 -0.4742  0.1487 -0.1445
 9559SOL    HW240137   3.128   0.614   8.862 -0.4174 -0.3749 -1.9885
 9560SOL     OW40138   3.370   1.524   2.745  0.3189  0.6947  0.4610
 9560SOL    HW140139   3.289   1.484   2.776  1.3823 -3.0718 -1.6160
 9560SOL    HW240140   3.386   1.594   2.808  0.8700 -2.0143  3.3240
 9561SOL     OW40141   3.036   4.116   0.206 -0.0300  0.4995 -0.9085
 9561SOL    HW140142   3.037   4.044   0.144 -0.6689  0.3598 -0.7616
 9561SOL    HW240143   2.982   4.182   0.162 -0.0384  0.9010 -0.3004
 9562SOL     OW40144   0.545   2.097  14.080  0.2314  0.0493 -0.3009
 9562SOL    HW140145   0.576   2.131  13.996  1.1852 -0.5114 -0.1844
 9562SOL    HW240146   0.452   2.112  14.066  0.6789  2.4088 -0.6343
 9563SOL     OW40147   2.112   1.278   1.089  0.1470 -0.3257 -0.5347
 9563SOL    HW140148   2.021   1.258   1.110 -0.0677 -0.8451 -1.9325
 9563SOL    HW240149   2.129   1.222   1.013 -2.2180 -1.3121 -0.3117
 9564SOL     OW40150   0.963   2.618  16.221  0.0408  0.3414  1.2214
 9564SOL    HW140151   0.916   2.566  16.287 -0.4216 -0.9376 -0.1186
 9564SOL    HW240152   0.913   2.700  16.227  1.4215  1.0516  3.2371
 9565SOL     OW40153   4.606   0.977   8.061  0.0195 -0.2500  0.1918
 9565SOL    HW140154   4.636   0.919   7.992 -1.5958  0.1757 -0.8684
 9565SOL    HW240155   4.623   1.064   8.026  1.1393 -1.0042 -1.1682
   4.72367   4.72367  17.69643
