Membrane in water
40155
    1TCq1    O1    1   2.525   3.101  10.418 -0.4562  0.4634 -0.0075
    1TCq1    C1    2   2.582   3.143  10.533 -0.8330  0.4380 -0.1509
    1TCq1    O2    3   2.695   3.119  10.576  0.2813  0.1936 -0.1308
    1TCq1    C2    4   2.476   3.170  10.623  0.7712 -0.1494 -0.4004
    1TCq1    C3    5   2.373   3.254  10.592  0.1022 -0.0864 -0.8205
    1TCq1    C4    6   2.264   3.256  10.679  0.2595 -0.2747  0.1684
    1TCq1    C5    7   2.254   3.168  10.785  0.0197 -0.1825  0.1959
    1TCq1    C6    8   2.357   3.085  10.817  0.8221  0.1323  0.6929
    1TCq1    C7    9   2.465   3.086  10.733  0.5028 -0.3800  0.1557
    1TCq1    C8   10   2.335   2.969  10.904  0.2090  0.9704 -0.3364
    1TCq1    O4   11   2.434   2.903  10.940 -0.3050 -0.4945 -0.1187
    1TCq1    C9   12   2.147   3.340  10.651  0.1991  0.0901 -0.0241
    1TCq1    O5   13   2.051   3.331  10.736  0.9200 -0.0663  0.0230
    1TCq1    O6   14   2.153   3.401  10.540 -0.7959  0.2561  0.4113
    1TCq1    H1   15   2.427   3.099  10.412 -0.5004  0.1873  0.8215
    1TCq1    H2   16   2.377   3.317  10.503  2.0096  1.9734  0.7241
    1TCq1    H3   17   2.176   3.186  10.858  0.0122 -0.2544  0.2056
    1TCq1    H4   18   2.540   3.009  10.745  0.8661  0.0780  0.8471
    2MPD2     C   19   2.024   2.678  11.176 -0.8837  0.8298  0.6826
    2MPD2    C1   20   2.156   2.712  11.205 -0.3630 -0.5568  0.9905
    2MPD2    C2   21   2.222   2.802  11.118  0.3872 -0.0982 -0.1521
    2MPD2    C3   22   2.150   2.859  11.012 -0.6553 -0.2331  0.0485
    2MPD2    C4   23   2.018   2.823  10.991 -0.3595  0.2831 -0.0802
    2MPD2    C5   24   1.954   2.734  11.073  0.3553 -0.6026  0.9438
    2MPD2     H   25   2.327   2.824  11.131  0.0029  1.9307 -0.4851
    2MPD2    H1   26   1.961   2.865  10.909 -2.2044 -0.4122  0.8496
    2MPD2    H2   27   1.972   2.608  11.240  0.0700 -0.8762 -0.4049
    2MPD2    H3   28   1.848   2.717  11.054  0.5015  1.3816 -1.5259
    2MPD2     N   29   2.201   2.961  10.936  0.1357 -0.7013 -0.0686
    2MPD2    H5   30   2.135   3.021  10.888 -0.8844  0.1125  2.3700
    2MPD2    N1   31   2.238   2.653  11.304  0.4254  0.3154  0.0047
    2MPD2    H7   32   2.328   2.698  11.319  1.4777 -3.5373  5.3101
    3TCq1    O1   33   2.384   4.073  10.038  0.5633  0.0616 -0.2656
    3TCq1    C1   34   2.278   4.162  10.042 -0.7908 -0.3039  0.4282
    3TCq1    O2   35   2.243   4.228   9.945  0.0820 -0.1200 -0.0206
    3TCq1    C2   36   2.264   4.224  10.177  0.8769 -0.1078  0.4410
    3TCq1    C3   37   2.267   4.364  10.198  1.1556  0.3923  0.1529
    3TCq1    C4   38   2.257   4.415  10.321 -0.0401  0.5506 -0.0213
    3TCq1    C5   39   2.235   4.330  10.428 -0.1258 -0.1194 -0.1601
    3TCq1    C6   40   2.221   4.197  10.412  0.3852 -0.4023  0.2062
    3TCq1    C7   41   2.234   4.143  10.283 -0.2068  0.1564 -0.5127
    3TCq1    C8   42   2.130   4.132  10.506  0.2301 -0.4965 -0.5724
    3TCq1    O4   43   2.114   4.014  10.483  0.0356 -0.1119 -0.3206
    3TCq1    C9   44   2.273   4.553  10.341  0.3382  0.2988  0.0327
    3TCq1    O5   45   2.241   4.600  10.455  0.1257  0.2065  0.4867
    3TCq1    O6   46   2.291   4.630  10.242  0.0441 -0.5079  0.4960
    3TCq1    H1   47   2.392   4.025  10.124  0.1550  1.9074  0.8037
    3TCq1    H2   48   2.299   4.427  10.115  0.0570  0.1820 -0.4359
    3TCq1    H3   49   2.229   4.377  10.525  0.4662  1.5801 -0.9413
    3TCq1    H4   50   2.199   4.044  10.256 -0.5593  0.1738 -0.1071
    4MPD2     C   51   1.802   4.116  10.894 -0.7479 -0.8277 -0.5493
    4MPD2    C1   52   1.833   4.252  10.877 -0.4937  0.2545  0.5820
    4MPD2    C2   53   1.922   4.285  10.774  0.8938  0.3972  0.0525
    4MPD2    C3   54   1.969   4.183  10.692  0.0549  0.2765  0.2100
    4MPD2    C4   55   1.931   4.050  10.705  0.2538  0.4688 -0.7716
    4MPD2    C5   56   1.851   4.021  10.813 -0.2266  0.7974 -0.0662
    4MPD2     H   57   1.962   4.385  10.762  0.5828  0.3467 -1.3465
    4MPD2    H1   58   1.950   3.966  10.639  2.6559 -0.7725  1.4805
    4MPD2    H2   59   1.740   4.076  10.973 -0.0863  0.1214  0.4645
    4MPD2    H3   60   1.836   3.915  10.827  2.8334  0.6906  2.6145
    4MPD2     N   61   2.064   4.223  10.595 -0.5629  0.3555 -0.7709
    4MPD2    H5   62   2.075   4.324  10.593 -0.5177  0.4274  3.2979
    4MPD2    N1   63   1.784   4.350  10.963 -0.0157 -0.0858 -0.2570
    4MPD2    H7   64   1.802   4.447  10.940 -0.2668  0.2197  0.8392
    5TCq1    O1   65   1.791   1.788  11.806  0.2565 -0.2949  0.0455
    5TCq1    C1   66   1.829   1.791  11.671 -0.0497 -0.1605  0.2486
    5TCq1    O2   67   1.930   1.831  11.619 -0.2721  0.2217 -0.3339
    5TCq1    C2   68   1.729   1.709  11.606  0.5306  0.1447 -0.0456
    5TCq1    C3   69   1.599   1.725  11.643  0.5151 -0.6701  0.5236
    5TCq1    C4   70   1.509   1.656  11.570  0.5504  0.2475 -0.1837
    5TCq1    C5   71   1.543   1.565  11.476 -0.5664  0.4142  0.2289
    5TCq1    C6   72   1.674   1.557  11.443 -0.0959  0.0605  0.1649
    5TCq1    C7   73   1.772   1.630  11.506 -0.1086  0.9208 -0.1044
    5TCq1    C8   74   1.719   1.462  11.337  0.8841  0.2279 -0.3140
    5TCq1    O4   75   1.840   1.433  11.329  0.7927 -0.1469  0.1119
    5TCq1    C9   76   1.372   1.689  11.596 -0.3453  0.7117 -0.0993
    5TCq1    O5   77   1.294   1.642  11.507  0.1440  0.2326  0.1584
    5TCq1    O6   78   1.343   1.773  11.684 -0.0596  0.2150 -0.6786
    5TCq1    H1   79   1.721   1.720  11.814 -0.4666  0.1945 -2.1305
    5TCq1    H2   80   1.564   1.800  11.713 -0.0390  0.1051 -0.5863
    5TCq1    H3   81   1.468   1.495  11.439 -0.4479  1.1030 -1.3011
    5TCq1    H4   82   1.872   1.624  11.465 -0.8082 -0.7292 -1.5536
    6MPD2     C   83   1.499   1.353  11.058 -0.3672  0.2113  0.9024
    6MPD2    C1   84   1.614   1.354  11.132  0.2696 -0.1831  0.1220
    6MPD2    C2   85   1.723   1.274  11.093 -0.3214 -0.1873 -0.7637
    6MPD2    C3   86   1.707   1.191  10.989  0.3868 -0.1776 -0.0776
    6MPD2    C4   87   1.586   1.186  10.919 -0.1263 -0.1916 -0.6092
    6MPD2    C5   88   1.484   1.267  10.949  0.0884 -0.2514 -0.1764
    6MPD2     H   89   1.818   1.276  11.144 -0.3285 -0.4316 -0.7390
    6MPD2    H1   90   1.572   1.126  10.830  0.6692  1.2967 -1.7429
    6MPD2    H2   91   1.408   1.405  11.086  0.3562  1.0497  1.7068
    6MPD2    H3   92   1.389   1.251  10.898 -0.2906 -0.3842  0.5799
    6MPD2     N   93   1.818   1.103  10.950 -0.3039  0.2594 -0.3771
    6MPD2    H5   94   1.903   1.107  11.005  0.4362 -0.8916 -1.4313
    6MPD2    N1   95   1.615   1.441  11.248 -0.4909  0.0748 -0.3424
    6MPD2    H7   96   1.530   1.493  11.265 -0.1101  0.1748  1.2996
    7TCq1    O1   97   2.977   0.106  13.179  0.0992  0.0037  0.9446
    7TCq1    C1   98   3.039   0.046  13.277  0.3230  0.4697  0.0511
    7TCq1    O2   99   2.990   4.681  13.350 -0.0066  0.5366  0.1074
    7TCq1    C2  100   3.175   0.081  13.274  0.4803  0.7656 -0.1010
    7TCq1    C3  101   3.224   0.174  13.186 -0.1621 -0.1406  0.0150
    7TCq1    C4  102   3.357   0.189  13.154 -0.6250  0.3389 -0.5782
    7TCq1    C5  103   3.447   0.104  13.211 -0.3799 -0.1398  0.6155
    7TCq1    C6  104   3.402   0.006  13.299 -0.7344 -0.4012  0.3814
    7TCq1    C7  105   3.270   4.713  13.327 -0.1027  0.0454  0.1729
    7TCq1    C8  106   3.500   4.658  13.385 -0.1922  1.0653 -0.0414
    7TCq1    O4  107   3.458   4.559  13.448 -0.1920  0.1756  0.2741
    7TCq1    C9  108   3.400   0.286  13.060  0.1512  0.0263 -0.2983
    7TCq1    O5  109   3.307   0.369  13.025  0.3724  0.5727  0.8344
    7TCq1    O6  110   3.518   0.287  13.022 -0.3998 -0.2803  0.0124
    7TCq1    H1  111   3.039   0.129  13.107 -1.1317 -2.7051 -0.9966
    7TCq1    H2  112   3.151   0.243  13.146 -1.1921 -2.0013 -1.3252
    7TCq1    H3  113   3.553   0.124  13.201 -0.0936 -1.7121  0.5253
    7TCq1    H4  114   3.248   4.632  13.396 -1.7907  1.0752  0.8503
    8MPD2     C  115   3.953   4.620  13.623 -0.4822  0.4676  0.0209
    8MPD2    C1  116   3.866   4.523  13.580  0.1898 -0.7647 -0.0430
    8MPD2    C2  117   3.749   4.555  13.510 -0.2708  1.8000  0.0662
    8MPD2    C3  118   3.732   4.682  13.458 -0.6378  0.6885  0.5262
    8MPD2    C4  119   3.821   0.060  13.495  0.2541  0.1670  0.0336
    8MPD2    C5  120   3.929   0.028  13.577 -0.3929 -0.2107  0.4071
    8MPD2     H  121   3.675   4.479  13.488  0.5097  1.3166 -0.8631
    8MPD2    H1  122   3.809   0.163  13.464 -0.0682  0.4926  1.2359
    8MPD2    H2  123   4.041   4.606  13.685  0.0931  0.0052 -0.9153
    8MPD2    H3  124   4.002   0.104  13.605  0.7472 -1.2316  0.1718
    8MPD2     N  125   3.619   0.005  13.385 -0.2289 -0.2216  0.5024
    8MPD2    H5  126   3.620   0.105  13.365 -1.6572 -0.6011 -1.4774
    8MPD2    N1  127   3.901   4.391  13.617  0.1191 -0.0297  0.4178
    8MPD2    H7  128   3.981   4.379  13.677 -0.0818 -1.9658  0.3120
    9TCq1    O1  129   2.670   3.564  10.661 -0.1001 -0.1301 -0.3765
    9TCq1    C1  130   2.636   3.493  10.769 -0.3622 -0.1452  0.5814
    9TCq1    O2  131   2.692   3.392  10.807 -0.2059  0.1821 -0.0086
    9TCq1    C2  132   2.546   3.577  10.841  0.1723 -0.2608  0.5833
    9TCq1    C3  133   2.437   3.600  10.770 -0.6530  0.0433  0.0775
    9TCq1    C4  134   2.337   3.671  10.830  0.2923  0.1404 -0.6068
    9TCq1    C5  135   2.339   3.698  10.964 -0.6828 -0.8150 -0.4493
    9TCq1    C6  136   2.454   3.675  11.027 -0.2563  0.3277  0.5349
    9TCq1    C7  137   2.559   3.617  10.971 -0.4277 -0.3576 -0.4090
    9TCq1    C8  138   2.471   3.722  11.162  0.7094  0.2781  0.2427
    9TCq1    O4  139   2.553   3.675  11.239  0.2419  0.5342  0.0947
    9TCq1    C9  140   2.225   3.706  10.755  0.1863 -0.0586 -0.0565
    9TCq1    O5  141   2.123   3.728  10.826 -0.2673 -0.2685  0.1095
    9TCq1    O6  142   2.232   3.709  10.630 -0.5484 -0.5993  0.1919
    9TCq1    H1  143   2.642   3.658  10.668  0.7668  0.0328  0.8089
    9TCq1    H2  144   2.436   3.554  10.672  1.8634 -0.2812  0.2039
    9TCq1    H3  145   2.256   3.754  11.005  0.6210  0.0087  1.0801
    9TCq1    H4  146   2.646   3.585  11.027 -0.7643  0.7662  0.7476
   10MPD2     C  147   2.315   4.018  11.321  0.7098  0.2225 -0.4436
   10MPD2    C1  148   2.368   3.891  11.307 -0.0115 -0.8193 -0.4441
   10MPD2    C2  149   2.382   3.812  11.422  0.3343 -0.1842  1.0432
   10MPD2    C3  150   2.333   3.854  11.547 -0.7289  0.0806 -0.0509
   10MPD2    C4  151   2.292   3.990  11.553 -0.6734 -0.5445  0.0483
   10MPD2    C5  152   2.283   4.068  11.441  0.6060 -0.0119  0.5030
   10MPD2     H  153   2.429   3.714  11.421  0.7414  0.0413 -1.1621
   10MPD2    H1  154   2.285   4.036  11.651 -1.5031  0.2498 -0.3806
   10MPD2    H2  155   2.310   4.092  11.242 -0.5614  1.1790  0.5404
   10MPD2    H3  156   2.249   4.169  11.461  2.4744  0.8569 -0.6795
   10MPD2     N  157   2.348   3.781  11.661 -0.1099 -0.1851 -0.6276
   10MPD2    H5  158   2.344   3.833  11.748  1.8843 -1.6193  0.3485
   10MPD2    N1  159   2.406   3.838  11.185  1.0648 -0.0471 -0.4676
   10MPD2    H7  160   2.377   3.894  11.106  1.8926  0.7018 -0.2458
   11TCq1    O1  161   3.528   3.448  14.279  0.0744  0.0090  0.3335
   11TCq1    C1  162   3.453   3.547  14.224 -0.6014  0.0934  0.1475
   11TCq1    O2  163   3.417   3.546  14.106  0.3941  0.1732  0.6987
   11TCq1    C2  164   3.384   3.617  14.339 -0.2119 -0.0662 -0.0774
   11TCq1    C3  165   3.466   3.673  14.433 -0.1412 -0.2470 -0.1653
   11TCq1    C4  166   3.403   3.734  14.534 -0.0137 -0.4277  0.2971
   11TCq1    C5  167   3.269   3.729  14.548 -0.4826 -0.5723 -0.1255
   11TCq1    C6  168   3.194   3.656  14.461  0.1873 -0.1586  0.2164
   11TCq1    C7  169   3.251   3.611  14.341  0.1649  0.1693 -0.4466
   11TCq1    C8  170   3.049   3.664  14.480  0.3423 -0.1013 -1.1877
   11TCq1    O4  171   3.007   3.720  14.579  0.5155 -0.2692  0.1586
   11TCq1    C9  172   3.479   3.808  14.630  0.3470  0.0098 -0.3890
   11TCq1    O5  173   3.416   3.870  14.719 -0.1220 -0.2804  0.3756
   11TCq1    O6  174   3.607   3.812  14.613  0.1940  0.2545 -0.4282
   11TCq1    H1  175   3.527   3.457  14.377 -1.2131  0.4476  0.2720
   11TCq1    H2  176   3.574   3.675  14.420 -0.4074 -0.5248 -2.4078
   11TCq1    H3  177   3.222   3.756  14.642 -2.3259 -0.9109 -0.9538
   11TCq1    H4  178   3.202   3.559  14.259 -0.0303  0.7365 -0.6921
   12MPD2     C  179   2.762   3.584  14.463  0.0939 -0.2358  0.1583
   12MPD2    C1  180   2.856   3.549  14.374 -0.6189 -0.2840  0.5665
   12MPD2    C2  181   2.834   3.473  14.260 -0.0685 -0.4258 -0.5948
   12MPD2    C3  182   2.711   3.427  14.232  0.0192  0.0890 -0.2555
   12MPD2    C4  183   2.608   3.464  14.321 -0.0637 -0.0004 -0.4925
   12MPD2    C5  184   2.629   3.545  14.434 -0.3548 -0.0256  0.7182
   12MPD2     H  185   2.906   3.445  14.184  1.6377  0.2900  0.7743
   12MPD2    H1  186   2.506   3.431  14.311  0.0387 -0.9104  1.5863
   12MPD2    H2  187   2.789   3.639  14.553  0.5724 -1.4109  0.7367
   12MPD2    H3  188   2.549   3.566  14.504 -1.4456  1.6064 -1.0236
   12MPD2     N  189   2.677   3.345  14.117 -0.7647 -0.3283 -0.0078
   12MPD2    H5  190   2.582   3.338  14.084 -0.6631 -0.3829 -0.2885
   12MPD2    N1  191   2.985   3.584  14.383 -0.2952  0.4013  0.5537
   12MPD2    H7  192   3.038   3.546  14.305 -1.1843  0.2918  0.0056
   13TCq1    O1  193   3.104   2.864  11.225 -0.2416  0.1157  0.4364
   13TCq1    C1  194   2.973   2.865  11.253  0.4653  0.5955 -0.2789
   13TCq1    O2  195   2.894   2.772  11.242 -0.4082  0.1352  0.3915
   13TCq1    C2  196   2.958   2.974  11.348  1.0119  0.7338  0.2552
   13TCq1    C3  197   3.068   3.015  11.415  0.6291 -0.1690  0.4645
   13TCq1    C4  198   3.069   3.136  11.475  1.1396 -0.1100  1.1945
   13TCq1    C5  199   2.958   3.214  11.480 -0.3217  0.2013 -0.6966
   13TCq1    C6  200   2.846   3.170  11.421 -0.2969 -0.6770  0.2562
   13TCq1    C7  201   2.844   3.053  11.349 -0.5565 -0.3052 -0.2871
   13TCq1    C8  202   2.724   3.254  11.414  0.2895 -0.9771  0.3663
   13TCq1    O4  203   2.696   3.332  11.505  0.1630 -0.2524  0.1356
   13TCq1    C9  204   3.193   3.184  11.524 -0.0825 -0.0725  0.1081
   13TCq1    O5  205   3.203   3.312  11.532  0.4656 -0.2765 -0.4640
   13TCq1    O6  206   3.292   3.108  11.505  0.1706 -0.2893 -0.1962
   13TCq1    H1  207   3.152   2.950  11.222  1.2689 -0.8298 -2.9427
   13TCq1    H2  208   3.158   2.954  11.420  1.0256  0.2793 -1.4536
   13TCq1    H3  209   2.967   3.298  11.548  1.4467  1.2194 -2.1954
   13TCq1    H4  210   2.752   3.010  11.311 -1.4305  0.3683  1.0637
   14MPD2     C  211   2.539   3.302  11.098 -0.3606 -1.1629 -0.1740
   14MPD2    C1  212   2.557   3.301  11.233  0.6999 -0.4137 -0.7443
   14MPD2    C2  213   2.456   3.366  11.308 -0.5974 -0.5201 -0.1435
   14MPD2    C3  214   2.338   3.416  11.253  0.8869  0.2603  0.1270
   14MPD2    C4  215   2.321   3.393  11.116 -0.6991 -0.2319 -0.3352
   14MPD2    C5  216   2.421   3.341  11.042  0.2456 -0.2431 -1.0649
   14MPD2     H  217   2.469   3.368  11.415 -0.3547  0.2203 -0.1868
   14MPD2    H1  218   2.235   3.437  11.066  0.3058  1.0868 -0.9172
   14MPD2    H2  219   2.611   3.263  11.026 -0.5262  0.6234 -1.3019
   14MPD2    H3  220   2.420   3.356  10.935 -1.6050  0.6414 -0.9165
   14MPD2     N  221   2.245   3.483  11.333 -0.3132  0.3917  0.6367
   14MPD2    H5  222   2.261   3.498  11.432  0.9135  0.1105  0.4785
   14MPD2    N1  223   2.680   3.245  11.282 -0.4690  0.3146  0.8607
   14MPD2    H7  224   2.749   3.208  11.217  0.2659  0.7775  1.3752
   15TCq1    O1  225   3.159   2.948   3.296 -0.3037 -0.4540  0.1202
   15TCq1    C1  226   3.137   2.917   3.162 -0.6272 -0.1345 -0.0941
   15TCq1    O2  227   3.039   2.863   3.117 -0.3785  0.2787  0.0513
   15TCq1    C2  228   3.261   2.918   3.084  0.2318 -0.8085  0.8958
   15TCq1    C3  229   3.389   2.931   3.146  0.7590 -0.0256 -0.3109
   15TCq1    C4  230   3.495   2.890   3.069  0.2287  0.0331  1.5952
   15TCq1    C5  231   3.487   2.834   2.948 -0.1563 -0.2832  0.3121
   15TCq1    C6  232   3.361   2.817   2.894  0.3110  0.1365  0.0239
   15TCq1    C7  233   3.250   2.851   2.963  0.0880  0.0968 -0.3138
   15TCq1    C8  234   3.359   2.764   2.757  0.6788  0.0955 -0.4663
   15TCq1    O4  235   3.458   2.697   2.721 -0.3686 -0.2293  0.1447
   15TCq1    C9  236   3.629   2.899   3.123  0.3391 -0.6144  0.5856
   15TCq1    O5  237   3.654   2.996   3.192  0.1142  0.0005 -0.2772
   15TCq1    O6  238   3.715   2.808   3.096  0.5294 -0.1880  0.3786
   15TCq1    H1  239   3.240   3.003   3.308  0.0163 -0.8939 -0.0411
   15TCq1    H2  240   3.400   2.961   3.250 -0.0652  2.2953 -0.8956
   15TCq1    H3  241   3.580   2.798   2.905  0.9572  2.2462  0.6171
   15TCq1    H4  242   3.161   2.827   2.907  0.3163  0.4376 -0.8223
   16MPD2     C  243   3.114   2.864   2.507  0.5399 -0.1974 -0.1552
   16MPD2    C1  244   3.218   2.793   2.552 -0.6222 -0.0237 -0.0861
   16MPD2    C2  245   3.298   2.709   2.466 -0.3803 -0.2599 -0.0015
   16MPD2    C3  246   3.272   2.715   2.328 -0.1489 -1.0357 -0.3414
   16MPD2    C4  247   3.160   2.784   2.285  0.0612 -0.4739 -0.2745
   16MPD2    C5  248   3.086   2.859   2.370  0.7012  0.1525  0.3430
   16MPD2     H  249   3.379   2.648   2.504  0.3379 -0.4406 -1.8310
   16MPD2    H1  250   3.131   2.771   2.181 -1.1727  0.0954 -0.0070
   16MPD2    H2  251   3.047   2.911   2.578 -0.5720 -1.3337 -0.4605
   16MPD2    H3  252   2.998   2.904   2.326  1.7514  2.8310  0.9533
   16MPD2     N  253   3.357   2.641   2.242 -0.2470  0.4667  0.3125
   16MPD2    H5  254   3.436   2.594   2.284 -1.1944 -0.8737  0.5820
   16MPD2    N1  255   3.255   2.810   2.688 -0.1730 -0.1153 -0.6328
   16MPD2    H7  256   3.203   2.884   2.736  0.7137 -1.2104  2.0225
   17TCq1    O1  257   2.350   2.123   9.834 -0.3226  0.2532 -0.5238
   17TCq1    C1  258   2.258   2.217   9.865  0.1481  0.6844 -0.1749
   17TCq1    O2  259   2.143   2.226   9.822  0.0473  0.5961 -0.4375
   17TCq1    C2  260   2.335   2.342   9.868 -0.2441 -0.7275 -0.8741
   17TCq1    C3  261   2.436   2.355   9.778 -0.2280  0.7775  0.4242
   17TCq1    C4  262   2.520   2.464   9.803  0.0884  0.1603 -0.1144
   17TCq1    C5  263   2.507   2.547   9.914 -0.4621 -0.1753  0.0870
   17TCq1    C6  264   2.392   2.531   9.992  0.6322  0.6526  0.1238
   17TCq1    C7  265   2.298   2.439   9.959  0.1095 -0.2578 -0.1671
   17TCq1    C8  266   2.390   2.588  10.124 -0.2540  0.6709  0.4149
   17TCq1    O4  267   2.299   2.552  10.193 -0.2400  0.3826 -0.1891
   17TCq1    C9  268   2.640   2.491   9.717  0.7410 -0.0817  0.0157
   17TCq1    O5  269   2.674   2.405   9.633 -0.4742  0.4541 -0.0548
   17TCq1    O6  270   2.695   2.600   9.734 -0.2507 -0.3018 -0.1382
   17TCq1    H1  271   2.434   2.153   9.875 -1.5695  1.4342  1.1915
   17TCq1    H2  272   2.451   2.309   9.681 -1.2624 -1.7710  1.4870
   17TCq1    H3  273   2.576   2.630   9.925 -0.5260  0.2209 -2.4067
   17TCq1    H4  274   2.208   2.425  10.018 -2.1024  4.0089 -2.5303
   18MPD2     C  275   2.432   2.692  10.395 -0.2070 -0.4637  0.3622
   18MPD2    C1  276   2.534   2.677  10.300 -0.1015 -0.6996 -0.3750
   18MPD2    C2  277   2.671   2.699  10.330  0.6323 -0.6349 -0.6284
   18MPD2    C3  278   2.704   2.741  10.458 -0.0638 -0.3475  0.3229
   18MPD2    C4  279   2.599   2.776  10.546  0.3175  0.2323 -0.8440
   18MPD2    C5  280   2.470   2.759  10.516 -0.4152  0.5081  0.5655
   18MPD2     H  281   2.747   2.680  10.256  0.9910 -2.1315  0.1339
   18MPD2    H1  282   2.638   2.795  10.646 -1.9791 -2.1015  0.4812
   18MPD2    H2  283   2.326   2.680  10.379 -0.3084  0.9219  0.0210
   18MPD2    H3  284   2.392   2.783  10.587 -0.1653  3.7217 -0.2504
   18MPD2     N  285   2.838   2.762  10.501 -0.5343 -0.6012  0.6041
   18MPD2    H5  286   2.846   2.815  10.587 -0.1993 -1.5006  1.1267
   18MPD2    N1  287   2.512   2.631  10.167 -0.7140  0.1518  0.7791
   18MPD2    H7  288   2.588   2.632  10.100 -1.6547  1.5906 -0.2671
   19TMC2    C1  289   3.916   3.091  13.968  0.0750  0.5630  0.3162
   19TMC2    C2  290   3.860   3.167  13.870  0.0131 -0.0959 -0.1006
   19TMC2    C3  291   3.740   3.138  13.821  0.3411  0.2615 -0.0753
   19TMC2    C4  292   3.847   2.986  14.017  0.3999  0.6010  0.0947
   19TMC2    C5  293   3.719   2.969  13.974  0.7540  0.0055  0.7786
   19TMC2    C6  294   3.658   3.040  13.875 -0.7850  0.2327  0.0080
   19TMC2     C  295   4.061   3.100  13.974  0.3572  1.2342  0.5509
   19TMC2     O  296   4.115   3.140  13.873  0.0234  0.3340 -0.1386
   19TMC2     H  297   3.918   3.247  13.825 -2.0374  0.1708 -2.2705
   19TMC2    H1  298   3.888   2.914  14.086  0.4760  0.0004 -0.5723
   19TMC2    H2  299   3.561   3.018  13.832  0.1349 -0.2547 -1.8115
   19TMC2    C7  300   3.636   2.909  14.077  0.2127  0.1234  1.3868
   19TMC2    C8  301   3.687   3.229  13.719 -0.3508  0.2105 -0.1509
   19TMC2    O1  302   3.680   2.921  14.192  0.3223  0.5591 -0.7096
   19TMC2    O2  303   3.720   3.229  13.605  0.1707 -0.1517 -0.1042
   19TMC2    O5  304   3.646   3.336  13.785  0.0746  0.2764  0.1986
   19TMC2    H5  305   3.635   3.332  13.882 -0.1795 -0.3952  0.1400
   20MPD2     C  306   4.326   3.159  14.062  0.7315 -0.0030  0.4542
   20MPD2    C1  307   4.250   3.066  14.127 -0.2980  0.5332  0.9161
   20MPD2    C2  308   4.292   3.003  14.234 -0.3705  0.3547  0.1318
   20MPD2    C3  309   4.408   3.043  14.294  0.1332  0.0303 -1.0676
   20MPD2    C4  310   4.472   3.151  14.247  0.2368  0.1318  0.3228
   20MPD2    C5  311   4.430   3.207  14.128 -0.9314 -0.2929 -0.0769
   20MPD2     H  312   4.239   2.916  14.271  1.6151 -0.3759  1.3237
   20MPD2    H1  313   4.554   3.193  14.304  2.0504 -0.2559 -2.0106
   20MPD2    H2  314   4.302   3.213  13.971 -0.2390 -3.1083 -1.1331
   20MPD2    H3  315   4.470   3.300  14.089 -0.6774  0.2660  1.5218
   20MPD2     N  316   4.452   2.986  14.414 -0.2435 -0.1464 -0.2331
   20MPD2    H5  317   4.537   3.026  14.454 -0.4042 -0.9168  0.8572
   20MPD2    N1  318   4.113   3.044  14.089  0.3298  0.3190  0.6355
   20MPD2    H7  319   4.045   2.988  14.138 -0.6901  1.1355  0.1555
   21MPD2     C  320   1.234   3.714  14.161  0.0466  0.0310  0.1097
   21MPD2    C1  321   1.296   3.636  14.261  0.2829  0.2318 -1.3626
   21MPD2    C2  322   1.228   3.615  14.384  0.2026 -0.1047 -0.2553
   21MPD2    C3  323   1.105   3.675  14.404 -1.0305  0.2131 -0.0206
   21MPD2    C4  324   1.053   3.758  14.309  0.0287  1.2556  1.0310
   21MPD2    C5  325   1.111   3.767  14.189  0.7345 -0.1403  0.3247
   21MPD2     H  326   1.275   3.552  14.459 -1.6111 -0.7639  0.3462
   21MPD2    H1  327   0.960   3.806  14.337 -0.7706  0.0077  0.5345
   21MPD2    H2  328   1.275   3.716  14.061 -0.5678  1.0224 -0.1279
   21MPD2    H3  329   1.077   3.828  14.107  1.0234  2.2663  2.0036
   21MPD2     N  330   1.029   3.661  14.523 -0.0577  0.0413  0.2232
   21MPD2    H5  331   0.941   3.711  14.530  1.0217  2.4558 -3.1012
   21MPD2    N1  332   1.423   3.578  14.247  0.6784  0.2522  0.4406
   21MPD2    H7  333   1.453   3.506  14.312  1.1628  1.5361  1.6296
   22TCq2    C1  334   1.047   3.575  14.627  0.0215 -0.5832 -0.0769
   22TCq2    O2  335   1.141   3.498  14.652 -0.4699 -0.1055  0.4999
   22TCq2    C2  336   0.942   3.597  14.733 -0.3943 -0.2794  0.6875
   22TCq2    C3  337   0.923   3.504  14.830 -0.2690 -0.3039 -0.0831
   22TCq2    C4  338   0.835   3.521  14.935  0.0499 -0.6052  0.1390
   22TCq2    C5  339   0.778   3.644  14.951  0.7495 -0.2723 -0.6566
   22TCq2    C6  340   0.804   3.737  14.855 -0.5898 -0.1466 -0.9836
   22TCq2    C7  341   0.889   3.721  14.753  0.2996 -0.2281  0.6333
   22TCq2    C8  342   0.745   3.867  14.881 -0.0917 -0.2995  0.0864
   22TCq2    O4  343   0.734   3.889  14.999 -0.7929 -0.0794 -0.2571
   22TCq2    C9  344   0.817   3.426  15.036  0.7515 -0.3986  0.2292
   22TCq2    O5  345   0.742   3.458  15.132 -0.2281  0.1405 -0.0251
   22TCq2    O6  346   0.888   3.326  15.026  0.4915 -0.0290  0.3575
   22TCq2    H2  347   0.979   3.411  14.830  1.7496  0.8975  0.4452
   22TCq2    H3  348   0.708   3.664  15.032  1.9251 -0.6130  0.4415
   22TCq2    H4  349   0.915   3.812  14.701  1.3130 -1.5414 -1.1459
   23MPD2     C  350   2.887   4.433  14.797  0.5548 -0.1372 -0.3106
   23MPD2    C1  351   2.779   4.407  14.874  0.1346 -0.3644  0.0168
   23MPD2    C2  352   2.665   4.482  14.859  0.0708 -0.3325 -0.5462
   23MPD2    C3  353   2.656   4.560  14.748 -0.7612  0.1033  0.2103
   23MPD2    C4  354   2.765   4.582  14.667  0.3563  0.7290 -0.3391
   23MPD2    C5  355   2.884   4.532  14.703  0.1918  0.6457  0.0434
   23MPD2     H  356   2.578   4.458  14.920  0.9805  0.2855  1.0022
   23MPD2    H1  357   2.756   4.641  14.577  2.5001  1.4090 -0.0903
   23MPD2    H2  358   2.986   4.391  14.813  0.0236 -1.6698 -1.0833
   23MPD2    H3  359   2.975   4.562  14.653  0.9628 -0.4419  0.8166
   23MPD2     N  360   2.536   4.627  14.702 -0.2012  0.2876  0.7251
   23MPD2    H5  361   2.545   4.687  14.621  1.3838 -1.6458 -0.5453
   23MPD2    N1  362   2.783   4.322  14.987 -0.3662 -0.0337 -0.0477
   23MPD2    H7  363   2.718   4.347  15.060 -0.2102  0.4509 -0.0684
   24TCq2    C1  364   2.413   4.603  14.744  0.9450  0.5566 -1.1752
   24TCq2    O2  365   2.366   4.511  14.807  0.1262  0.4270  0.5657
   24TCq2    C2  366   2.319   4.673  14.668  0.2711  0.1054 -0.2227
   24TCq2    C3  367   2.329   0.090  14.650 -1.1399  0.3744  0.0528
   24TCq2    C4  368   2.245   0.142  14.560  0.7392 -0.2799  0.5535
   24TCq2    C5  369   2.148   0.069  14.499 -0.1002 -0.3429  0.2311
   24TCq2    C6  370   2.152   4.658  14.518  0.0362  0.0745  0.7088
   24TCq2    C7  371   2.234   4.587  14.603 -0.4639  0.2731 -0.7509
   24TCq2    C8  372   2.078   4.573  14.422  0.1168 -0.1075 -0.0078
   24TCq2    O4  373   2.114   4.457  14.412  0.6765  0.1180  0.7891
   24TCq2    C9  374   2.250   0.289  14.538  0.0874 -0.2612 -0.1167
   24TCq2    O5  375   2.317   0.357  14.621 -0.0417 -0.3792 -0.1503
   24TCq2    O6  376   2.158   0.335  14.464  0.4236  0.5893 -0.1541
   24TCq2    H2  377   2.402   0.153  14.700 -1.7627  0.6739  0.5823
   24TCq2    H3  378   2.088   0.116  14.421 -1.5128  1.6058  2.5097
   24TCq2    H4  379   2.243   4.480  14.616 -0.6036  0.4008  0.4143
   25TMC2    C1  380   1.793   2.140  11.343  0.5633 -0.3757  0.2144
   25TMC2    C2  381   1.926   2.137  11.333 -0.7465  0.6105  0.2916
   25TMC2    C3  382   1.999   2.134  11.453 -0.3892  0.5689 -0.0734
   25TMC2    C4  383   1.721   2.143  11.460 -0.0884  0.2413 -0.0422
   25TMC2    C5  384   1.800   2.123  11.572  0.1730  0.0752  0.4292
   25TMC2    C6  385   1.933   2.106  11.567  0.7879 -0.7902  0.3408
   25TMC2     C  386   1.721   2.136  11.219 -0.2183 -0.2058  0.4211
   25TMC2     O  387   1.613   2.085  11.227  0.3582  0.4371  0.2050
   25TMC2     H  388   1.987   2.150  11.244 -0.1448  2.5464  0.9849
   25TMC2    H1  389   1.613   2.138  11.461 -0.0515 -0.0535  2.1329
   25TMC2    H2  390   1.981   2.106  11.664  0.4990  3.0233  0.4932
   25TMC2    C7  391   1.757   2.181  11.697 -0.4657 -0.4937 -0.0856
   25TMC2    C8  392   2.136   2.075  11.442 -0.2377  0.3380 -0.4890
   25TMC2    O1  393   1.715   2.097  11.778 -0.0711 -0.4088  0.4290
   25TMC2    O2  394   2.224   2.115  11.367  0.2631  0.0961  0.7659
   25TMC2    O5  395   2.139   1.976  11.525  0.5258 -0.3248  0.1804
   25TMC2    H5  396   2.059   1.948  11.574  1.2272  0.5083  1.8309
   26MPD2     C  397   1.673   2.161  10.700 -0.5000  0.3093  0.6282
   26MPD2    C1  398   1.613   2.080  10.791 -0.3275  0.1222 -0.3792
   26MPD2    C2  399   1.649   2.082  10.928  0.2609  0.0588  0.0601
   26MPD2    C3  400   1.749   2.165  10.964  0.2410  0.3807 -0.1339
   26MPD2    C4  401   1.810   2.239  10.873  0.4868 -0.4707  0.2471
   26MPD2    C5  402   1.767   2.242  10.742  0.6170  0.5568  0.3940
   26MPD2     H  403   1.608   2.022  11.009  2.1819 -2.6289 -0.9622
   26MPD2    H1  404   1.895   2.303  10.895 -0.3943  0.2858  1.4878
   26MPD2    H2  405   1.639   2.165  10.597  0.2037 -0.8141  0.3598
   26MPD2    H3  406   1.825   2.307  10.677 -0.2102  0.8549 -0.0454
   26MPD2     N  407   1.793   2.176  11.105 -0.2378  0.0226  0.3806
   26MPD2    H5  408   1.875   2.234  11.120 -0.2009  0.1609 -0.3836
   26MPD2    N1  409   1.525   1.987  10.732  0.4428 -0.1116  0.1280
   26MPD2    H7  410   1.524   1.982  10.630 -0.9558  0.1889  0.1231
   27TMC2    C1  411   0.375   4.004  11.841 -0.1675  0.3127  0.3026
   27TMC2    C2  412   0.502   4.069  11.824  0.3080  0.5634  0.1839
   27TMC2    C3  413   0.509   4.207  11.822 -0.7114 -0.3860  0.1889
   27TMC2    C4  414   0.270   4.086  11.868  0.4759 -0.8664  0.4657
   27TMC2    C5  415   0.286   4.223  11.882  0.3427 -0.3406 -0.1504
   27TMC2    C6  416   0.398   4.287  11.846  0.2935 -0.3221  0.8530
   27TMC2     C  417   0.391   3.900  11.942 -0.1531  0.7611 -0.5549
   27TMC2     O  418   0.489   3.827  11.934 -0.1668  0.3525  0.1610
   27TMC2     H  419   0.587   4.001  11.817 -0.3970 -0.2440 -0.6633
   27TMC2    H1  420   0.169   4.046  11.870  0.4278 -0.8089 -0.6701
   27TMC2    H2  421   0.413   4.394  11.836 -1.4206  0.0021  1.6511
   27TMC2    C7  422   0.205   4.278  11.989  0.3604 -0.6277  0.0146
   27TMC2    C8  423   0.616   4.277  11.761 -0.2881 -0.2283 -0.2173
   27TMC2    O1  424   0.169   4.187  12.061  0.1473  0.0935 -0.0013
   27TMC2    O2  425   0.599   4.375  11.695 -0.1892  0.2501  0.2170
   27TMC2    O5  426   0.711   4.187  11.726  0.3322  0.1796 -0.2333
   27TMC2    H5  427   0.738   4.134  11.804 -2.0282 -2.7786 -1.4323
   28MPD2     C  428   0.249   3.735  12.409  0.2850  1.0641 -0.6261
   28MPD2    C1  429   0.195   3.859  12.396 -0.3936  0.8913  0.4517
   28MPD2    C2  430   0.216   3.920  12.272  0.6378 -0.1864 -0.0145
   28MPD2    C3  431   0.289   3.867  12.170  1.0264  0.3777 -0.1108
   28MPD2    C4  432   0.340   3.741  12.188  0.3158  0.2050  0.0184
   28MPD2    C5  433   0.321   3.682  12.307  0.2943  0.5615  0.2588
   28MPD2     H  434   0.169   4.015  12.247  0.9187 -0.1322 -0.3316
   28MPD2    H1  435   0.394   3.691  12.108 -1.1302 -0.2499 -0.6874
   28MPD2    H2  436   0.233   3.673  12.497  1.8690 -2.6173 -2.9236
   28MPD2    H3  437   0.370   3.585  12.315 -0.9739 -0.4501 -4.4913
   28MPD2     N  438   0.314   3.933  12.048  0.0019 -0.3257 -0.7285
   28MPD2    H5  439   0.267   4.022  12.040  2.4032  1.1378  1.5176
   28MPD2    N1  440   0.104   3.896  12.492 -0.9583  0.2718 -0.3294
   28MPD2    H7  441   0.077   3.829  12.563 -0.4474  3.3977  2.8018
   29MPD2     C  442   4.335   1.762  14.103  0.5228 -0.5622 -0.1382
   29MPD2    C1  443   4.378   1.702  14.224  0.6133  0.0513  0.2495
   29MPD2    C2  444   4.375   1.779  14.340 -0.3684  0.4001 -0.2920
   29MPD2    C3  445   4.341   1.916  14.336  0.1959  0.5193  0.0092
   29MPD2    C4  446   4.298   1.961  14.218  0.2852 -0.1977 -0.1539
   29MPD2    C5  447   4.288   1.887  14.102  0.1695  0.9843  0.9576
   29MPD2     H  448   4.410   1.730  14.430 -0.4706  1.5474  0.3758
   29MPD2    H1  449   4.280   2.067  14.204 -2.8965 -0.6796  0.4575
   29MPD2    H2  450   4.317   1.698  14.018 -2.5523  1.5553 -1.0830
   29MPD2    H3  451   4.269   1.923  14.002 -2.1033 -0.1698  0.9858
   29MPD2     N  452   4.370   2.011  14.434  0.1695 -0.1084 -0.4807
   29MPD2    H5  453   4.360   2.110  14.414  1.1314  0.0845 -0.0386
   29MPD2    N1  454   4.406   1.562  14.242 -0.3546  0.3738  0.2925
   29MPD2    H7  455   4.423   1.540  14.339  1.3716 -0.4319 -0.2047
   30TCq2    C1  456   4.401   1.987  14.565  0.2403  0.7995 -0.5496
   30TCq2    O2  457   4.383   1.887  14.634  0.2609  0.5838 -1.0160
   30TCq2    C2  458   4.449   2.106  14.639  0.1326  0.0504  0.7020
   30TCq2    C3  459   4.466   2.112  14.777  0.4896  0.3767  0.3921
   30TCq2    C4  460   4.535   2.214  14.835  0.5529 -0.3284  0.2779
   30TCq2    C5  461   4.594   2.310  14.758 -0.4521  0.3987  0.7786
   30TCq2    C6  462   4.566   2.310  14.626 -0.0021  0.4847 -0.1394
   30TCq2    C7  463   4.486   2.213  14.565  0.2224  0.6406  0.1262
   30TCq2    C8  464   4.579   2.443  14.554 -0.2983 -0.0457  0.1425
   30TCq2    O4  465   4.492   2.465  14.469  0.6648  0.4703  0.1963
   30TCq2    C9  466   4.534   2.216  14.985 -0.1103 -0.5570  0.2207
   30TCq2    O5  467   4.593   2.318  15.032 -0.3901  0.2791 -0.1417
   30TCq2    O6  468   4.473   2.134  15.057 -0.1020 -0.2006 -0.2345
   30TCq2    H2  469   4.433   2.028  14.837 -0.7136  0.1337 -0.6214
   30TCq2    H3  470   4.643   2.391  14.812 -1.6279  2.5953 -1.4099
   30TCq2    H4  471   4.472   2.222  14.458 -1.5450 -0.0489  0.2875
   31MPD2     C  472   2.727   0.311  14.754  0.6969 -0.3293  0.0898
   31MPD2    C1  473   2.620   0.367  14.822 -0.2483 -0.2578  0.4296
   31MPD2    C2  474   2.568   0.310  14.937 -0.0912  1.0198  0.3571
   31MPD2    C3  475   2.615   0.180  14.972 -0.8647  0.9079 -0.1162
   31MPD2    C4  476   2.722   0.121  14.899  0.5685 -0.3073 -0.1304
   31MPD2    C5  477   2.779   0.190  14.796 -0.2388 -0.3023 -0.0178
   31MPD2     H  478   2.487   0.357  14.992  0.0085  1.3931  0.1827
   31MPD2    H1  479   2.764   0.029  14.940 -2.0409 -0.8807  1.2688
   31MPD2    H2  480   2.784   0.363  14.678  2.9099 -1.1116  1.2082
   31MPD2    H3  481   2.857   0.139  14.740  0.6730 -1.4980  2.3187
   31MPD2     N  482   2.568   0.099  15.076 -0.8871 -0.0892  0.1674
   31MPD2    H5  483   2.613   0.008  15.087 -0.9213 -0.5353 -3.3929
   31MPD2    N1  484   2.564   0.492  14.779 -0.0060  0.8181  0.1148
   31MPD2    H7  485   2.482   0.529  14.827  0.6921 -1.8533  3.4172
   32TCq2    C1  486   2.486   0.131  15.178  0.6086  0.0081 -0.2091
   32TCq2    O2  487   2.423   0.232  15.208 -0.1602  0.1177 -0.0136
   32TCq2    C2  488   2.481   0.024  15.272  0.3360 -0.2097  0.0226
   32TCq2    C3  489   2.530   4.619  15.243  0.1732  0.0462 -0.2145
   32TCq2    C4  490   2.527   4.525  15.338 -0.1200 -0.0176 -0.0447
   32TCq2    C5  491   2.479   4.550  15.467 -1.0284  0.5665  0.1971
   32TCq2    C6  492   2.425   4.673  15.499  0.0121 -0.9668  0.5082
   32TCq2    C7  493   2.427   0.056  15.400 -0.1234  0.0976 -0.1586
   32TCq2    C8  494   2.384   4.690  15.634 -0.1234 -0.8741 -0.3076
   32TCq2    O4  495   2.451   4.628  15.716 -0.2397 -0.1251 -0.1675
   32TCq2    C9  496   2.575   4.392  15.301  0.2097 -0.1959 -0.8852
   32TCq2    O5  497   2.525   4.295  15.365 -0.2697  0.3392  0.0543
   32TCq2    O6  498   2.603   4.383  15.180  0.5646  0.2589 -0.0892
   32TCq2    H2  499   2.556   4.587  15.143  4.0055 -2.0176  1.4493
   32TCq2    H3  500   2.472   4.461  15.527 -1.4063  1.3136  1.2527
   32TCq2    H4  501   2.390   0.156  15.418 -1.3625 -0.5599  0.8915
   33MPD2     C  502   3.386   3.419  10.526  0.2259 -0.4337 -0.0761
   33MPD2    C1  503   3.264   3.353  10.508  0.5973 -0.0123  0.0575
   33MPD2    C2  504   3.165   3.426  10.445  0.5136  0.3289 -0.4930
   33MPD2    C3  505   3.177   3.563  10.411  0.0610  0.4125 -0.1520
   33MPD2    C4  506   3.297   3.627  10.435  0.3129  0.2053 -0.0230
   33MPD2    C5  507   3.401   3.554  10.490  0.4200 -0.5446  0.6162
   33MPD2     H  508   3.063   3.390  10.433 -0.3587  1.6397  2.9767
   33MPD2    H1  509   3.316   3.729  10.405  2.1241  0.4644  2.0439
   33MPD2    H2  510   3.470   3.360  10.562  0.3480  1.4521  2.7324
   33MPD2    H3  511   3.496   3.606  10.490 -0.5716  1.2414  1.6809
   33MPD2     N  512   3.072   3.644  10.353  0.7756  0.4424  0.6867
   33MPD2    H5  513   3.105   3.737  10.329 -2.9727  1.6958  0.2609
   33MPD2    N1  514   3.257   3.212  10.532  0.1760  0.7198  0.9593
   33MPD2    H7  515   3.338   3.172  10.577  1.6159  0.9253 -1.5121
   34TCq2    C1  516   2.937   3.626  10.349  0.4456 -0.0548  0.4949
   34TCq2    O2  517   2.882   3.532  10.403 -0.4430  0.5860  0.0995
   34TCq2    C2  518   2.860   3.729  10.282 -0.1962 -0.9943  0.1399
   34TCq2    C3  519   2.731   3.739  10.324 -0.2945  0.1646  0.1659
   34TCq2    C4  520   2.653   3.841  10.269  0.5947 -0.3476  0.4736
   34TCq2    C5  521   2.701   3.912  10.162  0.3078  0.1384 -0.4007
   34TCq2    C6  522   2.833   3.891  10.120  0.0894  0.4049  0.1178
   34TCq2    C7  523   2.915   3.798  10.181  0.4077 -0.2970 -0.1589
   34TCq2    C8  524   2.909   3.982  10.035  0.1950  0.6255 -0.2211
   34TCq2    O4  525   3.034   3.963  10.031 -0.1139 -0.6425  0.4430
   34TCq2    C9  526   2.522   3.873  10.323 -0.3627 -0.1617  0.6797
   34TCq2    O5  527   2.450   3.943  10.249  0.3066  0.4741  0.6797
   34TCq2    O6  528   2.492   3.823  10.433 -0.1752 -0.6092  0.1717
   34TCq2    H2  529   2.697   3.678  10.407  0.4808 -0.2665  0.1705
   34TCq2    H3  530   2.643   3.994  10.121 -0.9071 -0.1767  0.6786
   34TCq2    H4  531   3.011   3.769  10.140  0.4790 -0.5759  0.1991
   35MPD2     C  532   4.505   0.180  11.924 -0.3401 -0.1381 -0.1989
   35MPD2    C1  533   4.517   0.045  11.930  0.6679  0.1747 -0.6566
   35MPD2    C2  534   4.485   4.695  11.815 -0.8783 -0.4585 -0.0780
   35MPD2    C3  535   4.438   0.040  11.700  0.1521  0.6140  0.1142
   35MPD2    C4  536   4.437   0.179  11.695  0.0841  0.7838  0.2461
   35MPD2    C5  537   4.466   0.245  11.810  0.5891  0.7305  0.5298
   35MPD2     H  538   4.481   4.587  11.811 -1.3143 -0.4054 -1.0236
   35MPD2    H1  539   4.414   0.241  11.609  3.0504  2.4196  0.6259
   35MPD2    H2  540   4.526   0.233  12.016 -3.0201 -1.9502  1.4328
   35MPD2    H3  541   4.463   0.353  11.817  0.6543  0.8047 -0.5814
   35MPD2     N  542   4.385   4.681  11.592 -0.9031 -0.0853  0.3133
   35MPD2    H5  543   4.387   4.582  11.611 -0.3603 -0.3167 -0.9911
   35MPD2    N1  544   4.546   4.700  12.048 -0.6421 -0.1902  0.0226
   35MPD2    H7  545   4.552   0.039  12.129  0.7747  2.3579 -2.0031
   36TCq2    C1  546   4.331   0.008  11.479  0.7260  0.2564 -0.8190
   36TCq2    O2  547   4.338   0.108  11.414 -0.7340 -0.5653 -1.0644
   36TCq2    C2  548   4.271   4.617  11.404 -0.2218 -0.6757 -0.5417
   36TCq2    C3  549   4.177   4.645  11.310  0.3924  1.0184 -0.3703
   36TCq2    C4  550   4.103   4.540  11.259  0.1486  0.0868 -0.3255
   36TCq2    C5  551   4.111   4.415  11.310  0.6971 -0.1287  0.1857
   36TCq2    C6  552   4.210   4.391  11.400  0.1785  0.1283  0.2138
   36TCq2    C7  553   4.287   4.489  11.448 -0.9292 -0.5112  0.2717
   36TCq2    C8  554   4.204   4.264  11.468 -0.2253 -0.1787  0.8386
   36TCq2    O4  555   4.136   4.177  11.411  0.0773 -0.1049  0.4064
   36TCq2    C9  556   3.996   4.569  11.174 -0.6675 -0.5237 -0.0713
   36TCq2    O5  557   3.921   4.471  11.146  0.0320 -0.2436  0.5985
   36TCq2    O6  558   3.989   4.683  11.131  0.6035 -0.4228 -0.8452
   36TCq2    H2  559   4.156   0.026  11.279  1.4939  0.4666 -2.9589
   36TCq2    H3  560   4.032   4.343  11.295  1.0397 -0.6616  0.9514
   36TCq2    H4  561   4.376   4.464  11.504 -1.4261  1.0024  1.7320
   37TMC2    C1  562   1.718   0.144  11.515  1.1996 -0.3901 -0.0554
   37TMC2    C2  563   1.731   0.235  11.412 -0.5550  0.7737 -0.1114
   37TMC2    C3  564   1.857   0.246  11.361 -0.1781  0.2253 -0.7531
   37TMC2    C4  565   1.822   0.077  11.569  0.7568  0.5713  0.9880
   37TMC2    C5  566   1.945   0.084  11.508  0.1498 -0.6957  0.3660
   37TMC2    C6  567   1.956   0.169  11.404 -0.2550 -0.0533  0.2624
   37TMC2     C  568   1.587   0.150  11.576  0.4683  0.3305  0.0744
   37TMC2     O  569   1.496   0.202  11.518  0.2801 -0.0816 -0.0368
   37TMC2     H  570   1.645   0.277  11.362  0.4445  1.8334 -0.9346
   37TMC2    H1  571   1.816   4.716  11.639  0.6439  2.1280  2.8236
   37TMC2    H2  572   2.052   0.184  11.354 -0.0589 -1.1756  0.2972
   37TMC2    C7  573   2.063   0.040  11.576  0.9920 -0.3069  0.7831
   37TMC2    C8  574   1.895   0.372  11.290 -0.3369  0.2510  0.7548
   37TMC2    O1  575   2.045   4.704  11.685  0.0580  0.0920 -0.1315
   37TMC2    O2  576   1.926   0.461  11.363  0.0294  0.6428 -0.4116
   37TMC2    O5  577   1.799   0.388  11.194  0.3075  0.0980  0.2593
   37TMC2    H5  578   1.792   0.299  11.153 -2.1283 -0.8457  2.7397
   38MPD2     C  579   1.285   0.100  11.989  0.2433 -0.3464  0.1107
   38MPD2    C1  580   1.403   0.032  12.018 -0.2385 -0.6604 -0.2236
   38MPD2    C2  581   1.505   0.030  11.917  0.3810  0.1135  0.1868
   38MPD2    C3  582   1.493   0.102  11.800 -0.0201  0.1543  0.5609
   38MPD2    C4  583   1.384   0.190  11.793  0.1904  0.0505 -0.2529
   38MPD2    C5  584   1.279   0.186  11.883 -0.4640 -0.2505  1.0762
   38MPD2     H  585   1.593   4.692  11.939 -0.3681 -0.4926  1.5508
   38MPD2    H1  586   1.377   0.262  11.712  1.9068  0.0969 -0.3551
   38MPD2    H2  587   1.199   0.085  12.053  0.1446  0.8998  0.2675
   38MPD2    H3  588   1.194   0.252  11.876  0.8713  1.2482 -1.1675
   38MPD2     N  589   1.596   0.097  11.700 -0.7357  0.6286  0.1998
   38MPD2    H5  590   1.685   0.051  11.718 -0.6462  0.2287 -1.2866
   38MPD2    N1  591   1.429   4.677  12.131 -0.1384 -0.2019 -0.4633
   38MPD2    H7  592   1.514   4.621  12.136 -0.2563 -0.3476 -0.0859
   39MPD2     C  593   4.111   2.088   1.745  0.1380 -0.2060  0.3194
   39MPD2    C1  594   4.054   2.132   1.862  0.3457 -1.1520  0.7926
   39MPD2    C2  595   3.916   2.115   1.876  0.0500  0.1431 -0.4692
   39MPD2    C3  596   3.835   2.062   1.781 -0.3506 -0.5282 -0.3741
   39MPD2    C4  597   3.900   2.038   1.658  0.1186 -0.2683 -0.0499
   39MPD2    C5  598   4.037   2.048   1.641  0.1372 -0.0170 -0.5424
   39MPD2     H  599   3.881   2.169   1.963 -0.3635 -0.1122 -0.4770
   39MPD2    H1  600   3.834   1.998   1.582  0.7977 -2.4206  0.4834
   39MPD2    H2  601   4.218   2.077   1.739  0.1255  1.3730 -2.8556
   39MPD2    H3  602   4.081   2.002   1.554  2.4568 -1.8806  1.5958
   39MPD2     N  603   3.697   2.051   1.787 -0.3331  0.0966 -0.4220
   39MPD2    H5  604   3.646   1.992   1.722  0.9424 -2.1541  0.6106
   39MPD2    N1  605   4.139   2.174   1.964 -0.7964 -0.3938 -0.5284
   39MPD2    H7  606   4.236   2.175   1.935 -0.8452 -1.0127 -0.7199
   40TCq2    C1  607   4.110   2.193   2.099 -0.0383  1.2435  0.1999
   40TCq2    O2  608   4.006   2.181   2.162 -0.8094 -0.5964  0.1808
   40TCq2    C2  609   4.225   2.247   2.168 -0.2818 -0.0953 -0.0331
   40TCq2    C3  610   4.219   2.252   2.310  0.3146  0.0274  0.3733
   40TCq2    C4  611   4.305   2.338   2.371 -0.0883 -0.5256 -0.0912
   40TCq2    C5  612   4.403   2.413   2.306  0.2771 -0.2378  0.1714
   40TCq2    C6  613   4.413   2.386   2.177  0.1589  0.4977  0.0325
   40TCq2    C7  614   4.333   2.300   2.108  0.5587 -0.0322 -0.7487
   40TCq2    C8  615   4.506   2.461   2.090 -0.6680 -0.2405  1.2397
   40TCq2    O4  616   4.543   2.407   1.987 -0.1971 -0.0460  0.0029
   40TCq2    C9  617   4.287   2.360   2.512 -0.3807 -0.3451 -0.2000
   40TCq2    O5  618   4.216   2.276   2.578 -0.1340 -0.4638  0.1099
   40TCq2    O6  619   4.365   2.438   2.573  0.1155 -0.1468  0.1563
   40TCq2    H2  620   4.140   2.211   2.371  0.8026 -1.9752 -0.3276
   40TCq2    H3  621   4.466   2.487   2.354 -0.3390 -0.8367  1.9077
   40TCq2    H4  622   4.351   2.295   2.001 -2.3845 -0.5489 -1.2120
   41TMC2    C1  623   3.149   4.306  13.634 -0.1855  1.0998 -1.2073
   41TMC2    C2  624   3.021   4.334  13.669 -0.3607  0.1008  0.5124
   41TMC2    C3  625   2.943   4.381  13.570 -0.1733  0.2673  0.7075
   41TMC2    C4  626   3.193   4.301  13.502 -1.1671 -0.0237 -0.1573
   41TMC2    C5  627   3.101   4.331  13.404  1.2047 -0.0683 -0.4020
   41TMC2    C6  628   2.972   4.372  13.438 -0.1069  0.9599 -0.2687
   41TMC2     C  629   3.218   4.210  13.715  0.1246  0.0037  0.3169
   41TMC2     O  630   3.261   4.109  13.662  0.0022 -0.0596  0.1933
   41TMC2     H  631   2.994   4.335  13.774  1.5842 -0.2795  1.0118
   41TMC2    H1  632   3.288   4.259  13.472 -1.0712 -0.4928  0.7741
   41TMC2    H2  633   2.903   4.407  13.362  0.8800 -1.5209 -2.3265
   41TMC2    C7  634   3.139   4.297  13.271  0.4647 -0.3532  1.0388
   41TMC2    C8  635   2.810   4.433  13.596  0.7203  1.0292 -0.0378
   41TMC2    O1  636   3.207   4.196  13.256 -0.7464 -0.4040 -0.2664
   41TMC2    O2  637   2.777   4.537  13.534  0.4107 -0.2033 -0.4049
   41TMC2    O5  638   2.799   4.422  13.726  0.1852  0.3072 -0.7952
   41TMC2    H5  639   2.792   4.333  13.767  0.0803  0.4119 -0.5886
   42MPD2     C  640   3.301   4.034  13.926 -0.5953  0.9263 -0.2688
   42MPD2    C1  641   3.320   4.173  13.927 -0.1095 -0.2709  0.1463
   42MPD2    C2  642   3.391   4.228  14.035  0.5258  0.1566 -0.4195
   42MPD2    C3  643   3.446   4.155  14.137  0.0656  0.0323 -0.6626
   42MPD2    C4  644   3.422   4.019  14.131 -0.1074  0.0757 -0.0912
   42MPD2    C5  645   3.360   3.961  14.024 -0.1445  0.5972 -0.6816
   42MPD2     H  646   3.416   4.333  14.034  0.2602  0.2107 -1.1211
   42MPD2    H1  647   3.465   3.950  14.203  0.0731  1.1822  0.8577
   42MPD2    H2  648   3.245   3.985  13.847 -0.7996 -0.2936  0.6256
   42MPD2    H3  649   3.362   3.852  14.027  3.4976  0.6647  0.1709
   42MPD2     N  650   3.506   4.205  14.257 -0.3324  0.2374 -0.0367
   42MPD2    H5  651   3.551   4.132  14.311 -1.0219 -0.5852 -0.5793
   42MPD2    N1  652   3.248   4.259  13.837 -0.7047  0.0355  0.1422
   42MPD2    H7  653   3.236   4.358  13.858  0.6196  0.3036 -0.3794
   43MPD2     C  654   0.288   3.487   0.864 -1.0204 -0.3074 -0.4582
   43MPD2    C1  655   0.171   3.414   0.870 -0.6449 -0.2821  0.7859
   43MPD2    C2  656   0.071   3.458   0.956 -0.3110 -0.5160 -0.0288
   43MPD2    C3  657   0.089   3.565   1.047  0.0846  0.1263  0.1166
   43MPD2    C4  658   0.213   3.625   1.049 -0.5245  0.4153  0.2029
   43MPD2    C5  659   0.315   3.584   0.961  0.2342 -0.6752 -0.8856
   43MPD2     H  660   4.703   3.397   0.955 -0.1595 -0.6797 -3.1311
   43MPD2    H1  661   0.228   3.709   1.117 -0.0346  0.6304 -0.1732
   43MPD2    H2  662   0.367   3.468   0.793  1.2186 -0.8888  2.1896
   43MPD2    H3  663   0.407   3.642   0.966 -0.0734 -0.1539 -1.2504
   43MPD2     N  664   4.710   3.619   1.135 -0.0661 -0.5639  0.3762
   43MPD2    H5  665   0.018   3.698   1.191  3.8740 -0.6840 -1.5390
   43MPD2    N1  666   0.149   3.297   0.789 -0.3212 -0.2700  0.2309
   43MPD2    H7  667   0.064   3.245   0.811 -0.2713 -1.0899 -1.5277
   44TCq2    C1  668   4.549   3.740   1.615 -0.0220  0.8742  0.0931
   44TCq2    O2  669   4.630   3.829   1.589 -0.0517 -0.6312  0.0147
   44TCq2    C2  670   4.498   3.680   1.491  0.4472  0.8703 -0.5814
   44TCq2    C3  671   4.367   3.625   1.497  0.6022  0.3441 -0.1309
   44TCq2    C4  672   4.317   3.562   1.384 -0.3382  0.3383  0.3792
   44TCq2    C5  673   4.391   3.565   1.270 -0.7280  0.3210 -0.2762
   44TCq2    C6  674   4.517   3.615   1.267  0.6536  0.2845 -0.5433
   44TCq2    C7  675   4.577   3.666   1.382 -0.2364 -0.3817 -0.7516
   44TCq2    C8  676   4.592   3.562   1.155 -0.0517  0.1653  0.2781
   44TCq2    O4  677   4.537   3.482   1.079  0.3830 -0.2625  0.1123
   44TCq2    C9  678   4.192   3.494   1.390 -0.5345 -0.3147  0.0662
   44TCq2    O5  679   4.136   3.453   1.285 -0.3952 -0.7558 -0.3716
   44TCq2    O6  680   4.152   3.452   1.501  0.2775 -0.0182  0.1571
   44TCq2    H2  681   4.307   3.634   1.587  1.9999 -1.7899  1.0218
   44TCq2    H3  682   4.348   3.514   1.184  1.4418 -1.1526 -0.4741
   44TCq2    H4  683   4.681   3.697   1.380 -1.1224  2.6098 -0.2627
   45TMC2    C1  684   1.306   4.654   9.625 -0.6251  0.5396  1.2444
   45TMC2    C2  685   1.294   4.606   9.752 -0.2301  0.8233 -0.0749
   45TMC2    C3  686   1.253   4.688   9.848 -0.7499  0.5043  0.6588
   45TMC2    C4  687   1.272   0.061   9.589  0.6549 -0.3636 -0.1538
   45TMC2    C5  688   1.231   0.144   9.695 -0.0598  0.0565  0.1674
   45TMC2    C6  689   1.212   0.098   9.821 -0.1174 -0.6055  0.3592
   45TMC2     C  690   1.281   4.550   9.522  0.6908  0.1783  0.8244
   45TMC2     O  691   1.335   4.440   9.529 -0.0243  0.3431  0.4061
   45TMC2     H  692   1.331   4.507   9.775  1.8670  1.7661  0.5497
   45TMC2    H1  693   1.303   0.102   9.494 -1.1520 -0.9582 -0.9908
   45TMC2    H2  694   1.183   0.159   9.905  0.9998  0.5832 -0.1121
   45TMC2    C7  695   1.139   0.242   9.633  0.6204  0.0154  0.1205
   45TMC2    C8  696   1.221   4.645   9.984  0.0450 -0.3742 -0.0062
   45TMC2    O1  697   1.092   0.210   9.526 -0.5644 -0.3127 -0.0997
   45TMC2    O2  698   1.199   0.002  10.076  0.8791 -0.4899 -0.0873
   45TMC2    O5  699   1.189   4.510   9.981 -0.3422  0.2127  0.1992
   45TMC2    H5  700   1.204   4.463   9.896 -0.5186 -0.3610  0.4843
   46MPD2     C  701   1.116   4.421   9.314 -0.1674 -0.5398 -0.4388
   46MPD2    C1  702   1.095   4.545   9.364 -0.1127 -0.4174 -0.1624
   46MPD2    C2  703   0.992   4.620   9.320  0.1175 -0.3508  0.7021
   46MPD2    C3  704   0.911   4.577   9.222  0.3066 -0.4024 -0.2867
   46MPD2    C4  705   0.938   4.455   9.163  0.5984  0.7491  0.2418
   46MPD2    C5  706   1.043   4.378   9.212 -0.2154 -0.1940  0.1187
   46MPD2     H  707   0.974   4.719   9.360  0.4135  0.9666 -2.4068
   46MPD2    H1  708   0.885   4.425   9.073  3.3966 -0.8981 -0.8581
   46MPD2    H2  709   1.193   4.358   9.357  1.1738  1.8588  0.6447
   46MPD2    H3  710   1.053   4.275   9.180 -2.0066  0.1188 -1.4288
   46MPD2     N  711   0.806   4.659   9.180 -0.7325 -0.2784  0.6049
   46MPD2    H5  712   0.811   0.036   9.204  1.9483 -0.0604 -0.8571
   46MPD2    N1  713   1.177   4.603   9.457 -0.0053 -0.3527 -0.1644
   46MPD2    H7  714   1.142   4.695   9.480 -2.2227 -1.6549  1.5954
   47TMC2    C1  715   4.471   0.617  10.146 -0.0923  0.1873 -0.1101
   47TMC2    C2  716   4.515   0.740  10.193  0.0402 -0.2661 -0.4813
   47TMC2    C3  717   4.505   0.851  10.110  0.4452  0.5637  0.4759
   47TMC2    C4  718   4.423   0.593  10.021  0.4072  0.2196  0.9089
   47TMC2    C5  719   4.410   0.709   9.947  0.4619 -0.0425  0.6569
   47TMC2    C6  720   4.450   0.836   9.984 -0.8876 -0.2850  0.5558
   47TMC2     C  721   4.479   0.513  10.245 -0.1483  0.2576  0.7200
   47TMC2     O  722   4.477   0.545  10.362  0.3480  0.3757 -0.5192
   47TMC2     H  723   4.565   0.751  10.288 -2.5973 -0.6199  0.9573
   47TMC2    H1  724   4.389   0.499   9.981 -1.2242  0.8299  0.8495
   47TMC2    H2  725   4.429   0.917   9.915 -1.3643  1.2592  2.5035
   47TMC2    C7  726   4.344   0.699   9.816  0.2738 -0.6723 -0.9043
   47TMC2    C8  727   4.513   0.986  10.166 -0.0322 -0.6183  0.4644
   47TMC2    O1  728   4.403   0.750   9.718  0.3572  0.5352 -0.3170
   47TMC2    O2  729   4.490   1.020  10.281  0.4379 -0.4060  0.8089
   47TMC2    O5  730   4.542   1.073  10.072  0.2733 -1.0703 -0.2016
   47TMC2    H5  731   4.544   1.040   9.980 -3.4032 -0.8652 -0.3649
   48MPD2     C  732   4.526   0.250  10.403  0.5337  0.0011 -0.9824
   48MPD2    C1  733   4.492   0.263  10.274 -0.2789 -0.1693  0.2260
   48MPD2    C2  734   4.496   0.143  10.207  0.2808 -0.3500  0.2426
   48MPD2    C3  735   4.526   0.019  10.265  0.1768  0.4767  0.4448
   48MPD2    C4  736   4.549   0.008  10.402  0.2461 -0.0918 -0.3505
   48MPD2    C5  737   4.545   0.131  10.472 -0.3370 -0.1026  0.6095
   48MPD2     H  738   4.459   0.148  10.105  0.9118 -0.3360  0.0131
   48MPD2    H1  739   4.562   4.633  10.449  0.7151  0.9411  1.6355
   48MPD2    H2  740   4.522   0.340  10.465 -0.0466 -0.7066  0.0087
   48MPD2    H3  741   4.571   0.126  10.577 -0.8944 -0.6189  0.7232
   48MPD2     N  742   4.508   4.620  10.197  0.0652 -0.0331 -0.4810
   48MPD2    H5  743   4.502   4.536  10.253 -2.0048  0.3158 -0.1637
   48MPD2    N1  744   4.472   0.383  10.199 -0.3552 -0.3101  0.1397
   48MPD2    H7  745   4.462   0.369  10.099  0.0095  1.8974 -0.1997
   49MPD2     C  746   1.590   2.428   9.897 -0.3755 -0.4749 -0.0675
   49MPD2    C1  747   1.620   2.379  10.023  0.4042 -0.3846 -0.1687
   49MPD2    C2  748   1.663   2.469  10.115  0.7157  0.1623 -0.7366
   49MPD2    C3  749   1.676   2.608  10.088  0.1032  0.9124  0.4602
   49MPD2    C4  750   1.657   2.644   9.958 -0.2454 -0.4919  0.7731
   49MPD2    C5  751   1.608   2.559   9.866  0.6659 -0.6976  0.1629
   49MPD2     H  752   1.688   2.436  10.216 -1.2753  1.1567  0.0764
   49MPD2    H1  753   1.663   2.750   9.935  0.3330 -0.7722 -0.3579
   49MPD2    H2  754   1.542   2.367   9.821 -1.2028  0.4414 -0.2720
   49MPD2    H3  755   1.583   2.597   9.767 -3.5187 -1.7675  0.7859
   49MPD2     N  756   1.699   2.703  10.185 -0.4319 -0.2613  0.3952
   49MPD2    H5  757   1.690   2.800  10.158 -0.6386 -1.4876 -3.8860
   49MPD2    N1  758   1.606   2.244  10.063  0.2799 -0.3941  0.0988
   49MPD2    H7  759   1.615   2.218  10.160  1.8488 -1.4982 -0.3447
   50TCq2    C1  760   1.576   2.141   9.980  0.4254 -0.7779  0.2254
   50TCq2    O2  761   1.575   2.146   9.860 -0.7315  0.1759  0.4133
   50TCq2    C2  762   1.559   2.012  10.051 -0.2557  0.3840  0.0743
   50TCq2    C3  763   1.549   1.900   9.977 -0.6380 -0.0275  0.0447
   50TCq2    C4  764   1.521   1.783  10.041  0.4441  1.0731 -1.0819
   50TCq2    C5  765   1.539   1.766  10.179 -0.1579 -0.6720  0.3087
   50TCq2    C6  766   1.559   1.878  10.251  0.0994 -0.1230  0.2073
   50TCq2    C7  767   1.564   2.001  10.191 -0.3806 -0.3612 -0.2070
   50TCq2    C8  768   1.620   1.864  10.380 -0.3303 -0.7529  0.1762
   50TCq2    O4  769   1.629   1.962  10.451  0.0085  0.0976  0.0576
   50TCq2    C9  770   1.490   1.662   9.962 -0.3892 -0.0209  0.0859
   50TCq2    O5  771   1.457   1.675   9.840 -0.1559 -0.2796 -0.6179
   50TCq2    O6  772   1.498   1.552  10.025 -0.2727 -0.5637 -0.4306
   50TCq2    H2  773   1.542   1.896   9.869 -1.7108 -1.0786  0.1636
   50TCq2    H3  774   1.528   1.669  10.226 -2.2821  0.9562  3.1948
   50TCq2    H4  775   1.579   2.087  10.257 -3.9821  1.6859 -2.0991
   51MPD2     C  776   1.173   1.468   0.340 -0.4449 -0.2191  0.1977
   51MPD2    C1  777   1.126   1.366   0.425 -0.1920 -0.0054  0.5767
   51MPD2    C2  778   1.130   1.398   0.556 -0.1467  0.7817 -0.0633
   51MPD2    C3  779   1.194   1.508   0.610  0.2623 -0.3685 -0.2204
   51MPD2    C4  780   1.238   1.607   0.524 -0.3781 -0.1649 -0.1357
   51MPD2    C5  781   1.236   1.582   0.386  0.2740 -0.0164  0.8769
   51MPD2     H  782   1.091   1.327   0.629  1.1781  0.7936  0.6538
   51MPD2    H1  783   1.282   1.698   0.561 -0.8897  0.8018 -1.9083
   51MPD2    H2  784   1.194   1.448   0.236 -3.2108 -3.2639  0.2166
   51MPD2    H3  785   1.278   1.641   0.305 -3.0860 -1.8519 -2.1916
   51MPD2     N  786   1.196   1.539   0.753  1.0756 -0.0773  0.1872
   51MPD2    H5  787   1.237   1.628   0.777  2.6100 -0.3977 -1.2241
   51MPD2    N1  788   1.084   1.246   0.376  0.8617  0.3839  0.6030
   51MPD2    H7  789   1.026   1.185   0.433  1.0960 -0.9844 -0.6143
   52TCq2    C1  790   1.152   1.447   0.851 -0.0028  0.6774 -1.2424
   52TCq2    O2  791   1.119   1.332   0.839 -0.0152  0.5002 -0.0917
   52TCq2    C2  792   1.173   1.493   0.981 -0.4863 -0.2497 -0.6268
   52TCq2    C3  793   1.229   1.396   1.072 -0.6326  1.0160 -0.0296
   52TCq2    C4  794   1.314   1.450   1.163  0.3336 -0.1258 -0.3943
   52TCq2    C5  795   1.330   1.583   1.190  0.3070 -0.9091  0.4452
   52TCq2    C6  796   1.254   1.681   1.114 -0.5589 -0.3878  0.1254
   52TCq2    C7  797   1.177   1.635   1.008  0.3463 -0.8061 -0.7396
   52TCq2    C8  798   1.262   1.818   1.128 -0.0307  0.1714 -0.6697
   52TCq2    O4  799   1.371   1.861   1.156  0.0446  0.2386 -0.1858
   52TCq2    C9  800   1.383   1.355   1.245  0.1476  0.2870 -0.1836
   52TCq2    O5  801   1.375   1.233   1.221 -0.5024 -0.0544 -0.1265
   52TCq2    O6  802   1.459   1.412   1.332  0.3827  0.1506 -0.0426
   52TCq2    H2  803   1.226   1.292   1.043 -1.4292  0.5448  1.7187
   52TCq2    H3  804   1.398   1.609   1.271  1.1540 -1.0811 -0.2078
   52TCq2    H4  805   1.119   1.697   0.940  2.0657  2.6949  1.0325
   53TMC2    C1  806   2.560   4.594  12.087 -0.0789  0.0661  0.0276
   53TMC2    C2  807   2.667   4.545  12.160  0.5361  0.4484 -0.0343
   53TMC2    C3  808   2.648   4.539  12.295 -0.7009  0.5012  0.6411
   53TMC2    C4  809   2.451   4.645  12.154 -0.2142 -0.1688 -0.3151
   53TMC2    C5  810   2.442   4.649  12.293 -0.2042 -0.1940  0.4597
   53TMC2    C6  811   2.538   4.594  12.362  0.2984  0.5207 -0.0429
   53TMC2     C  812   2.588   4.640  11.948  0.0775  0.3082 -0.0621
   53TMC2     O  813   2.704   4.620  11.917 -0.0015  0.2245  0.1440
   53TMC2     H  814   2.749   4.504  12.102  0.6443  0.6986 -0.0559
   53TMC2    H1  815   2.378   4.699  12.095 -0.0988  0.9490  0.5742
   53TMC2    H2  816   2.532   4.585  12.470 -3.3035 -1.7971 -0.4477
   53TMC2    C7  817   2.314   4.694  12.336 -0.0751  0.2915 -0.4250
   53TMC2    C8  818   2.753   4.475  12.376  0.0070  0.3740 -0.1626
   53TMC2    O1  819   2.224   4.711  12.254  0.3965  0.5448 -0.0062
   53TMC2    O2  820   2.783   4.518  12.486  0.3065 -0.4000  0.4558
   53TMC2    O5  821   2.832   4.405  12.298 -0.1005  0.5118  0.2341
   53TMC2    H5  822   2.791   4.349  12.228  1.8458 -1.2722  0.5094
   54MPD2     C  823   2.573   4.705  11.657 -0.6230 -0.7882 -0.7380
   54MPD2    C1  824   2.463   4.701  11.737 -0.2405  0.8562 -0.5221
   54MPD2    C2  825   2.332   4.719  11.691 -0.6250 -0.5482 -0.5698
   54MPD2    C3  826   2.311   0.052  11.572 -0.9393 -0.1355 -0.3275
   54MPD2    C4  827   2.419   0.068  11.490  0.2554  0.8142  0.8191
   54MPD2    C5  828   2.550   0.036  11.535 -0.0138  0.3130 -0.9155
   54MPD2     H  829   2.253   4.720  11.765  0.5064 -1.5472  0.6531
   54MPD2    H1  830   2.409   0.111  11.391 -1.0650  0.8750  0.9843
   54MPD2    H2  831   2.673   4.685  11.694 -0.8131  0.4802  0.4503
   54MPD2    H3  832   2.635   0.063  11.473  0.9231  1.1262  0.6987
   54MPD2     N  833   2.180   0.074  11.514 -0.0119 -0.5396 -0.6945
   54MPD2    H5  834   2.189   0.121  11.424 -0.4698 -1.6422 -1.3195
   54MPD2    N1  835   2.475   4.669  11.877 -0.1395 -0.1252 -0.2354
   54MPD2    H7  836   2.386   4.645  11.918 -0.6643 -0.3341 -1.5127
   55MPD2     C  837   2.200   2.734   0.060  0.8619  0.6003 -0.2077
   55MPD2    C1  838   2.166   2.628   0.151 -0.7354  0.6610  0.3992
   55MPD2    C2  839   2.091   2.657   0.260  0.3876 -0.2480  0.4468
   55MPD2    C3  840   2.049   2.786   0.282  0.4037 -0.3722 -0.0977
   55MPD2    C4  841   2.079   2.884   0.196 -0.4360 -0.1587 -0.2489
   55MPD2    C5  842   2.158   2.858   0.084 -0.2279  0.2956 -0.2138
   55MPD2     H  843   2.060   2.575   0.325  2.2841  0.1792  1.9027
   55MPD2    H1  844   2.042   2.984   0.212  0.9797  0.4355 -0.6368
   55MPD2    H2  845   2.260   2.708  17.661  0.2535 -0.5193 -0.2988
   55MPD2    H3  846   2.176   2.940   0.016 -2.6125  3.0480  2.4354
   55MPD2     N  847   1.949   2.804   0.385  0.4101 -0.4710 -0.2694
   55MPD2    H5  848   1.928   2.728   0.450 -1.7167  2.3618  2.3494
   55MPD2    N1  849   2.206   2.496   0.119 -0.7099  0.2298 -0.0192
   55MPD2    H7  850   2.239   2.473   0.026 -2.4620  0.5884 -0.7264
   56TCq2    C1  851   2.219   2.392   0.211  0.5793 -0.3809 -0.3545
   56TCq2    O2  852   2.208   2.397   0.333  0.0251  0.2543  0.1873
   56TCq2    C2  853   2.265   2.271   0.140 -0.0748 -0.0054  0.3120
   56TCq2    C3  854   2.342   2.274   0.025 -0.3047  0.2250 -0.5343
   56TCq2    C4  855   2.403   2.157  17.673 -0.2433 -1.2330 -0.6820
   56TCq2    C5  856   2.379   2.036   0.051  0.4306 -0.0807  0.0887
   56TCq2    C6  857   2.300   2.041   0.160  0.3117 -0.0100  0.2895
   56TCq2    C7  858   2.248   2.159   0.212  0.3208 -0.5171 -0.5313
   56TCq2    C8  859   2.311   1.927   0.247  0.1228  0.1695  0.0776
   56TCq2    O4  860   2.348   1.827   0.187  0.3425 -0.6621 -0.1361
   56TCq2    C9  861   2.492   2.158  17.551  0.2411 -0.0180 -0.4585
   56TCq2    O5  862   2.515   2.046  17.499  0.3252  0.0066  0.4327
   56TCq2    O6  863   2.533   2.275  17.517 -0.0295  0.2328  0.3550
   56TCq2    H2  864   2.344   2.369  17.661 -1.2415 -0.2252 -1.4011
   56TCq2    H3  865   2.436   1.949   0.018  0.8226  0.1400  0.1847
   56TCq2    H4  866   2.198   2.169   0.308 -1.2332  0.2618 -1.4332
   57TMC2    C1  867   2.122   3.694  13.840 -0.0733  0.2512 -0.6887
   57TMC2    C2  868   2.191   3.668  13.951 -0.4676 -0.0593 -0.1760
   57TMC2    C3  869   2.312   3.605  13.940 -0.1168  0.2470 -0.4445
   57TMC2    C4  870   2.178   3.678  13.717  0.3770 -0.2505  0.3887
   57TMC2    C5  871   2.283   3.591  13.705 -0.2888 -0.2686  0.3128
   57TMC2    C6  872   2.349   3.551  13.813 -0.0564 -0.0862 -0.4074
   57TMC2     C  873   1.979   3.719  13.853  1.1426  0.0189  0.3262
   57TMC2     O  874   1.938   3.792  13.947  0.2053  0.5688  0.4404
   57TMC2     H  875   2.149   3.707  14.043 -0.9381  0.1825 -0.4936
   57TMC2    H1  876   2.123   3.719  13.632 -1.2383 -3.3382 -0.0456
   57TMC2    H2  877   2.435   3.485  13.809  0.0910  0.2636 -3.0479
   57TMC2    C7  878   2.359   3.591  13.579  0.8181  0.1501  0.3429
   57TMC2    C8  879   2.345   3.531  14.064  0.0113 -0.5583 -0.3353
   57TMC2    O1  880   2.338   3.684  13.505 -0.0565 -0.5070  0.2215
   57TMC2    O2  881   2.399   3.421  14.055  0.4125 -0.6365  0.2469
   57TMC2    O5  882   2.388   3.626  14.151  0.2132 -0.2116 -0.3883
   57TMC2    H5  883   2.355   3.717  14.134  1.3225  0.5100  1.3064
   58MPD2     C  884   1.506   3.691  13.655  0.2762 -0.1993  0.4536
   58MPD2    C1  885   1.554   3.772  13.752 -0.1621 -0.2141 -0.2709
   58MPD2    C2  886   1.693   3.776  13.781 -0.4739  0.1204  0.1737
   58MPD2    C3  887   1.778   3.688  13.717  0.6802 -0.3265 -0.4818
   58MPD2    C4  888   1.727   3.611  13.616 -0.0312  0.0628 -0.4623
   58MPD2    C5  889   1.594   3.614  13.585 -0.0862  0.0365 -0.2631
   58MPD2     H  890   1.731   3.837  13.863 -0.7704 -0.1102  0.4803
   58MPD2    H1  891   1.795   3.552  13.556 -0.1509  2.4110 -2.9072
   58MPD2    H2  892   1.401   3.691  13.629  0.4146 -1.6654 -0.0713
   58MPD2    H3  893   1.554   3.561  13.499  3.1558 -3.3450  0.2718
   58MPD2     N  894   1.911   3.662  13.750 -0.0028  0.0176  0.3609
   58MPD2    H5  895   1.956   3.586  13.699  0.8416 -0.5289  1.8989
   58MPD2    N1  896   1.472   3.853  13.832  0.0631  0.1980  0.1497
   58MPD2    H7  897   1.514   3.886  13.918  2.2012  1.2114 -1.2820
   59MPD2     C  898   4.411   3.384  13.185 -0.8326 -0.7326  0.1055
   59MPD2    C1  899   4.497   3.438  13.083 -0.8994 -0.4227  0.3606
   59MPD2    C2  900   4.597   3.524  13.118 -0.7806 -0.5057  0.7354
   59MPD2    C3  901   4.614   3.577  13.243  0.7241  0.2524 -0.1443
   59MPD2    C4  902   4.523   3.530  13.339 -0.6372 -0.2332 -0.4786
   59MPD2    C5  903   4.428   3.432  13.307 -0.4194 -0.2002 -0.1613
   59MPD2     H  904   4.675   3.549  13.047 -1.2469  0.3561  0.5239
   59MPD2    H1  905   4.538   3.557  13.443  1.4450 -0.9602 -0.5870
   59MPD2    H2  906   4.326   3.321  13.164 -1.0676 -0.3954  0.0399
   59MPD2    H3  907   4.367   3.386  13.383  0.6854  2.2737  2.2534
   59MPD2     N  908   4.701   3.682  13.271  0.0320  0.5166  0.4546
   59MPD2    H5  909   4.705   3.708  13.369 -1.2336  0.6888  0.4554
   59MPD2    N1  910   4.466   3.405  12.948 -0.3373  0.1880 -0.4493
   59MPD2    H7  911   4.393   3.335  12.935  0.0019 -0.0289 -1.1819
   60TCq2    C1  912   4.528   3.461  12.836  0.1880 -0.3318 -0.0117
   60TCq2    O2  913   4.615   3.550  12.832  0.6153 -0.5209  0.5915
   60TCq2    C2  914   4.489   3.408  12.705  0.1969  0.1136  0.0164
   60TCq2    C3  915   4.430   3.285  12.686  0.1386 -0.1634 -0.9161
   60TCq2    C4  916   4.431   3.234  12.560 -0.4116 -0.3531  0.1874
   60TCq2    C5  917   4.489   3.297  12.449 -0.9095  0.1251 -0.2593
   60TCq2    C6  918   4.529   3.430  12.472 -0.0704  0.2589  0.0719
   60TCq2    C7  919   4.535   3.488  12.595 -0.8689  0.2260  0.8678
   60TCq2    C8  920   4.582   3.496  12.353  0.6842 -1.5120 -0.1641
   60TCq2    O4  921   4.636   3.433  12.261  0.1941  0.0651 -0.6766
   60TCq2    C9  922   4.365   3.108  12.535 -0.0646 -0.1112 -0.2599
   60TCq2    O5  923   4.318   3.038  12.632 -0.1007 -0.0130 -0.4302
   60TCq2    O6  924   4.381   3.053  12.425 -0.0489 -0.0269 -0.1284
   60TCq2    H2  925   4.393   3.227  12.770 -0.7395  0.4078 -0.8969
   60TCq2    H3  926   4.490   3.259  12.348  0.1453  0.3395 -0.3226
   60TCq2    H4  927   4.588   3.581  12.608  1.0956 -0.7052 -0.4319
   61MPD2     C  928   3.604   0.270  15.316 -0.1617 -0.0763 -0.7435
   61MPD2    C1  929   3.634   0.404  15.333  0.4251  0.4425  0.1246
   61MPD2    C2  930   3.746   0.454  15.270  0.5936 -0.5364 -0.0078
   61MPD2    C3  931   3.824   0.378  15.176  0.2122 -0.3358  0.1419
   61MPD2    C4  932   3.790   0.243  15.155 -0.2271 -0.3330 -0.8854
   61MPD2    C5  933   3.674   0.198  15.222 -0.0260  0.0051 -0.2363
   61MPD2     H  934   3.769   0.557  15.293  0.6193 -0.5818  0.1707
   61MPD2    H1  935   3.837   0.175  15.086 -2.0009  0.2987 -2.7003
   61MPD2    H2  936   3.511   0.235  15.358  2.6234 -2.7055  3.1303
   61MPD2    H3  937   3.650   0.097  15.192 -0.2564  0.0284 -0.1318
   61MPD2     N  938   3.928   0.436  15.089 -0.1026  0.0786 -0.2179
   61MPD2    H5  939   3.982   0.372  15.031  0.1037 -0.7607  0.8964
   61MPD2    N1  940   3.561   0.495  15.415  0.6893  0.3345 -0.3725
   61MPD2    H7  941   3.588   0.593  15.414  1.2776  0.1842  0.5697
   62TCq2    C1  942   3.446   0.458  15.474 -0.1668  0.3802  0.2065
   62TCq2    O2  943   3.400   0.348  15.510  0.1453  0.3299  0.3393
   62TCq2    C2  944   3.385   0.567  15.542 -0.0344  0.5268 -0.8243
   62TCq2    C3  945   3.309   0.549  15.654 -0.0308 -0.3055 -0.8241
   62TCq2    C4  946   3.239   0.656  15.708 -0.7156  0.1418 -0.5607
   62TCq2    C5  947   3.255   0.784  15.666 -0.3003 -0.0175  0.3777
   62TCq2    C6  948   3.322   0.796  15.545 -0.5640 -0.2335 -0.1120
   62TCq2    C7  949   3.386   0.691  15.486 -0.9029 -0.0035 -0.3969
   62TCq2    C8  950   3.333   0.925  15.481  0.5160 -0.0901 -0.2033
   62TCq2    O4  951   3.406   0.926  15.381 -0.6313 -0.1758  0.2436
   62TCq2    C9  952   3.158   0.628  15.832 -0.4775 -0.1913 -0.1255
   62TCq2    O5  953   3.145   0.508  15.869 -0.1231  0.0275 -0.1999
   62TCq2    O6  954   3.117   0.738  15.883  0.0096  0.1860 -0.2267
   62TCq2    H2  955   3.296   0.449  15.693  1.8350 -0.7069 -1.2478
   62TCq2    H3  956   3.203   0.855  15.730  2.3875  2.1220  0.1963
   62TCq2    H4  957   3.446   0.703  15.397 -0.0176  0.5752  0.2809
   63TMC2    C1  958   3.815   1.049  10.292  0.1332  1.0271  0.4286
   63TMC2    C2  959   3.881   1.155  10.343  0.3386 -0.3104 -0.1969
   63TMC2    C3  960   3.917   1.248  10.255 -0.2039  0.5572 -0.5251
   63TMC2    C4  961   3.781   1.036  10.158  0.1040  0.4781 -0.3245
   63TMC2    C5  962   3.837   1.125  10.070  0.2205 -0.1052  0.2868
   63TMC2    C6  963   3.901   1.235  10.121  0.2902  1.0807  0.2624
   63TMC2     C  964   3.717   1.004  10.385 -0.1257 -0.2970 -0.4140
   63TMC2     O  965   3.689   1.076  10.479 -0.2499  0.4548  0.3454
   63TMC2     H  966   3.908   1.154  10.448 -0.2675  1.2064 -0.0113
   63TMC2    H1  967   3.729   0.953  10.112  0.7311 -0.6878  1.0438
   63TMC2    H2  968   3.944   1.313  10.060  2.3343 -1.5805 -1.6746
   63TMC2    C7  969   3.804   1.112   9.926  0.5418 -0.2858 -0.3828
   63TMC2    C8  970   4.026   1.326  10.297  0.1317 -0.3249 -0.4949
   63TMC2    O1  971   3.740   1.020   9.877 -0.5025  0.6225  0.7133
   63TMC2    O2  972   4.133   1.288  10.338  0.2060  1.1972 -0.0256
   63TMC2    O5  973   3.998   1.443  10.239 -0.6469  0.0720  0.3138
   63TMC2    H5  974   3.903   1.455  10.219 -0.7204  2.2578  1.9002
   64MPD2     C  975   3.414   0.640  10.584 -0.1125  0.1210  0.0936
   64MPD2    C1  976   3.502   0.572  10.497  0.0366  0.4012 -0.0263
   64MPD2    C2  977   3.598   0.646  10.428 -0.6929 -0.0723  0.0192
   64MPD2    C3  978   3.606   0.780  10.445  0.2876 -0.2481  0.6511
   64MPD2    C4  979   3.523   0.844  10.534  0.1897  0.4908 -0.6506
   64MPD2    C5  980   3.430   0.773  10.598  0.5968 -0.1540  0.2368
   64MPD2     H  981   3.656   0.594  10.353  0.5704 -2.0580  2.3746
   64MPD2    H1  982   3.527   0.951  10.552  0.6835  0.4481 -0.5176
   64MPD2    H2  983   3.330   0.591  10.633  0.9157  0.3564  2.1080
   64MPD2    H3  984   3.355   0.832  10.649  0.7454  1.1933 -1.1073
   64MPD2     N  985   3.692   0.863  10.363 -0.4932 -0.1013 -0.2014
   64MPD2    H5  986   3.719   0.816  10.277 -0.0370  0.7846 -0.5404
   64MPD2    N1  987   3.480   0.433  10.464 -0.4802  0.2954 -0.2392
   64MPD2    H7  988   3.525   0.398  10.380  1.1575  0.8232  0.4174
   65MPD2     C  989   3.804   4.359  15.874 -0.2613  0.3227 -1.0055
   65MPD2    C1  990   3.862   4.338  15.751  1.0144  0.8429  0.7529
   65MPD2    C2  991   3.934   4.225  15.724  0.2247  0.1914  0.4872
   65MPD2    C3  992   3.937   4.119  15.816 -0.2802  0.4606  0.1399
   65MPD2    C4  993   3.861   4.133  15.931 -0.2637 -0.1193  0.1055
   65MPD2    C5  994   3.801   4.258  15.963 -0.1062 -0.0484 -0.0260
   65MPD2     H  995   3.978   4.200  15.628  2.4270  0.0514  1.5198
   65MPD2    H1  996   3.836   4.049  15.994 -1.5550  0.9526  1.0263
   65MPD2    H2  997   3.749   4.447  15.903 -0.1468 -0.2545  0.9646
   65MPD2    H3  998   3.749   4.263  16.058 -1.0046  0.5295 -0.5461
   65MPD2     N  999   3.985   3.988  15.789  0.0737  0.3130 -0.1220
   65MPD2    H5 1000   3.973   3.913  15.856  0.0209 -0.4181 -0.9425
   65MPD2    N1 1001   3.853   4.438  15.651 -0.4167  0.2060 -0.3384
   65MPD2    H7 1002   3.917   4.418  15.575 -1.2138  1.2043 -1.2639
   66TCq2    C1 1003   3.796   4.565  15.669  0.1317  0.2481  0.3015
   66TCq2    O2 1004   3.735   4.612  15.767  0.2081  0.2869 -0.1922
   66TCq2    C2 1005   3.827   4.656  15.560 -0.5504  0.5928  0.3049
   66TCq2    C3 1006   3.875   4.606  15.442  0.0130  0.5112  0.0404
   66TCq2    C4 1007   3.943   4.693  15.356 -0.7297  0.5228 -0.2072
   66TCq2    C5 1008   3.980   0.095  15.393  1.0597  0.3003  0.4596
   66TCq2    C6 1009   3.931   0.143  15.509 -0.4614  0.2961 -0.5528
   66TCq2    C7 1010   3.863   0.061  15.595 -0.2692 -0.2557 -0.2674
   66TCq2    C8 1011   3.940   0.286  15.535 -0.5184  0.0894 -0.3545
   66TCq2    O4 1012   4.034   0.340  15.480  0.3171 -0.2388  0.2393
   66TCq2    C9 1013   4.014   4.636  15.243 -0.0048 -0.3205  0.0622
   66TCq2    O5 1014   4.044   4.710  15.146 -0.2100  0.2502  0.3856
   66TCq2    O6 1015   4.017   4.506  15.233  0.0686  0.0576  0.5015
   66TCq2    H2 1016   3.853   4.505  15.409  2.4254 -0.0823  0.2437
   66TCq2    H3 1017   4.016   0.164  15.317  1.2196 -1.1374 -0.7639
   66TCq2    H4 1018   3.828   0.092  15.692 -1.2631 -0.8508 -0.4381
   67MPD2     C 1019   4.658   3.903  14.113  0.1024 -0.6194 -0.0763
   67MPD2    C1 1020   4.598   3.834  14.218 -0.6096  0.0528 -0.0724
   67MPD2    C2 1021   4.513   3.731  14.198  0.2080  0.2588 -0.1697
   67MPD2    C3 1022   4.459   3.710  14.072  0.1749 -1.0305  0.5354
   67MPD2    C4 1023   4.505   3.787  13.967  0.2172 -0.1688 -0.0002
   67MPD2    C5 1024   4.609   3.876  13.989 -0.0218 -0.4423  1.0274
   67MPD2     H 1025   4.477   3.682  14.288  2.3243  0.0686  0.5789
   67MPD2    H1 1026   4.478   3.772  13.864  1.4026 -1.3218 -0.1447
   67MPD2    H2 1027   0.005   3.984  14.134 -0.6393  0.0591 -0.2665
   67MPD2    H3 1028   4.653   3.925  13.903  0.8989  1.9441  2.8880
   67MPD2     N 1029   4.342   3.628  14.054 -0.2370  0.2718  0.3357
   67MPD2    H5 1030   4.290   3.642  13.969  2.2122 -1.1581 -1.4049
   67MPD2    N1 1031   4.636   3.857  14.353  0.3790  0.5005 -0.1480
   67MPD2    H7 1032   4.591   3.803  14.427  0.5605  1.0020  0.3274
   68TCq2    C1 1033   0.003   3.945  14.403 -0.5010  0.1249  0.2080
   68TCq2    O2 1034   0.110   3.989  14.355  0.0518 -0.5901  0.3267
   68TCq2    C2 1035   4.682   3.990  14.534  0.6677 -0.6652 -0.3131
   68TCq2    C3 1036   4.554   4.030  14.548  0.2984 -0.4017  0.2014
   68TCq2    C4 1037   4.516   4.096  14.663 -0.2312 -1.2649  0.0049
   68TCq2    C5 1038   4.607   4.122  14.761  0.4979 -0.1699  0.6615
   68TCq2    C6 1039   0.012   4.087  14.733 -0.1133  0.4625  0.0981
   68TCq2    C7 1040   0.052   4.027  14.619 -0.2515 -0.3974  0.3892
   68TCq2    C8 1041   0.118   4.102  14.838 -0.0957 -0.4038  0.0274
   68TCq2    O4 1042   0.235   4.087  14.810 -0.0571 -0.1234 -0.2247
   68TCq2    C9 1043   4.373   4.126  14.686 -0.0645  0.8035 -0.3837
   68TCq2    O5 1044   4.296   4.123  14.586  0.3023  0.9408  0.2553
   68TCq2    O6 1045   4.333   4.129  14.805 -0.8303 -0.2392 -0.1530
   68TCq2    H2 1046   4.473   4.013  14.479 -1.6927  1.1101  2.1469
   68TCq2    H3 1047   4.576   4.172  14.853 -1.0184  1.2485 -0.6283
   68TCq2    H4 1048   0.158   4.011  14.601 -0.2079  0.7373 -0.3634
   69TMC2    C1 1049   1.459   1.023  12.790 -0.3482 -0.5813  0.0240
   69TMC2    C2 1050   1.416   1.150  12.795 -0.2654 -0.4847  0.1072
   69TMC2    C3 1051   1.412   1.222  12.675 -0.1930 -0.1724  0.1545
   69TMC2    C4 1052   1.504   0.972  12.679  0.9833  0.4293  1.0560
   69TMC2    C5 1053   1.497   1.037  12.559  0.5452 -0.4813  0.0012
   69TMC2    C6 1054   1.447   1.165  12.554  0.6579  0.6377 -0.3432
   69TMC2     C 1055   1.470   0.940  12.911  0.0194 -0.1203  0.1128
   69TMC2     O 1056   1.479   0.820  12.891 -0.1406 -0.0594 -0.2745
   69TMC2     H 1057   1.354   1.174  12.881  0.0508 -1.7207  0.6916
   69TMC2    H1 1058   1.543   0.871  12.684  0.3994  0.0847 -1.4687
   69TMC2    H2 1059   1.453   1.230  12.468  1.1675  0.2495 -0.6057
   69TMC2    C7 1060   1.544   0.969  12.439  0.2504 -0.1037  0.6880
   69TMC2    C8 1061   1.392   1.365  12.683  0.4799 -0.2484 -0.0029
   69TMC2    O1 1062   1.628   0.881  12.447  0.5633 -0.2385  0.2919
   69TMC2    O2 1063   1.373   1.436  12.587  0.0479  0.1859 -0.1692
   69TMC2    O5 1064   1.373   1.393  12.814  0.1637 -0.0382  0.2713
   69TMC2    H5 1065   1.418   1.328  12.871 -0.7082 -0.6509  0.2604
   70MPD2     C 1066   1.562   1.044  13.251  0.2317  1.1278  0.8227
   70MPD2    C1 1067   1.528   0.956  13.155 -0.0636  0.5019  0.7532
   70MPD2    C2 1068   1.540   0.819  13.176 -0.3082 -0.1521 -0.1563
   70MPD2    C3 1069   1.576   0.772  13.300  0.2350 -0.0354  0.4402
   70MPD2    C4 1070   1.597   0.861  13.404  0.3595 -0.2071  0.0989
   70MPD2    C5 1071   1.587   0.996  13.381 -1.1022 -0.5470 -0.2987
   70MPD2     H 1072   1.536   0.744  13.099 -0.9717  1.3137 -1.5502
   70MPD2    H1 1073   1.621   0.837  13.507 -1.0983  0.4419  0.5941
   70MPD2    H2 1074   1.559   1.150  13.228  4.1866  0.9728 -0.5030
   70MPD2    H3 1075   1.601   1.068  13.461 -0.7739  0.4363 -1.2286
   70MPD2     N 1076   1.597   0.639  13.322  0.4826 -0.7113 -0.0271
   70MPD2    H5 1077   1.659   0.625  13.401 -0.3928  2.7264  1.2640
   70MPD2    N1 1078   1.490   1.012  13.029  0.4807 -0.1177  0.2594
   70MPD2    H7 1079   1.494   1.113  13.030  1.4988 -0.1640  1.2118
   71TMC2    C1 1080   4.226   1.652   1.962 -0.3965  0.5936  0.0412
   71TMC2    C2 1081   4.287   1.757   2.034  0.1219 -0.5850  0.5368
   71TMC2    C3 1082   4.304   1.736   2.173 -0.2887  0.0927  0.7991
   71TMC2    C4 1083   4.171   1.548   2.028  0.7764 -0.6502 -0.4241
   71TMC2    C5 1084   4.192   1.530   2.163  0.2419  1.0576  0.5993
   71TMC2    C6 1085   4.260   1.629   2.239 -0.7594  0.4294 -0.4120
   71TMC2     C 1086   4.168   1.682   1.836 -0.6701 -0.8722  0.8587
   71TMC2     O 1087   4.067   1.624   1.808 -0.2427 -0.0175  0.4147
   71TMC2     H 1088   4.323   1.849   1.990 -2.0185  0.0802  0.1892
   71TMC2    H1 1089   4.141   1.466   1.964  0.0487 -0.6089 -0.1381
   71TMC2    H2 1090   4.270   1.617   2.346 -0.5527  2.8119 -0.1659
   71TMC2    C7 1091   4.197   1.392   2.214 -0.3563  0.1059  0.3865
   71TMC2    C8 1092   4.368   1.842   2.252 -0.2861 -0.3513  0.0677
   71TMC2    O1 1093   4.266   1.370   2.311  0.4208 -0.1784 -0.1671
   71TMC2    O2 1094   4.313   1.899   2.348  0.7792  0.6906  0.8691
   71TMC2    O5 1095   4.460   1.893   2.166 -0.8764  0.4380  0.4353
   71TMC2    H5 1096   4.483   1.838   2.088  0.0422  1.0780  0.2536
   72MPD2     C 1097   4.182   1.822   1.343  0.0053 -0.0673  0.5770
   72MPD2    C1 1098   4.080   1.779   1.418 -0.5442 -0.4197  0.9992
   72MPD2    C2 1099   4.096   1.745   1.554  0.1472 -0.5304  0.6362
   72MPD2    C3 1100   4.220   1.767   1.616 -0.0670  0.3347 -0.4108
   72MPD2    C4 1101   4.322   1.816   1.539 -0.1070 -1.2219  0.2882
   72MPD2    C5 1102   4.302   1.828   1.407  0.2535 -0.3337  0.2308
   72MPD2     H 1103   4.011   1.702   1.605  0.6001 -1.2416  0.7818
   72MPD2    H1 1104   4.413   1.843   1.590  0.5379  1.6217 -2.3664
   72MPD2    H2 1105   4.183   1.845   1.237  0.9663  1.3933  0.9083
   72MPD2    H3 1106   4.387   1.866   1.352  0.8617 -1.5645  0.3472
   72MPD2     N 1107   4.259   1.731   1.747 -0.5257 -0.5300 -0.1641
   72MPD2    H5 1108   4.353   1.758   1.773 -0.5653 -1.1465  0.6035
   72MPD2    N1 1109   3.947   1.770   1.366  0.3668  0.1995  0.1266
   72MPD2    H7 1110   3.869   1.754   1.429 -0.1548  0.7673 -0.3691
   73TMC2    C1 1111   3.681   2.510  14.033 -0.3352  0.5109  0.0275
   73TMC2    C2 1112   3.656   2.373  14.043  0.2225  0.5159  0.4792
   73TMC2    C3 1113   3.724   2.302  14.140 -0.0167  0.0339 -0.0829
   73TMC2    C4 1114   3.758   2.577  14.129 -0.5973 -0.2344 -1.0743
   73TMC2    C5 1115   3.827   2.502  14.222  0.2095 -0.7074 -0.0375
   73TMC2    C6 1116   3.804   2.370  14.230 -0.0002 -0.7591 -0.1851
   73TMC2     C 1117   3.698   2.576  13.903 -0.7698 -0.3594 -0.7235
   73TMC2     O 1118   3.774   2.669  13.915 -0.1568  0.2117 -0.5022
   73TMC2     H 1119   3.582   2.323  13.982 -0.3610  0.7200  1.0198
   73TMC2    H1 1120   3.767   2.684  14.133 -0.7682 -0.2885  1.3721
   73TMC2    H2 1121   3.852   2.324  14.315  0.4148  0.8421  0.4519
   73TMC2    C7 1122   3.966   2.535  14.223  0.2486  0.5506 -0.7587
   73TMC2    C8 1123   3.666   2.182  14.203  1.0026  0.0443  0.3046
   73TMC2    O1 1124   4.042   2.463  14.290 -0.5733  0.0948 -0.6962
   73TMC2    O2 1125   3.661   2.185  14.325  0.6547  0.7094  0.5176
   73TMC2    O5 1126   3.567   2.153  14.113  0.4774 -0.4796 -0.5013
   73TMC2    H5 1127   3.610   2.150  14.025  0.8233  0.3622 -0.3603
   74MPD2     C 1128   3.769   2.556  13.397  0.5673  0.0383  0.3420
   74MPD2    C1 1129   3.812   2.649  13.492  0.5652 -0.1477  0.2737
   74MPD2    C2 1130   3.754   2.641  13.618 -0.0899 -0.2279 -0.7525
   74MPD2    C3 1131   3.679   2.530  13.661 -0.0009  1.0591  0.1183
   74MPD2    C4 1132   3.642   2.436  13.570  0.8887 -0.4162 -0.1238
   74MPD2    C5 1133   3.690   2.453  13.444  0.1183  0.2986 -0.6697
   74MPD2     H 1134   3.788   2.714  13.690 -0.4851  0.1378 -0.9374
   74MPD2    H1 1135   3.590   2.344  13.593  0.2880 -0.6602 -2.4929
   74MPD2    H2 1136   3.807   2.560  13.295 -0.3287  0.9462  0.0480
   74MPD2    H3 1137   3.650   2.380  13.375  1.1663  0.2632 -1.2284
   74MPD2     N 1138   3.643   2.513  13.795 -0.4285 -1.2662 -0.0590
   74MPD2    H5 1139   3.592   2.431  13.825 -3.9656  1.3262  0.9670
   74MPD2    N1 1140   3.909   2.743  13.457 -0.3686 -0.5811  0.4028
   74MPD2    H7 1141   3.965   2.705  13.382 -0.0370  0.3613  0.1867
   75TCq2    C1 1142   4.281   3.545  14.142  0.0361  0.4598  0.2181
   75TCq2    O2 1143   4.320   3.512  14.249  0.0187  0.1635  0.4949
   75TCq2    C2 1144   4.148   3.509  14.104 -0.8765  0.0252 -0.4953
   75TCq2    C3 1145   4.078   3.433  14.193 -0.3395 -0.5756  0.0127
   75TCq2    C4 1146   3.948   3.415  14.182 -0.0340 -0.2864 -0.9458
   75TCq2    C5 1147   3.878   3.467  14.075 -1.0108 -0.1140 -0.0210
   75TCq2    C6 1148   3.945   3.549  13.983  0.5870 -0.4374 -0.1587
   75TCq2    C7 1149   4.081   3.570  13.999 -0.2263 -0.4815  0.2272
   75TCq2    C8 1150   3.884   3.605  13.864  0.9969  0.3781  0.8328
   75TCq2    O4 1151   3.956   3.615  13.765 -0.3341  0.3956  0.0989
   75TCq2    C9 1152   3.876   3.329  14.272 -0.1207  0.3889 -0.7348
   75TCq2    O5 1153   3.934   3.299  14.385  0.4746 -0.6575  0.3146
   75TCq2    O6 1154   3.793   3.247  14.221  1.1236 -0.0255  0.3277
   75TCq2    H2 1155   4.122   3.379  14.276  0.6679  0.4522  0.1467
   75TCq2    H3 1156   3.769   3.467  14.069 -0.8627  2.6033 -2.6652
   75TCq2    H4 1157   4.129   3.635  13.926 -1.4792 -1.5440 -1.5360
   76MPD2     C 1158   2.485   0.335  12.122 -0.0640 -0.3179  0.6414
   76MPD2    C1 1159   2.474   0.369  11.989  0.3256 -0.7444 -0.0222
   76MPD2    C2 1160   2.573   0.331  11.900  0.1634  0.2212 -0.4551
   76MPD2    C3 1161   2.683   0.256  11.940  0.1339  0.3336 -0.0197
   76MPD2    C4 1162   2.688   0.218  12.074  0.1298  0.7552 -0.3120
   76MPD2    C5 1163   2.589   0.260  12.162  0.0235  0.1092  0.0540
   76MPD2     H 1164   2.574   0.360  11.796  1.9087  0.1335 -0.4593
   76MPD2    H1 1165   2.773   0.164  12.113 -0.2752 -0.7223 -1.4371
   76MPD2    H2 1166   2.415   0.362  12.201 -0.8126 -1.2660  0.3106
   76MPD2    H3 1167   2.603   0.225  12.264  1.5076 -0.2203 -0.2520
   76MPD2     N 1168   2.797   0.234  11.856  0.2102 -0.2607 -0.6813
   76MPD2    H5 1169   2.867   0.175  11.900 -0.6369 -1.6104 -1.1456
   76MPD2    N1 1170   2.370   0.457  11.948  0.0747  0.1232  0.7652
   76MPD2    H7 1171   2.370   0.497  11.855 -1.1426 -1.2632  0.1579
   77TCq2    C1 1172   2.809   0.254  11.724 -0.2525 -0.0927  0.9520
   77TCq2    O2 1173   2.727   0.294  11.644 -0.4208 -0.2171 -0.2436
   77TCq2    C2 1174   2.940   0.211  11.676 -0.0455  0.6012 -0.1316
   77TCq2    C3 1175   2.947   0.203  11.540  0.0882  1.0352 -0.3012
   77TCq2    C4 1176   3.068   0.171  11.487  0.8009 -0.6453  0.1361
   77TCq2    C5 1177   3.177   0.147  11.565  0.7200  0.0380 -0.1767
   77TCq2    C6 1178   3.166   0.166  11.696  0.8148 -0.0832  0.4998
   77TCq2    C7 1179   3.047   0.200  11.759 -0.0239  0.2899 -0.3060
   77TCq2    C8 1180   3.271   0.105  11.775 -0.4850  0.8978  0.0061
   77TCq2    O4 1181   3.359   0.043  11.716 -0.5673  0.1593 -0.5049
   77TCq2    C9 1182   3.070   0.152  11.336 -0.3739 -0.0605 -0.0095
   77TCq2    O5 1183   2.962   0.142  11.275  0.4719  0.2598  0.2650
   77TCq2    O6 1184   3.182   0.131  11.285 -0.6517  0.5531  0.0632
   77TCq2    H2 1185   2.863   0.224  11.476 -0.1284  1.5318  0.1455
   77TCq2    H3 1186   3.270   0.121  11.515  1.0912 -0.9726  1.0130
   77TCq2    H4 1187   3.045   0.191  11.867  2.6441 -0.2885 -0.3056
   78MPD1     C 1188   4.460   0.785   2.185 -0.4631 -0.2489 -0.5018
   78MPD1    C1 1189   4.570   0.858   2.197  0.2542  0.2562 -0.7137
   78MPD1    C2 1190   4.575   0.974   2.121 -0.1217  0.0379 -0.3391
   78MPD1    C3 1191   4.478   1.014   2.037 -0.6993  0.9179 -0.4823
   78MPD1    C4 1192   4.366   0.927   2.026 -0.5859 -0.7907  0.0139
   78MPD1    C5 1193   4.365   0.810   2.094 -0.0607  0.0239  0.0848
   78MPD1     H 1194   4.664   1.035   2.131 -0.6945  0.9243 -0.6775
   78MPD1    H1 1195   4.274   0.956   1.976 -1.2121 -0.5204  1.3158
   78MPD1    H2 1196   4.454   0.702   2.254  3.7931  0.2673  0.5057
   78MPD1    H3 1197   4.277   0.748   2.093  0.1345 -0.2728  1.9177
   78MPD1     N 1198   4.486   1.136   1.957  0.3773 -0.0235 -0.0893
   78MPD1    H5 1199   4.418   1.147   1.883  1.0296  0.7947 -0.5556
   78MPD1    N1 1200   4.670   0.822   2.293  0.1854 -0.1810  0.2250
   78MPD1    H6 1201   4.684   0.722   2.309  0.7025 -0.5560 -2.6350
   78MPD1    H7 1202   0.042   0.861   2.281  0.6338 -0.2306  3.5604
   79TCq2    C1 1203   4.571   1.243   1.984  0.0967 -0.6175 -0.2930
   79TCq2    O2 1204   4.645   1.259   2.081 -0.6230  0.4028  0.3817
   79TCq2    C2 1205   4.563   1.341   1.884  0.3110 -0.7356  0.0708
   79TCq2    C3 1206   4.585   1.469   1.926  0.8024  0.0366 -0.0620
   79TCq2    C4 1207   4.572   1.573   1.837 -0.1121  0.1485  0.9985
   79TCq2    C5 1208   4.532   1.548   1.712 -0.3888  0.4552  1.2847
   79TCq2    C6 1209   4.541   1.418   1.668 -0.7021  0.6230 -0.0837
   79TCq2    C7 1210   4.542   1.309   1.754 -0.7950  0.0909 -0.2859
   79TCq2    C8 1211   4.518   1.377   1.529  0.3278  0.4348  0.2500
   79TCq2    O4 1212   4.516   1.256   1.504  0.2193  0.1329 -0.8423
   79TCq2    C9 1213   4.575   1.711   1.897  0.4505 -0.2255 -0.1703
   79TCq2    O5 1214   4.597   1.719   2.019 -0.3337 -0.4991 -0.0588
   79TCq2    O6 1215   4.510   1.804   1.836  0.2733  0.2804 -0.4417
   79TCq2    H2 1216   4.610   1.483   2.031  1.7750  0.5115 -0.3634
   79TCq2    H3 1217   4.510   1.627   1.641  2.9615 -0.1691 -0.4162
   79TCq2    H4 1218   4.530   1.207   1.720 -1.6877  0.3807 -0.8708
   80MPD2     C 1219   2.208   4.363  12.646  0.0416 -0.2564  0.0909
   80MPD2    C1 1220   2.149   4.353  12.515  0.1112 -0.1341 -0.2605
   80MPD2    C2 1221   2.019   4.402  12.493 -0.8980 -0.6407  0.8198
   80MPD2    C3 1222   1.946   4.451  12.598 -0.7016  0.4530  0.4884
   80MPD2    C4 1223   2.009   4.461  12.722  0.4604  0.4990  0.2269
   80MPD2    C5 1224   2.135   4.416  12.742 -0.1007 -0.3146 -0.0711
   80MPD2     H 1225   1.983   4.400  12.391  1.3464 -0.6300  0.0300
   80MPD2    H1 1226   1.957   4.490  12.813 -1.8581 -0.8966 -0.6441
   80MPD2    H2 1227   2.302   4.320  12.678  0.1098 -0.0872  0.1207
   80MPD2    H3 1228   2.165   4.412  12.846  0.5610 -0.2206 -0.2587
   80MPD2     N 1229   1.812   4.499  12.581 -0.3570  0.0285  0.1758
   80MPD2    H5 1230   1.766   4.517  12.669 -2.2826  1.5808 -1.1516
   80MPD2    N1 1231   2.211   4.294  12.407  0.4460  0.1877  0.3724
   80MPD2    H7 1232   2.156   4.286  12.321  1.2597 -2.7781  0.1344
   81TCq2    C1 1233   2.341   4.269  12.388 -0.1123 -0.4404  0.8523
   81TCq2    O2 1234   2.435   4.279  12.464 -0.2237 -0.1450 -0.4634
   81TCq2    C2 1235   2.370   4.227  12.256 -0.7026 -0.2496  0.3970
   81TCq2    C3 1236   2.495   4.247  12.210 -0.3416  0.6121  0.6855
   81TCq2    C4 1237   2.522   4.182  12.095  0.1270  0.2417 -0.1828
   81TCq2    C5 1238   2.437   4.108  12.019 -0.2799 -0.1596 -0.0679
   81TCq2    C6 1239   2.308   4.087  12.070  0.2737  0.0650  0.4276
   81TCq2    C7 1240   2.276   4.148  12.189  0.3898  0.1074 -0.4135
   81TCq2    C8 1241   2.241   3.971  12.015 -0.1121  0.5336  0.1696
   81TCq2    O4 1242   2.288   3.932  11.911  0.6734  0.8846 -0.1454
   81TCq2    C9 1243   2.661   4.187  12.052 -0.2417 -0.3694  0.2523
   81TCq2    O5 1244   2.686   4.129  11.941  0.1801 -0.1051  0.0273
   81TCq2    O6 1245   2.746   4.251  12.116 -0.3344  0.9045  0.5185
   81TCq2    H2 1246   2.567   4.287  12.280  1.4860 -0.8893 -0.3376
   81TCq2    H3 1247   2.465   4.056  11.929  2.7970  2.7062 -0.7805
   81TCq2    H4 1248   2.180   4.129  12.235  1.5335 -0.4400  1.7216
   82MPD2     C 1249   0.550   4.071  10.663 -0.7241 -0.1015 -0.4077
   82MPD2    C1 1250   0.552   3.981  10.562 -0.0202 -0.6677  0.3639
   82MPD2    C2 1251   0.607   3.857  10.577 -0.2872  0.0569  0.3933
   82MPD2    C3 1252   0.663   3.817  10.702 -0.0321 -0.3731  0.2274
   82MPD2    C4 1253   0.645   3.900  10.807 -0.8762  0.3300 -0.0789
   82MPD2    C5 1254   0.597   4.023  10.780 -0.0789  0.7632 -0.0205
   82MPD2     H 1255   0.605   3.794  10.488  0.5683 -0.8328  1.0049
   82MPD2    H1 1256   0.684   3.870  10.903 -0.2173 -2.0705 -1.0978
   82MPD2    H2 1257   0.520   4.176  10.664 -0.0492  0.1030 -1.4358
   82MPD2    H3 1258   0.591   4.087  10.868  2.7628  0.2380  0.5408
   82MPD2     N 1259   0.722   3.691  10.735  0.0860  0.0589  0.4818
   82MPD2    H5 1260   0.748   3.677  10.832 -1.8329  0.9658  1.1210
   82MPD2    N1 1261   0.507   4.036  10.440  0.3792  0.6013  0.7141
   82MPD2    H7 1262   0.480   4.133  10.448 -0.3754  0.3987  0.6348
   83TCq2    C1 1263   0.705   3.575  10.661 -0.4146 -0.0003  0.4221
   83TCq2    O2 1264   0.640   3.567  10.554 -0.1982 -0.2591 -0.4758
   83TCq2    C2 1265   0.751   3.447  10.710  0.4512  0.1171 -0.7881
   83TCq2    C3 1266   0.862   3.456  10.795  0.5419  0.7708 -0.3097
   83TCq2    C4 1267   0.873   3.359  10.898  0.3007 -0.6159 -0.0084
   83TCq2    C5 1268   0.779   3.258  10.921  0.5661 -0.7858 -0.4986
   83TCq2    C6 1269   0.663   3.264  10.835  0.2910 -0.4566  0.4499
   83TCq2    C7 1270   0.650   3.357  10.734 -0.3559  0.4533  0.3561
   83TCq2    C8 1271   0.538   3.201  10.894  0.0469 -0.0119  0.1888
   83TCq2    O4 1272   0.536   3.157  11.010  0.2413  0.4619 -0.3268
   83TCq2    C9 1273   0.983   3.371  10.995  0.5045  0.2444  0.2279
   83TCq2    O5 1274   0.970   3.307  11.104  0.3414  0.2647  0.1589
   83TCq2    O6 1275   1.091   3.412  10.949  0.0328 -0.0916  0.7625
   83TCq2    H2 1276   0.935   3.535  10.784  2.5477 -1.0087  0.1292
   83TCq2    H3 1277   0.780   3.196  11.010 -0.8551 -1.6145 -1.0462
   83TCq2    H4 1278   0.554   3.373  10.685  0.4334  0.2696 -1.2287
   84TCq2    C1 1279   1.723   2.683  10.320 -0.1727 -0.0529 -0.4845
   84TCq2    O2 1280   1.700   2.582  10.386  0.0039 -0.6168  0.1042
   84TCq2    C2 1281   1.741   2.808  10.396 -0.2505  0.0471 -0.3076
   84TCq2    C3 1282   1.823   2.908  10.347 -0.1851  0.2330 -0.2820
   84TCq2    C4 1283   1.850   3.020  10.422  0.1896  0.5611 -0.4753
   84TCq2    C5 1284   1.787   3.040  10.542 -0.0117  0.2630  0.5538
   84TCq2    C6 1285   1.713   2.935  10.589  0.2380 -0.3387  0.7161
   84TCq2    C7 1286   1.691   2.817  10.526 -0.3662  0.3178 -0.4274
   84TCq2    C8 1287   1.651   2.972  10.711 -0.3838 -0.1432 -0.2832
   84TCq2    O4 1288   1.674   3.083  10.755  0.2641 -0.1167  0.0093
   84TCq2    C9 1289   1.944   3.118  10.384  0.4578  0.5081  0.5426
   84TCq2    O5 1290   1.946   3.230  10.444  0.2050 -0.1474 -0.1828
   84TCq2    O6 1291   2.028   3.086  10.289  0.2458 -0.3466  0.8378
   84TCq2    H2 1292   1.881   2.895  10.256 -1.5857  0.2734 -1.1819
   84TCq2    H3 1293   1.805   3.132  10.595 -0.7077  0.6621  0.0996
   84TCq2    H4 1294   1.626   2.740  10.565  0.3615 -0.0557  0.0415
   85MPD2     C 1295   1.245   0.668  16.139 -0.0250 -0.3996 -0.3632
   85MPD2    C1 1296   1.249   0.611  16.011 -0.5089 -0.8398 -0.5604
   85MPD2    C2 1297   1.310   0.669  15.902 -0.3355 -0.1303  0.0392
   85MPD2    C3 1298   1.374   0.790  15.922 -0.1243 -0.2232  0.3365
   85MPD2    C4 1299   1.369   0.855  16.045 -0.0534 -0.0595 -0.4286
   85MPD2    C5 1300   1.304   0.791  16.147 -0.2837 -0.2657 -0.3436
   85MPD2     H 1301   1.320   0.620  15.806 -1.1262  0.9688 -0.6035
   85MPD2    H1 1302   1.416   0.948  16.076 -2.2163  1.7685 -2.6188
   85MPD2    H2 1303   1.180   0.638  16.221  1.7466 -2.5943  0.2291
   85MPD2    H3 1304   1.313   0.843  16.242  1.2587 -1.3554  0.1140
   85MPD2     N 1305   1.442   0.858  15.812  0.0194  0.1474 -0.1415
   85MPD2    H5 1306   1.442   0.804  15.726 -1.0760 -1.9956  1.2235
   85MPD2    N1 1307   1.179   0.492  15.982  0.5259 -0.4637  0.4984
   85MPD2    H7 1308   1.193   0.447  15.893  0.5426  1.2910 -0.3889
   86TCq2    C1 1309   1.505   0.985  15.817 -0.2429 -0.0774 -0.1395
   86TCq2    O2 1310   1.510   1.070  15.906  0.2966 -0.2386 -0.0182
   86TCq2    C2 1311   1.575   1.022  15.693 -0.0441 -0.0192  0.0564
   86TCq2    C3 1312   1.605   1.152  15.666 -0.0416  0.4809  0.0878
   86TCq2    C4 1313   1.696   1.180  15.563  0.6163 -0.2023 -0.4342
   86TCq2    C5 1314   1.750   1.071  15.494 -0.1904 -0.3209  0.0292
   86TCq2    C6 1315   1.720   0.944  15.529  0.5781  0.5793  0.4803
   86TCq2    C7 1316   1.627   0.917  15.623 -0.0926  0.0098  0.1668
   86TCq2    C8 1317   1.773   0.828  15.451 -0.2171  0.0467 -0.3279
   86TCq2    O4 1318   1.708   0.726  15.457 -0.0819 -0.0535  0.4311
   86TCq2    C9 1319   1.720   1.320  15.528  0.2059 -0.5792  0.7302
   86TCq2    O5 1320   1.636   1.401  15.583  0.2575  0.8736 -0.4842
   86TCq2    O6 1321   1.806   1.344  15.438  0.6547  0.7174  0.2767
   86TCq2    H2 1322   1.555   1.229  15.724 -0.0602 -0.2867  1.0933
   86TCq2    H3 1323   1.818   1.083  15.410  0.0591  1.0718  0.4187
   86TCq2    H4 1324   1.600   0.814  15.646  0.6126  0.1697  1.7072
   87MPD2     C 1325   3.726   0.141   1.508 -0.3749 -1.5504  0.6759
   87MPD2    C1 1326   3.695   0.027   1.436  0.1855  0.0039 -0.7264
   87MPD2    C2 1327   3.591   0.026   1.349 -0.0840  0.2626 -0.6298
   87MPD2    C3 1328   3.506   0.139   1.344 -0.6231 -0.2549 -0.1575
   87MPD2    C4 1329   3.533   0.248   1.429 -0.1197  0.4850  0.3072
   87MPD2    C5 1330   3.640   0.246   1.511 -0.6755  0.2606 -0.0299
   87MPD2     H 1331   3.566   4.662   1.287 -1.4425  0.1934 -0.0084
   87MPD2    H1 1332   3.455   0.323   1.436 -1.8748 -1.1848 -1.5466
   87MPD2    H2 1333   3.811   0.146   1.576  1.1742  1.3673 -1.4541
   87MPD2    H3 1334   3.669   0.333   1.570  0.4718  0.1968 -0.4879
   87MPD2     N 1335   3.392   0.147   1.256  0.3763  0.0374 -0.5148
   87MPD2    H5 1336   3.338   0.231   1.238  0.0221  0.2804  1.6498
   87MPD2    N1 1337   3.793   4.644   1.457 -0.0014  0.0581  0.7155
   87MPD2    H7 1338   3.878   4.664   1.508  1.2916 -1.1374 -0.9669
   88TCq2    C1 1339   3.790   4.521   1.398 -0.1094  0.3450  0.5020
   88TCq2    O2 1340   3.706   4.481   1.313 -0.8568  0.0907  0.0109
   88TCq2    C2 1341   3.898   4.431   1.445  0.1672  0.0519 -0.1573
   88TCq2    C3 1342   3.954   4.442   1.571  0.3822 -0.1918  0.2972
   88TCq2    C4 1343   4.075   4.378   1.596  0.6011 -0.1153  0.0012
   88TCq2    C5 1344   4.122   4.298   1.496  0.9141  0.4014 -0.0297
   88TCq2    C6 1345   4.054   4.268   1.382  0.3259  0.1522  0.3033
   88TCq2    C7 1346   3.940   4.342   1.348 -0.3488 -0.5845  0.3884
   88TCq2    C8 1347   4.133   4.202   1.282  0.2266 -0.7421  0.1228
   88TCq2    O4 1348   4.255   4.210   1.289  0.3609 -0.0280 -0.0762
   88TCq2    C9 1349   4.155   4.398   1.720 -0.5209 -0.3383 -0.0200
   88TCq2    O5 1350   4.117   4.493   1.799 -0.2047 -0.1205 -0.0857
   88TCq2    O6 1351   4.268   4.347   1.722  0.1973  0.1153 -0.0676
   88TCq2    H2 1352   3.915   4.515   1.640 -2.9493  0.6563 -2.4938
   88TCq2    H3 1353   4.218   4.249   1.513  1.7588  1.7263 -0.9612
   88TCq2    H4 1354   3.892   4.348   1.251  0.7503  0.2610 -0.0974
   89MPD2     C 1355   4.638   2.677   1.927  0.0378  0.2533 -0.2134
   89MPD2    C1 1356   4.571   2.696   2.041 -0.3531  0.4165  0.1325
   89MPD2    C2 1357   4.565   2.828   2.093 -0.0243  0.5594  0.0935
   89MPD2    C3 1358   4.613   2.940   2.030  0.1276 -0.0371  0.1747
   89MPD2    C4 1359   4.676   2.917   1.903  0.2682 -0.1910 -0.1633
   89MPD2    C5 1360   4.688   2.791   1.855 -0.4551  0.0149  0.3178
   89MPD2     H 1361   4.522   2.846   2.190 -2.6475  0.3657 -1.0378
   89MPD2    H1 1362   0.005   2.995   1.846 -2.6148  0.5759 -1.7106
   89MPD2    H2 1363   4.656   2.581   1.880  0.3096  0.1122  0.1773
   89MPD2    H3 1364   0.017   2.773   1.762  0.0402  2.3509  0.1481
   89MPD2     N 1365   4.605   3.074   2.086  0.1143  0.1660  0.2762
   89MPD2    H5 1366   4.597   3.078   2.187  0.5651  1.1166  0.2732
   89MPD2    N1 1367   4.514   2.596   2.121  0.1749  0.3715 -0.9301
   89MPD2    H7 1368   4.465   2.621   2.206 -0.6427 -0.8181 -1.0490
   90TCq2    C1 1369   4.635   3.191   2.018 -0.2179 -0.3980  0.3901
   90TCq2    O2 1370   4.650   3.210   1.895 -0.1366 -0.3831 -0.2965
   90TCq2    C2 1371   4.637   3.306   2.105  0.6206 -0.2181 -0.4248
   90TCq2    C3 1372   4.608   3.292   2.237  0.2322 -0.1641  0.0767
   90TCq2    C4 1373   4.620   3.397   2.312  0.5033 -1.0311 -0.1222
   90TCq2    C5 1374   4.681   3.510   2.269  0.0515  0.1754 -0.1217
   90TCq2    C6 1375   4.713   3.523   2.140  0.4875  0.1676  0.2893
   90TCq2    C7 1376   4.684   3.422   2.053 -0.5377 -0.6559 -0.0505
   90TCq2    C8 1377   0.076   3.628   2.109  0.5957  0.1599 -0.6398
   90TCq2    O4 1378   0.092   3.720   2.191 -0.2823  0.0454  0.2973
   90TCq2    C9 1379   4.579   3.390   2.457  0.0713 -0.4021  0.4947
   90TCq2    O5 1380   4.580   3.500   2.519 -0.0061  0.0447  0.1298
   90TCq2    O6 1381   4.557   3.277   2.508 -0.1056 -0.5993  0.0192
   90TCq2    H2 1382   4.565   3.201   2.277  0.5883 -0.4431 -0.1732
   90TCq2    H3 1383   4.678   3.601   2.327 -0.3728 -0.5324  0.9628
   90TCq2    H4 1384   0.002   3.419   1.952  0.7788  0.8307  0.4222
   91TMC2    C1 1385   1.247   1.683  16.355  0.7740 -0.4869  0.6274
   91TMC2    C2 1386   1.286   1.655  16.488  1.0196 -0.2252  0.1254
   91TMC2    C3 1387   1.186   1.635  16.573 -0.4478 -0.2812  0.5343
   91TMC2    C4 1388   1.118   1.672  16.311  0.1196 -0.1229  0.3102
   91TMC2    C5 1389   1.026   1.640  16.407 -0.3576 -0.4931  0.6011
   91TMC2    C6 1390   1.057   1.624  16.537 -0.2468  0.0055 -0.3222
   91TMC2     C 1391   1.351   1.724  16.261  0.1245  0.6437 -0.2302
   91TMC2     O 1392   1.319   1.701  16.144  0.3464  0.6634 -0.4935
   91TMC2     H 1393   1.389   1.668  16.522  0.6787 -1.0433  1.4857
   91TMC2    H1 1394   1.103   1.690  16.205  0.1303 -1.7692  0.0368
   91TMC2    H2 1395   0.973   1.593  16.598  0.4952 -1.8508 -0.2208
   91TMC2    C7 1396   0.904   1.588  16.371 -0.1820 -0.4298 -0.0548
   91TMC2    C8 1397   1.217   1.650  16.713  0.9261  0.1364  0.6215
   91TMC2    O1 1398   0.842   1.508  16.445  0.2570 -0.1350  0.3723
   91TMC2    O2 1399   1.328   1.629  16.759 -0.0376  0.3361  0.7601
   91TMC2    O5 1400   1.107   1.689  16.778 -0.3490 -0.2842 -0.0084
   91TMC2    H5 1401   1.022   1.700  16.730 -0.5605  0.2880  0.4953
   92MPD2     C 1402   1.550   1.856  16.101  0.0807 -0.1418 -0.0792
   92MPD2    C1 1403   1.575   1.826  16.235 -1.3194  0.4623  0.0876
   92MPD2    C2 1404   1.701   1.837  16.290 -0.1801 -0.2869 -0.1950
   92MPD2    C3 1405   1.808   1.866  16.207 -0.2548  0.2915  0.8558
   92MPD2    C4 1406   1.789   1.900  16.079  0.0651 -0.5376  0.7893
   92MPD2    C5 1407   1.665   1.897  16.031  0.4936 -0.3840 -0.3878
   92MPD2     H 1408   1.709   1.817  16.397 -2.9850 -0.9879 -0.1181
   92MPD2    H1 1409   1.867   1.915  16.005 -2.1590  1.3181 -1.1412
   92MPD2    H2 1410   1.455   1.856  16.047 -0.0320 -0.6137  0.1210
   92MPD2    H3 1411   1.673   1.911  15.924 -2.9653 -0.4175 -0.6545
   92MPD2     N 1412   1.937   1.861  16.268 -0.6569  0.3812 -0.3196
   92MPD2    H5 1413   1.934   1.831  16.364 -1.1739 -2.3728 -1.1960
   92MPD2    N1 1414   1.464   1.783  16.314  0.2373 -0.4999  0.2443
   92MPD2    H7 1415   1.482   1.787  16.413 -2.3605 -0.1586  0.6932
   93MPD2     C 1416   3.315   2.065  13.163  0.2103  0.0997 -0.1923
   93MPD2    C1 1417   3.322   1.989  13.274  0.3512  0.4417 -0.4142
   93MPD2    C2 1418   3.208   1.925  13.324  0.1704  0.6898  0.0096
   93MPD2    C3 1419   3.089   1.936  13.252 -0.1031  0.4181 -0.3868
   93MPD2    C4 1420   3.089   2.000  13.128  0.1064 -0.1301 -0.6465
   93MPD2    C5 1421   3.208   2.064  13.083 -0.5122 -0.3842 -0.6234
   93MPD2     H 1422   3.211   1.874  13.420  2.8886 -0.2967 -0.6225
   93MPD2    H1 1423   2.999   2.016  13.070 -0.1041  0.3594 -0.1861
   93MPD2    H2 1424   3.399   2.116  13.117 -1.3285  3.8553  1.2096
   93MPD2    H3 1425   3.194   2.121  12.992 -0.6157  1.3742  0.4997
   93MPD2     N 1426   2.965   1.888  13.298  0.1078 -0.2859  0.6742
   93MPD2    H5 1427   2.881   1.905  13.244  0.4165 -0.0754  0.2530
   93MPD2    N1 1428   3.437   1.978  13.356 -0.9883 -0.0102  0.5052
   93MPD2    H7 1429   3.422   1.926  13.442 -0.9932 -2.2363 -0.8423
   94TCq2    C1 1430   3.569   2.013  13.329 -0.4731  0.0973  0.2072
   94TCq2    O2 1431   3.614   2.063  13.225 -0.1359  0.1496 -0.0290
   94TCq2    C2 1432   3.653   1.991  13.446 -0.2719  0.5822  0.9341
   94TCq2    C3 1433   3.605   2.019  13.573 -0.1272 -0.5193  0.2133
   94TCq2    C4 1434   3.694   2.065  13.667  0.2695 -0.3099  0.1499
   94TCq2    C5 1435   3.830   2.069  13.650 -0.0725 -0.3683  0.4181
   94TCq2    C6 1436   3.877   2.027  13.524  0.0674  0.2211  0.0979
   94TCq2    C7 1437   3.791   1.992  13.419  0.5348 -0.7357  0.0448
   94TCq2    C8 1438   4.021   1.991  13.515  0.0319 -0.4800 -0.1973
   94TCq2    O4 1439   4.064   1.938  13.413  0.2042 -0.5635 -0.1150
   94TCq2    C9 1440   3.636   2.109  13.790  0.3656  0.5819 -0.0380
   94TCq2    O5 1441   3.704   2.133  13.895  0.9544 -0.4725 -0.8503
   94TCq2    O6 1442   3.517   2.147  13.788 -0.1715 -0.0491  0.5411
   94TCq2    H2 1443   3.500   2.033  13.596 -0.4314 -2.6298  0.1187
   94TCq2    H3 1444   3.883   2.104  13.737  2.0118  2.8038 -2.1168
   94TCq2    H4 1445   3.831   1.983  13.318  0.7946 -2.7435  0.3207
   95TMC2    C1 1446   3.419   3.268  16.167  0.0481  0.1738  0.5540
   95TMC2    C2 1447   3.329   3.162  16.160  0.5651  0.6740  0.3293
   95TMC2    C3 1448   3.247   3.143  16.265  0.4751 -0.3850  0.4078
   95TMC2    C4 1449   3.411   3.359  16.272 -0.5889  0.5355  0.4433
   95TMC2    C5 1450   3.314   3.348  16.365  0.4369 -0.0087  0.4483
   95TMC2    C6 1451   3.235   3.238  16.364  0.0859 -0.0514  0.0467
   95TMC2     C 1452   3.529   3.284  16.073  0.2305 -0.1288  0.3471
   95TMC2     O 1453   3.614   3.367  16.101  0.2778 -0.2379  0.4766
   95TMC2     H 1454   3.317   3.111  16.065 -0.1094 -0.5637  1.0805
   95TMC2    H1 1455   3.478   3.444  16.269  1.7099 -1.2252  1.3121
   95TMC2    H2 1456   3.163   3.215  16.441 -0.5592  1.1854 -0.1886
   95TMC2    C7 1457   3.302   3.461  16.456 -0.2656 -0.5280  0.5668
   95TMC2    C8 1458   3.135   3.050  16.248  0.2403  0.0050 -0.6733
   95TMC2    O1 1459   3.402   3.532  16.463 -0.1048  1.1168 -0.0585
   95TMC2    O2 1460   3.029   3.053  16.307  0.0732  0.3214  0.8412
   95TMC2    O5 1461   3.175   2.952  16.167 -0.2348  0.1841  0.2735
   95TMC2    H5 1462   3.268   2.951  16.137 -0.2125  0.2954  0.3351
   96MPD2     C 1463   3.765   3.183  15.630 -0.2464  0.4178 -0.4857
   96MPD2    C1 1464   3.764   3.299  15.705 -0.4048 -0.5444  0.2501
   96MPD2    C2 1465   3.691   3.304  15.820  0.4005 -0.2477 -0.3942
   96MPD2    C3 1466   3.603   3.199  15.857  0.4302  0.0624  0.8416
   96MPD2    C4 1467   3.608   3.081  15.783  0.0014  0.0031  0.2513
   96MPD2    C5 1468   3.692   3.079  15.676 -0.6782  0.0362  0.0624
   96MPD2     H 1469   3.706   3.389  15.885  0.5097  0.1281 -0.9110
   96MPD2    H1 1470   3.542   2.998  15.807  0.1644 -0.0467  0.5203
   96MPD2    H2 1471   3.810   3.145  15.539 -2.4185 -0.4154 -1.2140
   96MPD2    H3 1472   3.685   2.995  15.608  2.4444 -0.4197  0.2985
   96MPD2     N 1473   3.523   3.192  15.970 -0.0318  0.3895  0.2520
   96MPD2    H5 1474   3.459   3.114  15.979 -0.0086  0.3405  0.0044
   96MPD2    N1 1475   3.842   3.408  15.658  0.0080  0.0830 -0.1133
   96MPD2    H7 1476   3.908   3.388  15.583 -1.0691 -2.8961 -0.2300
   97MPD2     C 1477   4.638   1.100   0.697  0.2692 -0.7147  0.4135
   97MPD2    C1 1478   4.716   1.208   0.736  0.3358  0.6339 -0.6106
   97MPD2    C2 1479   0.050   1.285   0.636 -0.1627 -0.4677  0.5100
   97MPD2    C3 1480   0.048   1.246   0.506 -0.7877  1.3144  0.6602
   97MPD2    C4 1481   4.708   1.126   0.476  0.4801  0.4917  0.3862
   97MPD2    C5 1482   4.638   1.054   0.571  0.2279  0.3906 -0.0864
   97MPD2     H 1483   0.106   1.376   0.652 -0.0389 -0.9038  2.5341
   97MPD2    H1 1484   4.707   1.091   0.373 -2.8396  2.4713 -0.2587
   97MPD2    H2 1485   4.585   1.038   0.768  1.1156  0.3186  1.9375
   97MPD2    H3 1486   4.590   0.962   0.541 -0.1935  0.2114  1.1772
   97MPD2     N 1487   0.118   1.311   0.404 -0.0713 -0.5018 -0.0279
   97MPD2    H5 1488   0.105   1.270   0.312 -0.1935  0.1544 -0.3058
   97MPD2    N1 1489   0.000   1.235   0.872  0.6043 -0.4041 -0.9122
   97MPD2    H7 1490   4.673   1.177   0.940  0.0207 -0.7169 -1.5941
   98TCq2    C1 1491   0.218   1.407   0.413  0.2586  0.6201  0.1589
   98TCq2    O2 1492   0.259   1.465   0.513  0.4176 -0.3411 -0.5177
   98TCq2    C2 1493   0.283   1.440   0.289  0.5317  0.1075 -0.5860
   98TCq2    C3 1494   0.229   1.401   0.170  0.5144 -0.3355  0.2636
   98TCq2    C4 1495   0.281   1.455   0.054  0.0249 -0.0110 -0.1377
   98TCq2    C5 1496   0.377   1.551   0.061  0.1991 -0.5113  0.0986
   98TCq2    C6 1497   0.429   1.585   0.186  0.2480  0.1898  0.5310
   98TCq2    C7 1498   0.391   1.527   0.303  0.0960 -0.3308  0.0178
   98TCq2    C8 1499   0.508   1.714   0.185 -0.1875  0.4127 -0.2804
   98TCq2    O4 1500   0.555   1.741   0.296 -0.9134  0.2675  0.3076
   98TCq2    C9 1501   0.238   1.409  17.611 -0.3366 -0.5290 -0.0019
   98TCq2    O5 1502   0.269   1.476  17.512  0.0123 -0.4918  0.6943
   98TCq2    O6 1503   0.153   1.315  17.603 -0.3146  0.2331  0.3650
   98TCq2    H2 1504   0.161   1.317   0.164  1.1394 -0.8110 -0.2386
   98TCq2    H3 1505   0.414   1.575  17.650  3.0319 -2.0672  0.7796
   98TCq2    H4 1506   0.441   1.555   0.395  0.1610  0.4543 -0.2563
   99MPD2     C 1507   4.539   3.866   2.120  0.7498 -0.1304 -0.5121
   99MPD2    C1 1508   4.450   3.759   2.096  0.4023  0.2524  0.0546
   99MPD2    C2 1509   4.447   3.701   1.968 -0.2977  0.0671 -1.0372
   99MPD2    C3 1510   4.513   3.754   1.863  0.5963 -0.1906  0.3766
   99MPD2    C4 1511   4.588   3.865   1.884  0.0936  0.1345  0.0492
   99MPD2    C5 1512   4.605   3.912   2.008 -0.1736  0.2028  0.7242
   99MPD2     H 1513   4.391   3.609   1.953  0.0097 -0.3322  0.2538
   99MPD2    H1 1514   4.634   3.913   1.798 -1.7406  1.8051 -0.0028
   99MPD2    H2 1515   4.565   3.910   2.216 -1.2273  0.9146 -0.4751
   99MPD2    H3 1516   4.668   3.997   2.032  0.3751  1.0441 -3.7885
   99MPD2     N 1517   4.486   3.703   1.734 -0.6088 -0.2485 -0.1041
   99MPD2    H5 1518   4.428   3.619   1.734  0.9636 -1.3335  1.1525
   99MPD2    N1 1519   4.364   3.705   2.198 -0.2774 -0.0315 -0.4573
   99MPD2    H7 1520   4.321   3.616   2.174  0.6359 -0.8577  1.0272
  100TCq2    C1 1521   4.346   3.761   2.319 -0.1672  0.5997  1.4853
  100TCq2    O2 1522   4.381   3.872   2.355  0.3887  0.1080 -0.0233
  100TCq2    C2 1523   4.233   3.712   2.387  0.3949 -0.5902  0.0667
  100TCq2    C3 1524   4.176   3.799   2.470  0.1086 -0.0829 -0.5555
  100TCq2    C4 1525   4.085   3.754   2.566 -0.0427 -0.4714  0.4709
  100TCq2    C5 1526   4.057   3.624   2.582  0.0572  1.0421 -0.1584
  100TCq2    C6 1527   4.135   3.537   2.508  0.4662  0.0832 -0.4885
  100TCq2    C7 1528   4.215   3.575   2.407 -1.0589 -0.3164 -0.3633
  100TCq2    C8 1529   4.124   3.395   2.541  0.1976 -0.6821 -0.1204
  100TCq2    O4 1530   4.105   3.360   2.660  0.1515  0.5372  0.4049
  100TCq2    C9 1531   4.024   3.852   2.660  0.4858 -0.3721  0.3338
  100TCq2    O5 1532   4.034   3.969   2.628  0.0689  0.1756 -0.6194
  100TCq2    O6 1533   3.940   3.799   2.742  0.2309 -0.2052 -0.0426
  100TCq2    H2 1534   4.195   3.906   2.475  1.2237 -0.4054  2.1794
  100TCq2    H3 1535   3.990   3.589   2.660  2.0074 -0.4260  0.8734
  100TCq2    H4 1536   4.264   3.492   2.356  0.5741  0.2709  0.2519
  101MPD2     C 1537   0.742   4.230  12.818 -0.6937 -0.4964 -0.0898
  101MPD2    C1 1538   0.632   4.313  12.843  0.5293  0.2462 -1.3607
  101MPD2    C2 1539   0.546   4.284  12.949 -0.9608  0.0012 -0.6381
  101MPD2    C3 1540   0.568   4.171  13.024 -0.3066 -0.0387  0.5276
  101MPD2    C4 1541   0.681   4.087  13.011 -0.4140 -0.3527  1.0418
  101MPD2    C5 1542   0.760   4.117  12.903  0.2117 -0.2229  0.0272
  101MPD2     H 1543   0.457   4.343  12.967  0.2759  1.7639 -0.2737
  101MPD2    H1 1544   0.709   4.004  13.076  1.3031 -2.0315 -1.8060
  101MPD2    H2 1545   0.807   4.253  12.734  0.8568 -0.4330  1.1370
  101MPD2    H3 1546   0.846   4.054  12.883 -1.0183 -2.0672  0.5837
  101MPD2     N 1547   0.465   4.136  13.118 -0.0441  0.7008 -0.3266
  101MPD2    H5 1548   0.388   4.201  13.131  0.2982  0.3750  3.5461
  101MPD2    N1 1549   0.611   4.420  12.750 -0.1864 -0.2272 -0.7563
  101MPD2    H7 1550   0.676   4.423  12.671 -0.2382  0.3975 -0.7794
  102TCq2    C1 1551   0.767   0.083  12.471 -0.7225  0.1389 -0.4210
  102TCq2    O2 1552   0.873   0.051  12.529 -0.2460  1.1314  0.0191
  102TCq2    C2 1553   0.642   0.045  12.526  0.2514 -0.3689 -0.2267
  102TCq2    C3 1554   0.536   0.135  12.515  0.2466  0.2560 -0.0250
  102TCq2    C4 1555   0.417   0.093  12.566 -0.1369  0.3208  1.0764
  102TCq2    C5 1556   0.410   4.696  12.630 -0.0568  1.0098  0.7275
  102TCq2    C6 1557   0.521   4.620  12.653 -0.2016 -0.6585 -0.2790
  102TCq2    C7 1558   0.645   4.652  12.603  0.0311 -0.4494 -0.1537
  102TCq2    C8 1559   0.513   4.521  12.760  0.2780  0.0128  0.4220
  102TCq2    O4 1560   0.428   4.546  12.844  0.3641 -0.3849  0.0860
  102TCq2    C9 1561   0.293   0.164  12.551  0.2094 -0.1862  0.7001
  102TCq2    O5 1562   0.185   0.106  12.591  0.2315  0.1679  0.1255
  102TCq2    O6 1563   0.291   0.248  12.455 -0.2628  0.2701  0.3359
  102TCq2    H2 1564   0.550   0.238  12.484  0.1808  0.7907  1.7386
  102TCq2    H3 1565   0.313   4.663  12.666 -0.1907  0.6450  0.0357
  102TCq2    H4 1566   0.735   4.594  12.620  0.5281  0.2816 -0.2989
  103TMC2    C1 1567   3.244   0.278  12.550  0.5909  0.2724 -0.4365
  103TMC2    C2 1568   3.219   0.398  12.596 -0.4503 -0.1804  0.7896
  103TMC2    C3 1569   3.188   0.416  12.729 -0.6584  0.2638  0.5381
  103TMC2    C4 1570   3.215   0.167  12.628  0.0089  0.8400  0.1031
  103TMC2    C5 1571   3.174   0.192  12.754  0.4460 -0.3383  0.3544
  103TMC2    C6 1572   3.154   0.314  12.809 -0.7643 -0.1453  0.1768
  103TMC2     C 1573   3.275   0.263  12.412  0.8054 -0.0421  0.1800
  103TMC2     O 1574   3.265   0.368  12.347  0.3136  0.5144 -0.2223
  103TMC2     H 1575   3.255   0.483  12.539 -2.0700  0.3146  0.5065
  103TMC2    H1 1576   3.214   0.065  12.590  0.2635  1.1325 -0.6966
  103TMC2    H2 1577   3.108   0.325  12.906 -1.8342  0.4105 -0.3929
  103TMC2    C7 1578   3.155   0.079  12.844 -0.8310 -0.2068 -0.7623
  103TMC2    C8 1579   3.155   0.546  12.768  0.0975  0.6186 -0.6322
  103TMC2    O1 1580   3.074   0.091  12.933  0.0774 -0.8369 -0.4233
  103TMC2    O2 1581   3.157   0.640  12.689 -0.1825 -1.2704  0.0704
  103TMC2    O5 1582   3.193   0.556  12.899 -0.5617 -0.7916 -0.4930
  103TMC2    H5 1583   3.233   0.473  12.933 -2.8983 -0.8371  2.1013
  104MPD2     C 1584   3.454   4.712  12.243 -0.5250 -0.7088 -0.0512
  104MPD2    C1 1585   3.374   0.105  12.248 -0.1029  0.0405  0.8275
  104MPD2    C2 1586   3.330   0.170  12.133 -0.5848 -0.3768 -0.3643
  104MPD2    C3 1587   3.351   0.115  12.007  0.4167 -0.2371 -0.6724
  104MPD2    C4 1588   3.438   0.006  11.997  0.9014 -0.0705 -0.6180
  104MPD2    C5 1589   3.483   4.665  12.115  1.0080  0.0403  0.1456
  104MPD2     H 1590   3.267   0.258  12.140  3.7328  2.6714 -0.0875
  104MPD2    H1 1591   3.455   4.682  11.900  1.1876  1.8296 -1.4468
  104MPD2    H2 1592   3.483   4.652  12.328 -2.4446 -0.2172  0.9550
  104MPD2    H3 1593   3.546   4.577  12.107  0.7446 -0.0575 -0.8939
  104MPD2     N 1594   3.281   0.172  11.898  0.4079  0.2832 -0.3067
  104MPD2    H5 1595   3.222   0.254  11.912  0.6189  0.3964 -0.0642
  104MPD2    N1 1596   3.333   0.144  12.376 -0.3512 -0.0842 -0.4450
  104MPD2    H7 1597   3.360   0.077  12.447 -0.2756  1.6125  1.1176
  105MPD2     C 1598   0.345   4.224  17.639 -0.0784  0.3715  0.3379
  105MPD2    C1 1599   0.211   4.199  17.644  0.1227 -0.5695  0.5284
  105MPD2    C2 1600   0.150   4.216   0.075  0.3477 -0.1769 -0.3868
  105MPD2    C3 1601   0.212   4.266   0.187  0.4159  0.0390  0.4489
  105MPD2    C4 1602   0.348   4.291   0.178 -0.4313 -0.2449  0.3441
  105MPD2    C5 1603   0.411   4.268   0.061  0.5492 -0.0277  0.4227
  105MPD2     H 1604   0.044   4.197   0.072  0.6097 -1.2603 -2.4952
  105MPD2    H1 1605   0.405   4.325   0.264  0.0251 -1.0330  0.3567
  105MPD2    H2 1606   0.398   4.221  17.544 -3.5716 -0.1295 -1.5813
  105MPD2    H3 1607   0.514   4.299   0.048  0.5872 -0.3326  0.0015
  105MPD2     N 1608   0.147   4.287   0.305 -0.8975 -0.2761 -0.1657
  105MPD2    H5 1609   0.196   4.333   0.382  0.6369 -0.5068 -0.9933
  105MPD2    N1 1610   0.139   4.172  17.525  0.3898  0.4041 -0.4674
  105MPD2    H7 1611   0.038   4.185  17.526  0.2746 -0.4805 -0.4047
  106TCq2    C1 1612   0.020   4.238   0.334 -0.3879  0.1489  0.1719
  106TCq2    O2 1613   4.668   4.164   0.274 -0.8306 -0.1037 -0.0858
  106TCq2    C2 1614   4.696   4.276   0.467  0.0036 -0.7136 -0.2978
  106TCq2    C3 1615   0.006   4.394   0.523 -0.3267  0.9108  0.8419
  106TCq2    C4 1616   4.671   4.432   0.645 -0.1328  0.2662 -0.1829
  106TCq2    C5 1617   4.588   4.343   0.714 -0.4468 -0.8439  0.4183
  106TCq2    C6 1618   4.543   4.234   0.651  0.5202  0.5596 -0.1468
  106TCq2    C7 1619   4.596   4.198   0.530 -0.6892  0.4188  0.6125
  106TCq2    C8 1620   4.426   4.158   0.705 -0.3078  0.4621 -0.7938
  106TCq2    O4 1621   4.378   4.074   0.626  0.5201  0.2054  0.4444
  106TCq2    C9 1622   4.710   4.559   0.702  0.6138 -0.3185 -0.2855
  106TCq2    O5 1623   4.640   4.600   0.797  0.0652  0.3310  0.1278
  106TCq2    O6 1624   0.103   4.613   0.669  0.3689  0.1171  0.1173
  106TCq2    H2 1625   0.052   4.474   0.466 -1.3720  1.2607  0.4987
  106TCq2    H3 1626   4.555   4.374   0.813  0.4850  2.1671 -0.2231
  106TCq2    H4 1627   4.570   4.107   0.477 -0.3138  1.7859 -1.9388
  107TMC2    C1 1628   1.471   3.305  11.584  0.3635  0.7241 -0.2534
  107TMC2    C2 1629   1.543   3.406  11.522 -0.3893 -0.0585 -0.1600
  107TMC2    C3 1630   1.626   3.373  11.419 -1.0776 -0.0569  0.2957
  107TMC2    C4 1631   1.469   3.181  11.529  0.0918 -0.1644  0.1451
  107TMC2    C5 1632   1.543   3.152  11.420  0.2603  0.1855 -0.0074
  107TMC2    C6 1633   1.632   3.246  11.368  0.9788 -0.3766  0.1715
  107TMC2     C 1634   1.373   3.332  11.690  0.0650 -0.1263 -0.1003
  107TMC2     O 1635   1.328   3.239  11.754 -0.4874 -0.1960  0.0426
  107TMC2     H 1636   1.551   3.506  11.565 -0.4913  0.7850 -2.0879
  107TMC2    H1 1637   1.402   3.111  11.579  0.4777 -1.4808 -1.1656
  107TMC2    H2 1638   1.689   3.221  11.279 -1.4813 -1.1058 -1.1917
  107TMC2    C7 1639   1.484   3.049  11.338 -0.1401  0.2752  0.9951
  107TMC2    C8 1640   1.685   3.480  11.346 -0.6879  0.3552 -0.3321
  107TMC2    O1 1641   1.393   2.982  11.393 -0.4224 -0.1202  0.3076
  107TMC2    O2 1642   1.656   3.600  11.361 -0.3030 -0.4426  0.2757
  107TMC2    O5 1643   1.805   3.438  11.304  0.1018 -0.4110 -0.7119
  107TMC2    H5 1644   1.815   3.346  11.338  2.4124 -0.7222 -2.2320
  108MPD2     C 1645   1.205   3.650  11.749  0.5277  0.4289 -1.0437
  108MPD2    C1 1646   1.232   3.515  11.775  0.6454 -0.6341  0.2012
  108MPD2    C2 1647   1.171   3.452  11.885  0.2029  0.2838  0.1938
  108MPD2    C3 1648   1.056   3.513  11.938  0.5843  0.0295  0.3208
  108MPD2    C4 1649   1.015   3.636  11.900  0.4365  0.1336 -0.0603
  108MPD2    C5 1650   1.092   3.707  11.807  0.0825 -0.0144  0.8089
  108MPD2     H 1651   1.217   3.364  11.929  0.2777 -0.4252 -1.2981
  108MPD2    H1 1652   0.934   3.691  11.948 -0.4785 -1.3810  0.1150
  108MPD2    H2 1653   1.257   3.710  11.676  0.0417  0.5632 -1.2732
  108MPD2    H3 1654   1.067   3.810  11.783 -1.4138 -0.9573 -1.7074
  108MPD2     N 1655   0.970   3.442  12.021 -0.1889 -1.0305  0.2831
  108MPD2    H5 1656   0.878   3.483  12.035  0.6918  1.1068 -0.1720
  108MPD2    N1 1657   1.328   3.458  11.685 -0.1558  0.9523  1.0124
  108MPD2    H7 1658   1.358   3.519  11.610  4.0699 -2.2206  0.1249
  109MPD2     C 1659   3.864   0.556   1.249 -0.6222  0.1580  0.1476
  109MPD2    C1 1660   3.963   0.651   1.244  0.0852  0.0594  0.6432
  109MPD2    C2 1661   4.048   0.666   1.352 -0.4569  0.3430  0.1124
  109MPD2    C3 1662   4.043   0.587   1.463  0.1228 -0.0125  0.1408
  109MPD2    C4 1663   3.932   0.512   1.472  1.4635 -0.8095  0.2340
  109MPD2    C5 1664   3.859   0.485   1.363 -0.0421 -0.6324 -0.0952
  109MPD2     H 1665   4.144   0.712   1.330  0.4794 -1.4016  0.4921
  109MPD2    H1 1666   3.917   0.439   1.551  0.3612 -0.1636  0.6327
  109MPD2    H2 1667   3.802   0.548   1.160 -1.2343 -0.7017  0.6565
  109MPD2    H3 1668   3.787   0.403   1.366  1.0811 -1.4824  3.2801
  109MPD2     N 1669   4.137   0.607   1.566  0.6863 -0.0954 -0.4963
  109MPD2    H5 1670   4.216   0.662   1.534 -0.2995  1.8089  0.4104
  109MPD2    N1 1671   3.980   0.737   1.124  0.3303  0.6030  0.1976
  109MPD2    H7 1672   3.931   0.709   1.040 -0.7280  1.3437  0.5557
  110TCq2    C1 1673   4.139   0.545   1.692 -0.3143  0.1666  0.0739
  110TCq2    O2 1674   4.053   0.469   1.741 -0.0223 -0.0683  0.1019
  110TCq2    C2 1675   4.262   0.578   1.759  0.6186  0.6491 -0.3167
  110TCq2    C3 1676   4.324   0.481   1.833 -0.5894 -0.4598 -0.3220
  110TCq2    C4 1677   4.445   0.498   1.891 -0.1175  0.1419 -0.3958
  110TCq2    C5 1678   4.515   0.608   1.856 -0.0303 -0.1358 -0.1949
  110TCq2    C6 1679   4.452   0.697   1.772  0.4280  0.7319  0.6237
  110TCq2    C7 1680   4.331   0.689   1.721  0.5260 -0.2361 -0.2508
  110TCq2    C8 1681   4.529   0.804   1.709 -0.3291  0.0749  0.2110
  110TCq2    O4 1682   4.481   0.859   1.612  0.3860  0.5841 -0.0146
  110TCq2    C9 1683   4.496   0.395   1.983 -0.5065 -0.9665 -0.6348
  110TCq2    O5 1684   4.600   0.424   2.049 -0.5163  0.0531  0.4228
  110TCq2    O6 1685   4.420   0.301   2.010 -0.3419  0.1829 -0.1192
  110TCq2    H2 1686   4.261   0.401   1.870 -0.3958 -0.6969 -0.5009
  110TCq2    H3 1687   4.607   0.633   1.908 -0.2734 -0.5315  0.4315
  110TCq2    H4 1688   4.282   0.774   1.675 -0.2977 -0.4599  0.1955
  111TMC2    C1 1689   1.534   0.871  11.380  0.5314 -0.4085  0.4746
  111TMC2    C2 1690   1.608   0.851  11.265  0.0663 -0.4669 -0.0281
  111TMC2    C3 1691   1.733   0.792  11.283 -1.2393 -0.2279  0.1202
  111TMC2    C4 1692   1.585   0.829  11.505  0.5080  0.0921  0.0862
  111TMC2    C5 1693   1.710   0.768  11.514 -0.7723 -0.5909 -0.2652
  111TMC2    C6 1694   1.785   0.741  11.405  0.4664  0.3745 -0.2677
  111TMC2     C 1695   1.399   0.906  11.371 -0.6968  0.0117  0.1961
  111TMC2     O 1696   1.352   0.923  11.259  0.3107 -0.4287 -0.5943
  111TMC2     H 1697   1.582   0.895  11.169  1.4886 -1.6846 -0.9787
  111TMC2    H1 1698   1.541   0.841  11.604 -0.4680  1.5758 -0.5283
  111TMC2    H2 1699   1.884   0.698  11.407  0.6254  0.6302 -4.1077
  111TMC2    C7 1700   1.742   0.698  11.634  0.1640  0.4940 -0.0880
  111TMC2    C8 1701   1.813   0.764  11.165  0.2687  0.2852  0.6325
  111TMC2    O1 1702   1.676   0.717  11.732 -0.0468 -0.7781  0.5269
  111TMC2    O2 1703   1.764   0.743  11.054 -0.2215  0.4663  0.0824
  111TMC2    O5 1704   1.936   0.818  11.196 -0.0425  0.0109 -0.0659
  111TMC2    H5 1705   1.930   0.868  11.281  0.9685  0.3127 -0.1745
  112MPD2     C 1706   0.933   0.901  11.567 -0.2641 -0.7704 -0.5887
  112MPD2    C1 1707   0.975   0.853  11.442 -0.4790  0.4637 -0.5949
  112MPD2    C2 1708   1.113   0.856  11.416  0.7181 -0.5397 -0.3648
  112MPD2    C3 1709   1.202   0.904  11.518  0.0209  0.2901  0.1921
  112MPD2    C4 1710   1.157   0.932  11.643  0.5807  0.0332 -0.4533
  112MPD2    C5 1711   1.025   0.930  11.665 -0.0340  0.0187 -0.2221
  112MPD2     H 1712   1.149   0.821  11.320  2.6604  1.8744 -0.4982
  112MPD2    H1 1713   1.227   0.972  11.715  0.8001 -2.2754  0.6161
  112MPD2    H2 1714   0.831   0.905  11.605  0.7243  1.1427  1.8333
  112MPD2    H3 1715   0.999   0.958  11.766  1.2053  0.0871  0.0825
  112MPD2     N 1716   1.342   0.918  11.497 -0.2121  0.5896 -0.3003
  112MPD2    H5 1717   1.398   0.945  11.577 -0.3222 -1.4866  0.4859
  112MPD2    N1 1718   0.884   0.807  11.340  0.1472 -0.5030  0.0607
  112MPD2    H7 1719   0.917   0.783  11.247  0.1280 -1.1095  0.2171
  113MPD2     C 1720   3.622   3.117   1.554  0.8168 -0.6616  0.0090
  113MPD2    C1 1721   3.491   3.141   1.579 -0.6520  0.2533 -0.8294
  113MPD2    C2 1722   3.390   3.089   1.492  1.0080  0.0358 -1.2390
  113MPD2    C3 1723   3.420   3.023   1.374  0.5470  0.3426  0.7410
  113MPD2    C4 1724   3.556   3.012   1.344 -0.9814  0.4354  0.2141
  113MPD2    C5 1725   3.655   3.048   1.439  0.3337  0.0344  0.3522
  113MPD2     H 1726   3.286   3.106   1.519  0.7610 -2.6250 -0.5370
  113MPD2    H1 1727   3.581   2.956   1.254 -0.9673 -1.9800  1.7297
  113MPD2    H2 1728   3.689   3.162   1.626 -0.3881  0.6377  0.3248
  113MPD2    H3 1729   3.758   3.028   1.412 -0.0203  2.5491 -2.8394
  113MPD2     N 1730   3.328   2.999   1.275  0.0716  0.3446  0.0558
  113MPD2    H5 1731   3.363   2.986   1.181 -4.1538  1.2931 -1.6676
  113MPD2    N1 1732   3.443   3.217   1.686  0.7395 -0.0005  0.0471
  113MPD2    H7 1733   3.341   3.210   1.688  0.9463 -2.9527 -0.1034
  114TCq2    C1 1734   3.188   2.990   1.293  0.3212  0.0212 -0.6843
  114TCq2    O2 1735   3.121   2.990   1.394 -0.5805 -0.7911  0.0804
  114TCq2    C2 1736   3.102   3.007   1.173 -0.7522  0.0252 -0.4363
  114TCq2    C3 1737   3.140   2.963   1.047  0.0863 -0.2725 -0.1320
  114TCq2    C4 1738   3.049   2.957   0.946  0.0568  0.5153  0.6626
  114TCq2    C5 1739   2.923   2.992   0.962 -0.5014 -0.2814 -0.3236
  114TCq2    C6 1740   2.885   3.025   1.089  0.3317 -0.0831 -0.1532
  114TCq2    C7 1741   2.968   3.040   1.194  0.1324 -0.5599  0.1195
  114TCq2    C8 1742   2.738   3.056   1.116 -0.2917  0.1171 -0.7328
  114TCq2    O4 1743   2.668   3.086   1.022  0.1071  0.2036 -0.6200
  114TCq2    C9 1744   3.086   2.900   0.816  0.1100 -0.5565  0.7478
  114TCq2    O5 1745   2.991   2.874   0.740 -0.6954  0.5945 -0.4865
  114TCq2    O6 1746   3.207   2.879   0.800  0.0089  0.0568 -0.0664
  114TCq2    H2 1747   3.241   2.928   1.026  1.4419  2.7044  1.6235
  114TCq2    H3 1748   2.851   2.990   0.881 -1.2841 -2.0352  0.4030
  114TCq2    H4 1749   2.934   3.087   1.286 -3.0540 -1.2065 -0.7479
  115TMC2    C1 1750   4.093   1.508  17.296  0.4350 -0.0445  0.5304
  115TMC2    C2 1751   3.988   1.577  17.236 -0.0139 -0.2835 -0.0386
  115TMC2    C3 1752   4.003   1.714  17.241  0.0353 -0.2731  0.8822
  115TMC2    C4 1753   4.204   1.565  17.354  0.3800  0.2958  0.2390
  115TMC2    C5 1754   4.211   1.701  17.348  0.7276 -0.5440  0.5356
  115TMC2    C6 1755   4.118   1.777  17.282  0.0222 -0.0836 -0.6426
  115TMC2     C 1756   4.065   1.365  17.323  1.0871 -0.5028 -0.8040
  115TMC2     O 1757   3.991   1.305  17.241 -0.4138 -0.9953  0.2004
  115TMC2     H 1758   3.903   1.524  17.194 -0.8399  0.6126  0.4955
  115TMC2    H1 1759   4.280   1.503  17.401  1.2111 -0.0860 -1.6004
  115TMC2    H2 1760   4.118   1.886  17.284  0.7428 -0.1034  0.1290
  115TMC2    C7 1761   4.323   1.761  17.414  0.0257  0.4549  0.9453
  115TMC2    C8 1762   3.899   1.796  17.183  0.5145  1.0384  0.0642
  115TMC2    O1 1763   4.347   1.734  17.531  0.2790  0.1612  0.2761
  115TMC2    O2 1764   3.928   1.905  17.133  0.2467 -0.5825 -0.5568
  115TMC2    O5 1765   3.778   1.738  17.194 -0.0268  0.3691  0.0170
  115TMC2    H5 1766   3.784   1.673  17.267  0.7831 -0.9178 -1.1823
  116MPD2     C 1767   4.012   0.973  17.646  0.5291  0.4605  0.2885
  116MPD2    C1 1768   3.966   0.985  17.518 -0.1364  0.4252  0.0602
  116MPD2    C2 1769   4.004   1.097  17.448  0.3080 -0.8882 -0.1066
  116MPD2    C3 1770   4.069   1.206  17.512  0.8922  0.2892  0.3908
  116MPD2    C4 1771   4.107   1.198  17.643 -0.0831  0.3709 -0.6407
  116MPD2    C5 1772   4.080   1.080   0.018  0.0449  0.0339  0.3053
  116MPD2     H 1773   3.974   1.112  17.346 -1.3616  1.8092  0.7803
  116MPD2    H1 1774   4.164   1.277   0.002  2.0512 -1.6564  0.1854
  116MPD2    H2 1775   3.993   0.884   0.019  0.6307 -0.2763 -0.7625
  116MPD2    H3 1776   4.106   1.082   0.123  0.5021 -0.3218  0.1979
  116MPD2     N 1777   4.105   1.328  17.448 -0.0485  0.0508  0.7235
  116MPD2    H5 1778   4.152   1.397  17.506 -0.6637  1.4474 -0.4444
  116MPD2    N1 1779   3.891   0.885  17.446  0.2303 -0.1876  0.0985
  116MPD2    H7 1780   3.860   0.904  17.351 -0.4204  0.3091  0.4091
  117TMC2    C1 1781   2.972   2.165  14.039 -0.2418 -0.9251  0.3462
  117TMC2    C2 1782   3.014   2.070  13.952 -0.3328  0.4290 -0.0664
  117TMC2    C3 1783   3.149   2.058  13.925  1.0525 -0.1734 -0.5547
  117TMC2    C4 1784   3.057   2.256  14.098  0.3901  0.4231  0.2122
  117TMC2    C5 1785   3.188   2.253  14.054 -0.2094  0.2818 -0.2794
  117TMC2    C6 1786   3.235   2.155  13.969  0.2310  0.4600  0.7182
  117TMC2     C 1787   2.833   2.194  14.052 -0.1092 -0.0253  0.4091
  117TMC2     O 1788   2.754   2.101  14.043  0.6350  0.6381 -0.1126
  117TMC2     H 1789   2.941   2.010  13.899  0.7148 -0.7820 -0.1485
  117TMC2    H1 1790   3.015   2.330  14.164  0.4391  1.0463 -0.4618
  117TMC2    H2 1791   3.340   2.167  13.947 -0.5974  1.1991 -2.7506
  117TMC2    C7 1792   3.269   2.377  14.058  0.1790  0.0135 -0.3957
  117TMC2    C8 1793   3.188   1.962  13.820 -0.5123 -0.2824 -0.3645
  117TMC2    O1 1794   3.345   2.397  13.964  0.7115 -0.2239  0.4247
  117TMC2    O2 1795   3.119   1.867  13.787  0.0547  0.7514  0.5389
  117TMC2    O5 1796   3.321   1.976  13.787  0.3526  0.2196 -0.4035
  117TMC2    H5 1797   3.369   2.059  13.809  0.6878  0.1588 -0.8991
  118MPD2     C 1798   3.279   2.625  14.313  0.3575 -0.1096 -0.4290
  118MPD2    C1 1799   3.295   2.580  14.187  0.6170 -0.2326 -0.7439
  118MPD2    C2 1800   3.378   2.649  14.096  0.2305 -0.3183  0.4557
  118MPD2    C3 1801   3.443   2.765  14.130 -0.0073 -0.4043 -0.0189
  118MPD2    C4 1802   3.421   2.805  14.262 -0.2249 -0.6723 -0.6413
  118MPD2    C5 1803   3.339   2.737  14.351  0.5902 -0.0002 -0.0164
  118MPD2     H 1804   3.405   2.615  13.997  1.2668  0.0137  0.6199
  118MPD2    H1 1805   3.468   2.896  14.298 -1.5174 -0.1501 -0.2754
  118MPD2    H2 1806   3.230   2.561  14.386  2.2389  1.8085  2.5165
  118MPD2    H3 1807   3.351   2.772  14.453 -1.3633 -3.2184  1.2995
  118MPD2     N 1808   3.535   2.824  14.040 -0.7884 -0.4230  0.2807
  118MPD2    H5 1809   3.534   2.803  13.940 -1.2312 -0.8194  0.3656
  118MPD2    N1 1810   3.238   2.455  14.161 -0.2371 -0.2015 -0.1495
  118MPD2    H7 1811   3.173   2.406  14.221  1.3665 -1.2905  0.6964
  119MPD2     C 1812   1.743   4.096  14.065 -0.1191  0.6272  0.5805
  119MPD2    C1 1813   1.625   4.162  14.038  0.9497 -0.0859  0.3617
  119MPD2    C2 1814   1.598   4.193  13.907  0.0525 -0.2601  0.5454
  119MPD2    C3 1815   1.683   4.141  13.805  0.0578 -0.1654  0.0905
  119MPD2    C4 1816   1.807   4.105  13.838  0.6843 -0.3362  0.2957
  119MPD2    C5 1817   1.835   4.073  13.969  0.4527  0.7328 -0.0843
  119MPD2     H 1818   1.509   4.250  13.884 -0.0711 -0.7925 -0.2948
  119MPD2    H1 1819   1.885   4.083  13.766 -0.4675 -0.0125 -1.0443
  119MPD2    H2 1820   1.761   4.056  14.164  0.2628 -0.2239  0.1588
  119MPD2    H3 1821   1.934   4.035  13.992 -0.0248 -0.2535  0.3400
  119MPD2     N 1822   1.642   4.130  13.669  0.2652  0.5984 -0.3803
  119MPD2    H5 1823   1.706   4.083  13.606  3.0050  2.9825  0.6027
  119MPD2    N1 1824   1.523   4.161  14.133 -0.2134  0.2682 -0.4859
  119MPD2    H7 1825   1.525   4.090  14.205 -0.6282  1.6070  0.8422
  120TCq2    C1 1826   1.509   4.150  13.624  0.0411 -0.4484 -0.3128
  120TCq2    O2 1827   1.410   4.193  13.682 -0.1470 -0.2792 -0.1114
  120TCq2    C2 1828   1.481   4.085  13.498  0.2831  0.3417  0.6184
  120TCq2    C3 1829   1.575   4.000  13.436 -0.2510  0.3834 -0.6605
  120TCq2    C4 1830   1.541   3.909  13.339  0.2398 -0.5107 -0.9280
  120TCq2    C5 1831   1.411   3.895  13.309 -0.0202 -0.0366  0.0336
  120TCq2    C6 1832   1.320   3.974  13.376  0.8406  0.3894 -0.0103
  120TCq2    C7 1833   1.349   4.069  13.474 -0.6138  0.6043  0.8553
  120TCq2    C8 1834   1.184   3.944  13.353 -0.1097  0.3111 -0.1218
  120TCq2    O4 1835   1.146   3.935  13.236 -0.2830 -0.0642 -0.4577
  120TCq2    C9 1836   1.640   3.816  13.285 -0.3589  0.6825 -0.1082
  120TCq2    O5 1837   1.604   3.728  13.198 -0.1166  0.6261 -0.3669
  120TCq2    O6 1838   1.761   3.824  13.319  0.5549  0.1185  0.5551
  120TCq2    H2 1839   1.678   4.007  13.470 -1.0684 -1.2641  2.1720
  120TCq2    H3 1840   1.368   3.821  13.242 -0.3945 -0.5938  0.8858
  120TCq2    H4 1841   1.276   4.142  13.507  1.8404  2.9594  1.1312
  121TMC2    C1 1842   2.713   0.591  14.154 -0.6251  0.4195  0.2934
  121TMC2    C2 1843   2.728   0.468  14.226  0.2993 -0.2166 -0.6342
  121TMC2    C3 1844   2.627   0.424  14.305  0.0002 -0.5724 -0.1519
  121TMC2    C4 1845   2.598   0.657  14.171  0.0882 -0.1414 -0.3446
  121TMC2    C5 1846   2.495   0.603  14.244  0.7398 -0.0462 -0.9508
  121TMC2    C6 1847   2.509   0.486  14.321 -0.2458 -0.3335 -0.2968
  121TMC2     C 1848   2.826   0.667  14.115  0.2067  0.1573 -0.6498
  121TMC2     O 1849   2.939   0.641  14.158  0.6863 -0.1888  0.2796
  121TMC2     H 1850   2.815   0.411  14.200  0.5374 -0.5774  0.9282
  121TMC2    H1 1851   2.569   0.753  14.130  0.2421 -0.9332 -2.2915
  121TMC2    H2 1852   2.418   0.448  14.366  0.6281 -0.8978  0.9919
  121TMC2    C7 1853   2.389   0.696  14.264  0.4225 -0.7575 -0.3626
  121TMC2    C8 1854   2.632   0.280  14.349  0.3948 -0.2417  0.0270
  121TMC2    O1 1855   2.426   0.809  14.281  0.6937 -0.2650  0.1960
  121TMC2    O2 1856   2.535   0.210  14.342  0.3211  0.2382 -0.4936
  121TMC2    O5 1857   2.748   0.254  14.410  0.0351  0.4715  0.4940
  121TMC2    H5 1858   2.796   0.338  14.424 -0.8011  0.7477  1.7705
  122MPD2     C 1859   2.992   0.869  13.962 -0.1998  0.1055  0.0432
  122MPD2    C1 1860   2.861   0.837  13.945  0.6317 -0.4597  0.0824
  122MPD2    C2 1861   2.791   0.910  13.843  0.2124 -0.7208  0.3041
  122MPD2    C3 1862   2.855   1.006  13.766  0.1202  0.3002 -0.0412
  122MPD2    C4 1863   2.988   1.036  13.788 -0.1649  0.1035  0.6787
  122MPD2    C5 1864   3.054   0.970  13.888  0.2328 -0.3413 -0.1512
  122MPD2     H 1865   2.688   0.894  13.815  0.5844 -2.2975 -0.1407
  122MPD2    H1 1866   3.045   1.105  13.727  0.4830 -1.0615 -0.0318
  122MPD2    H2 1867   3.053   0.827  14.042  2.0438 -1.7828 -2.6605
  122MPD2    H3 1868   3.159   0.995  13.901  0.3781 -0.8722 -0.3223
  122MPD2     N 1869   2.796   1.071  13.651 -0.3879  0.2864 -0.2655
  122MPD2    H5 1870   2.837   1.159  13.622 -1.8135  0.4466 -1.8195
  122MPD2    N1 1871   2.782   0.750  14.016  0.0756  0.3436  0.1353
  122MPD2    H7 1872   2.685   0.748  13.988  0.1570 -3.4204  0.1798
  123MPD2     C 1873   1.947   4.491   9.901 -0.8447  0.4781  0.2134
  123MPD2    C1 1874   1.909   4.359   9.899 -0.5215 -0.4582 -0.2298
  123MPD2    C2 1875   1.905   4.293   9.776 -0.1607  0.1114 -0.2592
  123MPD2    C3 1876   1.928   4.353   9.660 -0.5206  0.3339 -0.6665
  123MPD2    C4 1877   1.973   4.486   9.658 -0.3539  0.5457  0.0680
  123MPD2    C5 1878   1.981   4.546   9.777  0.3740 -1.1103  0.3066
  123MPD2     H 1879   1.875   4.189   9.772 -2.7334  0.7521  1.9966
  123MPD2    H1 1880   2.007   4.531   9.566  1.9348 -0.5846  0.3595
  123MPD2    H2 1881   1.950   4.551   9.991 -0.5502  0.9251 -0.0917
  123MPD2    H3 1882   2.022   4.647   9.774 -1.3706 -0.4689 -1.9003
  123MPD2     N 1883   1.935   4.271   9.545  0.1617  0.2976 -0.2684
  123MPD2    H5 1884   1.922   4.171   9.560 -0.2527  0.3518 -0.2541
  123MPD2    N1 1885   1.875   4.307  10.024  0.1782  0.5520 -0.3734
  123MPD2    H7 1886   1.865   4.368  10.104  1.1760  1.9336 -1.2927
  124TCq2    C1 1887   1.983   4.310   9.421 -0.3582 -0.7065 -0.5701
  124TCq2    O2 1888   2.004   4.424   9.375  0.7289  0.3717 -0.5537
  124TCq2    C2 1889   1.978   4.204   9.323  0.0187 -0.3619 -0.6074
  124TCq2    C3 1890   1.928   4.242   9.203  1.4163  0.5378  0.2595
  124TCq2    C4 1891   1.877   4.143   9.122 -0.0961 -0.1151  0.3674
  124TCq2    C5 1892   1.877   4.011   9.164  0.6338 -0.8265  0.4991
  124TCq2    C6 1893   1.930   3.979   9.283  0.0173  0.0674  0.1948
  124TCq2    C7 1894   1.989   4.075   9.362  0.1098  0.0727  0.5791
  124TCq2    C8 1895   1.903   3.857   9.363  0.0081  0.4248  0.3140
  124TCq2    O4 1896   1.966   3.842   9.465  0.3842 -0.1113  0.0312
  124TCq2    C9 1897   1.835   4.180   8.992  0.3769 -0.6428  0.5591
  124TCq2    O5 1898   1.854   4.300   8.956 -0.6808  0.0498  0.0317
  124TCq2    O6 1899   1.780   4.086   8.924  0.4410 -0.2490  0.1958
  124TCq2    H2 1900   1.922   4.344   9.167 -0.0779  0.7257  1.0717
  124TCq2    H3 1901   1.853   3.931   9.094  1.0302  1.1002 -1.8508
  124TCq2    H4 1902   2.028   4.054   9.461  1.0287 -0.4991  0.0861
  125TMC2    C1 1903   4.371   0.405   9.044 -0.3363 -0.4626 -0.0309
  125TMC2    C2 1904   4.319   0.425   8.921  0.5560 -0.4769  0.8650
  125TMC2    C3 1905   4.184   0.462   8.919 -0.0073 -0.0799  0.9587
  125TMC2    C4 1906   4.297   0.418   9.161  0.4286 -0.1648 -0.1607
  125TMC2    C5 1907   4.172   0.455   9.148  0.3263  0.2400 -0.2127
  125TMC2    C6 1908   4.105   0.481   9.034 -0.1455  0.3046 -0.1000
  125TMC2     C 1909   4.502   0.335   9.059 -0.1952  0.1698  0.0715
  125TMC2     O 1910   4.512   0.257   9.153 -0.0702  0.1375 -0.9941
  125TMC2     H 1911   4.378   0.414   8.831 -1.1130  0.6405 -0.3638
  125TMC2    H1 1912   4.338   0.400   9.260 -0.2325  0.6572  0.2650
  125TMC2    H2 1913   4.008   0.529   9.034  0.1028  0.8064 -0.1285
  125TMC2    C7 1914   4.092   0.470   9.263  0.3292 -0.7178 -0.1825
  125TMC2    C8 1915   4.123   0.481   8.792  0.1579  0.2319  0.3804
  125TMC2    O1 1916   3.971   0.479   9.242  0.2268  1.0065 -0.2277
  125TMC2    O2 1917   4.196   0.486   8.694 -0.3309 -0.2288  0.3845
  125TMC2    O5 1918   4.007   0.421   8.796 -0.0801 -0.4526 -0.4402
  125TMC2    H5 1919   3.961   0.405   8.880 -0.2478 -0.7914 -0.5960
  126MPD1     C 1920   0.207   0.144   8.850  0.2838 -0.0711  0.1505
  126MPD1    C1 1921   0.183   0.268   8.796 -0.2318  0.4161  0.0945
  126MPD1    C2 1922   0.072   0.342   8.833  0.3925 -0.3060  0.1762
  126MPD1    C3 1923   4.698   0.287   8.923  0.5450  0.4516  0.3033
  126MPD1    C4 1924   4.720   0.160   8.980 -0.4244  0.0554  0.0637
  126MPD1    C5 1925   0.111   0.097   8.938 -0.2264 -0.0679 -0.2527
  126MPD1     H 1926   0.057   0.441   8.791  0.0803 -0.7012 -0.6443
  126MPD1    H1 1927   4.654   0.119   9.056  1.9389  1.9867  3.1456
  126MPD1    H2 1928   0.301   0.095   8.827  0.2750 -0.5314  1.0713
  126MPD1    H3 1929   0.127   4.718   8.977  0.4085  0.6605  1.3611
  126MPD1     N 1930   4.589   0.364   8.958 -0.3552 -0.6627  0.3530
  126MPD1    H5 1931   4.577   0.445   8.897 -0.1454 -1.1438 -0.3314
  126MPD1    N1 1932   0.288   0.333   8.738  0.2436  0.3275  0.0229
  126MPD1    H6 1933   0.254   0.395   8.665 -0.3600 -0.6189 -0.5067
  126MPD1    H7 1934   0.354   0.263   8.704  1.0662  0.6688  0.9193
  127MPD2     C 1935   3.650   4.235   9.999 -0.7329 -0.0880 -0.2814
  127MPD2    C1 1936   3.712   4.258   9.880 -0.1286 -0.1404 -0.7904
  127MPD2    C2 1937   3.846   4.279   9.869  0.3451  0.5651  0.7020
  127MPD2    C3 1938   3.921   4.266   9.987  0.6032 -0.0577 -0.3326
  127MPD2    C4 1939   3.860   4.230  10.107 -0.5000 -0.7241 -0.6532
  127MPD2    C5 1940   3.723   4.228  10.113  0.0414  0.3553  0.0167
  127MPD2     H 1941   3.896   4.298   9.775 -0.7447  0.7865  0.1709
  127MPD2    H1 1942   3.910   4.216  10.203  0.2422 -1.5161 -1.1576
  127MPD2    H2 1943   3.542   4.231  10.010 -1.1218 -1.7805 -4.8694
  127MPD2    H3 1944   3.675   4.225  10.210 -1.9963 -0.2370 -1.0080
  127MPD2     N 1945   4.062   4.285   9.966 -0.5060 -0.0402 -0.1636
  127MPD2    H5 1946   4.088   4.307   9.871  1.5926  2.5278  1.0011
  127MPD2    N1 1947   3.623   4.252   9.771  0.2581  1.0400 -0.6703
  127MPD2    H7 1948   3.527   4.228   9.793  0.8976 -0.6996  0.2728
  128TCq2    C1 1949   3.650   4.304   9.649  0.0549  0.6430  0.0724
  128TCq2    O2 1950   3.758   4.325   9.592 -0.2406 -0.9770  0.0537
  128TCq2    C2 1951   3.544   4.294   9.559  0.2799 -0.2493 -0.8841
  128TCq2    C3 1952   3.575   4.292   9.420  0.2782  0.6228  0.2459
  128TCq2    C4 1953   3.471   4.311   9.327  0.4855 -0.3231 -0.3868
  128TCq2    C5 1954   3.347   4.331   9.375  0.4574 -0.2052  0.2378
  128TCq2    C6 1955   3.321   4.341   9.510  0.2462  0.4016  0.2788
  128TCq2    C7 1956   3.412   4.319   9.605  0.4564 -0.7645 -0.6479
  128TCq2    C8 1957   3.181   4.350   9.544 -0.0816 -0.3819 -0.1011
  128TCq2    O4 1958   3.104   4.391   9.461  0.1624  0.0151  0.6087
  128TCq2    C9 1959   3.492   4.291   9.183  0.2006 -0.3051 -0.7888
  128TCq2    O5 1960   3.382   4.292   9.113  0.0886  0.4831 -0.6101
  128TCq2    O6 1961   3.610   4.291   9.128  0.0800 -0.2464 -0.0285
  128TCq2    H2 1962   3.672   4.273   9.375 -0.1333  0.4280 -0.5561
  128TCq2    H3 1963   3.265   4.335   9.304  0.8654 -0.0921 -0.2350
  128TCq2    H4 1964   3.387   4.359   9.702 -1.8931  0.0332 -1.5728
  129MPD2     C 1965   0.280   0.950   0.483  1.2469 -0.0219 -0.4674
  129MPD2    C1 1966   0.377   1.024   0.548  0.4458  0.3206  0.0013
  129MPD2    C2 1967   0.490   1.058   0.476  0.4053  0.4616 -0.3900
  129MPD2    C3 1968   0.517   1.005   0.351 -0.8385 -0.6175  0.3541
  129MPD2    C4 1969   0.416   0.934   0.284 -0.3368  0.6971 -0.5862
  129MPD2    C5 1970   0.296   0.916   0.349  0.6911 -0.0785 -0.0670
  129MPD2     H 1971   0.564   1.114   0.531 -0.6149  1.8521 -0.4312
  129MPD2    H1 1972   0.430   0.884   0.189  2.4204 -0.1288  0.2521
  129MPD2    H2 1973   0.186   0.921   0.529  1.6885  0.4690  0.7593
  129MPD2    H3 1974   0.222   0.856   0.298 -1.0149 -0.3459  2.7028
  129MPD2     N 1975   0.650   1.028   0.297 -0.2907 -0.0604  0.1956
  129MPD2    H5 1976   0.715   1.064   0.366 -2.1910  0.6794  1.6396
  129MPD2    N1 1977   0.370   1.069   0.684  0.1218  0.2562 -0.7929
  129MPD2    H7 1978   0.444   1.126   0.722 -0.3844  0.4938 -0.1763
  130TCq2    C1 1979   0.275   1.009   0.773 -0.1069 -0.2599 -0.3818
  130TCq2    O2 1980   0.194   0.922   0.745 -0.3547  0.6027 -0.1420
  130TCq2    C2 1981   0.288   1.069   0.902  0.2715 -0.0483  0.4695
  130TCq2    C3 1982   0.370   1.171   0.920  0.1841 -0.0447  0.2638
  130TCq2    C4 1983   0.432   1.188   1.044 -0.5461 -0.0891  0.1110
  130TCq2    C5 1984   0.419   1.098   1.143  0.5310  0.0879 -0.2855
  130TCq2    C6 1985   0.327   0.991   1.121  0.5606 -0.7444  0.0263
  130TCq2    C7 1986   0.256   0.980   1.005  0.6922  0.2212 -0.1563
  130TCq2    C8 1987   0.303   0.888   1.219 -0.3743  0.7469 -0.1711
  130TCq2    O4 1988   0.225   0.795   1.194  0.1109  0.3070  0.4793
  130TCq2    C9 1989   0.527   1.301   1.062  0.2479 -0.0941  0.5107
  130TCq2    O5 1990   0.560   1.331   1.180 -0.1490  0.0374  0.0883
  130TCq2    O6 1991   0.551   1.368   0.957  0.0784 -0.1833 -0.2228
  130TCq2    H2 1992   0.386   1.239   0.837  1.1775  1.9391  2.0965
  130TCq2    H3 1993   0.473   1.113   1.235  0.8360  0.9509 -0.6111
  130TCq2    H4 1994   0.193   0.893   0.987 -0.3210  1.0817 -0.7770
  131MPD2     C 1995   1.389   3.610   9.995  0.4835  0.6186 -0.0558
  131MPD2    C1 1996   1.453   3.716   9.925 -0.5788  0.2201 -0.9739
  131MPD2    C2 1997   1.545   3.789   9.992 -0.0353  0.5102  0.7139
  131MPD2    C3 1998   1.574   3.766  10.126  1.0763 -0.3921 -0.0966
  131MPD2    C4 1999   1.516   3.662  10.195  0.1958  0.7279  0.1593
  131MPD2    C5 2000   1.425   3.592  10.124  0.0873 -0.3657 -0.0185
  131MPD2     H 2001   1.580   3.880   9.944  0.8600  0.8317  1.9842
  131MPD2    H1 2002   1.535   3.637  10.299  0.0731  2.0687  0.4947
  131MPD2    H2 2003   1.321   3.540   9.948  1.4356 -2.0541  2.5177
  131MPD2    H3 2004   1.377   3.508  10.172 -0.2607  0.1345  0.5063
  131MPD2     N 2005   1.663   3.856  10.191 -0.4260 -0.1612 -0.0654
  131MPD2    H5 2006   1.712   3.915  10.125  0.5207 -0.0886  0.6982
  131MPD2    N1 2007   1.419   3.732   9.790 -0.4187 -0.4137 -0.0457
  131MPD2    H7 2008   1.347   3.667   9.760 -0.4401 -0.3782 -0.0714
  132TCq2    C1 2009   1.410   3.993   9.253  0.1462 -0.3378  0.3949
  132TCq2    O2 2010   1.346   3.970   9.149 -0.3054  0.1083  0.0811
  132TCq2    C2 2011   1.404   3.887   9.351 -0.3387  0.4948  0.0514
  132TCq2    C3 2012   1.305   3.790   9.324 -0.2100  0.1400 -0.3341
  132TCq2    C4 2013   1.288   3.683   9.405 -1.4822 -0.3672  1.1209
  132TCq2    C5 2014   1.345   3.694   9.531 -0.5645  0.0400  0.5097
  132TCq2    C6 2015   1.429   3.796   9.562  0.0402  0.1277  0.2875
  132TCq2    C7 2016   1.460   3.899   9.474 -0.0921  0.5632 -0.2473
  132TCq2    C8 2017   1.475   3.817   9.696  0.1998  0.2231  0.1151
  132TCq2    O4 2018   1.554   3.907   9.722 -0.3285 -0.2566  0.2029
  132TCq2    C9 2019   1.205   3.569   9.358 -0.2752  0.7441  0.3894
  132TCq2    O5 2020   1.194   3.471   9.443  0.3643 -0.6489  0.0113
  132TCq2    O6 2021   1.131   3.598   9.260  0.4329  0.2113  0.4809
  132TCq2    H2 2022   1.261   3.774   9.226 -1.0807 -0.6660  0.1916
  132TCq2    H3 2023   1.330   3.609   9.597 -1.6209  0.9392  1.4188
  132TCq2    H4 2024   1.518   3.986   9.503 -0.7543  0.2463  2.0554
  133MPD2     C 2025   0.445   0.849   8.993 -0.2366 -0.0381  0.0322
  133MPD2    C1 2026   0.547   0.793   9.060  1.0197 -0.2415  0.4560
  133MPD2    C2 2027   0.558   0.657   9.056  0.4784  0.4393  0.4216
  133MPD2    C3 2028   0.469   0.581   8.977 -0.1421 -0.3552 -0.6684
  133MPD2    C4 2029   0.364   0.649   8.909  0.7630 -0.7213  0.0159
  133MPD2    C5 2030   0.360   0.781   8.912  0.0561 -0.2394 -0.6427
  133MPD2     H 2031   0.643   0.599   9.089 -1.9516 -3.9197 -0.9098
  133MPD2    H1 2032   0.293   0.597   8.846  1.5047  0.7406 -2.0180
  133MPD2    H2 2033   0.440   0.957   8.988  0.6544  0.0478  0.9691
  133MPD2    H3 2034   0.277   0.832   8.864 -1.2681 -1.8731 -0.1111
  133MPD2     N 2035   0.464   0.442   8.983 -0.1993 -0.4503 -0.3349
  133MPD2    H5 2036   0.379   0.412   8.937 -0.3363  0.1346 -0.4646
  133MPD2    N1 2037   0.628   0.867   9.146  0.2702  0.2542 -0.0492
  133MPD2    H7 2038   0.610   0.967   9.147  1.5633  0.4855 -0.0062
  134TCq2    C1 2039   0.731   0.828   9.232 -0.1499 -0.0987 -0.7955
  134TCq2    O2 2040   0.789   0.720   9.233  0.2308  0.0147  0.4560
  134TCq2    C2 2041   0.780   0.930   9.323 -0.1980 -0.0015 -0.4086
  134TCq2    C3 2042   0.910   0.913   9.373  0.0268 -0.2391 -0.0289
  134TCq2    C4 2043   0.956   1.003   9.467 -0.3059 -0.3790 -0.2901
  134TCq2    C5 2044   0.873   1.108   9.497 -0.1499  0.3426 -0.0957
  134TCq2    C6 2045   0.758   1.128   9.432  0.0914  0.0276  0.4432
  134TCq2    C7 2046   0.702   1.041   9.343  0.2933 -0.9482  0.0371
  134TCq2    C8 2047   0.682   1.242   9.479 -0.1403 -0.1516  0.0721
  134TCq2    O4 2048   0.711   1.287   9.587 -0.4788 -0.4393  0.0320
  134TCq2    C9 2049   1.089   0.999   9.520  0.5460  0.5861  0.2290
  134TCq2    O5 2050   1.122   1.082   9.608  0.0281 -0.2277 -0.0084
  134TCq2    O6 2051   1.165   0.921   9.464  0.2030 -0.5687 -0.2903
  134TCq2    H2 2052   0.962   0.822   9.345  0.6653  0.0529  0.2060
  134TCq2    H3 2053   0.906   1.174   9.577 -0.4099  1.0152 -0.5387
  134TCq2    H4 2054   0.594   1.036   9.332  0.2764  1.9094 -0.9249
  135MPD2     C 2055   3.145   1.586   9.666  0.7388  0.4397 -0.2485
  135MPD2    C1 2056   3.112   1.455   9.625 -0.3323 -0.3213  0.1139
  135MPD2    C2 2057   3.164   1.407   9.512  0.3223  0.5402  0.1053
  135MPD2    C3 2058   3.269   1.477   9.443  0.7217  0.3132 -0.4271
  135MPD2    C4 2059   3.309   1.603   9.495  0.1217 -0.0071 -0.4013
  135MPD2    C5 2060   3.235   1.656   9.592  0.5002 -0.4096  0.9174
  135MPD2     H 2061   3.129   1.312   9.473  0.1725  0.1562  1.1796
  135MPD2    H1 2062   3.390   1.659   9.451  0.7189  0.0541  0.7751
  135MPD2    H2 2063   3.098   1.629   9.753 -0.2932 -0.6304 -0.2772
  135MPD2    H3 2064   3.259   1.750   9.640  2.0870 -0.8885  1.0456
  135MPD2     N 2065   3.333   1.425   9.329  0.4434 -0.1949 -1.0118
  135MPD2    H5 2066   3.398   1.485   9.279  0.2542  0.0453 -0.9714
  135MPD2    N1 2067   3.004   1.382   9.686 -0.3887  0.2116  0.5925
  135MPD2    H7 2068   2.974   1.303   9.631 -0.9845  0.2576  0.8515
  136TCq2    C1 2069   2.951   1.418   9.806 -0.2550 -0.4461 -0.0109
  136TCq2    O2 2070   3.000   1.487   9.897  0.4278  0.2257 -0.3224
  136TCq2    C2 2071   2.828   1.353   9.820  0.2065 -0.0281  0.1603
  136TCq2    C3 2072   2.771   1.289   9.714  0.1971 -0.2753 -0.4677
  136TCq2    C4 2073   2.666   1.205   9.737  0.7134 -0.1593 -0.8680
  136TCq2    C5 2074   2.620   1.177   9.863  0.3404  0.1593 -0.1404
  136TCq2    C6 2075   2.671   1.258   9.962 -0.2006 -0.2714  0.4400
  136TCq2    C7 2076   2.774   1.345   9.948 -0.5369  0.1790 -0.1122
  136TCq2    C8 2077   2.631   1.235  10.095  0.5220  0.4063  1.4915
  136TCq2    O4 2078   2.643   1.324  10.178 -0.1933  0.3537  0.4863
  136TCq2    C9 2079   2.602   1.131   9.631  0.0683 -0.2631 -0.5098
  136TCq2    O5 2080   2.667   1.133   9.524 -0.0760  0.2528 -0.2917
  136TCq2    O6 2081   2.511   1.055   9.663 -0.0547  0.2896 -0.5079
  136TCq2    H2 2082   2.797   1.294   9.609  1.1324  0.2652 -0.2086
  136TCq2    H3 2083   2.532   1.116   9.882  0.7830 -1.1085 -2.1470
  136TCq2    H4 2084   2.811   1.401  10.033  1.5931  1.1255 -1.6576
  137MPD2     C 2085   3.415   4.636   9.296 -0.0047 -0.2451  0.5764
  137MPD2    C1 2086   3.283   4.658   9.329  0.3035  0.1469  0.2701
  137MPD2    C2 2087   3.250   4.676   9.454 -0.2511 -0.3334  0.2074
  137MPD2    C3 2088   3.353   4.695   9.556 -0.0308  0.4909 -0.4579
  137MPD2    C4 2089   3.478   4.700   9.514  0.0854  0.0977 -0.2139
  137MPD2    C5 2090   3.507   4.673   9.386  0.2742 -0.4423 -0.9674
  137MPD2     H 2091   3.147   4.688   9.486 -0.7302 -1.5293 -0.9137
  137MPD2    H1 2092   3.561   4.720   9.581 -0.0545  0.6164 -0.1912
  137MPD2    H2 2093   3.454   4.626   9.195  0.4179  0.5945  0.6579
  137MPD2    H3 2094   3.608   4.690   9.350  0.5047  0.2956  0.0259
  137MPD2     N 2095   3.316   4.715   9.692 -0.5382  0.4338 -0.9596
  137MPD2    H5 2096   3.222   4.720   9.729  1.1745 -0.2870  3.5859
  137MPD2    N1 2097   3.185   4.662   9.224  0.1290 -0.0891  0.0205
  137MPD2    H7 2098   3.220   4.643   9.131  0.3791 -2.3154  0.5678
  138TCq2    C1 2099   3.047   4.683   9.229 -0.0375  0.0149  0.1601
  138TCq2    O2 2100   2.977   4.704   9.327 -0.2015 -0.7304  0.3615
  138TCq2    C2 2101   2.987   4.678   9.098  1.1181  0.0014  0.0861
  138TCq2    C3 2102   3.064   4.710   8.998  0.0793 -0.0615  0.5670
  138TCq2    C4 2103   3.010   4.696   8.872  0.4381  0.2693 -0.0029
  138TCq2    C5 2104   2.888   4.636   8.849 -0.8600 -0.1300  0.2026
  138TCq2    C6 2105   2.812   4.597   8.956 -0.1187 -0.2486 -0.0166
  138TCq2    C7 2106   2.860   4.626   9.084  0.5669 -0.3755  0.5392
  138TCq2    C8 2107   2.685   4.540   8.933  0.7319  0.0764 -0.1403
  138TCq2    O4 2108   2.674   4.463   8.838 -0.0763 -0.2199 -0.9773
  138TCq2    C9 2109   3.086   0.023   8.763  0.2421 -0.6753  0.2110
  138TCq2    O5 2110   3.183   0.095   8.801  0.0350 -0.3408  0.4303
  138TCq2    O6 2111   3.049   0.003   8.644  0.8060 -0.0540  0.0699
  138TCq2    H2 2112   3.159   0.040   9.012 -0.0416 -0.1082  1.5735
  138TCq2    H3 2113   2.846   4.625   8.749 -3.6467  0.0218  1.3516
  138TCq2    H4 2114   2.805   4.601   9.174 -0.9305 -1.1248 -0.5994
  139TMC2    C1 2115   3.016   3.268  13.462  0.1409  0.4456 -0.3671
  139TMC2    C2 2116   3.057   3.290  13.333  0.3842  0.9794  0.1865
  139TMC2    C3 2117   3.038   3.404  13.268 -0.2267  0.1122  0.2511
  139TMC2    C4 2118   2.945   3.363  13.535 -0.3905 -0.0318 -0.6581
  139TMC2    C5 2119   2.914   3.475  13.462 -0.2690  0.1684  0.3819
  139TMC2    C6 2120   2.956   3.499  13.332 -0.7289  0.1355 -0.0198
  139TMC2     C 2121   3.039   3.141  13.526 -0.8452  1.1216 -0.0738
  139TMC2     O 2122   3.079   3.046  13.460  0.0278 -0.0332 -0.3476
  139TMC2     H 2123   3.117   3.208  13.292  0.7010  0.5138  1.5927
  139TMC2    H1 2124   2.895   3.350  13.630 -0.3984  0.5856 -0.5776
  139TMC2    H2 2125   2.946   3.595  13.284  0.2692  0.4747  0.4548
  139TMC2    C7 2126   2.853   3.589  13.529  0.1833 -0.7727  0.4559
  139TMC2    C8 2127   3.040   3.393  13.124  0.4277  0.3065  0.6701
  139TMC2    O1 2128   2.807   3.685  13.464 -0.2863 -0.4005  0.3265
  139TMC2    O2 2129   3.029   3.279  13.081 -0.3648  0.0947 -0.1599
  139TMC2    O5 2130   2.966   3.501  13.075  0.0098 -0.5707 -0.1363
  139TMC2    H5 2131   2.983   3.590  13.115  3.8328 -1.1152 -0.5760
  140MPD2     C 2132   3.072   3.053  13.889 -0.0160 -0.5462  0.5406
  140MPD2    C1 2133   3.051   3.031  13.750  0.6929  0.6133  0.0587
  140MPD2    C2 2134   3.065   2.900  13.709  0.0462 -0.1943  0.5572
  140MPD2    C3 2135   3.086   2.793  13.796 -0.4180 -0.3294 -0.3801
  140MPD2    C4 2136   3.112   2.821  13.930 -0.8655 -0.2328  0.5031
  140MPD2    C5 2137   3.093   2.947  13.974 -0.7242  0.0480  0.2740
  140MPD2     H 2138   3.054   2.875  13.604  1.9532 -0.7553  0.4928
  140MPD2    H1 2139   3.137   2.742  14.000 -1.2638  0.3477  1.3088
  140MPD2    H2 2140   3.073   3.154  13.929 -0.9115 -0.6924  0.9366
  140MPD2    H3 2141   3.101   2.972  14.079  1.0448  0.6222 -0.0100
  140MPD2     N 2142   3.094   2.668  13.736 -0.0369  0.1579 -0.1886
  140MPD2    H5 2143   3.086   2.651  13.636 -0.7274  4.4359 -0.8451
  140MPD2    N1 2144   3.035   3.149  13.664 -0.4499  0.3956  0.0070
  140MPD2    H7 2145   3.029   3.241  13.706 -1.4989  0.0383  0.6213
  141TCq2    C1 2146   3.537   4.335  14.283  0.4866  0.4574  0.2986
  141TCq2    O2 2147   3.507   4.437  14.221  0.0652 -0.4737 -0.0498
  141TCq2    C2 2148   3.607   4.353  14.411 -0.0467 -0.4426  0.5272
  141TCq2    C3 2149   3.558   4.282  14.517 -0.7251 -0.2286 -0.0384
  141TCq2    C4 2150   3.575   4.336  14.639 -0.5038  0.0368  0.6628
  141TCq2    C5 2151   3.630   4.464  14.659 -0.1884 -0.2552 -0.0161
  141TCq2    C6 2152   3.678   4.527  14.550 -0.4390  0.9004  0.6862
  141TCq2    C7 2153   3.670   4.473  14.425 -0.4425  0.1637  0.3512
  141TCq2    C8 2154   3.762   4.642  14.568 -0.1005 -0.5779  0.0582
  141TCq2    O4 2155   3.780   4.683  14.679  0.2063 -0.6649  0.0614
  141TCq2    C9 2156   3.538   4.261  14.747  0.4733  0.3316  0.0652
  141TCq2    O5 2157   3.536   4.134  14.733  0.0423 -0.1473 -0.3064
  141TCq2    O6 2158   3.524   4.322  14.857  0.0085  0.2216 -0.2692
  141TCq2    H2 2159   3.503   4.189  14.510  1.2276 -1.5774  2.5854
  141TCq2    H3 2160   3.645   4.511  14.755 -1.7054  2.7662 -1.2529
  141TCq2    H4 2161   3.708   4.520  14.334 -0.7592  1.1993  0.7520
  142MPD2     C 2162   1.374   3.018  10.542  0.0851 -0.4163 -0.3430
  142MPD2    C1 2163   1.400   2.981  10.411  0.1338 -1.0047  0.4796
  142MPD2    C2 2164   1.463   3.065  10.326  0.2666 -0.4374 -0.6244
  142MPD2    C3 2165   1.508   3.187  10.373 -0.2892  0.0963 -0.0626
  142MPD2    C4 2166   1.479   3.220  10.498  0.4508 -0.6261 -0.4477
  142MPD2    C5 2167   1.408   3.143  10.582  0.2776  0.2064  0.8506
  142MPD2     H 2168   1.471   3.037  10.222 -1.2930 -1.7670 -0.3857
  142MPD2    H1 2169   1.532   3.305  10.540 -0.2367 -0.8549  0.8844
  142MPD2    H2 2170   1.314   2.950  10.602 -1.0846  0.4727 -0.5073
  142MPD2    H3 2171   1.392   3.173  10.685 -2.0287 -1.5732  0.9943
  142MPD2     N 2172   1.581   3.276  10.292 -0.1407 -0.4846 -0.2489
  142MPD2    H5 2173   1.611   3.363  10.337 -1.3668  0.0053 -0.3786
  142MPD2    N1 2174   1.370   2.851  10.372  0.0330  0.1638 -0.1572
  142MPD2    H7 2175   1.326   2.790  10.440 -2.9329  0.7547 -1.5658
  143TCq2    C1 2176   1.603   3.269  10.158 -1.0013 -0.0752  0.1614
  143TCq2    O2 2177   1.546   3.193  10.084  0.0391 -0.7017  0.0930
  143TCq2    C2 2178   1.684   3.375  10.102 -0.1684 -0.5137 -0.2940
  143TCq2    C3 2179   1.779   3.427  10.187 -0.6368  0.1027 -0.6424
  143TCq2    C4 2180   1.858   3.529  10.144  0.2775  0.0020 -0.5477
  143TCq2    C5 2181   1.855   3.567  10.013  0.2513  0.7868  0.5266
  143TCq2    C6 2182   1.768   3.509   9.926  0.2770 -0.3168 -0.9033
  143TCq2    C7 2183   1.691   3.403   9.964 -0.4894  0.2580  0.1560
  143TCq2    C8 2184   1.767   3.552   9.783 -0.0464 -0.1808  0.2314
  143TCq2    O4 2185   1.866   3.623   9.763  0.1137  0.2247  0.0749
  143TCq2    C9 2186   1.977   3.566  10.223 -0.1923 -0.0759 -0.5192
  143TCq2    O5 2187   2.058   3.635  10.162  0.0247  0.0181  0.2192
  143TCq2    O6 2188   2.001   3.496  10.330  0.1113 -0.1841 -0.2769
  143TCq2    H2 2189   1.786   3.410  10.294  1.1755 -0.1584 -0.8009
  143TCq2    H3 2190   1.920   3.646   9.977  2.2754 -0.7000  0.9692
  143TCq2    H4 2191   1.620   3.356   9.897  0.3409 -2.5266  1.2269
  144MPD2     C 2192   3.129   2.645   1.161 -0.1737 -0.0343 -0.1952
  144MPD2    C1 2193   3.143   2.554   1.056  0.3336  0.4257  0.6812
  144MPD2    C2 2194   3.247   2.463   1.050  0.4200  0.3921 -0.6829
  144MPD2    C3 2195   3.340   2.464   1.152 -0.2155 -0.2576 -0.1471
  144MPD2    C4 2196   3.337   2.559   1.254 -0.0414 -0.8694 -0.6793
  144MPD2    C5 2197   3.227   2.637   1.262  0.4060  1.3075  0.6861
  144MPD2     H 2198   3.262   2.409   0.957  0.0002  1.5170 -1.4015
  144MPD2    H1 2199   3.394   2.559   1.346  0.6921  2.1097 -1.1452
  144MPD2    H2 2200   3.044   2.710   1.179 -0.2599  0.2131 -1.5365
  144MPD2    H3 2201   3.214   2.708   1.343  0.4965  3.5572 -1.2684
  144MPD2     N 2202   3.453   2.386   1.147 -0.2291 -0.3198  0.3148
  144MPD2    H5 2203   3.519   2.400   1.223 -0.3134 -3.0312  0.8824
  144MPD2    N1 2204   3.059   2.543   0.947 -0.1800 -0.2702 -0.1500
  144MPD2    H7 2205   3.097   2.487   0.872 -2.4183  1.5231 -2.6157
  145TCq2    C1 2206   3.489   2.294   1.054 -0.1929 -0.0138 -0.2561
  145TCq2    O2 2207   3.419   2.252   0.964 -0.1894  0.0861 -0.5044
  145TCq2    C2 2208   3.627   2.259   1.054 -0.0450  0.1245  0.2547
  145TCq2    C3 2209   3.671   2.149   0.974  0.5890  0.6387  0.3757
  145TCq2    C4 2210   3.803   2.147   0.929 -0.0167  0.0982  0.8898
  145TCq2    C5 2211   3.883   2.247   0.963  0.2379 -0.0610 -0.2789
  145TCq2    C6 2212   3.841   2.343   1.048 -0.9611  0.0088  0.2557
  145TCq2    C7 2213   3.713   2.354   1.096 -0.1164  0.1026  0.7570
  145TCq2    C8 2214   3.939   2.443   1.092  0.6254 -0.4432  0.2845
  145TCq2    O4 2215   4.040   2.457   1.026  0.4862  0.1856 -0.0321
  145TCq2    C9 2216   3.856   2.048   0.834  0.6926 -0.3572  0.8010
  145TCq2    O5 2217   3.981   2.044   0.822  0.0145  0.0271  0.2782
  145TCq2    O6 2218   3.772   1.987   0.763 -0.1269 -0.1756 -0.7895
  145TCq2    H2 2219   3.598   2.080   0.934  1.3299 -0.4326  0.8940
  145TCq2    H3 2220   3.988   2.250   0.936  0.8298 -3.1806  1.6464
  145TCq2    H4 2221   3.688   2.450   1.139  1.5619  0.8071  0.1624
  146TMC2    C1 2222   0.727   0.997  12.067  0.7684 -0.5435  0.7390
  146TMC2    C2 2223   0.658   1.000  11.943  0.4077 -0.4509 -0.1942
  146TMC2    C3 2224   0.692   0.902  11.857 -0.3554 -0.1056 -0.2177
  146TMC2    C4 2225   0.831   0.912  12.092  0.4264 -0.2800 -0.4135
  146TMC2    C5 2226   0.856   0.820  11.989  0.8031 -0.3966  0.6735
  146TMC2    C6 2227   0.783   0.806  11.878  0.4370  0.1154  0.5895
  146TMC2     C 2228   0.700   1.092  12.169  0.5546  0.3323 -0.7247
  146TMC2     O 2229   0.669   1.205  12.140  0.3306  0.1227  0.1656
  146TMC2     H 2230   0.585   1.077  11.926  0.8818 -0.1180 -0.7273
  146TMC2    H1 2231   0.898   0.942  12.171  1.6920 -0.6038 -1.3712
  146TMC2    H2 2232   0.809   0.725  11.811  0.4872 -0.7997  1.7217
  146TMC2    C7 2233   0.988   0.761  11.999  0.0731  0.5131  0.6120
  146TMC2    C8 2234   0.571   0.870  11.784  0.7010  0.2456 -0.0412
  146TMC2    O1 2235   1.047   0.723  11.898 -0.2536  0.5117 -0.0761
  146TMC2    O2 2236   0.504   0.784  11.839 -0.4881 -0.0276  0.2188
  146TMC2    O5 2237   0.534   0.981  11.725  0.1044  0.1234  0.2379
  146TMC2    H5 2238   0.606   1.042  11.698 -0.7770  0.8143 -0.5433
  147MPD2     C 2239   1.376   0.615  12.298 -0.2151 -0.3007 -0.0543
  147MPD2    C1 2240   1.259   0.617  12.374  0.3321 -0.0139  0.3380
  147MPD2    C2 2241   1.140   0.656  12.315  0.1012 -0.7058 -0.3772
  147MPD2    C3 2242   1.136   0.698  12.186  0.3078 -0.7015 -0.1508
  147MPD2    C4 2243   1.256   0.697  12.105  0.1032 -0.3156 -0.0205
  147MPD2    C5 2244   1.365   0.652  12.170  0.0981  0.0824  0.7465
  147MPD2     H 2245   1.048   0.662  12.372 -0.9001 -0.8278 -1.9642
  147MPD2    H1 2246   1.260   0.731  12.003  2.2823 -0.8338 -0.1096
  147MPD2    H2 2247   1.471   0.576  12.332  1.5608  1.4354 -3.0679
  147MPD2    H3 2248   1.451   0.633  12.107 -0.4297 -1.9335  0.6445
  147MPD2     N 2249   1.016   0.737  12.131 -0.0362  0.1290  0.6547
  147MPD2    H5 2250   0.941   0.759  12.196 -1.0701 -0.0049 -0.4938
  147MPD2    N1 2251   1.272   0.583  12.508  0.0855  0.3324  0.0115
  147MPD2    H7 2252   1.364   0.552  12.536  0.0219  0.5433  0.4526
  148MPD2     C 2253   1.022   4.204  10.631  0.0117  0.2142 -0.2097
  148MPD2    C1 2254   1.023   4.288  10.523 -0.0301 -0.4259  0.3086
  148MPD2    C2 2255   0.977   4.237  10.404  0.9200 -0.0228  0.2195
  148MPD2    C3 2256   0.925   4.108  10.392 -0.1728 -0.5601 -0.2828
  148MPD2    C4 2257   0.905   4.034  10.508  0.9333  0.0274  0.8147
  148MPD2    C5 2258   0.944   4.089  10.628 -0.0015 -0.2754 -0.3329
  148MPD2     H 2259   0.981   4.315  10.328  0.9519  0.7415  1.0057
  148MPD2    H1 2260   0.841   3.947  10.500  0.2940  0.6487 -0.7536
  148MPD2    H2 2261   1.069   4.230  10.725 -0.4676 -4.6313  1.3603
  148MPD2    H3 2262   0.916   4.037  10.718  0.1990  0.2739  0.0426
  148MPD2     N 2263   0.880   4.062  10.269  0.2303 -0.1037 -0.3268
  148MPD2    H5 2264   0.826   3.976  10.270  0.4229 -0.2147  0.5893
  148MPD2    N1 2265   1.083   4.412  10.523 -0.7898  0.0913  0.2654
  148MPD2    H7 2266   1.094   4.449  10.430 -0.4946 -2.2711 -0.6561
  149TCq2    C1 2267   1.128   4.487  10.632 -0.1996  0.2871 -0.1702
  149TCq2    O2 2268   1.092   4.472  10.748  0.1490 -0.2557 -0.1023
  149TCq2    C2 2269   1.201   4.604  10.591  0.6448 -0.1529 -1.4725
  149TCq2    C3 2270   1.199   4.717  10.669 -0.6281  0.3000  0.2740
  149TCq2    C4 2271   1.269   0.104  10.630  0.9905 -0.0474 -0.1225
  149TCq2    C5 2272   1.354   0.106  10.526 -0.4405 -0.3448 -0.6034
  149TCq2    C6 2273   1.357   4.704  10.457  0.2541  0.2975 -0.1292
  149TCq2    C7 2274   1.278   4.600  10.479 -0.2341 -0.0659  0.2262
  149TCq2    C8 2275   1.429   4.709  10.332  0.3877 -0.0821  0.3801
  149TCq2    O4 2276   1.453   0.103  10.296  0.3475 -0.2080 -0.4975
  149TCq2    C9 2277   1.283   0.213  10.721 -0.0681 -0.6451 -0.0427
  149TCq2    O5 2278   1.372   0.305  10.705  0.1880  0.4141 -0.3249
  149TCq2    O6 2279   1.218   0.204  10.831  0.4626  0.3371 -0.6592
  149TCq2    H2 2280   1.145   4.716  10.763  0.2141  1.3539  0.7786
  149TCq2    H3 2281   1.412   0.194  10.502  0.6339 -0.8683  0.0619
  149TCq2    H4 2282   1.283   4.506  10.424 -0.0130 -0.9118  1.6808
  150MPD2     C 2283   2.463   3.873  12.446  0.6929  1.0985 -0.4111
  150MPD2    C1 2284   2.529   3.875  12.319 -0.3649  0.3200 -0.2919
  150MPD2    C2 2285   2.648   3.945  12.306 -0.2536 -0.6300 -0.3844
  150MPD2    C3 2286   2.705   4.022  12.412  0.5871  1.0997 -0.2417
  150MPD2    C4 2287   2.630   4.025  12.529 -0.0269  0.0501 -0.4364
  150MPD2    C5 2288   2.520   3.946  12.549 -0.0655  0.1411 -0.3713
  150MPD2     H 2289   2.705   3.935  12.215 -0.1971 -1.0978 -0.2980
  150MPD2    H1 2290   2.667   4.083  12.613  1.8064 -0.7399 -0.7035
  150MPD2    H2 2291   2.378   3.810  12.470 -0.9691  2.3730 -3.0131
  150MPD2    H3 2292   2.474   3.949  12.647  2.9039  1.8507  0.9608
  150MPD2     N 2293   2.824   4.092  12.390  0.3604 -0.0381  0.2360
  150MPD2    H5 2294   2.863   4.095  12.296 -1.6605  0.5189 -0.5826
  150MPD2    N1 2295   2.481   3.786  12.225 -0.3846  0.1892  0.1552
  150MPD2    H7 2296   2.413   3.720  12.263  0.6835 -0.3628  1.1216
  151TCq2    C1 2297   2.897   4.166  12.481  0.5392 -0.0062 -0.2488
  151TCq2    O2 2298   2.882   4.194  12.599 -0.2923  0.8888  0.1354
  151TCq2    C2 2299   3.030   4.191  12.428 -0.0425  0.0131  0.6429
  151TCq2    C3 2300   3.049   4.162  12.296  0.1816  0.0121 -0.5824
  151TCq2    C4 2301   3.176   4.116  12.267  0.4321 -0.2205 -0.2729
  151TCq2    C5 2302   3.277   4.100  12.359  0.3545  0.4913 -0.2229
  151TCq2    C6 2303   3.236   4.123  12.488 -0.4769  0.1491 -0.2604
  151TCq2    C7 2304   3.124   4.186  12.521 -0.0706 -0.6434  1.0208
  151TCq2    C8 2305   3.346   4.117  12.581  0.5033 -0.1891  0.5050
  151TCq2    O4 2306   3.350   4.204  12.666  0.0743 -0.2693 -1.2926
  151TCq2    C9 2307   3.208   4.083  12.126  0.5405  0.2351  0.5694
  151TCq2    O5 2308   3.121   4.108  12.037  0.2677  0.1014  0.5538
  151TCq2    O6 2309   3.327   4.063  12.090  0.3589 -0.4778 -0.4858
  151TCq2    H2 2310   2.981   4.191  12.216  0.1584  0.6792 -0.3259
  151TCq2    H3 2311   3.373   4.066  12.324  0.2708  0.0618 -0.0399
  151TCq2    H4 2312   3.104   4.213  12.624  0.9863 -0.4087  1.1568
  152MPD2     C 2313   2.002   3.285  13.049  0.0981  0.3190 -0.1361
  152MPD2    C1 2314   2.063   3.339  12.935 -0.0780 -0.3535 -0.4097
  152MPD2    C2 2315   1.994   3.366  12.819  0.6335 -0.3802 -0.3119
  152MPD2    C3 2316   1.862   3.322  12.819 -0.1694  0.6622 -0.3963
  152MPD2    C4 2317   1.800   3.252  12.924 -0.0165  0.1358 -0.4077
  152MPD2    C5 2318   1.877   3.246  13.045 -0.6965  0.3741 -0.7821
  152MPD2     H 2319   2.040   3.416  12.735 -2.6181  0.4400 -1.6332
  152MPD2    H1 2320   1.704   3.203  12.920  0.4630 -1.0448  2.4648
  152MPD2    H2 2321   2.055   3.289  13.143  1.2531  0.9177 -0.8136
  152MPD2    H3 2322   1.818   3.209  13.128  0.7510 -3.1863 -1.3659
  152MPD2     N 2323   1.787   3.373  12.714  0.1929 -0.0417  0.0880
  152MPD2    H5 2324   1.842   3.421  12.643  1.2459 -0.2228  0.7785
  152MPD2    N1 2325   2.204   3.368  12.943  0.1615  0.0984 -0.2825
  152MPD2    H7 2326   2.255   3.329  13.022 -2.1752 -0.0631  1.1528
  153TCq2    C1 2327   2.277   3.433  12.846 -0.5729 -0.3358  0.8823
  153TCq2    O2 2328   2.238   3.511  12.758 -0.4679 -0.0745  0.3565
  153TCq2    C2 2329   2.422   3.427  12.861  0.0008  0.6697  0.7145
  153TCq2    C3 2330   2.477   3.311  12.907 -0.0488  0.0274 -0.0841
  153TCq2    C4 2331   2.608   3.279  12.892  0.6108  0.7177  0.1763
  153TCq2    C5 2332   2.691   3.374  12.852  0.4240  0.0120  0.8223
  153TCq2    C6 2333   2.643   3.491  12.804  0.5437 -0.3211 -0.0674
  153TCq2    C7 2334   2.510   3.527  12.812  0.1916 -0.5754 -0.4278
  153TCq2    C8 2335   2.727   3.590  12.750 -0.6459 -0.0107  0.0125
  153TCq2    O4 2336   2.677   3.661  12.664 -0.5089 -0.4129 -0.0145
  153TCq2    C9 2337   2.659   3.150  12.940 -0.1747 -0.2867 -0.1587
  153TCq2    O5 2338   2.574   3.063  12.962  0.1718  0.4031  0.0576
  153TCq2    O6 2339   2.779   3.130  12.935 -0.1328  0.5280 -0.4710
  153TCq2    H2 2340   2.412   3.234  12.947  0.8615 -0.7959 -0.1841
  153TCq2    H3 2341   2.796   3.351  12.838  0.3667 -0.1856  0.7195
  153TCq2    H4 2342   2.474   3.616  12.762 -0.2967 -0.9469 -0.7458
  154MPD2     C 2343   3.380   3.784   0.629 -0.1491  0.5262  0.3392
  154MPD2    C1 2344   3.388   3.721   0.752 -0.2595 -0.2660  0.4844
  154MPD2    C2 2345   3.286   3.723   0.837  0.3187  0.1845  0.3644
  154MPD2    C3 2346   3.169   3.784   0.806  0.6927 -0.2085  0.0241
  154MPD2    C4 2347   3.156   3.835   0.678 -0.3134  0.2636  0.1689
  154MPD2    C5 2348   3.262   3.836   0.593  0.1216 -0.7310 -0.1537
  154MPD2     H 2349   3.289   3.691   0.941 -0.1839  1.1257  0.6698
  154MPD2    H1 2350   3.064   3.876   0.639 -0.4726  0.5308  0.8163
  154MPD2    H2 2351   3.454   3.766   0.551 -0.7614  1.1285 -0.3771
  154MPD2    H3 2352   3.245   3.861   0.488  0.0618 -0.9764 -0.2013
  154MPD2     N 2353   3.060   3.801   0.899 -0.1852  0.4288 -0.5462
  154MPD2    H5 2354   3.083   3.783   0.996 -2.5147  0.1376 -0.0467
  154MPD2    N1 2355   3.509   3.646   0.783 -0.2415 -0.1412 -0.0593
  154MPD2    H7 2356   3.566   3.608   0.708 -0.9676 -1.5271  0.0821
  155TCq2    C1 2357   3.551   3.608   0.905  0.2041 -0.3703  0.2200
  155TCq2    O2 2358   3.502   3.635   1.012  0.3793  0.6260  0.0782
  155TCq2    C2 2359   3.656   3.510   0.904  0.0194  0.2658 -0.1204
  155TCq2    C3 2360   3.707   3.472   1.025  0.9952 -0.0318  0.3713
  155TCq2    C4 2361   3.799   3.369   1.026  0.6142  0.1693 -0.2191
  155TCq2    C5 2362   3.835   3.306   0.911 -0.0529 -0.0692 -0.5204
  155TCq2    C6 2363   3.781   3.349   0.791  0.1532  0.2273  0.1651
  155TCq2    C7 2364   3.698   3.458   0.788  0.1652  0.2194 -0.4824
  155TCq2    C8 2365   3.781   3.265   0.670 -0.2564  0.1350  0.6885
  155TCq2    O4 2366   3.723   3.307   0.572 -0.1572 -0.3758  0.3019
  155TCq2    C9 2367   3.855   3.321   1.148 -0.0094  0.3619  0.0199
  155TCq2    O5 2368   3.808   3.363   1.254  0.0169  0.6004  0.0622
  155TCq2    O6 2369   3.939   3.228   1.149 -0.3384  0.1223 -0.0067
  155TCq2    H2 2370   3.678   3.518   1.119 -0.0816  0.8467 -0.3820
  155TCq2    H3 2371   3.911   3.229   0.915 -0.7355 -0.6834  0.7546
  155TCq2    H4 2372   3.650   3.475   0.692 -0.0825  0.4829 -0.3120
  156MPD2     C 2373   2.036   1.107  11.959  0.4055 -0.4811  0.7980
  156MPD2    C1 2374   2.159   1.107  11.899  0.3297  0.3556 -0.2883
  156MPD2    C2 2375   2.272   1.063  11.963  0.2946 -0.1982 -0.5477
  156MPD2    C3 2376   2.259   1.008  12.084 -0.8865  0.0476 -0.4479
  156MPD2    C4 2377   2.136   0.984  12.133 -0.0106 -0.6249  0.1486
  156MPD2    C5 2378   2.033   1.058  12.086 -0.6360  0.2243  0.1075
  156MPD2     H 2379   2.375   1.072  11.930  0.4348  3.1652  0.7576
  156MPD2    H1 2380   2.128   0.935  12.229 -2.4506 -2.2306 -0.8410
  156MPD2    H2 2381   1.955   1.166  11.919 -0.8558 -2.7804 -0.0352
  156MPD2    H3 2382   1.942   1.061  12.145 -0.0197  0.8828  1.0185
  156MPD2     N 2383   2.373   0.978  12.162 -0.2716 -0.1160 -0.5331
  156MPD2    H5 2384   2.468   0.994  12.130  1.2718 -1.9417  3.0892
  156MPD2    N1 2385   2.153   1.158  11.768  0.2333 -0.7752 -0.0768
  156MPD2    H7 2386   2.065   1.161  11.717  0.1973 -0.2155  0.0117
  157TCq2    C1 2387   2.261   1.208  11.699  0.3139  0.0334  0.1398
  157TCq2    O2 2388   2.366   1.259  11.740  0.0126 -0.5912  0.1283
  157TCq2    C2 2389   2.211   1.245  11.571 -0.2902 -0.5819 -0.3102
  157TCq2    C3 2390   2.137   1.149  11.506  0.3379  0.1535  0.1498
  157TCq2    C4 2391   2.084   1.194  11.389 -0.9783  0.5928 -0.1657
  157TCq2    C5 2392   2.117   1.320  11.337 -0.0053  0.2403 -0.2181
  157TCq2    C6 2393   2.185   1.413  11.408 -0.3096  0.3107  0.5337
  157TCq2    C7 2394   2.239   1.376  11.530 -0.4881  0.2693  0.2768
  157TCq2    C8 2395   2.189   1.547  11.368 -0.2542  0.0662  0.1795
  157TCq2    O4 2396   2.292   1.607  11.388 -0.5756  0.3429 -0.0924
  157TCq2    C9 2397   2.008   1.110  11.306  0.8020 -0.7714  0.1954
  157TCq2    O5 2398   1.948   1.022  11.370 -0.6222  0.0024  0.5980
  157TCq2    O6 2399   2.004   1.127  11.180  0.6393  0.4186 -0.2293
  157TCq2    H2 2400   2.148   1.046  11.539 -0.7545 -0.5661 -1.7301
  157TCq2    H3 2401   2.086   1.339  11.235 -0.1624  1.0899 -0.0091
  157TCq2    H4 2402   2.293   1.441  11.597  1.5534 -0.6178 -0.5227
  158TMC2    C1 2403   2.978   0.116  13.611 -0.0985  0.4558  0.0911
  158TMC2    C2 2404   3.036   0.223  13.555  0.1502  0.0907 -0.1082
  158TMC2    C3 2405   2.957   0.306  13.471 -0.3333  0.0058  0.1583
  158TMC2    C4 2406   2.849   0.097  13.595 -0.5043  0.3454 -0.3076
  158TMC2    C5 2407   2.776   0.190  13.526  0.4105  0.4225  0.1963
  158TMC2    C6 2408   2.829   0.295  13.464  0.2418 -0.1567  0.9464
  158TMC2     C 2409   3.060   0.032  13.697 -0.3227 -0.2156  0.8041
  158TMC2     O 2410   3.177   0.053  13.680 -0.2093  0.2085  0.1427
  158TMC2     H 2411   3.143   0.234  13.562  0.1119 -0.3706  1.2695
  158TMC2    H1 2412   2.800   0.007  13.631  0.0974  0.3756  0.5896
  158TMC2    H2 2413   2.756   0.359  13.415  2.0469  0.2611 -1.1403
  158TMC2    C7 2414   2.630   0.166  13.508  0.5423  0.2497 -1.1739
  158TMC2    C8 2415   3.014   0.435  13.437 -0.2347 -0.0458 -0.5482
  158TMC2    O1 2416   2.561   0.263  13.491 -0.1365  0.3595  0.7408
  158TMC2    O2 2417   3.117   0.473  13.484 -1.0691  0.1068 -0.0197
  158TMC2    O5 2418   2.977   0.472  13.314 -0.7320 -0.1846 -0.1539
  158TMC2    H5 2419   2.886   0.446  13.288 -1.1521  1.1603 -0.0673
  159MPD2     C 2420   3.178   4.488  14.119 -0.0091 -0.3824  0.5176
  159MPD2    C1 2421   3.041   4.491  14.100 -0.3168 -0.1733  0.7624
  159MPD2    C2 2422   2.989   4.548  13.990  0.0457 -0.5805  0.1066
  159MPD2    C3 2423   3.065   4.613  13.902 -0.1465 -0.2030  0.3856
  159MPD2    C4 2424   3.203   4.609  13.916  0.1681  0.9552 -0.5748
  159MPD2    C5 2425   3.264   4.551  14.032  0.7593  0.2425 -0.5003
  159MPD2     H 2426   2.881   4.545  13.981  0.0801 -0.6490 -0.2926
  159MPD2    H1 2427   3.273   4.660  13.850 -1.9066  2.1604 -1.8653
  159MPD2    H2 2428   3.228   4.447  14.207  2.0221 -1.9546 -1.3755
  159MPD2    H3 2429   3.370   4.563  14.050  1.1088  0.2181 -2.5152
  159MPD2     N 2430   3.000   4.682  13.796 -0.6306 -0.7164  0.0455
  159MPD2    H5 2431   2.899   4.674  13.795 -0.6236 -0.8347  0.4540
  159MPD2    N1 2432   2.948   4.441  14.197 -0.0992 -0.7816  0.2584
  159MPD2    H7 2433   2.853   4.445  14.161  0.3397  1.3590 -0.6533
  160TMC2    C1 2434   1.627   3.572   1.143 -0.5413 -0.0949 -0.3524
  160TMC2    C2 2435   1.697   3.684   1.125  0.1016  0.0715 -0.4732
  160TMC2    C3 2436   1.815   3.704   1.188 -0.2405 -0.5979  0.2822
  160TMC2    C4 2437   1.661   3.482   1.235  0.6020  0.0301 -0.0161
  160TMC2    C5 2438   1.779   3.502   1.300 -0.6171 -0.0454  0.6646
  160TMC2    C6 2439   1.859   3.614   1.285 -0.0655 -0.4087 -0.1725
  160TMC2     C 2440   1.496   3.552   1.084 -0.0752  1.0137 -0.1635
  160TMC2     O 2441   1.444   3.442   1.098 -0.3832 -0.1963 -0.5629
  160TMC2     H 2442   1.669   3.755   1.048  2.5741  0.1843 -1.2594
  160TMC2    H1 2443   1.596   3.397   1.249 -0.1203  1.2336  3.6647
  160TMC2    H2 2444   1.949   3.629   1.343 -1.4448 -0.5868  2.0037
  160TMC2    C7 2445   1.814   3.407   1.405 -0.7301 -0.6096 -0.2865
  160TMC2    C8 2446   1.896   3.817   1.161  0.2764  0.1878  0.4309
  160TMC2    O1 2447   1.720   3.335   1.432 -0.0389 -0.0087  1.0008
  160TMC2    O2 2448   1.849   3.917   1.107 -0.0753 -0.0679 -0.6897
  160TMC2    O5 2449   2.021   3.764   1.150 -0.6878  0.1073 -0.0285
  160TMC2    H5 2450   2.036   3.668   1.160 -0.4138  0.1201 -0.3280
  161MPD2     C 2451   1.212   3.592   0.993 -0.6475  0.3774  0.6026
  161MPD2    C1 2452   1.307   3.691   1.015  0.3133 -0.2695  0.1975
  161MPD2    C2 2453   1.270   3.818   0.990  0.2068 -0.7314  0.7191
  161MPD2    C3 2454   1.140   3.861   0.963 -0.4096  0.1690 -0.4464
  161MPD2    C4 2455   1.037   3.765   0.957  0.4620  0.2831 -0.1138
  161MPD2    C5 2456   1.076   3.631   0.964  0.7096  0.9875 -0.6144
  161MPD2     H 2457   1.352   3.888   0.984 -0.2284 -0.2176  0.8136
  161MPD2    H1 2458   0.934   3.797   0.944 -0.4595 -2.8406 -0.6464
  161MPD2    H2 2459   1.238   3.487   1.003  0.2769  0.3800 -1.7328
  161MPD2    H3 2460   1.004   3.552   0.949  0.1832  1.3905 -0.2200
  161MPD2     N 2461   1.094   3.987   0.935 -0.2575  0.9564  0.4309
  161MPD2    H5 2462   0.996   3.993   0.911 -0.4556  0.4101  1.1244
  161MPD2    N1 2463   1.436   3.669   1.067 -0.0095  0.5416  0.0926
  161MPD2    H7 2464   1.491   3.752   1.087 -2.2854  1.1992  3.6688
  162TMC2    C1 2465   4.128   4.442   0.804 -0.5446  0.2329  0.2233
  162TMC2    C2 2466   4.004   4.430   0.738  0.7217  0.8111  0.6362
  162TMC2    C3 2467   3.900   4.441   0.821 -0.6211 -0.3465  0.0604
  162TMC2    C4 2468   4.137   4.487   0.936  0.5076 -0.5087  0.4707
  162TMC2    C5 2469   4.027   4.509   1.006  1.1855  0.2600  0.3900
  162TMC2    C6 2470   3.908   4.469   0.959 -0.3594  0.2221 -0.5739
  162TMC2     C 2471   4.243   4.481   0.724 -0.1960  0.1544 -0.4362
  162TMC2     O 2472   4.319   4.565   0.771  0.0705 -0.2722  0.2153
  162TMC2     H 2473   3.996   4.412   0.632 -1.5490  0.9483  0.7899
  162TMC2    H1 2474   4.233   4.526   0.968 -0.5664  1.4621  1.2855
  162TMC2    H2 2475   3.816   4.499   1.009 -0.4108 -1.1929  0.1917
  162TMC2    C7 2476   4.014   4.635   1.079  0.6067 -0.3537  1.0505
  162TMC2    C8 2477   3.774   4.466   0.761 -0.0111  0.0442 -0.1447
  162TMC2    O1 2478   3.921   4.709   1.056  0.5386 -0.0371 -0.4497
  162TMC2    O2 2479   3.765   4.488   0.641  0.0988 -0.8821  0.2498
  162TMC2    O5 2480   3.672   4.425   0.838 -0.4852  0.7312 -0.1119
  162TMC2    H5 2481   3.708   4.375   0.915  2.2039  0.2407 -1.7057
  163MPD2     C 2482   4.499   4.510   0.282 -0.6815  0.2316  0.3252
  163MPD2    C1 2483   4.493   4.602   0.384 -0.4825  0.3584  0.1917
  163MPD2    C2 2484   4.397   4.582   0.491  0.7959  0.1412  0.3617
  163MPD2    C3 2485   4.330   4.464   0.491 -0.6312 -0.0451 -0.3351
  163MPD2    C4 2486   4.332   4.378   0.387  0.6084 -0.2017 -0.3151
  163MPD2    C5 2487   4.417   4.405   0.281  0.0002 -0.3802  0.2704
  163MPD2     H 2488   4.372   4.652   0.569  0.0827 -1.2220  1.3600
  163MPD2    H1 2489   4.278   4.285   0.383 -0.0920  0.1459  1.2021
  163MPD2    H2 2490   4.565   4.514   0.196  0.1958  0.9305  1.0269
  163MPD2    H3 2491   4.421   4.337   0.197  0.8981 -0.0491  0.0394
  163MPD2     N 2492   4.249   4.423   0.600 -0.4971 -0.3642 -0.0267
  163MPD2    H5 2493   4.185   4.347   0.581 -1.4127  0.3920  0.0801
  163MPD2    N1 2494   4.582   4.711   0.383  0.4632 -0.0210 -0.0449
  163MPD2    H7 2495   4.660   4.710   0.318  1.6030 -0.8899  1.3537
  164TCq2    C1 2496   1.698   4.330  11.069  0.3012 -0.0892 -0.3911
  164TCq2    O2 2497   1.609   4.246  11.080 -0.7415  0.0626  0.1715
  164TCq2    C2 2498   1.683   4.455  11.135  0.3270 -0.1055  0.2026
  164TCq2    C3 2499   1.758   4.556  11.097 -0.2872  0.1329 -0.0572
  164TCq2    C4 2500   1.710   4.681  11.114 -0.4203  0.3405  1.4161
  164TCq2    C5 2501   1.588   4.700  11.170 -0.7543  0.2778  0.1042
  164TCq2    C6 2502   1.515   4.597  11.209  0.0607  0.0083 -0.5017
  164TCq2    C7 2503   1.561   4.471  11.196  0.6077  0.3150  0.3936
  164TCq2    C8 2504   1.414   4.612  11.309 -0.2060  0.9913  0.2307
  164TCq2    O4 2505   1.409   4.535  11.405  0.3513 -0.6712  0.3271
  164TCq2    C9 2506   1.797   0.064  11.074 -0.0406  0.4694  0.1650
  164TCq2    O5 2507   1.739   0.176  11.071 -0.5044 -0.0619  0.4491
  164TCq2    O6 2508   1.917   0.040  11.047 -0.0327  0.1910 -0.1236
  164TCq2    H2 2509   1.855   4.548  11.049  0.4643  1.8116  1.1830
  164TCq2    H3 2510   1.551   0.079  11.188  1.0741  0.8057  0.9161
  164TCq2    H4 2511   1.504   4.384  11.228 -1.0575  1.1201 -0.4192
  165MPD2     C 2512   0.985   2.069   1.099 -0.1488 -0.6507  0.4782
  165MPD2    C1 2513   1.112   2.019   1.128  0.4081  0.0733  0.8162
  165MPD2    C2 2514   1.215   2.107   1.167 -0.3535  0.4615  0.1396
  165MPD2    C3 2515   1.192   2.243   1.163 -0.4811 -0.0213  0.0353
  165MPD2    C4 2516   1.061   2.291   1.127  0.7159  0.4440 -0.5214
  165MPD2    C5 2517   0.955   2.204   1.105 -0.6680 -0.4951  0.0480
  165MPD2     H 2518   1.316   2.072   1.185 -1.0144 -1.5344  0.0370
  165MPD2    H1 2519   1.048   2.398   1.132 -1.7055  0.1846 -1.3171
  165MPD2    H2 2520   0.914   1.994   1.065  0.0482 -0.5273 -0.2001
  165MPD2    H3 2521   0.856   2.240   1.077 -0.3638  1.0524  0.9880
  165MPD2     N 2522   1.300   2.339   1.190  0.0691  0.0684 -0.1026
  165MPD2    H5 2523   1.287   2.438   1.173 -0.3299  0.5579  3.0223
  165MPD2    N1 2524   1.135   1.882   1.107  0.1579  0.2891  0.0639
  165MPD2    H7 2525   1.058   1.821   1.082  0.2737 -0.8222  2.4286
  166TCq2    C1 2526   1.421   2.305   1.244  0.4991  0.1694  0.2067
  166TCq2    O2 2527   1.460   2.200   1.292  0.0679 -0.4055 -0.4040
  166TCq2    C2 2528   1.497   2.428   1.254  0.2483 -0.0299  0.3010
  166TCq2    C3 2529   1.478   2.519   1.152 -0.9409 -0.7239  0.3731
  166TCq2    C4 2530   1.522   2.647   1.184  0.2590  0.4807 -0.2718
  166TCq2    C5 2531   1.594   2.675   1.295  0.8670 -0.4920  0.6206
  166TCq2    C6 2532   1.599   2.585   1.395 -0.6084  0.4335  0.5874
  166TCq2    C7 2533   1.549   2.458   1.377 -0.4138 -0.0918  0.2695
  166TCq2    C8 2534   1.706   2.602   1.495  0.1231 -0.5036 -0.4858
  166TCq2    O4 2535   1.807   2.661   1.458  0.6287 -0.1864 -0.0317
  166TCq2    C9 2536   1.492   2.752   1.088  0.1928  0.1425  0.6285
  166TCq2    O5 2537   1.521   2.867   1.130  0.6358  0.3339  0.4445
  166TCq2    O6 2538   1.445   2.726   0.972  0.4309  0.1141  0.7591
  166TCq2    H2 2539   1.434   2.503   1.054  0.4688  0.5238 -0.4719
  166TCq2    H3 2540   1.639   2.771   1.317 -0.5334  0.4001 -0.4954
  166TCq2    H4 2541   1.569   2.380   1.450 -1.4463  1.4824  2.2611
  167TMC2    C1 2542   0.165   4.308  12.715 -0.0187  0.0729 -0.2049
  167TMC2    C2 2543   0.086   4.313  12.825 -0.2546  0.8580  0.8848
  167TMC2    C3 2544   0.086   4.206  12.907  1.3883  0.1929  0.2971
  167TMC2    C4 2545   0.264   4.223  12.698 -0.2924 -0.4114  0.5692
  167TMC2    C5 2546   0.258   4.113  12.775 -0.0548 -0.3269  0.2958
  167TMC2    C6 2547   0.164   4.106  12.879  0.4532  0.0234 -0.2234
  167TMC2     C 2548   0.152   4.418  12.620  0.9320 -0.2499 -0.1918
  167TMC2     O 2549   0.121   4.528  12.667 -0.0019 -0.2989 -0.0509
  167TMC2     H 2550   0.020   4.399  12.830 -0.3530  0.8486 -0.3498
  167TMC2    H1 2551   0.348   4.236  12.631 -1.1380  1.5282 -0.1112
  167TMC2    H2 2552   0.154   4.017  12.940  1.9462  1.7346  2.4608
  167TMC2    C7 2553   0.333   3.991  12.757 -0.6518  0.1727  0.3397
  167TMC2    C8 2554   4.691   4.172  12.993 -0.3715  0.2362 -0.5476
  167TMC2    O1 2555   0.291   3.894  12.813  0.1772 -0.3345 -0.8135
  167TMC2    O2 2556   4.655   4.055  13.004  0.2527 -0.7231  0.1281
  167TMC2    O5 2557   4.617   4.277  13.014  0.0404  0.6652  0.0591
  167TMC2    H5 2558   4.681   4.351  13.026 -0.0419  1.0067 -1.5785
  168MPD2     C 2559   0.193   4.592  12.381 -0.0186 -0.3470 -0.1136
  168MPD2    C1 2560   0.194   4.454  12.374  0.7460  0.3266  0.0151
  168MPD2    C2 2561   0.204   4.398  12.251  0.0949 -0.7170  0.4577
  168MPD2    C3 2562   0.218   4.474  12.134 -0.3185 -0.0169  0.3485
  168MPD2    C4 2563   0.233   4.611  12.154 -0.3874  0.0615  0.1540
  168MPD2    C5 2564   0.213   4.679  12.268  0.1824  0.4190  0.5297
  168MPD2     H 2565   0.202   4.290  12.259  2.9326 -0.6568  1.9005
  168MPD2    H1 2566   0.265   4.659  12.062  2.4582  1.1405  1.6865
  168MPD2    H2 2567   0.183   4.643  12.476  1.1626 -0.8107  0.2546
  168MPD2    H3 2568   0.222   0.064  12.283  0.5119  0.9963 -3.9964
  168MPD2     N 2569   0.219   4.414  12.005 -0.1593  0.4609  0.1832
  168MPD2    H5 2570   0.234   4.482  11.932  0.5744  1.4270  1.2264
  168MPD2    N1 2571   0.181   4.375  12.490  0.1175 -0.1757 -0.1697
  168MPD2    H7 2572   0.191   4.275  12.476 -1.3875  0.2627 -4.5741
  169MPD1     C 2573   2.305   4.351   9.507  0.5578 -1.1696 -0.0379
  169MPD1    C1 2574   2.329   4.320   9.639  0.2936 -0.2487  0.1744
  169MPD1    C2 2575   2.447   4.247   9.656  0.2656  0.1826 -0.0427
  169MPD1    C3 2576   2.515   4.191   9.549 -0.2760  0.3364 -0.1541
  169MPD1    C4 2577   2.481   4.225   9.421 -0.1734 -0.0624  0.7864
  169MPD1    C5 2578   2.373   4.305   9.404  0.3507 -0.0617  0.2900
  169MPD1     H 2579   2.477   4.237   9.760  0.6405 -0.3295 -0.1961
  169MPD1    H1 2580   2.532   4.181   9.336 -3.3111  2.3275 -2.3264
  169MPD1    H2 2581   2.232   4.423   9.470  2.7529  1.4448  0.7251
  169MPD1    H3 2582   2.343   4.330   9.303 -0.3095  1.3012  0.8284
  169MPD1     N 2583   2.626   4.115   9.582  0.0170 -0.0866 -0.1969
  169MPD1    H5 2584   2.634   4.078   9.676 -0.8259  0.9427  0.2754
  169MPD1    N1 2585   2.263   4.392   9.744 -0.4852 -0.6233  0.2694
  169MPD1    H6 2586   2.266   4.350   9.836  1.1926 -0.4592  0.2844
  169MPD1    H7 2587   2.164   4.405   9.724 -0.5081 -2.2059 -0.6519
  170MPD1     C 2588   0.714   2.706  13.316 -0.3926 -0.7681  0.6644
  170MPD1    C1 2589   0.828   2.770  13.350  0.2333 -0.6571  0.5030
  170MPD1    C2 2590   0.932   2.702  13.415 -1.0700  0.2649 -0.8362
  170MPD1    C3 2591   0.920   2.560  13.436  0.0071  0.7845 -0.0107
  170MPD1    C4 2592   0.801   2.495  13.403 -0.1294  0.4920 -0.0063
  170MPD1    C5 2593   0.703   2.568  13.338 -0.6135  0.5503 -0.3597
  170MPD1     H 2594   1.019   2.758  13.448 -1.6876  1.5621 -1.4135
  170MPD1    H1 2595   0.775   2.392  13.424  1.2862 -0.0067 -0.7702
  170MPD1    H2 2596   0.630   2.756  13.269 -0.8273 -0.6780  1.5476
  170MPD1    H3 2597   0.602   2.533  13.318 -0.5798 -1.5934  3.2531
  170MPD1     N 2598   1.025   2.489  13.499  0.1800 -0.9260  0.1368
  170MPD1    H5 2599   1.102   2.542  13.540 -2.1555  2.0950  0.6219
  170MPD1    N1 2600   0.830   2.909  13.324  0.9385 -0.3079  0.2530
  170MPD1    H6 2601   0.924   2.944  13.307  1.9044 -3.4855 -1.1122
  170MPD1    H7 2602   0.786   2.926  13.234  1.1898  0.6171  0.3079
  171MPD1     C 2603   0.110   3.316  15.406  0.1818  0.7288  0.1264
  171MPD1    C1 2604   0.030   3.223  15.333 -0.3660 -0.4960  0.0753
  171MPD1    C2 2605   4.721   3.087  15.380  0.4218  0.0262  0.2236
  171MPD1    C3 2606   0.055   3.060  15.501 -0.2428  0.3898  0.3340
  171MPD1    C4 2607   0.138   3.149  15.575 -0.2318 -0.5642  0.0063
  171MPD1    C5 2608   0.171   3.271  15.519 -0.2686  0.0608  0.6316
  171MPD1     H 2609   4.642   3.028  15.335  1.1624  0.6741 -1.8878
  171MPD1    H1 2610   0.186   3.120  15.668  2.0354  1.4576 -0.5392
  171MPD1    H2 2611   0.110   3.419  15.374  0.2048  0.6741 -0.0511
  171MPD1    H3 2612   0.242   3.327  15.578  2.2363 -0.2038 -2.1277
  171MPD1     N 2613   0.030   2.934  15.565  0.7611  0.5463 -0.7219
  171MPD1    H5 2614   0.089   2.912  15.645 -0.3648 -0.5697 -0.2031
  171MPD1    N1 2615   4.667   3.268  15.232 -0.0670  0.5484 -0.7609
  171MPD1    H6 2616   4.639   3.192  15.171 -0.1443  1.3440 -1.7095
  171MPD1    H7 2617   4.691   3.358  15.192 -0.7591  1.6035  1.1686
  172MPD1     C 2618   3.019   2.031   0.439  0.9061  0.1320  0.2313
  172MPD1    C1 2619   3.023   2.173   0.439  0.1719  0.2413  0.1821
  172MPD1    C2 2620   3.111   2.231   0.528  0.1579  0.5195 -0.3620
  172MPD1    C3 2621   3.203   2.158   0.602  0.0079  0.0662 -0.1285
  172MPD1    C4 2622   3.205   2.024   0.597  0.6713 -1.0429  0.0471
  172MPD1    C5 2623   3.112   1.963   0.511  0.3188 -0.4227 -0.6510
  172MPD1     H 2624   3.125   2.338   0.539 -0.9429  0.6646 -0.4600
  172MPD1    H1 2625   3.285   1.971   0.647  1.5138  0.1445 -0.0326
  172MPD1    H2 2626   2.957   1.976   0.369  1.1170 -1.5518  1.3863
  172MPD1    H3 2627   3.109   1.855   0.518  1.0431 -0.4010  0.0112
  172MPD1     N 2628   3.315   2.219   0.662  0.7863 -0.0710  0.5836
  172MPD1    H5 2629   3.391   2.160   0.694  2.2270  0.9691 -0.9007
  172MPD1    N1 2630   2.961   2.257   0.341 -0.7552 -0.1707 -0.8255
  172MPD1    H6 2631   2.878   2.222   0.294 -0.4189  0.3506 -1.8083
  172MPD1    H7 2632   2.947   2.352   0.375 -1.1080 -1.3864  2.3675
  173MPD1     C 2633   0.467   3.079  13.877 -0.4694 -0.3261 -0.4091
  173MPD1    C1 2634   0.490   3.002  13.986 -0.2136 -0.3437  0.0228
  173MPD1    C2 2635   0.397   2.901  14.020  0.9726  0.5997  0.5121
  173MPD1    C3 2636   0.293   2.855  13.932  0.0535 -0.2743  0.5339
  173MPD1    C4 2637   0.278   2.926  13.817  0.5022  0.6506  0.4716
  173MPD1    C5 2638   0.361   3.037  13.801  0.5242 -0.7599  0.2592
  173MPD1     H 2639   0.421   2.856  14.116 -1.3759 -0.8510  0.4081
  173MPD1    H1 2640   0.207   2.900  13.740 -1.7786 -3.2759  3.9096
  173MPD1    H2 2641   0.528   3.165  13.852 -1.1610 -0.5776 -2.9463
  173MPD1    H3 2642   0.345   3.088  13.706 -2.1162 -0.2159  0.9878
  173MPD1     N 2643   0.209   2.752  13.980 -0.7992  0.6544  0.3434
  173MPD1    H5 2644   0.250   2.703  14.059 -0.2112 -0.0822 -0.4209
  173MPD1    N1 2645   0.583   3.049  14.087 -0.0818  0.8326  0.2690
  173MPD1    H6 2646   0.663   3.094  14.042  0.5273 -0.1033  0.4091
  173MPD1    H7 2647   0.619   2.974  14.145  0.8617  0.6235 -0.5762
  174MPD1     C 2648   4.010   2.388  13.734 -0.6563  0.3211 -0.6187
  174MPD1    C1 2649   4.036   2.342  13.864  0.2183  0.6585 -0.3950
  174MPD1    C2 2650   4.166   2.356  13.909  0.0561 -0.7569 -0.8180
  174MPD1    C3 2651   4.259   2.431  13.832 -0.1904  0.3456 -0.8396
  174MPD1    C4 2652   4.227   2.483  13.710  0.2003  0.2006 -0.0968
  174MPD1    C5 2653   4.098   2.464  13.666 -0.0028  0.1603 -0.2127
  174MPD1     H 2654   4.188   2.306  14.002 -1.3643 -1.4121 -0.8417
  174MPD1    H1 2655   4.302   2.534  13.651  0.8090 -2.0368 -1.2865
  174MPD1    H2 2656   3.907   2.383  13.702 -0.8297  0.1020 -0.0091
  174MPD1    H3 2657   4.070   2.514  13.574 -0.9026 -0.6910 -0.4041
  174MPD1     N 2658   4.389   2.461  13.882  0.7236  0.1136 -0.2301
  174MPD1    H5 2659   4.439   2.530  13.828  2.4086 -1.5053 -0.7199
  174MPD1    N1 2660   3.945   2.261  13.936  0.2852 -0.4329  0.1174
  174MPD1    H6 2661   3.849   2.252  13.904  0.7534 -1.6416 -0.9644
  174MPD1    H7 2662   3.952   2.272  14.037 -1.5028 -2.2961  0.4577
  175MPD1     C 2663   3.271   2.183  17.339 -0.2858 -0.3097  0.0150
  175MPD1    C1 2664   3.166   2.227  17.258 -0.7698  0.2142  0.1541
  175MPD1    C2 2665   3.201   2.332  17.171  0.2717  0.2254  0.3760
  175MPD1    C3 2666   3.320   2.398  17.179 -0.4064  0.5592  0.0900
  175MPD1    C4 2667   3.419   2.349  17.258  0.3604 -0.0817  0.0420
  175MPD1    C5 2668   3.394   2.244  17.342 -0.2039 -0.0259 -0.0737
  175MPD1     H 2669   3.127   2.363  17.098  0.4008 -1.6207 -0.5308
  175MPD1    H1 2670   3.514   2.401  17.251 -0.1706  0.7379 -0.9554
  175MPD1    H2 2671   3.261   2.099  17.407  2.2037 -0.9333 -0.4061
  175MPD1    H3 2672   3.476   2.206  17.404 -0.0274  2.3338  1.1441
  175MPD1     N 2673   3.350   2.517  17.107  0.3522  0.0064 -0.2197
  175MPD1    H5 2674   3.449   2.539  17.099  0.3622  0.9920  2.7493
  175MPD1    N1 2675   3.049   2.153  17.241  0.6497  0.2447 -0.4633
  175MPD1    H6 2676   2.969   2.209  17.213  0.4706  0.7539  1.0521
  175MPD1    H7 2677   3.027   2.100  17.324 -2.5797  1.6621 -0.4326
  176MPD1     C 2678   0.531   4.593  16.258  0.8285  0.1222 -0.6504
  176MPD1    C1 2679   0.488   4.542  16.379  0.4104  0.2659 -0.8747
  176MPD1    C2 2680   0.453   4.642  16.475 -0.0901  0.6674  0.7892
  176MPD1    C3 2681   0.450   0.053  16.444 -0.0244  0.1284 -0.2627
  176MPD1    C4 2682   0.480   0.095  16.317  0.4280  0.1209  0.0214
  176MPD1    C5 2683   0.521   0.001  16.230 -0.0585 -0.1356  0.8297
  176MPD1     H 2684   0.433   4.612  16.578  1.5690  1.2697  1.2894
  176MPD1    H1 2685   0.475   0.199  16.287 -1.4785  0.0690  0.1287
  176MPD1    H2 2686   0.579   4.524  16.189  0.7702 -0.9369  0.3772
  176MPD1    H3 2687   0.544   0.024  16.127 -0.3502  0.1249  0.8248
  176MPD1     N 2688   0.399   0.139  16.543 -0.5634 -0.0105  0.0126
  176MPD1    H5 2689   0.359   0.093  16.624  0.9632  0.6298  1.1274
  176MPD1    N1 2690   0.495   4.403  16.405  0.2961  0.0630 -0.3165
  176MPD1    H6 2691   0.416   4.379  16.465  0.9884 -1.4762 -0.0094
  176MPD1    H7 2692   0.499   4.354  16.316 -0.4893 -0.2866 -0.1671
  177MPD1     C 2693   4.541   3.952   9.309 -0.3736 -0.5431  0.1953
  177MPD1    C1 2694   4.414   3.951   9.357 -0.1520  0.4201 -0.1681
  177MPD1    C2 2695   4.389   4.032   9.465 -0.4971 -0.6343  0.0299
  177MPD1    C3 2696   4.483   4.107   9.534 -0.4194  0.9035  0.3939
  177MPD1    C4 2697   4.613   4.103   9.484 -0.4654 -0.8458  0.2350
  177MPD1    C5 2698   4.640   4.024   9.376  0.0883 -0.1851  0.6897
  177MPD1     H 2699   4.287   4.034   9.503 -0.2967  0.5533  0.4869
  177MPD1    H1 2700   4.696   4.158   9.527 -0.4145 -1.9003  1.4648
  177MPD1    H2 2701   4.574   3.905   9.217 -0.9651 -1.1117  0.2800
  177MPD1    H3 2702   0.019   4.033   9.335 -0.2361  1.1368  0.1819
  177MPD1     N 2703   4.442   4.188   9.642 -0.3648  0.2088 -0.1307
  177MPD1    H5 2704   4.344   4.188   9.665 -0.4665 -2.0774 -0.5677
  177MPD1    N1 2705   4.313   3.896   9.278 -0.2667 -0.2112 -0.5719
  177MPD1    H6 2706   4.231   3.868   9.330  0.9253 -2.9732 -0.1868
  177MPD1    H7 2707   4.341   3.810   9.232 -1.0058 -0.6788 -0.1328
  178MPD1     C 2708   1.388   1.577  17.648  0.6889  1.5437 -0.3949
  178MPD1    C1 2709   1.279   1.565  17.559 -0.1848  0.4369 -0.4861
  178MPD1    C2 2710   1.234   1.442  17.518 -0.5672 -0.4457  0.6065
  178MPD1    C3 2711   1.311   1.328  17.552  0.3767  0.2175 -0.6773
  178MPD1    C4 2712   1.416   1.339  17.641  0.5429 -0.1567  1.0186
  178MPD1    C5 2713   1.452   1.458   0.002  0.3626  0.2019 -0.0516
  178MPD1     H 2714   1.156   1.429  17.445 -0.1769 -0.9868  0.2891
  178MPD1    H1 2715   1.481   1.258  17.673  0.0045 -0.7804  0.5493
  178MPD1    H2 2716   1.426   1.672  17.683 -0.3685  2.2904 -1.2795
  178MPD1    H3 2717   1.530   1.463   0.076 -1.0887 -1.1832  1.5830
  178MPD1     N 2718   1.281   1.199  17.507  0.1013  0.0645  0.1734
  178MPD1    H5 2719   1.344   1.120  17.518 -1.1099 -1.0930 -1.1951
  178MPD1    N1 2720   1.214   1.686  17.532  0.3958 -0.2410  0.5653
  178MPD1    H6 2721   1.284   1.759  17.524 -2.0225  1.7073 -2.7099
  178MPD1    H7 2722   1.146   1.689  17.457 -0.0156  1.1200  0.9886
  179MPD1     C 2723   1.030   4.315  15.989  0.6408 -0.0211  0.0702
  179MPD1    C1 2724   0.923   4.292  16.069 -0.2904 -0.4824  0.0828
  179MPD1    C2 2725   0.886   4.157  16.083 -0.4840  0.2950 -0.4872
  179MPD1    C3 2726   0.957   4.054  16.022 -0.1147  0.0654  0.0538
  179MPD1    C4 2727   1.075   4.087  15.959 -0.6194 -0.1015 -0.4838
  179MPD1    C5 2728   1.113   4.213  15.949 -0.8245 -0.7596 -0.3375
  179MPD1     H 2729   0.800   4.121  16.138 -0.4834 -1.2414 -1.4893
  179MPD1    H1 2730   1.141   4.008  15.924  2.5366  1.8107  1.1650
  179MPD1    H2 2731   1.057   4.419  15.972 -0.3516  0.2495  0.1248
  179MPD1    H3 2732   1.210   4.226  15.903 -0.6693  0.2834  0.2908
  179MPD1     N 2733   0.913   3.920  16.030  0.0707 -0.0564  0.1630
  179MPD1    H5 2734   0.972   3.847  15.993  0.1874 -1.4606  3.1341
  179MPD1    N1 2735   0.835   4.398  16.104 -0.4611  0.2574  0.2416
  179MPD1    H6 2736   0.880   4.489  16.111  1.0672 -0.5120  0.4314
  179MPD1    H7 2737   0.794   4.383  16.197 -4.0753  1.6741 -1.0873
  180MPD1     C 2738   0.877   0.430  15.236  0.3503  0.3559  0.2366
  180MPD1    C1 2739   0.954   0.419  15.135 -0.3510  0.3922 -0.2794
  180MPD1    C2 2740   0.899   0.420  15.010 -0.8516 -1.1312  0.1258
  180MPD1    C3 2741   0.764   0.445  14.984 -0.1478 -0.4485 -0.1194
  180MPD1    C4 2742   0.691   0.464  15.093 -0.4206  0.7191 -0.5504
  180MPD1    C5 2743   0.740   0.451  15.217  0.0660  0.1149 -0.1499
  180MPD1     H 2744   0.957   0.406  14.919 -1.9991  0.2249 -0.8229
  180MPD1    H1 2745   0.583   0.477  15.083  0.1035  3.5496 -2.4376
  180MPD1    H2 2746   0.909   0.424  15.339 -0.9291 -4.0147  0.3833
  180MPD1    H3 2747   0.664   0.448  15.294 -0.4844  2.3456 -0.5825
  180MPD1     N 2748   0.708   0.452  14.852 -0.3499  0.2921  0.3984
  180MPD1    H5 2749   0.773   0.414  14.784 -0.1453 -1.7591  1.7540
  180MPD1    N1 2750   1.098   0.395  15.144  0.3584 -0.3846  0.1824
  180MPD1    H6 2751   1.144   0.424  15.231 -0.6828  3.8826 -0.6701
  180MPD1    H7 2752   1.154   0.410  15.060 -1.6770  0.9348 -0.9283
  181MPD1     C 2753   2.929   1.822  10.089  0.1763 -0.2010  0.0053
  181MPD1    C1 2754   2.897   1.939  10.150  0.8336  0.4922  0.0867
  181MPD1    C2 2755   2.989   2.041  10.155 -0.1971  0.3466  0.2727
  181MPD1    C3 2756   3.111   2.018  10.095  0.2877 -0.1377  0.8448
  181MPD1    C4 2757   3.135   1.904  10.031 -0.2853  0.1733 -0.0760
  181MPD1    C5 2758   3.046   1.807  10.026 -0.7668 -0.6677  0.3405
  181MPD1     H 2759   2.968   2.130  10.213  1.0047 -1.4968  3.5544
  181MPD1    H1 2760   3.222   1.892   9.968  0.2807  1.4524  0.4516
  181MPD1    H2 2761   2.857   1.741  10.088  0.8045 -0.7511 -0.5172
  181MPD1    H3 2762   3.053   1.707   9.984 -2.7450 -1.1843  1.2210
  181MPD1     N 2763   3.209   2.125  10.085  0.0632 -0.0664  0.8330
  181MPD1    H5 2764   3.307   2.102  10.071  0.3816  1.0439  1.2065
  181MPD1    N1 2765   2.778   1.954  10.223  0.2654 -0.2080 -0.3213
  181MPD1    H6 2766   2.706   1.903  10.173  0.4756 -1.0671  0.2620
  181MPD1    H7 2767   2.754   2.053  10.233  0.9774 -0.1659  0.9543
  182MPD1     C 2768   3.659   0.903   2.147  0.3940 -0.0564  0.7282
  182MPD1    C1 2769   3.637   0.998   2.047  0.1503  0.1590 -0.0392
  182MPD1    C2 2770   3.557   0.961   1.944 -0.4996  0.0298  0.4110
  182MPD1    C3 2771   3.480   0.840   1.939  0.3789  0.3980 -0.0350
  182MPD1    C4 2772   3.494   0.758   2.052 -0.6729  0.8965  0.0103
  182MPD1    C5 2773   3.589   0.785   2.147 -0.1099  0.3360 -0.8918
  182MPD1     H 2774   3.547   1.032   1.863  0.6547  0.2625  0.4614
  182MPD1    H1 2775   3.437   0.666   2.063  0.6629  0.2691  1.6984
  182MPD1    H2 2776   3.706   0.937   2.238 -0.7960  0.7989  1.0226
  182MPD1    H3 2777   3.603   0.709   2.224 -0.9482 -0.5961 -1.6687
  182MPD1     N 2778   3.395   0.811   1.831 -0.2698 -0.5170 -0.3371
  182MPD1    H5 2779   3.336   0.730   1.846 -1.7028  0.7281  0.8368
  182MPD1    N1 2780   3.684   1.128   2.055  0.2151  0.1815 -0.2668
  182MPD1    H6 2781   3.691   1.176   1.965 -0.3880  0.1648 -0.3200
  182MPD1    H7 2782   3.780   1.123   2.088  0.1745  0.9666 -0.0311
  183MPD1     C 2783   1.101   2.924   9.633  0.6153 -0.1299 -0.5837
  183MPD1    C1 2784   1.111   2.796   9.687 -0.5529 -0.1968  0.0886
  183MPD1    C2 2785   1.005   2.712   9.664  0.4792  0.0239  0.0580
  183MPD1    C3 2786   0.888   2.756   9.611  0.2403  0.0432 -0.0494
  183MPD1    C4 2787   0.877   2.891   9.583  0.1227 -0.0515 -0.3079
  183MPD1    C5 2788   0.984   2.968   9.585 -0.3036 -0.0893  0.3536
  183MPD1     H 2789   1.017   2.610   9.697  0.7498  0.2601  0.6805
  183MPD1    H1 2790   0.788   2.942   9.547 -0.5110 -0.9364 -0.0049
  183MPD1    H2 2791   1.185   2.990   9.618 -0.9521  1.8001 -0.9085
  183MPD1    H3 2792   0.969   3.068   9.545 -1.8996 -0.8782 -0.9920
  183MPD1     N 2793   0.782   2.667   9.604 -0.4552 -0.1846 -0.1321
  183MPD1    H5 2794   0.811   2.571   9.621 -2.6182 -0.4035  2.2623
  183MPD1    N1 2795   1.240   2.763   9.738  0.6926  0.2430 -0.7042
  183MPD1    H6 2796   1.279   2.839   9.792 -0.0765  0.4466 -0.4283
  183MPD1    H7 2797   1.229   2.685   9.803 -2.0228  1.4776  0.3584
  184MPD1     C 2798   3.469   0.349   9.479  0.3175  0.9420 -0.5229
  184MPD1    C1 2799   3.471   0.460   9.558 -0.3534  0.1750  1.0448
  184MPD1    C2 2800   3.565   0.556   9.519  0.1202  0.1673  0.6125
  184MPD1    C3 2801   3.656   0.538   9.420  0.1594 -0.4349  0.2228
  184MPD1    C4 2802   3.643   0.427   9.340 -0.4053  0.0663 -0.6373
  184MPD1    C5 2803   3.546   0.339   9.368  0.0252 -0.6061 -0.4959
  184MPD1     H 2804   3.570   0.646   9.579  1.0636  0.8277 -0.4704
  184MPD1    H1 2805   3.711   0.409   9.258 -0.4451 -2.7078 -0.0677
  184MPD1    H2 2806   3.409   0.264   9.508 -0.5935  1.5002 -0.7594
  184MPD1    H3 2807   3.549   0.246   9.312  2.5138 -0.9952  0.2889
  184MPD1     N 2808   3.762   0.627   9.388 -0.4643 -0.1149 -1.1670
  184MPD1    H5 2809   3.813   0.594   9.307  0.1851 -0.7484 -0.5066
  184MPD1    N1 2810   3.406   0.464   9.682  0.2876 -0.1807  0.5270
  184MPD1    H6 2811   3.319   0.412   9.691  0.4186 -0.6431 -0.8740
  184MPD1    H7 2812   3.388   0.560   9.712 -1.4787 -0.2198 -0.3835
  185MPD1     C 2813   3.911   0.787   8.594 -0.3153  0.1592 -0.4234
  185MPD1    C1 2814   3.795   0.781   8.677  1.0030 -0.2693 -0.1028
  185MPD1    C2 2815   3.808   0.814   8.812 -1.0822  0.3688 -0.4353
  185MPD1    C3 2816   3.935   0.823   8.868 -0.0346  0.3460  0.8766
  185MPD1    C4 2817   4.051   0.818   8.791  0.1218 -0.1909  0.5096
  185MPD1    C5 2818   4.033   0.793   8.658 -0.0542 -0.2185 -0.8915
  185MPD1     H 2819   3.717   0.822   8.871 -0.5351  1.6507  0.2241
  185MPD1    H1 2820   4.155   0.832   8.819  0.9656 -2.1725 -1.6478
  185MPD1    H2 2821   3.906   0.779   8.486 -0.9666  0.7120 -0.4315
  185MPD1    H3 2822   4.126   0.782   8.602  2.2856 -0.5936  3.0702
  185MPD1     N 2823   3.947   0.844   9.012 -0.2044 -0.1321 -0.3803
  185MPD1    H5 2824   3.858   0.845   9.062 -0.2046  2.7788 -0.4837
  185MPD1    N1 2825   3.669   0.786   8.621 -0.6991  0.3225  0.3457
  185MPD1    H6 2826   3.595   0.755   8.684 -1.9524  0.4549 -1.0566
  185MPD1    H7 2827   3.661   0.730   8.537  1.7911  0.2838  0.1261
  186MPD1     C 2828   1.322   3.543  16.065 -0.4439  0.6201  0.1528
  186MPD1    C1 2829   1.228   3.543  16.169 -0.4095 -0.5484 -0.0238
  186MPD1    C2 2830   1.182   3.671  16.213  0.9551  0.1034  0.2974
  186MPD1    C3 2831   1.217   3.791  16.148 -0.2115 -0.7812  0.0089
  186MPD1    C4 2832   1.305   3.782  16.048 -0.0419  0.1614  0.2774
  186MPD1    C5 2833   1.357   3.663  16.010 -0.1127 -0.5011  0.0004
  186MPD1     H 2834   1.124   3.681  16.305  1.7213 -1.8962  0.9811
  186MPD1    H1 2835   1.347   3.872  16.004  0.2619 -0.2637 -0.3043
  186MPD1    H2 2836   1.377   3.453  16.042 -0.6881  1.3060 -3.1451
  186MPD1    H3 2837   1.432   3.671  15.931  0.8812 -0.3063  0.9641
  186MPD1     N 2838   1.198   3.924  16.198  0.0262  0.1598 -0.0464
  186MPD1    H5 2839   1.236   3.994  16.135 -3.8788  3.5067  1.3455
  186MPD1    N1 2840   1.213   3.432  16.248  0.0942 -0.4496 -0.1944
  186MPD1    H6 2841   1.212   3.340  16.203 -2.7099 -0.4676 -0.1073
  186MPD1    H7 2842   1.127   3.437  16.303  0.1070  0.2492 -0.2458
  187MPD1     C 2843   4.626   1.634   0.337  0.3423  0.2580 -0.4907
  187MPD1    C1 2844   0.002   1.727   0.308 -0.3044  0.2966 -0.1260
  187MPD1    C2 2845   0.047   1.742   0.183 -0.6725 -0.2800 -0.3075
  187MPD1    C3 2846   4.708   1.666   0.086 -0.9243  0.5157 -0.3897
  187MPD1    C4 2847   4.615   1.569   0.110 -0.4925 -0.4306  0.5215
  187MPD1    C5 2848   4.578   1.549   0.240 -0.3067  0.1936 -0.0883
  187MPD1     H 2849   0.124   1.815   0.163 -0.5943 -0.3389 -0.2240
  187MPD1    H1 2850   4.567   1.517   0.028  0.0337 -1.3640  0.8051
  187MPD1    H2 2851   4.577   1.625   0.433 -2.5483 -2.1468 -2.1945
  187MPD1    H3 2852   4.506   1.472   0.265 -1.0172  0.4362 -1.4061
  187MPD1     N 2853   0.006   1.699  17.636 -0.2165 -0.2651 -0.0515
  187MPD1    H5 2854   4.669   1.647  17.570 -1.8518  1.4050  0.0884
  187MPD1    N1 2855   0.028   1.819   0.406  0.3144  0.0340  0.3159
  187MPD1    H6 2856   0.114   1.871   0.388 -1.1903  1.1797 -3.5417
  187MPD1    H7 2857   0.026   1.778   0.499 -3.1877  1.7397  0.9908
  188MPD1     C 2858   0.734   1.837   9.964 -0.0161  0.3864  0.5191
  188MPD1    C1 2859   0.615   1.807  10.030 -0.4763  0.0894  0.0849
  188MPD1    C2 2860   0.564   1.682  10.008  0.4323 -0.0366  0.3161
  188MPD1    C3 2861   0.610   1.609   9.904  0.1492 -0.1494  0.1468
  188MPD1    C4 2862   0.697   1.660   9.812 -0.1863  0.5164 -0.3598
  188MPD1    C5 2863   0.770   1.762   9.855 -0.8989 -0.0927 -0.2573
  188MPD1     H 2864   0.495   1.639  10.080  0.6714  0.7946  1.0472
  188MPD1    H1 2865   0.733   1.595   9.732  0.1741 -2.1145  1.9362
  188MPD1    H2 2866   0.788   1.931   9.979 -0.0088  0.5915 -0.8496
  188MPD1    H3 2867   0.857   1.786   9.794 -1.2636  0.1427 -0.6854
  188MPD1     N 2868   0.577   1.473   9.878 -0.8128  0.0144 -0.6395
  188MPD1    H5 2869   0.634   1.429   9.806 -0.1777 -1.8657  1.0125
  188MPD1    N1 2870   0.568   1.887  10.136  0.7649  0.2814 -0.4365
  188MPD1    H6 2871   0.466   1.882  10.132  0.6314  1.8113  0.9031
  188MPD1    H7 2872   0.610   1.980  10.141 -1.6956  1.3860 -0.2619
  189MPD1     C 2873   1.678   1.812   0.415 -0.7037 -1.0160  0.4485
  189MPD1    C1 2874   1.581   1.779   0.326  0.6706 -0.1273  1.0683
  189MPD1    C2 2875   1.470   1.858   0.324  0.0610  0.0800  0.0102
  189MPD1    C3 2876   1.447   1.968   0.400 -0.0511 -0.2928 -0.0277
  189MPD1    C4 2877   1.557   2.008   0.477  0.4217  0.4307 -0.5963
  189MPD1    C5 2878   1.669   1.927   0.482 -0.1283  0.1524 -0.3956
  189MPD1     H 2879   1.389   1.830   0.258 -1.1061  1.1218  0.9810
  189MPD1    H1 2880   1.545   2.086   0.551 -1.2184 -1.9848  1.6773
  189MPD1    H2 2881   1.757   1.739   0.433 -0.2827 -0.2051  1.8848
  189MPD1    H3 2882   1.748   1.931   0.556  0.6258  0.1563 -1.1967
  189MPD1     N 2883   1.327   2.039   0.386 -0.1157  0.4326  0.0272
  189MPD1    H5 2884   1.249   1.998   0.336 -0.1328 -0.0999  0.4982
  189MPD1    N1 2885   1.585   1.652   0.259 -0.7107  0.5860  0.6080
  189MPD1    H6 2886   1.520   1.658   0.181  0.6178 -4.1541 -0.8263
  189MPD1    H7 2887   1.680   1.627   0.233  0.2526 -0.1172  4.7732
  190MPD1     C 2888   0.091   0.099  15.430 -0.4735 -0.0891 -0.7171
  190MPD1    C1 2889   0.142   0.078  15.558 -0.3101 -0.4410  0.0104
  190MPD1    C2 2890   0.282   0.087  15.566  0.7213 -0.0601 -0.0147
  190MPD1    C3 2891   0.367   0.102  15.458  0.1270 -0.5984 -0.6816
  190MPD1    C4 2892   0.313   0.116  15.328 -0.5778 -0.5515  0.2775
  190MPD1    C5 2893   0.174   0.120  15.321 -0.2111 -0.0629 -0.2246
  190MPD1     H 2894   0.331   0.097  15.662  1.1910  1.8126 -0.4574
  190MPD1    H1 2895   0.374   0.127  15.239 -0.4883 -0.6632  0.3264
  190MPD1    H2 2896   4.707   0.110  15.404 -0.7141 -4.0190 -1.2987
  190MPD1    H3 2897   0.124   0.140  15.227 -1.5326 -0.4921  0.3976
  190MPD1     N 2898   0.504   0.118  15.492  0.8673 -0.3324 -0.1521
  190MPD1    H5 2899   0.529   0.134  15.589  0.7791  0.8161 -0.3104
  190MPD1    N1 2900   0.072   0.076  15.677  0.0394  0.4267  0.6994
  190MPD1    H6 2901   0.117   0.030  15.755 -1.3524  0.8890  1.7655
  190MPD1    H7 2902   4.707   0.024  15.663  0.2378  0.6011 -1.2401
  191MPD1     C 2903   0.900   2.072  12.894 -0.1275 -0.4504  0.3976
  191MPD1    C1 2904   0.989   2.141  12.823 -0.7134  0.2844 -0.0035
  191MPD1    C2 2905   0.946   2.225  12.721 -0.0439 -0.1365 -0.0575
  191MPD1    C3 2906   0.810   2.249  12.694 -0.5833  0.3972 -1.2375
  191MPD1    C4 2907   0.719   2.182  12.768 -0.0036 -0.3981  0.3876
  191MPD1    C5 2908   0.760   2.085  12.863 -0.5343  0.6577  0.1218
  191MPD1     H 2909   1.024   2.284  12.673  0.9779 -2.0085 -0.6918
  191MPD1    H1 2910   0.614   2.200  12.752 -0.1838 -0.9656  0.9134
  191MPD1    H2 2911   0.936   2.025  12.985 -0.9868 -1.5916  0.1539
  191MPD1    H3 2912   0.680   2.034  12.915 -0.7007  0.0435 -0.7362
  191MPD1     N 2913   0.779   2.345  12.590 -0.4012  0.3320  0.0776
  191MPD1    H5 2914   0.856   2.396  12.549  0.7343 -2.1452 -0.8957
  191MPD1    N1 2915   1.122   2.141  12.853  0.0984  0.2106 -0.1859
  191MPD1    H6 2916   1.135   2.058  12.911 -2.5263  0.4641  0.7648
  191MPD1    H7 2917   1.184   2.148  12.772 -1.4933 -1.2057 -1.5176
  192MPD1     C 2918   0.007   2.975  12.553  0.5082 -0.2991  0.0631
  192MPD1    C1 2919   4.718   2.896  12.441 -0.6577 -0.2734 -0.0995
  192MPD1    C2 2920   0.109   2.828  12.405 -0.0996 -0.1023 -0.1301
  192MPD1    C3 2921   0.223   2.837  12.481 -0.1202  0.4628  0.7146
  192MPD1    C4 2922   0.231   2.909  12.594 -0.2220  0.2618 -0.5245
  192MPD1    C5 2923   0.127   2.985  12.624  0.2792  0.6996  0.2785
  192MPD1     H 2924   0.118   2.757  12.324 -0.0615  1.1684 -1.2335
  192MPD1    H1 2925   0.325   2.926  12.645 -0.0593  0.6001 -0.9447
  192MPD1    H2 2926   4.641   3.030  12.587  0.8475 -0.1442  0.6903
  192MPD1    H3 2927   0.135   3.056  12.706  2.5057 -0.0413  0.6857
  192MPD1     N 2928   0.347   2.774  12.452 -0.6965 -0.4073 -0.1027
  192MPD1    H5 2929   0.416   2.789  12.525 -0.5743  1.4192 -0.6057
  192MPD1    N1 2930   4.593   2.876  12.384  0.8194 -0.0440  0.1116
  192MPD1    H6 2931   4.525   2.949  12.403 -1.1032 -1.7604 -0.1452
  192MPD1    H7 2932   4.564   2.801  12.447 -1.1348  0.5147 -0.1138
  193MPD1     C 2933   4.024   2.446  16.286 -0.3745  0.1101 -0.6434
  193MPD1    C1 2934   4.035   2.584  16.317 -0.6037  0.3247  0.6417
  193MPD1    C2 2935   4.141   2.634  16.381 -0.1309  0.1150 -0.1899
  193MPD1    C3 2936   4.251   2.550  16.413  0.2578  0.1384  0.2689
  193MPD1    C4 2937   4.246   2.412  16.379  0.6510 -0.2343 -0.5662
  193MPD1    C5 2938   4.134   2.368  16.313 -0.5657  0.3431  0.6027
  193MPD1     H 2939   4.140   2.740  16.404  3.6003 -0.6397  3.4243
  193MPD1    H1 2940   4.328   2.345  16.400  0.9189  0.2658  0.0027
  193MPD1    H2 2941   3.934   2.401  16.244  0.8253 -1.7200 -1.2233
  193MPD1    H3 2942   4.127   2.261  16.297  1.0028  0.1882  0.9026
  193MPD1     N 2943   4.366   2.608  16.473  0.1599  0.7101  0.4999
  193MPD1    H5 2944   4.445   2.552  16.504 -1.6450 -1.5511  1.0276
  193MPD1    N1 2945   3.927   2.672  16.274  0.3097 -0.2578  0.2521
  193MPD1    H6 2946   3.829   2.645  16.265  0.4250 -0.3249 -0.7783
  193MPD1    H7 2947   3.930   2.762  16.322  2.6093  0.1779 -0.7106
  194MPD1     C 2948   1.460   0.122  17.600  0.1725 -0.0888  0.2452
  194MPD1    C1 2949   1.490   0.039  17.494  0.1227  0.1938  0.0867
  194MPD1    C2 2950   1.594   4.670  17.502 -0.8360 -0.4649 -0.4186
  194MPD1    C3 2951   1.695   4.689  17.596 -0.1852 -0.6807  0.0051
  194MPD1    C4 2952   1.662   0.055   0.017  0.2159 -0.7594  0.1546
  194MPD1    C5 2953   1.548   0.131   0.017 -0.0067 -0.2936  0.0455
  194MPD1     H 2954   1.617   4.599  17.423 -1.3290  1.0939 -1.9635
  194MPD1    H1 2955   1.737   0.070   0.094  0.1394  0.9870 -0.1065
  194MPD1    H2 2956   1.369   0.181  17.593  1.3791  1.5013 -1.9458
  194MPD1    H3 2957   1.523   0.203   0.094 -0.4450  1.3028 -1.5842
  194MPD1     N 2958   1.812   4.614  17.612 -0.2056  0.4954  0.2832
  194MPD1    H5 2959   1.874   4.646  17.685  0.3591  1.0327 -0.4396
  194MPD1    N1 2960   1.403   0.033  17.381 -0.0336 -0.2179 -0.5034
  194MPD1    H6 2961   1.444   4.702  17.304  0.0253 -0.2604 -0.4439
  194MPD1    H7 2962   1.382   0.127  17.349  0.7505  0.9746  2.4793
  195MPD1     C 2963   0.507   0.915  17.264  0.2404 -0.0313  0.2317
  195MPD1    C1 2964   0.517   0.944  17.399  0.1082  0.0761  0.7948
  195MPD1    C2 2965   0.420   0.896  17.486 -0.2616 -0.0559 -0.8076
  195MPD1    C3 2966   0.317   0.827  17.433 -0.2969  0.2117 -0.2332
  195MPD1    C4 2967   0.303   0.795  17.299  0.0534  1.3908  0.3626
  195MPD1    C5 2968   0.399   0.837  17.214  0.0128 -0.4937  0.6498
  195MPD1     H 2969   0.433   0.893  17.593  2.8890  1.2119 -1.1560
  195MPD1    H1 2970   0.215   0.742  17.265  0.8196 -0.3582  1.1749
  195MPD1    H2 2971   0.589   0.947  17.200  0.9020 -0.0196  1.0771
  195MPD1    H3 2972   0.384   0.821  17.107  0.5740 -1.2202  0.6852
  195MPD1     N 2973   0.218   0.768  17.514 -0.1491  0.0243 -0.0162
  195MPD1    H5 2974   0.149   0.713  17.464 -0.2441  0.9646 -0.9248
  195MPD1    N1 2975   0.627   1.017  17.446  0.3376  0.2569  0.3964
  195MPD1    H6 2976   0.618   1.057  17.539 -0.5358  1.4873 -0.2109
  195MPD1    H7 2977   0.684   1.071  17.380 -1.2656 -2.0294 -2.8646
  196MPD1     C 2978   3.443   1.440   0.546 -0.2531 -0.0916  0.0979
  196MPD1    C1 2979   3.402   1.574   0.564 -0.2204  0.3149  0.1353
  196MPD1    C2 2980   3.445   1.631   0.686 -0.9114  0.2228 -0.2973
  196MPD1    C3 2981   3.532   1.570   0.770 -0.3455  0.0981 -0.5167
  196MPD1    C4 2982   3.588   1.451   0.736 -0.8402 -0.2850  0.6048
  196MPD1    C5 2983   3.540   1.382   0.628  0.0384 -0.0596  0.2895
  196MPD1     H 2984   3.400   1.729   0.697  0.6232  1.0112 -1.0249
  196MPD1    H1 2985   3.657   1.411   0.810 -0.6067  0.4974  0.8094
  196MPD1    H2 2986   3.394   1.376   0.472 -1.8652  0.9911  0.2246
  196MPD1    H3 2987   3.570   1.280   0.607  2.0036  0.4888  0.4332
  196MPD1     N 2988   3.578   1.629   0.889 -0.2874  0.2431  0.9539
  196MPD1    H5 2989   3.643   1.571   0.943 -1.3352 -0.9198  0.9677
  196MPD1    N1 2990   3.310   1.640   0.477  0.1433 -0.2015 -0.3232
  196MPD1    H6 2991   3.319   1.609   0.380 -0.2133  0.1714 -0.4725
  196MPD1    H7 2992   3.334   1.739   0.471 -1.5567  0.2354  0.0887
  197MPD1     C 2993   3.594   4.434   0.157 -0.4832  0.2919 -0.0979
  197MPD1    C1 2994   3.682   4.342   0.107 -0.3549 -0.1698 -0.4718
  197MPD1    C2 2995   3.645   4.285  17.677  0.2311  0.0217 -0.8952
  197MPD1    C3 2996   3.515   4.283  17.626 -0.4348  0.2846 -0.1847
  197MPD1    C4 2997   3.427   4.367  17.687  0.1801  0.1160  0.2702
  197MPD1    C5 2998   3.469   4.448   0.102  0.1624 -0.2340 -0.3310
  197MPD1     H 2999   3.721   4.231  17.622  0.0412 -1.7342  0.5718
  197MPD1    H1 3000   3.326   4.388  17.653  1.3163  1.7125 -2.0577
  197MPD1    H2 3001   3.613   4.486   0.250  0.7570 -2.0067  0.9489
  197MPD1    H3 3002   3.402   4.523   0.143 -1.1041 -0.3192 -2.2807
  197MPD1     N 3003   3.473   4.206  17.519  0.4690 -0.2941  0.5292
  197MPD1    H5 3004   3.374   4.200  17.496  0.3845  1.0467  0.5465
  197MPD1    N1 3005   3.810   4.317   0.161  0.6535 -0.4662  0.6150
  197MPD1    H6 3006   3.815   4.321   0.263 -0.4521 -1.7001  0.7168
  197MPD1    H7 3007   3.851   4.230   0.128  2.0130  0.6012 -0.5459
  198MPD1     C 3008   0.671   1.596  14.844 -0.2085 -0.8049 -0.6035
  198MPD1    C1 3009   0.671   1.736  14.854  0.8997 -0.0182  0.2184
  198MPD1    C2 3010   0.651   1.795  14.977  0.4951 -0.6518  0.7607
  198MPD1    C3 3011   0.609   1.724  15.084  0.1268  0.1773 -0.0747
  198MPD1    C4 3012   0.596   1.587  15.068  0.1628 -0.0140  0.1629
  198MPD1    C5 3013   0.620   1.527  14.947  0.3470 -0.2556  0.5628
  198MPD1     H 3014   0.651   1.902  14.993 -0.6625 -0.4765 -0.4039
  198MPD1    H1 3015   0.577   1.518  15.149 -0.3753 -1.4687 -1.1877
  198MPD1    H2 3016   0.676   1.541  14.752  1.5201  0.0494 -1.0148
  198MPD1    H3 3017   0.611   1.419  14.936  1.7508 -0.4424  1.1963
  198MPD1     N 3018   0.581   1.785  15.206  0.6212 -0.2330 -0.0000
  198MPD1    H5 3019   0.628   1.873  15.223  0.6659 -0.0283 -1.2335
  198MPD1    N1 3020   0.734   1.811  14.755 -0.2369  0.3591 -0.4409
  198MPD1    H6 3021   0.710   1.910  14.767  0.9194  0.2797  2.6198
  198MPD1    H7 3022   0.698   1.773  14.668 -1.0473 -0.1409  0.1066
  199MPD1     C 3023   3.753   3.640   9.396 -0.1713  0.6990 -0.2931
  199MPD1    C1 3024   3.833   3.546   9.458 -0.4046 -0.0559 -0.2109
  199MPD1    C2 3025   3.778   3.430   9.509 -0.0973  0.3793 -0.1050
  199MPD1    C3 3026   3.639   3.418   9.513  0.0558 -0.0952  0.1776
  199MPD1    C4 3027   3.558   3.525   9.472  0.1493  0.0222 -0.0341
  199MPD1    C5 3028   3.614   3.637   9.418  0.1149  0.1996  0.1042
  199MPD1     H 3029   3.845   3.360   9.558 -1.2150  0.3607  1.3908
  199MPD1    H1 3030   3.452   3.501   9.466  0.2537 -0.7695  1.4518
  199MPD1    H2 3031   3.797   3.730   9.356  1.5686  0.2413  0.5876
  199MPD1    H3 3032   3.552   3.711   9.368 -0.0799 -0.9724 -1.3764
  199MPD1     N 3033   3.569   3.302   9.554 -0.5078  0.2473 -0.7477
  199MPD1    H5 3034   3.468   3.306   9.545 -0.8330 -2.7983  1.6098
  199MPD1    N1 3035   3.973   3.551   9.430 -0.3224 -0.2062 -0.6200
  199MPD1    H6 3036   4.029   3.502   9.499 -0.1287 -1.0586 -1.3885
  199MPD1    H7 3037   4.010   3.646   9.427  2.2335 -1.1440  1.9517
  200MPD1     C 3038   1.901   2.987  15.448  0.1403  0.4574 -0.0825
  200MPD1    C1 3039   1.824   2.893  15.385 -0.1247 -0.1556  1.0307
  200MPD1    C2 3040   1.826   2.893  15.251 -0.1172  0.5064  0.2516
  200MPD1    C3 3041   1.928   2.949  15.174 -0.0429  0.1285 -0.2278
  200MPD1    C4 3042   2.012   3.042  15.238 -0.1099 -0.6504 -0.0265
  200MPD1    C5 3043   1.996   3.070  15.372 -0.0630 -0.2665 -0.8382
  200MPD1     H 3044   1.749   2.838  15.199  1.0207  0.0797 -0.9632
  200MPD1    H1 3045   2.096   3.089  15.190 -2.6006  1.8403 -1.8957
  200MPD1    H2 3046   1.898   3.000  15.556  0.2996  2.4459 -0.3211
  200MPD1    H3 3047   2.062   3.141  15.419 -2.0067  1.3905 -0.6312
  200MPD1     N 3048   1.942   2.909  15.038  0.0562 -0.4573  0.0859
  200MPD1    H5 3049   1.862   2.852  15.009  0.3247 -0.3936 -0.7690
  200MPD1    N1 3050   1.737   2.815  15.457  0.4285  0.2629 -0.0393
  200MPD1    H6 3051   1.756   2.808  15.557 -1.4285  2.0895  0.4486
  200MPD1    H7 3052   1.743   2.724  15.414  0.3510  0.8784 -1.3506
  201MPD1     C 3053   0.041   1.974  12.452  0.3544 -0.2421 -0.1600
  201MPD1    C1 3054   0.095   1.927  12.572 -0.2326 -0.1144  0.2978
  201MPD1    C2 3055   0.170   1.809  12.567 -0.3506 -0.3815 -0.3529
  201MPD1    C3 3056   0.167   1.721  12.458 -0.2606 -0.0380  0.3139
  201MPD1    C4 3057   0.111   1.767  12.339  0.0253  0.2965 -0.0531
  201MPD1    C5 3058   0.056   1.893  12.345 -1.0013  0.4863  0.4698
  201MPD1     H 3059   0.208   1.767  12.659 -0.1592  2.2633  0.7913
  201MPD1    H1 3060   0.119   1.713  12.246 -1.3738  0.6426 -0.3845
  201MPD1    H2 3061   4.713   2.071  12.445 -0.8514 -0.9851 -1.9082
  201MPD1    H3 3062   0.005   1.920  12.253 -0.3313  0.8116  0.1926
  201MPD1     N 3063   0.222   1.593  12.459 -0.3679 -0.5858  0.6050
  201MPD1    H5 3064   0.261   1.563  12.548  1.5361  0.6176  0.1793
  201MPD1    N1 3065   0.107   2.008  12.685  0.1658 -0.2180  0.3706
  201MPD1    H6 3066   0.034   2.078  12.692  0.8234  0.5165 -0.1807
  201MPD1    H7 3067   0.108   1.955  12.772 -0.1799  1.1074  1.1869
  202MPD1     C 3068   0.169   1.236   9.038  0.6424 -0.0524  0.1839
  202MPD1    C1 3069   0.108   1.356   9.065 -0.0206 -0.6596 -0.4734
  202MPD1    C2 3070   0.123   1.399   9.195 -0.6347  0.2549 -0.2085
  202MPD1    C3 3071   0.165   1.311   9.296 -0.1262 -0.4443  0.0976
  202MPD1    C4 3072   0.195   1.185   9.267  0.1496 -0.1268  0.6044
  202MPD1    C5 3073   0.205   1.144   9.133 -0.5084  0.2563 -0.4117
  202MPD1     H 3074   0.089   1.499   9.221 -0.1504  0.4322 -0.2609
  202MPD1    H1 3075   0.224   1.122   9.351  1.6934 -0.6089 -0.2777
  202MPD1    H2 3076   0.180   1.207   8.934 -1.2590  1.4758 -0.4354
  202MPD1    H3 3077   0.235   1.041   9.117  0.5630  0.4973  0.0543
  202MPD1     N 3078   0.175   1.333   9.440 -0.6495 -0.6159 -0.2602
  202MPD1    H5 3079   0.219   1.258   9.491  0.1909 -0.5638 -0.9102
  202MPD1    N1 3080   0.107   1.456   8.968 -0.5341 -0.1153 -0.4549
  202MPD1    H6 3081   0.037   1.528   8.985 -1.3328 -1.2293  0.9074
  202MPD1    H7 3082   0.075   1.413   8.881  0.9246 -3.0611  0.4644
  203MPD1     C 3083   2.298   2.575  12.514  0.0631 -0.4816 -0.4515
  203MPD1    C1 3084   2.351   2.495  12.411 -0.7330  0.0320 -0.3708
  203MPD1    C2 3085   2.437   2.392  12.453 -0.2020  0.9141 -0.2463
  203MPD1    C3 3086   2.457   2.360  12.584  0.1920 -0.5273  0.3856
  203MPD1    C4 3087   2.404   2.434  12.678  0.7487 -0.1029  0.1552
  203MPD1    C5 3088   2.329   2.546  12.642  0.9267 -0.2634 -0.4945
  203MPD1     H 3089   2.488   2.335  12.377 -0.1933  0.6305 -0.0288
  203MPD1    H1 3090   2.418   2.420  12.785 -0.1053 -0.2613  0.2498
  203MPD1    H2 3091   2.235   2.658  12.485  0.0160 -0.2721  0.2444
  203MPD1    H3 3092   2.290   2.617  12.714 -0.6085  0.9891 -2.5634
  203MPD1     N 3093   2.540   2.253  12.605 -0.4277  0.4273 -0.1516
  203MPD1    H5 3094   2.571   2.209  12.519  0.5312  3.4500 -1.3559
  203MPD1    N1 3095   2.351   2.534  12.274  0.5713  0.0438 -0.3017
  203MPD1    H6 3096   2.266   2.589  12.258  0.8945  0.5941 -0.1149
  203MPD1    H7 3097   2.346   2.446  12.222  0.9185 -1.0085  1.4513
  204MPD1     C 3098   1.148   3.062   0.201 -0.4491  0.0055  0.4715
  204MPD1    C1 3099   1.237   3.155   0.148  0.0070 -0.3064  0.4658
  204MPD1    C2 3100   1.369   3.108   0.126  0.3762 -0.8504 -0.0008
  204MPD1    C3 3101   1.408   2.978   0.139 -0.4099 -0.3215  0.0665
  204MPD1    C4 3102   1.307   2.886   0.178 -0.4281 -0.0023  0.0268
  204MPD1    C5 3103   1.181   2.929   0.206 -0.2850 -0.0348 -0.1384
  204MPD1     H 3104   1.453   3.174   0.107  0.3036 -0.8827 -0.4324
  204MPD1    H1 3105   1.328   2.780   0.184 -0.6755 -0.2380 -3.1299
  204MPD1    H2 3106   1.051   3.097   0.234 -0.2796  0.5761  0.3647
  204MPD1    H3 3107   1.113   2.851   0.238  1.4918 -1.3583  0.4724
  204MPD1     N 3108   1.546   2.939   0.125 -0.0020 -0.0323 -0.1757
  204MPD1    H5 3109   1.613   3.002   0.082  0.9945 -0.5617  0.5975
  204MPD1    N1 3110   1.208   3.292   0.152  0.7559 -0.7100  0.0407
  204MPD1    H6 3111   1.268   3.348   0.092 -0.8971  1.3574  0.3194
  204MPD1    H7 3112   1.109   3.316   0.146  0.1188 -2.8323  1.6399
  205MPD1     C 3113   1.957   1.178  17.024  0.2690  0.1977  0.1182
  205MPD1    C1 3114   1.900   1.302  17.012 -0.1526 -0.1388  1.1255
  205MPD1    C2 3115   1.950   1.406  17.084 -0.4599  0.3527  0.2312
  205MPD1    C3 3116   2.043   1.388  17.181  0.0350 -0.6066  0.0429
  205MPD1    C4 3117   2.083   1.262  17.210  0.0035 -0.0417 -0.6763
  205MPD1    C5 3118   2.046   1.156  17.123  0.3907  0.3285 -0.2435
  205MPD1     H 3119   1.911   1.505  17.068  1.2954  1.1309  0.6918
  205MPD1    H1 3120   2.156   1.243  17.288  3.0976  2.3042 -3.0211
  205MPD1    H2 3121   1.918   1.093  16.969  1.3202  1.0433 -1.9554
  205MPD1    H3 3122   2.094   1.059  17.131 -0.2555  0.0795  0.5762
  205MPD1     N 3123   2.087   1.489  17.260 -0.2774 -0.1019 -0.0881
  205MPD1    H5 3124   2.146   1.459  17.338 -2.3599 -1.8242  0.8138
  205MPD1    N1 3125   1.797   1.327  16.916 -0.3766  0.0037 -0.0528
  205MPD1    H6 3126   1.736   1.245  16.915 -0.9629  0.4203  2.3820
  205MPD1    H7 3127   1.740   1.409  16.935 -0.9716 -0.3338 -0.3608
  206MPD1     C 3128   1.999   4.519  17.109 -0.3887 -0.1555 -0.5455
  206MPD1    C1 3129   2.000   4.401  17.045 -0.3084 -0.1385  0.1368
  206MPD1    C2 3130   2.031   4.391  16.915 -0.3721  0.2048 -0.1496
  206MPD1    C3 3131   2.079   4.503  16.846  0.7562 -0.1752 -0.1157
  206MPD1    C4 3132   2.063   4.622  16.906  0.1043  0.1093 -0.0541
  206MPD1    C5 3133   2.034   4.632  17.038 -0.0136  0.5914  0.4766
  206MPD1     H 3134   2.031   4.293  16.869 -1.1977 -0.9006  2.1847
  206MPD1    H1 3135   2.095   4.711  16.853  0.0196  1.5442  2.3028
  206MPD1    H2 3136   1.987   4.523  17.217  2.0415 -0.9697 -0.2565
  206MPD1    H3 3137   2.046   0.009  17.083  2.2436  0.0887  0.9602
  206MPD1     N 3138   2.117   4.505  16.710 -0.2386 -0.4165 -0.0524
  206MPD1    H5 3139   2.133   4.591  16.659  1.5330 -0.6878  0.0503
  206MPD1    N1 3140   1.966   4.292  17.124 -0.4130 -0.6616  0.8220
  206MPD1    H6 3141   1.885   4.315  17.181 -0.6446 -0.5009  0.4221
  206MPD1    H7 3142   1.937   4.211  17.070 -1.4574  0.9161 -0.9741
  207MPD1     C 3143   0.808   2.233   9.747 -0.2726  0.0718  0.5027
  207MPD1    C1 3144   0.904   2.313   9.690 -0.9784  0.4296 -0.5866
  207MPD1    C2 3145   1.006   2.358   9.774  0.7400  0.3377 -0.3749
  207MPD1    C3 3146   1.026   2.312   9.902 -0.3852  0.0016 -0.0744
  207MPD1    C4 3147   0.936   2.222   9.949 -0.3460  0.6083  0.4081
  207MPD1    C5 3148   0.825   2.195   9.876 -0.1074 -0.5042 -0.2538
  207MPD1     H 3149   1.082   2.424   9.735  0.9368  0.5925  0.4521
  207MPD1    H1 3150   0.951   2.195  10.053 -0.8744  1.5953  0.7357
  207MPD1    H2 3151   0.719   2.202   9.693 -1.8995  2.4438  1.8256
  207MPD1    H3 3152   0.741   2.138   9.914  0.8823 -3.3316 -2.3481
  207MPD1     N 3153   1.127   2.347   9.992 -0.1598  0.6918  0.0529
  207MPD1    H5 3154   1.121   2.304  10.084 -1.0062  3.4258  1.2713
  207MPD1    N1 3155   0.876   2.377   9.572  0.0027 -0.2200 -0.8083
  207MPD1    H6 3156   0.954   2.407   9.514 -0.4358 -1.8924 -2.2688
  207MPD1    H7 3157   0.821   2.322   9.505 -0.0957  0.7612 -1.5405
  208MPD1     C 3158   3.046   2.162   0.968 -0.1297 -1.2024  0.2389
  208MPD1    C1 3159   3.124   2.046   0.986 -0.7669 -0.1555  0.2796
  208MPD1    C2 3160   3.065   1.923   0.966 -0.1573  0.8623 -0.0101
  208MPD1    C3 3161   2.942   1.904   0.916 -0.4736 -0.1735  0.6542
  208MPD1    C4 3162   2.869   2.017   0.890  0.1942 -0.4174  0.6571
  208MPD1    C5 3163   2.923   2.139   0.930 -0.2219  0.0220 -0.0981
  208MPD1     H 3164   3.128   1.835   0.976 -0.3844  0.7670  0.5969
  208MPD1    H1 3165   2.767   2.017   0.854  0.8164 -1.5334 -1.1295
  208MPD1    H2 3166   3.080   2.264   0.971 -1.6013 -0.7894  2.2091
  208MPD1    H3 3167   2.854   2.223   0.922  0.7978  0.8615  0.0116
  208MPD1     N 3168   2.904   1.773   0.875 -0.1242 -1.1213  0.2790
  208MPD1    H5 3169   2.966   1.698   0.905  0.3115 -1.3914 -1.3303
  208MPD1    N1 3170   3.256   2.044   1.035  0.5657  0.0793  0.0892
  208MPD1    H6 3171   3.296   1.963   0.989 -0.5032 -1.1260  1.2660
  208MPD1    H7 3172   3.308   2.126   1.002 -0.6149  2.2984  3.6823
  209MPD1     C 3173   1.132   2.099  11.914 -0.2400 -0.3622  0.2895
  209MPD1    C1 3174   1.185   2.223  11.923 -0.5265 -0.1033 -0.4812
  209MPD1    C2 3175   1.255   2.269  11.814 -0.1464 -0.0494 -0.2879
  209MPD1    C3 3176   1.259   2.197  11.697 -0.2412 -0.4940  0.2026
  209MPD1    C4 3177   1.197   2.071  11.694 -0.8121 -0.5939  0.3274
  209MPD1    C5 3178   1.134   2.018  11.804  0.3413 -0.4703 -0.1472
  209MPD1     H 3179   1.305   2.364  11.827 -1.3496  0.4085  0.9213
  209MPD1    H1 3180   1.212   2.006  11.609 -2.0546  0.9063 -1.0544
  209MPD1    H2 3181   1.076   2.052  11.994 -0.2052 -2.1752 -0.7497
  209MPD1    H3 3182   1.090   1.920  11.795 -0.4434 -0.1485  0.1736
  209MPD1     N 3183   1.312   2.260  11.578 -0.1564 -0.9477  0.3708
  209MPD1    H5 3184   1.356   2.350  11.590 -0.8589 -0.5523  0.0318
  209MPD1    N1 3185   1.189   2.293  12.042 -0.2783 -0.5958  0.9652
  209MPD1    H6 3186   1.195   2.390  12.010  0.1546 -1.3681 -1.2740
  209MPD1    H7 3187   1.106   2.293  12.100 -1.6176  1.5209 -0.9503
  210MPD1     C 3188   1.808   2.954  11.558 -0.8310 -0.4192  0.1621
  210MPD1    C1 3189   1.855   2.893  11.445 -0.1952 -0.2425  0.3010
  210MPD1    C2 3190   1.779   2.791  11.391  0.0549 -0.1348  0.8515
  210MPD1    C3 3191   1.674   2.739  11.458  0.8642 -0.2598 -0.3235
  210MPD1    C4 3192   1.639   2.791  11.586 -0.2636 -0.3803 -0.2737
  210MPD1    C5 3193   1.707   2.906  11.631 -0.0905 -0.0707  1.2309
  210MPD1     H 3194   1.820   2.751  11.299  0.3283  1.5547  0.2343
  210MPD1    H1 3195   1.564   2.748  11.651  1.7418 -3.3838  0.0859
  210MPD1    H2 3196   1.857   3.041  11.601 -0.6242 -0.5753  0.2430
  210MPD1    H3 3197   1.679   2.944  11.729  0.3648  1.5223  0.7492
  210MPD1     N 3198   1.591   2.632  11.410 -0.0712 -0.7504 -0.4765
  210MPD1    H5 3199   1.512   2.607  11.469  2.8853  0.3645  3.9491
  210MPD1    N1 3200   1.974   2.936  11.384  0.0562 -0.6077  0.2642
  210MPD1    H6 3201   2.055   2.922  11.444  0.2891  0.4879  0.2009
  210MPD1    H7 3202   1.991   2.889  11.295 -0.0343 -1.9166  0.9296
  211MPD1     C 3203   2.614   1.061  16.364  0.5629  0.5645  0.8601
  211MPD1    C1 3204   2.659   1.171  16.446 -0.2668 -0.6606 -0.2575
  211MPD1    C2 3205   2.599   1.291  16.434 -0.0856  0.1067  0.1617
  211MPD1    C3 3206   2.501   1.309  16.342 -0.6130  0.2010  0.0129
  211MPD1    C4 3207   2.449   1.203  16.267  0.1497 -0.0972 -0.3805
  211MPD1    C5 3208   2.504   1.077  16.281 -0.6027 -0.2329 -0.5063
  211MPD1     H 3209   2.634   1.377  16.491 -1.6922  0.0083  1.2877
  211MPD1    H1 3210   2.354   1.214  16.216 -0.0508 -2.1005 -0.4539
  211MPD1    H2 3211   2.661   0.963  16.365  2.1817  1.3530  1.3464
  211MPD1    H3 3212   2.475   0.987  16.228 -2.5300  0.5631 -0.7917
  211MPD1     N 3213   2.440   1.436  16.338  0.3641  0.4979 -0.4046
  211MPD1    H5 3214   2.489   1.501  16.399  0.0810  1.2714 -1.0072
  211MPD1    N1 3215   2.785   1.155  16.509  0.3191  0.1457  0.0495
  211MPD1    H6 3216   2.783   1.072  16.567  1.1856  1.5094  2.0122
  211MPD1    H7 3217   2.807   1.230  16.574 -0.9604  0.4567  0.1154
  212MPD1     C 3218   2.214   0.392  17.002 -0.5660 -0.3115 -0.5292
  212MPD1    C1 3219   2.210   0.340  16.871  0.1167 -0.0734  0.1402
  212MPD1    C2 3220   2.099   0.272  16.828  0.5182  0.0422  0.2311
  212MPD1    C3 3221   1.983   0.272  16.900  0.3136 -0.2115 -0.0741
  212MPD1    C4 3222   1.987   0.324  17.030  0.1915 -0.3606  0.5628
  212MPD1    C5 3223   2.097   0.389  17.075  0.1764  0.2092  0.7085
  212MPD1     H 3224   2.101   0.222  16.732 -1.5694  2.2611 -0.9756
  212MPD1    H1 3225   1.902   0.312  17.096 -0.0080  0.9967  0.5586
  212MPD1    H2 3226   2.308   0.421  17.047  0.3048 -0.5757 -2.1611
  212MPD1    H3 3227   2.093   0.415  17.181 -0.0240  1.8258  0.3160
  212MPD1     N 3228   1.860   0.203  16.869  0.3330 -0.0722  0.0212
  212MPD1    H5 3229   1.789   0.197  16.941 -0.2914 -0.4791 -0.6408
  212MPD1    N1 3230   2.325   0.337  16.794  0.1770 -0.4433 -0.0083
  212MPD1    H6 3231   2.408   0.390  16.821 -0.1961  1.2530 -2.1940
  212MPD1    H7 3232   2.306   0.352  16.695 -1.4149  2.2686  0.7287
  213MPD1     C 3233   0.856   1.051  15.626  0.1931  0.2357  0.7395
  213MPD1    C1 3234   0.830   1.143  15.531 -0.0664 -0.0131 -0.9841
  213MPD1    C2 3235   0.701   1.130  15.477  0.3831 -0.2533  0.3554
  213MPD1    C3 3236   0.596   1.065  15.541 -0.0370  0.1477 -0.5447
  213MPD1    C4 3237   0.619   1.011  15.665 -0.0050 -0.9631 -0.0406
  213MPD1    C5 3238   0.752   0.999  15.702 -0.1975  0.1050  0.0473
  213MPD1     H 3239   0.685   1.173  15.379  3.5032 -3.2925 -1.4485
  213MPD1    H1 3240   0.541   0.961  15.722 -1.2331  1.0097  0.0346
  213MPD1    H2 3241   0.958   1.037  15.658 -0.2064 -1.9559  1.0773
  213MPD1    H3 3242   0.775   0.938  15.789  0.9214 -1.3203 -1.2425
  213MPD1     N 3243   0.470   1.074  15.478 -0.0243 -0.1884  0.1891
  213MPD1    H5 3244   0.473   1.094  15.378  0.7226 -0.0362  0.2355
  213MPD1    N1 3245   0.947   1.182  15.453  0.2951  0.1381 -0.7761
  213MPD1    H6 3246   0.934   1.270  15.404  2.2986  1.0806  0.3692
  213MPD1    H7 3247   1.031   1.191  15.511  0.2170 -0.5751 -0.5549
  214MPD1     C 3248   4.291   0.503  15.205  0.2744  0.0468 -0.7467
  214MPD1    C1 3249   4.300   0.565  15.334  0.0876  0.6364 -0.5574
  214MPD1    C2 3250   4.409   0.658  15.351  0.2254  0.4064  0.2296
  214MPD1    C3 3251   4.499   0.683  15.251 -0.4371  0.0521  0.1446
  214MPD1    C4 3252   4.480   0.635  15.125 -0.2190 -0.2487 -0.0886
  214MPD1    C5 3253   4.376   0.542  15.109  0.3646  1.0656  0.5240
  214MPD1     H 3254   4.418   0.711  15.445 -1.1494  2.6600 -0.9037
  214MPD1    H1 3255   4.545   0.654  15.041  0.3204 -1.2965  0.0888
  214MPD1    H2 3256   4.206   0.446  15.169 -0.9763  1.0488  0.5921
  214MPD1    H3 3257   4.354   0.496  15.013  2.8005 -1.6484  1.2765
  214MPD1     N 3258   4.624   0.757  15.276  0.8875 -0.1217 -0.5018
  214MPD1    H5 3259   4.680   0.762  15.192 -0.2492  2.4374 -1.0897
  214MPD1    N1 3260   4.194   0.558  15.418 -0.2283 -0.1688 -0.2366
  214MPD1    H6 3261   4.209   0.566  15.518 -1.0152 -1.3878 -0.0166
  214MPD1    H7 3262   4.134   0.476  15.409 -0.0416 -0.4167  0.7931
  215MPD1     C 3263   0.796   1.460  10.425  0.1406 -0.5635  0.6758
  215MPD1    C1 3264   0.783   1.509  10.552  0.7475  0.4624  0.6018
  215MPD1    C2 3265   0.790   1.649  10.570  0.4301  0.0142 -0.3148
  215MPD1    C3 3266   0.815   1.731  10.455 -0.1166 -0.0509  0.3601
  215MPD1    C4 3267   0.833   1.672  10.337 -0.3840 -0.0601  0.2512
  215MPD1    C5 3268   0.821   1.537  10.312 -0.6591 -0.4725  0.2941
  215MPD1     H 3269   0.780   1.700  10.665 -2.2338  1.5029 -1.3725
  215MPD1    H1 3270   0.839   1.728  10.244 -1.5650 -0.0508  0.1855
  215MPD1    H2 3271   0.780   1.354  10.407 -1.6976 -0.6278  2.7448
  215MPD1    H3 3272   0.818   1.495  10.212  2.9279  1.2889 -0.5845
  215MPD1     N 3273   0.805   1.870  10.474 -0.0149 -0.3010  0.7353
  215MPD1    H5 3274   0.753   1.902  10.555 -1.3938  2.2610 -1.1644
  215MPD1    N1 3275   0.748   1.412  10.654  0.4207  0.0608 -0.2434
  215MPD1    H6 3276   0.780   1.317  10.635 -0.1585 -0.2372  0.2980
  215MPD1    H7 3277   0.762   1.451  10.747 -0.6745  0.8016 -0.3822
  216MPD1     C 3278   1.276   4.509   0.536  0.2425 -0.2636  0.4402
  216MPD1    C1 3279   1.383   4.459   0.600 -0.5627  0.1622  0.1325
  216MPD1    C2 3280   1.393   4.324   0.614  0.3160  0.1823  0.5611
  216MPD1    C3 3281   1.283   4.241   0.590  0.2598  0.1046  0.0105
  216MPD1    C4 3282   1.164   4.299   0.533 -0.5833 -0.2186 -0.4272
  216MPD1    C5 3283   1.169   4.432   0.506  0.7766  0.2542  0.2693
  216MPD1     H 3284   1.490   4.283   0.640  0.5764  0.9051  0.7199
  216MPD1    H1 3285   1.073   4.248   0.505 -0.1629 -0.4482 -1.3934
  216MPD1    H2 3286   1.277   4.612   0.504  0.4901  0.1072  1.6771
  216MPD1    H3 3287   1.081   4.477   0.461  1.6206  0.5096 -1.1260
  216MPD1     N 3288   1.294   4.099   0.602  0.1081  0.4288 -0.6202
  216MPD1    H5 3289   1.386   4.060   0.622 -0.4504 -0.3700  0.4572
  216MPD1    N1 3290   1.500   4.539   0.603 -0.1664 -0.5466 -1.1843
  216MPD1    H6 3291   1.566   4.500   0.670 -0.3219 -1.2674 -1.4512
  216MPD1    H7 3292   1.466   4.629   0.639 -0.6548 -0.0179 -2.9681
  217MPD1     C 3293   3.158   0.615   8.696 -0.2015 -0.5484  0.7739
  217MPD1    C1 3294   3.287   0.623   8.726  0.7103 -0.2156  0.5693
  217MPD1    C2 3295   3.335   0.742   8.778 -0.6578  0.1986  0.6500
  217MPD1    C3 3296   3.252   0.845   8.814  0.2311 -0.0025 -1.2313
  217MPD1    C4 3297   3.120   0.833   8.780  0.3891 -0.3419 -0.2260
  217MPD1    C5 3298   3.076   0.719   8.715 -0.1666  0.4989  0.1363
  217MPD1     H 3299   3.441   0.749   8.798 -0.3404 -2.3585 -0.1788
  217MPD1    H1 3300   3.046   0.908   8.804 -0.6859 -1.7722  0.8860
  217MPD1    H2 3301   3.102   0.534   8.651 -2.9286  0.9428  1.4719
  217MPD1    H3 3302   2.968   0.709   8.704 -0.2457  0.4036  0.9626
  217MPD1     N 3303   3.291   0.968   8.879 -0.1886  0.7491 -0.8641
  217MPD1    H5 3304   3.214   1.029   8.905 -0.6477  1.0606 -2.9570
  217MPD1    N1 3305   3.376   0.530   8.677 -0.2726  0.0410  0.7637
  217MPD1    H6 3306   3.465   0.529   8.726  0.6497 -1.4142 -0.9179
  217MPD1    H7 3307   3.335   0.437   8.691 -0.9426  0.1549 -0.4347
  218MPD1     C 3308   0.036   2.574  12.800  0.0045  0.1662  0.9583
  218MPD1    C1 3309   0.094   2.458  12.848 -0.3376  0.5725 -0.4055
  218MPD1    C2 3310   0.150   2.367  12.756 -0.8456 -0.5319  0.3589
  218MPD1    C3 3311   0.159   2.407  12.623  0.1153  0.6433 -0.2828
  218MPD1    C4 3312   0.107   2.524  12.584  0.1248  0.3238 -0.5122
  218MPD1    C5 3313   0.043   2.607  12.670  0.6963 -0.1052  0.0857
  218MPD1     H 3314   0.178   2.271  12.799  2.7296  0.5155  0.3606
  218MPD1    H1 3315   0.089   2.556  12.481  2.7458  1.1135 -0.7381
  218MPD1    H2 3316   4.709   2.636  12.874 -0.6749  2.1402 -1.1615
  218MPD1    H3 3317   4.720   2.697  12.631 -0.8851 -0.9300 -0.0286
  218MPD1     N 3318   0.218   2.322  12.525 -0.1551  0.2499 -0.4930
  218MPD1    H5 3319   0.256   2.235  12.563 -0.4459 -0.4441 -1.8049
  218MPD1    N1 3320   0.076   2.423  12.984  0.4406  0.5374  0.5651
  218MPD1    H6 3321   0.088   2.507  13.040  1.4968 -0.7716  2.2744
  218MPD1    H7 3322   0.152   2.363  13.017  0.7786 -0.5081 -2.0914
  219MPD1     C 3323   0.770   2.589  11.729 -0.3461  0.2406  0.7234
  219MPD1    C1 3324   0.855   2.504  11.801 -0.1382  0.3183  0.3525
  219MPD1    C2 3325   0.799   2.427  11.903 -0.1711 -0.0380 -0.0422
  219MPD1    C3 3326   0.665   2.443  11.941 -0.2973  0.3842  0.6036
  219MPD1    C4 3327   0.583   2.532  11.868 -0.0650 -0.3956  0.8484
  219MPD1    C5 3328   0.633   2.603  11.761  0.0314 -0.4231  0.4936
  219MPD1     H 3329   0.856   2.351  11.955 -1.4692  0.7503  2.4933
  219MPD1    H1 3330   0.481   2.551  11.901 -0.1846 -0.6414  0.6257
  219MPD1    H2 3331   0.806   2.661  11.656  1.5797  0.0864  1.5125
  219MPD1    H3 3332   0.579   2.669  11.695 -3.6683 -2.4990  1.4777
  219MPD1     N 3333   0.605   2.373  12.045 -0.2748  0.1030  0.5850
  219MPD1    H5 3334   0.506   2.398  12.046 -0.2894  0.0089  1.9870
  219MPD1    N1 3335   0.997   2.503  11.774 -0.4656 -0.2056 -0.1910
  219MPD1    H6 3336   1.038   2.410  11.782  1.5231  0.8690  2.0403
  219MPD1    H7 3337   1.030   2.531  11.682 -0.2701  0.6530  0.1462
  220MPD1     C 3338   0.283   3.139   9.100 -0.1365 -1.0418 -0.0055
  220MPD1    C1 3339   0.377   3.176   9.186 -0.3689 -0.1445  0.3933
  220MPD1    C2 3340   0.402   3.099   9.298 -0.1791 -0.0426  0.0282
  220MPD1    C3 3341   0.314   2.990   9.320 -0.1693  0.2032  0.3737
  220MPD1    C4 3342   0.201   2.977   9.241 -0.1455 -0.5978 -0.0619
  220MPD1    C5 3343   0.191   3.049   9.120  0.5039  0.3781  0.4662
  220MPD1     H 3344   0.492   3.118   9.356  0.8403 -3.3358 -0.4353
  220MPD1    H1 3345   0.128   2.897   9.252  0.5739 -1.1603  0.6360
  220MPD1    H2 3346   0.271   3.199   9.010 -0.6610 -2.1941 -0.7055
  220MPD1    H3 3347   0.109   3.036   9.051  0.4863 -2.0574  0.9382
  220MPD1     N 3348   0.333   2.910   9.441 -0.1917 -0.5764  0.0831
  220MPD1    H5 3349   0.430   2.895   9.465  0.1272  0.2420 -0.7033
  220MPD1    N1 3350   0.477   3.265   9.135  0.2059 -0.4241 -0.7063
  220MPD1    H6 3351   0.515   3.316   9.214 -0.2640 -1.5410  0.2317
  220MPD1    H7 3352   0.440   3.337   9.073  1.8901 -0.7395 -2.0547
  221MPD1     C 3353   1.709   1.534  16.044 -0.8894 -0.2798 -0.6650
  221MPD1    C1 3354   1.732   1.475  15.923 -0.0823  0.4656 -0.5155
  221MPD1    C2 3355   1.858   1.419  15.899  0.5880 -0.4729  0.5046
  221MPD1    C3 3356   1.952   1.419  16.000  0.1781 -0.6235  0.6235
  221MPD1    C4 3357   1.923   1.468  16.124  0.4908 -0.3722  0.0619
  221MPD1    C5 3358   1.800   1.531  16.138  0.0481 -0.0440  0.4758
  221MPD1     H 3359   1.870   1.377  15.799  1.0472  0.4306  0.1755
  221MPD1    H1 3360   1.984   1.473  16.213  2.1341  1.4640 -1.1685
  221MPD1    H2 3361   1.613   1.581  16.056 -2.0797 -2.4291 -1.7041
  221MPD1    H3 3362   1.776   1.577  16.234 -1.4261 -1.3119  0.7143
  221MPD1     N 3363   2.078   1.359  15.986 -0.2483  0.4571  0.1809
  221MPD1    H5 3364   2.143   1.368  16.063  0.2157 -0.7311 -0.0755
  221MPD1    N1 3365   1.636   1.494  15.822  0.0846 -0.8442  0.3409
  221MPD1    H6 3366   1.654   1.436  15.740 -1.4900  0.0543 -0.6357
  221MPD1    H7 3367   1.536   1.489  15.844 -0.3690 -2.5693 -2.1466
  222MPD1     C 3368   3.056   3.886  17.270 -1.1452 -0.5194 -0.1652
  222MPD1    C1 3369   3.005   3.960  17.368 -0.4201 -0.3727  0.3263
  222MPD1    C2 3370   2.919   4.069  17.331  0.7498 -0.1316  0.8162
  222MPD1    C3 3371   2.861   4.072  17.204  0.4429 -0.2451  0.1859
  222MPD1    C4 3372   2.914   3.985  17.107 -0.4845  0.4307 -0.4633
  222MPD1    C5 3373   3.008   3.891  17.146 -0.0428  0.5899  0.1731
  222MPD1     H 3374   2.900   4.145  17.406 -0.9359 -0.3513  0.6022
  222MPD1    H1 3375   2.885   3.976  17.003 -2.8046 -0.8636  0.2957
  222MPD1    H2 3376   3.139   3.818  17.289 -0.6584  0.0130 -0.3916
  222MPD1    H3 3377   3.048   3.820  17.074 -0.9582 -1.2684  1.4901
  222MPD1     N 3378   2.767   4.171  17.166  0.1058  0.1867  0.0016
  222MPD1    H5 3379   2.735   4.151  17.072 -1.1529 -1.2047  0.7354
  222MPD1    N1 3380   3.056   3.950  17.499  0.2774  0.0039  0.2019
  222MPD1    H6 3381   2.981   3.967  17.566 -1.1894 -0.1977 -1.3762
  222MPD1    H7 3382   3.096   3.858  17.518  2.6336  1.1407  0.7235
  223MPD1     C 3383   2.484   4.646  16.374 -0.2141 -0.0789 -0.7082
  223MPD1    C1 3384   2.409   4.720  16.461 -0.6080 -0.1945  0.0719
  223MPD1    C2 3385   2.399   4.676  16.599  0.4229 -0.9417 -0.2467
  223MPD1    C3 3386   2.463   4.564  16.638 -0.4746  0.2717  0.6309
  223MPD1    C4 3387   2.536   4.489  16.547 -0.1538  0.1220 -0.5564
  223MPD1    C5 3388   2.537   4.523  16.410 -0.0050  0.2282  0.5909
  223MPD1     H 3389   2.337   0.012  16.666  0.0532 -1.3085 -0.2739
  223MPD1    H1 3390   2.573   4.391  16.572 -0.6649 -0.1898 -1.0235
  223MPD1    H2 3391   2.497   4.679  16.271 -1.8214  1.4638 -0.4367
  223MPD1    H3 3392   2.589   4.472  16.330  3.5407 -1.5855  4.0566
  223MPD1     N 3393   2.452   4.532  16.771 -0.4051 -0.2316 -0.4997
  223MPD1    H5 3394   2.420   4.605  16.834 -1.0140  0.7863 -2.0226
  223MPD1    N1 3395   2.358   0.120  16.425  0.1044 -0.0178 -0.8020
  223MPD1    H6 3396   2.355   0.125  16.323  0.5493 -2.6424 -0.9320
  223MPD1    H7 3397   2.265   0.144  16.459  0.6598 -0.2379  0.8539
  224MPD1     C 3398   4.346   2.933   9.540 -0.3291 -0.0789  0.1210
  224MPD1    C1 3399   4.463   2.863   9.520  0.5537  0.1191  0.3226
  224MPD1    C2 3400   4.458   2.734   9.569 -0.2550  0.2206  0.0165
  224MPD1    C3 3401   4.358   2.676   9.643  0.3464  0.6697 -0.0335
  224MPD1    C4 3402   4.257   2.763   9.683  0.0505  0.1194  0.7027
  224MPD1    C5 3403   4.251   2.892   9.626  0.1067  1.1257 -0.7303
  224MPD1     H 3404   4.549   2.681   9.542 -0.2676 -0.7937  1.9964
  224MPD1    H1 3405   4.176   2.741   9.752 -0.8480  2.0233  0.2650
  224MPD1    H2 3406   4.334   3.031   9.494  1.8403 -0.7894 -1.9776
  224MPD1    H3 3407   4.179   2.964   9.662 -0.5798 -0.2617  0.6963
  224MPD1     N 3408   4.362   2.549   9.707  0.5098 -0.2520  0.4344
  224MPD1    H5 3409   4.302   2.542   9.788 -1.7901  4.0429 -0.8591
  224MPD1    N1 3410   4.557   2.911   9.428 -0.2900 -0.1863  0.3780
  224MPD1    H6 3411   4.559   3.012   9.416  2.3938 -0.2604  0.3936
  224MPD1    H7 3412   4.650   2.875   9.445 -0.3611 -0.4609  0.1789
  225MPD1     C 3413   0.342   3.322  12.607  0.2260  0.1175 -0.4156
  225MPD1    C1 3414   0.369   3.213  12.531  0.2473 -0.2048  0.4796
  225MPD1    C2 3415   0.300   3.183  12.421 -0.3591 -0.8280  0.5160
  225MPD1    C3 3416   0.198   3.267  12.381  0.0738  1.0092 -0.2348
  225MPD1    C4 3417   0.171   3.381  12.456  0.1039 -0.2222 -0.6165
  225MPD1    C5 3418   0.246   3.408  12.566  0.2222  0.2011  0.0060
  225MPD1     H 3419   0.328   3.090  12.373  0.8531  0.1325 -0.6335
  225MPD1    H1 3420   0.096   3.452  12.422 -1.8746 -1.8140  0.3804
  225MPD1    H2 3421   0.398   3.347  12.696 -1.4421 -1.1019  0.9752
  225MPD1    H3 3422   0.209   3.486  12.632 -1.3974  0.4929 -1.2480
  225MPD1     N 3423   0.117   3.240  12.268 -0.3206 -0.1649 -0.2111
  225MPD1    H5 3424   0.054   3.309  12.229  1.7464  1.1656 -1.1978
  225MPD1    N1 3425   0.470   3.129  12.580 -0.2036 -0.4528  0.0548
  225MPD1    H6 3426   0.506   3.074  12.502 -0.4413  1.2617 -1.2606
  225MPD1    H7 3427   0.547   3.175  12.629  0.0587  0.2839 -1.0448
  226MPD1     C 3428   3.983   1.917   9.767  0.4087 -0.7352  0.7422
  226MPD1    C1 3429   4.065   1.919   9.658  0.0020 -0.3825  0.2793
  226MPD1    C2 3430   4.075   2.032   9.585 -0.6284  0.2331  0.1941
  226MPD1    C3 3431   4.010   2.156   9.621  0.0646  0.3135 -0.7813
  226MPD1    C4 3432   3.941   2.160   9.744 -1.2761  0.1017 -1.4268
  226MPD1    C5 3433   3.930   2.039   9.811  0.1558  0.1361  0.5764
  226MPD1     H 3434   4.128   2.020   9.492 -0.6207  1.4290  0.0484
  226MPD1    H1 3435   3.892   2.246   9.788  1.2398  0.7411  0.1401
  226MPD1    H2 3436   3.970   1.830   9.830 -1.3294 -2.1267 -1.5274
  226MPD1    H3 3437   3.865   2.056   9.896 -2.3939  0.4691 -1.4548
  226MPD1     N 3438   4.020   2.278   9.553  0.3981 -0.2790 -0.2729
  226MPD1    H5 3439   3.971   2.356   9.596  0.3889 -1.6992  2.2749
  226MPD1    N1 3440   4.120   1.799   9.609 -0.4932  0.0644  0.0785
  226MPD1    H6 3441   4.159   1.740   9.682 -3.2591  0.5844  2.0285
  226MPD1    H7 3442   4.189   1.822   9.539  0.6969  1.5419  1.7362
  227MPD1     C 3443   3.414   2.841   9.308  0.1085  0.7081 -0.5862
  227MPD1    C1 3444   3.432   2.716   9.355 -0.0993  0.8978 -0.1287
  227MPD1    C2 3445   3.563   2.671   9.370 -0.5763 -0.2653 -0.0024
  227MPD1    C3 3446   3.674   2.746   9.344  0.0112 -1.0872  0.3160
  227MPD1    C4 3447   3.655   2.871   9.292  0.3067  0.0565  0.0030
  227MPD1    C5 3448   3.524   2.918   9.281 -0.0999  0.3409  0.1717
  227MPD1     H 3449   3.580   2.569   9.401 -0.0351  0.0421  0.7224
  227MPD1    H1 3450   3.733   2.931   9.246 -0.6336  1.6420  0.4841
  227MPD1    H2 3451   3.319   2.890   9.290  0.3869  1.0614 -1.0974
  227MPD1    H3 3452   3.517   3.016   9.236  0.2570  0.0594 -0.4920
  227MPD1     N 3453   3.803   2.682   9.361 -0.2481  0.1418 -0.3835
  227MPD1    H5 3454   3.799   2.584   9.386  0.5458  0.6651  1.7643
  227MPD1    N1 3455   3.317   2.633   9.361  0.6297  0.0968  0.1651
  227MPD1    H6 3456   3.232   2.682   9.390  0.3794  1.1905 -2.4339
  227MPD1    H7 3457   3.332   2.558   9.428 -1.5849 -0.6727 -0.1901
  228MPD1     C 3458   2.006   0.582  12.919  0.4146 -0.2809 -0.6611
  228MPD1    C1 3459   1.934   0.696  12.874  0.4213  0.0049 -0.4061
  228MPD1    C2 3460   1.791   0.684  12.887 -0.5093  0.4164  0.3322
  228MPD1    C3 3461   1.731   0.562  12.912 -0.2533  0.0764 -0.5364
  228MPD1    C4 3462   1.811   0.458  12.942 -0.3988 -0.3958 -0.6145
  228MPD1    C5 3463   1.937   0.468  12.954 -0.2432 -0.3887 -0.0936
  228MPD1     H 3464   1.737   0.773  12.857 -1.8983  0.2188  2.2393
  228MPD1    H1 3465   1.769   0.360  12.965  0.1418 -0.5381 -0.2323
  228MPD1    H2 3466   2.114   0.575  12.922  0.4779  1.5076  1.4128
  228MPD1    H3 3467   2.002   0.384  12.978  1.0623  0.8502  0.6692
  228MPD1     N 3468   1.592   0.563  12.916  0.4348 -0.4095 -0.3463
  228MPD1    H5 3469   1.545   0.653  12.906 -0.7414 -0.9445  0.4298
  228MPD1    N1 3470   1.997   0.823  12.842 -0.2904 -0.1642  0.5636
  228MPD1    H6 3471   2.091   0.815  12.803  0.1459 -0.2936  1.6266
  228MPD1    H7 3472   1.945   0.880  12.777  1.0707 -0.2918 -0.6453
  229MPD1     C 3473   1.690   4.043  14.403  0.2804 -0.0024 -0.0378
  229MPD1    C1 3474   1.603   3.940  14.389  0.0245 -0.1872 -0.3831
  229MPD1    C2 3475   1.646   3.809  14.411  0.0219 -0.1017 -0.3224
  229MPD1    C3 3476   1.775   3.783  14.454  0.3280 -0.1030  0.4500
  229MPD1    C4 3477   1.867   3.885  14.447  0.2059 -0.2501 -0.6473
  229MPD1    C5 3478   1.822   4.013  14.422 -0.3710  0.1893  0.4849
  229MPD1     H 3479   1.572   3.730  14.407 -0.2063  0.2480 -2.7750
  229MPD1    H1 3480   1.974   3.877  14.460  0.2028  1.3735  0.3707
  229MPD1    H2 3481   1.650   4.144  14.398 -2.1639 -1.1695 -4.2228
  229MPD1    H3 3482   1.885   4.101  14.424 -0.5807  0.3630 -1.0972
  229MPD1     N 3483   1.825   3.656  14.482 -0.2803  0.2318 -0.3613
  229MPD1    H5 3484   1.922   3.657  14.514 -1.0433  0.6061  1.9659
  229MPD1    N1 3485   1.468   3.970  14.372 -0.2440  0.0673 -0.1125
  229MPD1    H6 3486   1.443   4.049  14.432  2.0156 -0.2810  1.2673
  229MPD1    H7 3487   1.406   3.890  14.363  0.5548 -0.6717  0.9177
  230MPD1     C 3488   1.189   2.978  14.775  0.1610 -0.3814 -0.5662
  230MPD1    C1 3489   1.191   3.102  14.722  0.3867  0.1693  0.8636
  230MPD1    C2 3490   1.312   3.163  14.703 -0.3099  0.0694 -0.0176
  230MPD1    C3 3491   1.434   3.091  14.725  0.2624 -0.2424 -0.1467
  230MPD1    C4 3492   1.432   2.963  14.769  0.0198 -0.3154 -0.5674
  230MPD1    C5 3493   1.308   2.907  14.799 -0.4018  0.0722 -0.1689
  230MPD1     H 3494   1.310   3.261  14.656 -1.5766  0.0777  0.0554
  230MPD1    H1 3495   1.522   2.905  14.787  1.0602  2.1436  2.1749
  230MPD1    H2 3496   1.099   2.933  14.815 -0.7302 -0.1465 -2.2706
  230MPD1    H3 3497   1.295   2.805  14.834  0.1374 -0.5758 -1.8645
  230MPD1     N 3498   1.554   3.157  14.689 -0.4050  1.1077  0.4260
  230MPD1    H5 3499   1.544   3.249  14.646 -3.5383  0.1120 -0.9612
  230MPD1    N1 3500   1.076   3.179  14.714  0.0019  0.2189  0.3290
  230MPD1    H6 3501   0.998   3.126  14.676  1.1839 -2.3298  1.4878
  230MPD1    H7 3502   1.095   3.254  14.648  1.9988  0.0658  0.7371
  231MPD1     C 3503   4.489   1.096  15.339 -0.1825  0.5584  0.0147
  231MPD1    C1 3504   4.440   1.063  15.217 -0.1518  0.0450 -0.5729
  231MPD1    C2 3505   4.469   1.159  15.118 -1.0884 -0.3215 -0.1395
  231MPD1    C3 3506   4.565   1.260  15.139 -0.0614 -0.5631 -0.2848
  231MPD1    C4 3507   4.620   1.276  15.258 -0.9692  0.2944  0.1762
  231MPD1    C5 3508   4.574   1.203  15.363  0.0788  0.0030  0.0862
  231MPD1     H 3509   4.418   1.146  15.023 -1.2549 -0.4664 -0.0313
  231MPD1    H1 3510   4.675   1.367  15.279 -1.4889  0.2038  1.9119
  231MPD1    H2 3511   4.465   1.048  15.434  0.5307  0.6867  0.2639
  231MPD1    H3 3512   4.621   1.225  15.459 -0.0448 -0.5951  0.2805
  231MPD1     N 3513   4.593   1.347  15.032  0.4245  0.9113  0.0761
  231MPD1    H5 3514   4.562   1.322  14.939  1.7523  4.1372 -1.2207
  231MPD1    N1 3515   4.330   0.978  15.201 -0.6375 -0.4462  0.3745
  231MPD1    H6 3516   4.348   0.891  15.251 -2.0515 -0.0405  1.5890
  231MPD1    H7 3517   4.306   0.943  15.108 -3.3363  1.9744  0.1621
  232MPD1     C 3518   1.068   4.686   0.043  0.6788 -0.3985 -0.1561
  232MPD1    C1 3519   1.000   0.014   0.145  0.0721  0.5872  0.9493
  232MPD1    C2 3520   0.946   4.637   0.234 -0.4849  0.8515 -0.1009
  232MPD1    C3 3521   0.946   4.497   0.207 -0.2177  0.3448 -0.3606
  232MPD1    C4 3522   1.004   4.461   0.085 -0.4349 -0.7687  0.0146
  232MPD1    C5 3523   1.063   4.554   0.010  0.1720  0.1622 -0.0569
  232MPD1     H 3524   0.920   4.677   0.331 -0.6285 -0.3591  0.3641
  232MPD1    H1 3525   1.005   4.361   0.041 -0.1828 -0.4856 -0.6239
  232MPD1    H2 3526   1.128   0.026  17.665 -0.3446  0.7290 -0.0305
  232MPD1    H3 3527   1.123   4.522  17.614  0.2342  0.0175  0.0425
  232MPD1     N 3528   0.893   4.410   0.299 -0.2422 -0.6601 -0.2323
  232MPD1    H5 3529   0.838   4.449   0.375  1.1313  0.8094  0.0303
  232MPD1    N1 3530   1.021   0.150   0.169 -0.0966 -0.0961 -0.3541
  232MPD1    H6 3531   1.033   0.205   0.085  0.2144 -0.9053 -0.8338
  232MPD1    H7 3532   0.940   0.194   0.213  0.2183  0.2345 -0.0956
  233MPD1     C 3533   3.377   4.131   0.924 -0.1298 -0.0756  0.3084
  233MPD1    C1 3534   3.427   4.075   1.037  0.4139  0.4240  0.1771
  233MPD1    C2 3535   3.426   4.148   1.158 -0.5283  0.3927  0.2240
  233MPD1    C3 3536   3.381   4.277   1.166 -0.2466 -0.3942  0.2782
  233MPD1    C4 3537   3.338   4.336   1.049 -0.2081 -0.5047 -0.7542
  233MPD1    C5 3538   3.339   4.263   0.931  0.1272  0.1220  0.4636
  233MPD1     H 3539   3.462   4.097   1.246 -0.9440  0.4016  0.4027
  233MPD1    H1 3540   3.301   4.437   1.036  2.3900  0.3836 -1.3227
  233MPD1    H2 3541   3.363   4.078   0.831 -0.4614  1.1241 -0.3241
  233MPD1    H3 3542   3.287   4.290   0.839 -1.7585 -1.4721  1.0599
  233MPD1     N 3543   3.380   4.352   1.286  0.4998 -0.2269  0.7862
  233MPD1    H5 3544   3.347   4.448   1.281  2.1737  0.2508 -1.1883
  233MPD1    N1 3545   3.470   3.940   1.043 -0.3071  0.3450 -0.0915
  233MPD1    H6 3546   3.464   3.879   0.961 -0.4280  3.0541 -2.1249
  233MPD1    H7 3547   3.499   3.898   1.130 -1.2022 -0.7934 -0.3352
  234MPD1     C 3548   0.061   0.536   9.298  0.1246 -0.4485 -0.0464
  234MPD1    C1 3549   0.028   0.597   9.415 -0.4151  0.5987 -0.1666
  234MPD1    C2 3550   4.693   0.722   9.408  0.0634  0.2199 -0.2271
  234MPD1    C3 3551   4.680   0.791   9.288  0.2204 -0.1971 -0.1644
  234MPD1    C4 3552   4.706   0.721   9.172 -0.4329  0.1067  0.1271
  234MPD1    C5 3553   0.038   0.597   9.176 -0.2458  0.6003 -0.2868
  234MPD1     H 3554   4.660   0.773   9.498  5.4474  1.3905  1.0446
  234MPD1    H1 3555   4.682   0.766   9.077  0.1810  0.8255  0.3129
  234MPD1    H2 3556   0.098   0.434   9.298 -1.7587 -1.1244  1.6137
  234MPD1    H3 3557   0.051   0.526   9.094 -4.2667  0.2986 -0.6944
  234MPD1     N 3558   4.611   0.920   9.288 -0.5335  0.4802 -0.2610
  234MPD1    H5 3559   4.568   0.940   9.378  0.6734  0.7385  0.2717
  234MPD1    N1 3560   0.019   0.523   9.534 -0.1302 -0.1097 -0.2727
  234MPD1    H6 3561   0.070   0.435   9.535 -0.4562 -0.2843  3.2393
  234MPD1    H7 3562   0.006   0.565   9.626 -2.3442 -1.0650 -0.1423
  235MPD1     C 3563   1.629   0.017  10.733 -0.0301 -0.2057 -0.5358
  235MPD1    C1 3564   1.728   0.026  10.640 -0.2520 -0.7320  0.0455
  235MPD1    C2 3565   1.745   4.639  10.556 -0.3559  0.0626 -0.8230
  235MPD1    C3 3566   1.663   4.528  10.551 -0.0495 -0.1359  0.1460
  235MPD1    C4 3567   1.554   4.527  10.635  0.0163  0.2200 -0.2612
  235MPD1    C5 3568   1.537   4.631  10.726  0.9843 -0.1729 -1.2055
  235MPD1     H 3569   1.821   4.643  10.479  2.2397 -4.4844  1.4867
  235MPD1    H1 3570   1.488   4.441  10.642  1.1709 -0.5107  1.6604
  235MPD1    H2 3571   1.611   0.096  10.805  0.4468  0.5977 -1.3037
  235MPD1    H3 3572   1.455   4.622  10.796  0.6161 -1.1151 -1.7484
  235MPD1     N 3573   1.697   4.423  10.461  0.1211 -0.0639 -0.5936
  235MPD1    H5 3574   1.781   4.442  10.407 -0.1438 -0.6076 -1.1972
  235MPD1    N1 3575   1.827   0.129  10.646 -0.0387  0.0786 -0.2932
  235MPD1    H6 3576   1.860   0.148  10.552  0.2624 -1.4570 -0.5083
  235MPD1    H7 3577   1.787   0.210  10.693  0.6511  1.1301 -1.5323
  236MPD1     C 3578   0.352   4.684   9.822  0.2631 -0.1124  0.1473
  236MPD1    C1 3579   0.329   4.574   9.742 -0.0118  0.3821 -0.4853
  236MPD1    C2 3580   0.396   4.463   9.772 -0.0230  0.0578  0.1199
  236MPD1    C3 3581   0.501   4.461   9.862 -0.4569  0.2658  0.2269
  236MPD1    C4 3582   0.532   4.577   9.923 -0.5816 -0.4745  0.0771
  236MPD1    C5 3583   0.450   4.686   9.916  0.4586 -0.1480  0.6875
  236MPD1     H 3584   0.359   4.369   9.733  1.2470 -0.5312  0.3134
  236MPD1    H1 3585   0.611   4.583   9.997 -2.0477  1.8509  1.4493
  236MPD1    H2 3586   0.298   0.057   9.816 -0.3090 -0.3980  0.8041
  236MPD1    H3 3587   0.478   0.052   9.972  1.0947 -0.2016  0.4543
  236MPD1     N 3588   0.582   4.346   9.889 -0.4080 -0.2514  0.0403
  236MPD1    H5 3589   0.663   4.355   9.949  0.4098 -3.6498 -0.5834
  236MPD1    N1 3590   0.207   4.562   9.671 -0.0424 -0.0518 -0.5356
  236MPD1    H6 3591   0.211   4.491   9.599 -0.5742 -1.4123  0.7871
  236MPD1    H7 3592   0.166   4.651   9.642 -1.3388 -0.6085 -0.4085
  237MPD1     C 3593   4.355   2.816  15.937 -0.1034  0.2514  0.0020
  237MPD1    C1 3594   4.341   2.830  15.800  0.4849  0.7819  0.4663
  237MPD1    C2 3595   4.276   2.733  15.732 -0.2290 -0.3953 -0.6220
  237MPD1    C3 3596   4.230   2.619  15.794 -0.0602  0.0503 -0.0469
  237MPD1    C4 3597   4.238   2.609  15.930  0.1036  0.2928 -0.5056
  237MPD1    C5 3598   4.300   2.704  16.002  0.1216 -0.1547  0.5840
  237MPD1     H 3599   4.253   2.753  15.628  0.2611 -2.5771 -1.1532
  237MPD1    H1 3600   4.193   2.525  15.983 -1.8006  0.2468 -2.1834
  237MPD1    H2 3601   4.386   2.903  15.995  2.8941 -0.5968 -0.3359
  237MPD1    H3 3602   4.290   2.694  16.109 -1.7601 -0.0643  0.4250
  237MPD1     N 3603   4.171   2.515  15.722  0.1802  0.1098 -0.6644
  237MPD1    H5 3604   4.140   2.435  15.776 -0.4239  1.4627  0.9961
  237MPD1    N1 3605   4.374   2.952  15.736 -0.2875  0.1902 -0.0234
  237MPD1    H6 3606   4.380   2.948  15.634 -1.6926  0.5931 -0.1261
  237MPD1    H7 3607   4.456   2.998  15.774  0.4652 -0.0809 -1.3277
  238MPD1     C 3608   1.563   0.575  15.072 -0.2003 -0.3777 -0.2001
  238MPD1    C1 3609   1.477   0.499  14.993  0.4948  0.2713 -0.2918
  238MPD1    C2 3610   1.350   0.548  14.960 -0.0060 -0.4755 -0.0663
  238MPD1    C3 3611   1.316   0.668  15.015 -1.0050  0.3685 -0.5969
  238MPD1    C4 3612   1.403   0.738  15.102 -0.5502 -0.4755 -0.1878
  238MPD1    C5 3613   1.529   0.695  15.127  0.1395 -0.2758 -0.1904
  238MPD1     H 3614   1.293   0.503  14.879  1.1053 -2.1287  0.0675
  238MPD1    H1 3615   1.385   0.836  15.145  0.8080  0.7178 -2.3826
  238MPD1    H2 3616   1.664   0.541  15.089  0.0474  0.9328  0.9560
  238MPD1    H3 3617   1.593   0.756  15.189 -0.4569 -0.6863  0.8153
  238MPD1     N 3618   1.190   0.727  14.988 -0.3678 -0.2712 -0.0910
  238MPD1    H5 3619   1.169   0.820  15.023  0.0466 -0.3095  0.2651
  238MPD1    N1 3620   1.536   0.383  14.935  0.2091  0.1666  0.0939
  238MPD1    H6 3621   1.469   0.318  14.895 -0.6985  1.2944 -0.1996
  238MPD1    H7 3622   1.602   0.337  14.998 -2.1545 -0.8106  1.8376
  239MPD1     C 3623   1.543   1.893  15.171 -0.0568 -0.2396 -0.2245
  239MPD1    C1 3624   1.487   2.014  15.175  0.1061 -0.3761 -0.3662
  239MPD1    C2 3625   1.458   2.071  15.053  0.0329 -0.6052  0.2597
  239MPD1    C3 3626   1.501   2.020  14.932 -0.3846  0.0987 -0.4846
  239MPD1    C4 3627   1.566   1.904  14.937  0.0997 -0.0709 -0.9267
  239MPD1    C5 3628   1.595   1.840  15.054  0.6722 -0.1694 -0.2932
  239MPD1     H 3629   1.403   2.164  15.063  1.1834 -0.1654  2.4053
  239MPD1    H1 3630   1.605   1.861  14.845  1.8123  1.6660 -0.9977
  239MPD1    H2 3631   1.564   1.846  15.266  1.4870  1.0189  0.0528
  239MPD1    H3 3632   1.645   1.744  15.063 -1.0816 -1.1103 -0.4786
  239MPD1     N 3633   1.474   2.075  14.803 -0.3426  0.0954  0.5563
  239MPD1    H5 3634   1.501   2.024  14.719 -1.1878  1.5241 -0.5961
  239MPD1    N1 3635   1.422   2.064  15.287  0.1593  0.1256  0.9590
  239MPD1    H6 3636   1.466   2.046  15.377  1.0020 -1.0071  0.3311
  239MPD1    H7 3637   1.406   2.164  15.287  2.6347  0.5208 -0.2188
  240MPD1     C 3638   0.719   2.108  14.296 -0.7918 -0.1955 -0.4348
  240MPD1    C1 3639   0.608   2.059  14.360  0.1953 -0.2155  0.4164
  240MPD1    C2 3640   0.618   1.920  14.400 -0.3292 -0.2866  0.1537
  240MPD1    C3 3641   0.725   1.838  14.381 -0.3629 -0.5716  0.0959
  240MPD1    C4 3642   0.841   1.896  14.324 -0.3131 -0.0644  0.0350
  240MPD1    C5 3643   0.840   2.032  14.293  0.1006  0.2143  0.7524
  240MPD1     H 3644   0.534   1.869  14.445 -0.5602 -0.8305 -0.8926
  240MPD1    H1 3645   0.935   1.841  14.321  0.3520  1.1169 -0.8760
  240MPD1    H2 3646   0.711   2.210  14.261 -2.3216 -0.5892 -1.2686
  240MPD1    H3 3647   0.935   2.064  14.251 -0.3219 -0.1490 -0.4874
  240MPD1     N 3648   0.723   1.703  14.425 -0.0177  0.2857  0.5201
  240MPD1    H5 3649   0.633   1.659  14.439  1.1487 -1.8767  1.1547
  240MPD1    N1 3650   0.482   2.123  14.364 -0.0770 -0.1691 -0.0726
  240MPD1    H6 3651   0.414   2.076  14.423  0.2883 -0.5116  0.0719
  240MPD1    H7 3652   0.495   2.224  14.375 -0.1671 -0.0664 -0.9006
  241MPD1     C 3653   1.301   1.116  15.007 -0.7312 -0.3726  0.2306
  241MPD1    C1 3654   1.170   1.082  15.035  0.4101 -0.5061  0.3659
  241MPD1    C2 3655   1.076   1.140  14.957 -1.3205 -0.1933 -0.2811
  241MPD1    C3 3656   1.109   1.228  14.858 -0.2491  0.4140  0.0353
  241MPD1    C4 3657   1.236   1.250  14.831  0.3799  0.0468  0.3136
  241MPD1    C5 3658   1.336   1.201  14.912  0.1025 -0.0243 -0.9536
  241MPD1     H 3659   0.972   1.109  14.965 -1.6904  1.0552 -0.2598
  241MPD1    H1 3660   1.260   1.305  14.741 -1.4353  0.5966  0.1483
  241MPD1    H2 3661   1.386   1.067  15.053  0.4280  0.3673 -1.1177
  241MPD1    H3 3662   1.439   1.219  14.884  0.5714  1.6741  1.8131
  241MPD1     N 3663   1.013   1.286  14.771  0.0493  0.1431  0.4452
  241MPD1    H5 3664   1.043   1.332  14.686 -1.6453  1.6606  0.6744
  241MPD1    N1 3665   1.138   0.972  15.119 -0.2713 -0.3523 -0.2717
  241MPD1    H6 3666   1.044   0.979  15.159 -0.1645 -2.3544  0.3053
  241MPD1    H7 3667   1.186   0.968  15.208  0.4593  0.0562 -0.6439
  242MPD1     C 3668   4.677   4.371  16.073  0.1890  0.0697  0.5285
  242MPD1    C1 3669   4.603   4.437  15.979 -0.5717 -0.4143  0.0780
  242MPD1    C2 3670   4.660   4.448  15.850 -0.2328 -0.2012 -0.6317
  242MPD1    C3 3671   0.062   4.392  15.818 -0.1118  0.1342  0.4515
  242MPD1    C4 3672   0.128   4.325  15.925 -0.7559  0.0360  0.1806
  242MPD1    C5 3673   0.068   4.308  16.043  0.4289  0.0219  0.5509
  242MPD1     H 3674   4.593   4.497  15.781  0.7404 -0.3451 -1.6686
  242MPD1    H1 3675   0.222   4.272  15.915 -1.5800 -1.2196 -0.9538
  242MPD1    H2 3676   4.631   4.356  16.170 -1.1583  0.9175  0.0226
  242MPD1    H3 3677   0.124   4.254  16.120  1.7420 -0.4687 -0.7495
  242MPD1     N 3678   0.130   4.409  15.695 -0.4967 -0.0463  0.1148
  242MPD1    H5 3679   0.221   4.364  15.701 -0.3175  0.1970 -0.6888
  242MPD1    N1 3680   4.476   4.498  16.013  0.4291  0.2455  0.6943
  242MPD1    H6 3681   4.410   4.492  15.936  1.0269 -0.1712  0.2147
  242MPD1    H7 3682   4.438   4.468  16.102 -0.8887  0.4605  0.2000
  243MPD1     C 3683   2.687   3.621   0.307 -0.1496 -0.2563 -0.1580
  243MPD1    C1 3684   2.723   3.637   0.173 -0.4309  0.6275  0.3315
  243MPD1    C2 3685   2.632   3.630   0.067 -0.4154 -0.4985  0.1734
  243MPD1    C3 3686   2.496   3.619   0.101 -0.3982  0.4667  0.0924
  243MPD1    C4 3687   2.464   3.589   0.234 -0.2571  0.1102 -1.0629
  243MPD1    C5 3688   2.562   3.593   0.337 -0.9523 -0.2157 -0.1978
  243MPD1     H 3689   2.667   3.645  17.654 -1.0000 -3.2107 -0.4365
  243MPD1    H1 3690   2.360   3.583   0.265  1.0437 -1.7583  3.0349
  243MPD1    H2 3691   2.758   3.624   0.389 -0.1932  0.1696 -0.1383
  243MPD1    H3 3692   2.535   3.567   0.439  1.1620  1.0184  0.6624
  243MPD1     N 3693   2.396   3.637  17.685 -0.3041  0.3548  0.2183
  243MPD1    H5 3694   2.433   3.663  17.594 -1.7237 -0.3002 -0.5485
  243MPD1    N1 3695   2.858   3.635   0.149  0.2165  0.1038 -0.5951
  243MPD1    H6 3696   2.880   3.654   0.051  1.3552 -1.2002 -0.6019
  243MPD1    H7 3697   2.900   3.708   0.206  0.6328 -0.0040 -0.7615
  244MPD1     C 3698   1.616   4.258   0.043  0.2415 -1.0053  0.6008
  244MPD1    C1 3699   1.707   4.226   0.138  0.3496  0.3449 -0.2856
  244MPD1    C2 3700   1.824   4.162   0.099 -0.9952  0.6103 -0.7196
  244MPD1    C3 3701   1.845   4.118  17.657 -0.6705  0.4508 -0.6898
  244MPD1    C4 3702   1.763   4.174  17.562  0.0299 -0.0519  0.2034
  244MPD1    C5 3703   1.652   4.244  17.602 -0.4824  0.0288  0.2245
  244MPD1     H 3704   1.895   4.133   0.176 -1.6034  0.8022 -0.0779
  244MPD1    H1 3705   1.781   4.162  17.456  1.2069  0.0695  0.3960
  244MPD1    H2 3706   1.523   4.310   0.068 -0.1923 -0.9915 -1.0366
  244MPD1    H3 3707   1.587   4.283  17.525 -0.8773 -0.8306  0.1255
  244MPD1     N 3708   1.949   4.027  17.624  0.0893  0.0074 -0.0237
  244MPD1    H5 3709   2.027   4.023   0.001  1.0770 -1.1950 -1.2907
  244MPD1    N1 3710   1.670   4.224   0.277 -0.4672  0.4451  0.0443
  244MPD1    H6 3711   1.750   4.229   0.339  1.7675  0.8428 -2.8985
  244MPD1    H7 3712   1.606   4.300   0.297  0.2945  0.2301  3.3477
  245MPD1     C 3713   4.070   3.358  13.284 -0.5048 -0.1025 -0.3204
  245MPD1    C1 3714   4.009   3.363  13.407  0.1102  0.2559 -0.0729
  245MPD1    C2 3715   3.983   3.484  13.477 -0.1919 -0.6810  0.3423
  245MPD1    C3 3716   4.016   3.607  13.423  0.6938 -0.2466  0.2079
  245MPD1    C4 3717   4.068   3.603  13.291  0.2151  0.1044 -0.3375
  245MPD1    C5 3718   4.093   3.482  13.230 -0.1735 -0.2554 -0.2955
  245MPD1     H 3719   3.948   3.483  13.580 -2.3032  1.0410 -0.3591
  245MPD1    H1 3720   4.098   3.691  13.235  0.4484 -0.2497 -0.7701
  245MPD1    H2 3721   4.109   3.271  13.233 -0.1471 -0.8444  1.2295
  245MPD1    H3 3722   4.153   3.484  13.140 -1.0983  1.4633 -0.8658
  245MPD1     N 3723   3.996   3.725  13.500 -0.0232  0.5429  0.4103
  245MPD1    H5 3724   3.976   3.712  13.598  0.8865  0.7435  0.6255
  245MPD1    N1 3725   3.992   3.244  13.472  0.1534 -0.6515 -0.3799
  245MPD1    H6 3726   3.978   3.158  13.419 -0.4497 -1.2092  0.6650
  245MPD1    H7 3727   3.912   3.243  13.535  0.7849  0.0103  0.4310
  246MPD1     C 3728   0.403   1.670   9.389 -0.1284 -0.3745  0.2652
  246MPD1    C1 3729   0.396   1.581   9.279 -0.0956 -0.4943 -0.3264
  246MPD1    C2 3730   0.456   1.457   9.282 -0.5251 -0.5360  0.0033
  246MPD1    C3 3731   0.523   1.420   9.393  1.2803  0.5332  0.3489
  246MPD1    C4 3732   0.520   1.502   9.507 -0.3712  0.2210 -0.7290
  246MPD1    C5 3733   0.468   1.626   9.498  0.0194 -0.2257 -0.5079
  246MPD1     H 3734   0.458   1.392   9.196 -0.2194 -0.2824 -0.1800
  246MPD1    H1 3735   0.594   1.486   9.585  0.4268  0.8087 -1.3665
  246MPD1    H2 3736   0.377   1.775   9.389 -1.8781 -0.8028 -1.5122
  246MPD1    H3 3737   0.483   1.704   9.572  1.1953  0.7183 -1.7328
  246MPD1     N 3738   0.590   1.295   9.389  0.3871  0.5221 -0.0991
  246MPD1    H5 3739   0.572   1.245   9.302  1.0861 -0.3581  0.2566
  246MPD1    N1 3740   0.337   1.636   9.158  0.8185 -0.1880 -0.1425
  246MPD1    H6 3741   0.270   1.572   9.115 -0.7757  0.3025  1.6198
  246MPD1    H7 3742   0.285   1.717   9.189  1.1870 -0.5941  1.5580
  247MPD1     C 3743   3.019   3.767  16.764 -0.2475 -0.3638  0.0208
  247MPD1    C1 3744   3.152   3.787  16.719  0.2867 -0.1913  0.3834
  247MPD1    C2 3745   3.215   3.689  16.640  0.1563 -0.4688  0.6162
  247MPD1    C3 3746   3.137   3.581  16.599 -0.0521 -0.4247  0.1286
  247MPD1    C4 3747   3.009   3.566  16.646 -0.3975  0.5637  0.4208
  247MPD1    C5 3748   2.949   3.655  16.735 -0.2277 -0.3232 -0.2869
  247MPD1     H 3749   3.321   3.695  16.618 -0.0989 -0.2473 -0.5133
  247MPD1    H1 3750   2.949   3.476  16.634  2.8244 -1.4372 -0.6575
  247MPD1    H2 3751   2.972   3.850  16.815 -0.8831  1.2182 -3.0947
  247MPD1    H3 3752   2.851   3.640  16.777  0.1727 -2.9064 -0.2844
  247MPD1     N 3753   3.181   3.472  16.516  0.4536  0.1777 -0.0675
  247MPD1    H5 3754   3.117   3.400  16.485 -1.0615  2.3254 -1.9567
  247MPD1    N1 3755   3.225   3.894  16.763 -0.2635  0.4375  0.1439
  247MPD1    H6 3756   3.302   3.921  16.703  1.3083 -3.8374  0.2327
  247MPD1    H7 3757   3.162   3.967  16.794  1.0979  2.3682 -1.6330
  248MPD1     C 3758   3.858   2.824   0.415 -0.0904 -0.1602 -0.7430
  248MPD1    C1 3759   3.961   2.839   0.515  0.3502  0.0519 -0.3360
  248MPD1    C2 3760   3.949   2.944   0.599 -0.1041  0.1603  0.4028
  248MPD1    C3 3761   3.857   3.047   0.588  0.0116  0.4026 -0.6239
  248MPD1    C4 3762   3.761   3.035   0.497  0.1366  1.1047  0.0979
  248MPD1    C5 3763   3.763   2.918   0.413  0.4307  0.2633  0.3943
  248MPD1     H 3764   4.028   2.962   0.671  1.1072  0.4151 -0.9861
  248MPD1    H1 3765   3.675   3.102   0.493  0.4579  1.4673 -0.7209
  248MPD1    H2 3766   3.859   2.739   0.348  1.4442 -0.8227  0.1374
  248MPD1    H3 3767   3.688   2.904   0.335  0.7920  0.1932  0.0591
  248MPD1     N 3768   3.848   3.147   0.691  0.4936  0.5086 -0.5065
  248MPD1    H5 3769   3.905   3.124   0.772  0.0058 -1.5743 -0.7576
  248MPD1    N1 3770   4.070   2.754   0.516  0.4252  0.1630  0.2339
  248MPD1    H6 3771   4.128   2.755   0.600 -0.0104 -2.5292  0.5776
  248MPD1    H7 3772   4.043   2.657   0.502  1.9088 -0.3816  1.0504
  249MPD1     C 3773   1.827   1.584  10.738  0.7573  0.1907 -0.5048
  249MPD1    C1 3774   1.750   1.497  10.659 -0.4677  0.4434 -0.1917
  249MPD1    C2 3775   1.706   1.548  10.534  0.1533  0.1243 -0.6035
  249MPD1    C3 3776   1.718   1.688  10.518 -0.8679 -0.0685 -0.4659
  249MPD1    C4 3777   1.774   1.772  10.611  0.7418 -0.7670  0.7568
  249MPD1    C5 3778   1.838   1.719  10.715  0.2219 -0.5280 -0.0469
  249MPD1     H 3779   1.649   1.485  10.466 -0.2545 -1.8476  1.5676
  249MPD1    H1 3780   1.785   1.879  10.597 -2.3680 -0.7985 -1.9123
  249MPD1    H2 3781   1.869   1.551  10.833 -0.4718 -0.6485 -0.2513
  249MPD1    H3 3782   1.903   1.783  10.773 -0.4640  0.3761 -0.2792
  249MPD1     N 3783   1.651   1.733  10.409 -0.1354 -1.1664 -0.3333
  249MPD1    H5 3784   1.633   1.657  10.344 -4.1818  0.8595 -1.5774
  249MPD1    N1 3785   1.743   1.362  10.696  0.1886  0.3548  0.4089
  249MPD1    H6 3786   1.684   1.311  10.631  1.1496 -1.5646  1.0246
  249MPD1    H7 3787   1.709   1.360  10.792 -2.7088 -0.7238 -0.6396
  250MPD2     C 3788   2.302   2.371  13.333 -0.6324  0.0010  0.1060
  250MPD2    C1 3789   2.370   2.430  13.226 -1.3659 -0.0147 -0.0373
  250MPD2    C2 3790   2.351   2.358  13.108 -0.4050  0.0343  0.1660
  250MPD2    C3 3791   2.275   2.242  13.104 -0.2519 -0.7804  0.0995
  250MPD2    C4 3792   2.203   2.200  13.209 -0.1082  0.7752  0.3396
  250MPD2    C5 3793   2.223   2.262  13.327 -0.1775 -0.2557  0.1873
  250MPD2     H 3794   2.397   2.390  13.015 -1.7653  1.3033 -0.0706
  250MPD2    H1 3795   2.131   2.119  13.202  0.6244  0.2114 -0.6824
  250MPD2    H2 3796   2.315   2.413  13.432  1.2949  0.1151 -0.1948
  250MPD2    H3 3797   2.171   2.222  13.413  1.6676 -1.2206  0.8610
  250MPD2     N 3798   2.285   2.179  12.983  0.2493  0.3200  0.2638
  250MPD2    H5 3799   2.343   2.224  12.913  1.0752  0.1787  0.8654
  250MPD2    N1 3800   2.454   2.545  13.225 -0.6756 -0.2891  0.0353
  250MPD2    H7 3801   2.510   2.553  13.141 -3.0959 -1.1593 -1.6751
  251TMC3    C1 3802   2.571   2.723  13.316  0.0876  0.4195 -0.4134
  251TMC3    C2 3803   2.569   2.837  13.393  0.0087  0.1224 -0.7177
  251TMC3    C3 3804   2.675   2.920  13.377  0.1488 -0.1270  0.0437
  251TMC3    C4 3805   2.678   2.686  13.236  0.6599 -0.6675  0.0990
  251TMC3    C5 3806   2.780   2.773  13.224  0.9835  0.4962 -0.1052
  251TMC3    C6 3807   2.778   2.899  13.288 -0.4403  0.1931  0.1386
  251TMC3     C 3808   2.458   2.638  13.328 -0.3210 -0.2416  0.9892
  251TMC3     O 3809   2.372   2.648  13.419  0.2858 -1.0950  0.5027
  251TMC3     H 3810   2.487   2.867  13.458 -0.9279  0.6329 -2.1186
  251TMC3    H1 3811   2.687   2.583  13.204  0.5835  0.0006 -2.0203
  251TMC3    H2 3812   2.864   2.963  13.306 -0.2957 -0.0567  0.3397
  251TMC3    C7 3813   2.913   2.716  13.206 -0.6768  0.8131 -0.3314
  251TMC3    C8 3814   2.645   3.057  13.420 -0.3723 -0.7830 -0.0576
  251TMC3    O1 3815   2.916   2.593  13.205  0.0475 -0.6145 -0.0942
  251TMC3    O2 3816   2.602   3.060  13.533 -0.1471 -0.2661  0.0648
  252TMC3    C1 3817   2.831   4.003   9.540  0.1188  0.0615  0.3956
  252TMC3    C2 3818   2.954   4.026   9.480 -0.2208 -0.2575  0.5614
  252TMC3    C3 3819   3.063   3.959   9.539  0.5056  0.2630  0.9792
  252TMC3    C4 3820   2.811   3.929   9.650  0.0591 -0.2379  0.5051
  252TMC3    C5 3821   2.925   3.867   9.701  0.1598  0.0920 -0.5433
  252TMC3    C6 3822   3.046   3.870   9.640  1.3095 -0.0550 -0.1047
  252TMC3     C 3823   2.724   4.084   9.490 -0.5215  0.4946 -0.7393
  252TMC3     O 3824   2.746   4.140   9.381  0.3200 -0.4824 -0.2302
  252TMC3     H 3825   2.959   4.100   9.400 -1.4103 -0.6791  0.0982
  252TMC3    H1 3826   2.708   3.905   9.675 -0.2150 -0.6777 -1.0333
  252TMC3    H2 3827   3.128   3.815   9.685  1.3993 -0.2559 -0.5087
  252TMC3    C7 3828   2.896   3.743   9.780 -0.6494  0.1323  1.0609
  252TMC3    C8 3829   3.199   3.971   9.482  0.0814  0.4892 -0.8826
  252TMC3    O1 3830   2.792   3.746   9.844 -0.1273 -0.3433 -0.2618
  252TMC3    O2 3831   3.199   4.021   9.369 -0.3988 -0.1272  0.3056
  253MPD2     C 3832   3.262   2.612  16.150  0.0436  0.4853  0.1904
  253MPD2    C1 3833   3.176   2.514  16.087  0.6162  0.4731  1.0075
  253MPD2    C2 3834   3.060   2.478  16.145  0.6051  0.6419 -0.0403
  253MPD2    C3 3835   3.007   2.549  16.257 -0.0188  0.3948 -0.1971
  253MPD2    C4 3836   3.078   2.656  16.298 -0.2473  0.2240  0.6312
  253MPD2    C5 3837   3.212   2.674  16.263  0.3599 -0.3182  0.1223
  253MPD2     H 3838   2.993   2.408  16.097 -0.2620  2.2413 -1.1716
  253MPD2    H1 3839   3.044   2.711  16.385  0.0577  0.2246  0.7499
  253MPD2    H2 3840   3.362   2.637  16.115 -1.0140  2.4238 -1.4759
  253MPD2    H3 3841   3.271   2.750  16.313 -0.3416  0.0410  0.4085
  253MPD2     N 3842   2.890   2.547  16.327 -0.2402 -0.2714 -0.3852
  253MPD2    H5 3843   2.879   2.608  16.408  0.8838  0.6267 -0.9158
  253MPD2    N1 3844   3.216   2.446  15.971 -0.2061  0.3576 -0.4181
  253MPD2    H7 3845   3.153   2.372  15.941  0.7021 -0.4656 -0.3125
  254TMC3    C1 3846   2.707   2.452  16.424 -0.6118  0.2898 -0.1579
  254TMC3    C2 3847   2.653   2.575  16.441  0.2074 -0.1013 -0.2788
  254TMC3    C3 3848   2.533   2.584  16.500  0.0540 -0.4603  0.7147
  254TMC3    C4 3849   2.664   2.345  16.485 -0.5012 -0.2071  0.5687
  254TMC3    C5 3850   2.553   2.358  16.569  0.1081  0.8903  0.3877
  254TMC3    C6 3851   2.488   2.480  16.578 -0.2576 -0.3284 -0.1080
  254TMC3     C 3852   2.811   2.440  16.323 -0.0280  0.2455  0.1967
  254TMC3     O 3853   2.835   2.331  16.272 -0.1111 -0.4506 -0.9970
  254TMC3     H 3854   2.700   2.661  16.396 -0.5517  1.1789  1.3747
  254TMC3    H1 3855   2.701   2.243  16.475  1.2324  0.4164  0.6755
  254TMC3    H2 3856   2.409   2.498  16.650 -0.8628  1.2748 -1.1648
  254TMC3    C7 3857   2.570   2.278  16.690  0.7060 -1.1977  0.0938
  254TMC3    C8 3858   2.471   2.712  16.510 -0.0983 -0.2550  0.6771
  254TMC3    O1 3859   2.632   2.174  16.686  1.0239  0.3186 -0.1234
  254TMC3    O2 3860   2.394   2.744  16.597 -0.6234 -0.2831 -0.2182
  255MPD2     C 3861   2.613   4.533  10.253  0.1706  0.4787 -0.4649
  255MPD2    C1 3862   2.639   4.669  10.266  0.0292  0.8543  0.1529
  255MPD2    C2 3863   2.769   4.711  10.246  0.1804 -0.2623  0.2366
  255MPD2    C3 3864   2.870   4.620  10.216  0.0696  0.4150  0.4741
  255MPD2    C4 3865   2.836   4.487  10.175  0.5612 -0.1871 -0.4292
  255MPD2    C5 3866   2.709   4.447  10.205 -0.7921 -0.2485  0.2863
  255MPD2     H 3867   2.788   0.096  10.256  2.2758 -0.7847  1.6041
  255MPD2    H1 3868   2.897   4.413  10.124 -0.9563 -2.7400  1.4952
  255MPD2    H2 3869   2.515   4.494  10.276  0.3406  0.8017  0.8072
  255MPD2    H3 3870   2.671   4.346  10.191 -2.9833  0.7230 -0.8622
  255MPD2     N 3871   2.995   4.675  10.176 -0.7149 -0.2251 -0.3342
  255MPD2    H5 3872   3.009   0.054  10.187  2.9106 -0.7596 -0.0526
  255MPD2    N1 3873   2.538   0.037  10.311 -0.4087  0.1569  0.1599
  255MPD2    H7 3874   2.442   0.006  10.306 -0.0862 -0.6526 -0.9932
  256TMC3    C1 3875   2.441   0.248  10.335  0.4909 -0.5881 -0.4276
  256TMC3    C2 3876   2.450   0.370  10.391  0.2381 -0.7391 -0.4722
  256TMC3    C3 3877   2.376   0.475  10.345 -0.3103  0.1132 -0.0662
  256TMC3    C4 3878   2.362   0.232  10.223 -0.0523  0.2319 -0.1342
  256TMC3    C5 3879   2.296   0.339  10.166  0.7936  0.0280 -0.4839
  256TMC3    C6 3880   2.301   0.461  10.233  0.2265  0.0036  0.4590
  256TMC3     C 3881   2.560   0.165  10.353 -0.7516  0.4255  0.7150
  256TMC3     O 3882   2.664   0.223  10.389  0.2102  0.1305 -0.1143
  256TMC3     H 3883   2.511   0.375  10.481  0.0808 -2.8044 -0.2517
  256TMC3    H1 3884   2.348   0.131  10.187  1.0749  0.6522 -1.7328
  256TMC3    H2 3885   2.253   0.545  10.185 -0.0828  0.1797  1.0712
  256TMC3    C7 3886   2.196   0.317  10.072 -0.1177  0.2095 -0.3168
  256TMC3    C8 3887   2.404   0.607  10.399  0.5729  0.0818 -0.5552
  256TMC3    O1 3888   2.220   0.232   9.994  0.7825  0.0125 -0.1934
  256TMC3    O2 3889   2.458   0.621  10.508  0.0772  0.1459  0.4210
  257MPD2     C 3890   1.677   2.806  13.310  0.9687  1.1488  0.6152
  257MPD2    C1 3891   1.644   2.717  13.220  0.3521 -0.0944  0.1891
  257MPD2    C2 3892   1.589   2.596  13.267 -0.3996  0.3343 -0.1135
  257MPD2    C3 3893   1.569   2.573  13.406  0.1909  0.0442 -0.5124
  257MPD2    C4 3894   1.590   2.679  13.489 -0.4917 -0.2502 -0.3098
  257MPD2    C5 3895   1.645   2.793  13.444 -0.5123 -0.0145  0.1459
  257MPD2     H 3896   1.564   2.517  13.197  1.2964 -1.2004  0.9883
  257MPD2    H1 3897   1.588   2.672  13.597  0.3731  0.2097 -0.2653
  257MPD2    H2 3898   1.709   2.905  13.283 -0.5751  1.5653  0.2958
  257MPD2    H3 3899   1.662   2.881  13.505  1.3513 -0.6331  0.5186
  257MPD2     N 3900   1.503   2.457  13.453  0.0774 -0.2676 -0.0279
  257MPD2    H5 3901   1.466   2.398  13.379 -1.5281  0.1760  0.4081
  257MPD2    N1 3902   1.676   2.746  13.081 -0.2692 -0.2263  0.0744
  257MPD2    H7 3903   1.730   2.830  13.062  2.6334 -1.3551  3.4241
  258TMC3    C1 3904   1.389   2.330  13.608  0.3710 -0.7002  0.3326
  258TMC3    C2 3905   1.275   2.378  13.552  1.4179 -0.3685 -0.1857
  258TMC3    C3 3906   1.156   2.324  13.597 -0.6194 -0.0219  0.4804
  258TMC3    C4 3907   1.389   2.262  13.728 -1.1659  0.2778  0.5762
  258TMC3    C5 3908   1.265   2.237  13.780  0.5957 -0.8863  0.7306
  258TMC3    C6 3909   1.149   2.266  13.717  0.1839 -0.3334 -0.3712
  258TMC3     C 3910   1.499   2.418  13.581 -0.5400  0.0689 -0.2605
  258TMC3     O 3911   1.576   2.448  13.673  0.4381  0.4844  0.1755
  258TMC3     H 3912   1.273   2.445  13.466 -0.3463  1.8081  1.5474
  258TMC3    H1 3913   1.480   2.237  13.782  0.2674 -1.0426 -2.4493
  258TMC3    H2 3914   1.054   2.228  13.752  0.1091  1.6254  1.5627
  258TMC3    C7 3915   1.244   2.149  13.893  0.2228 -0.7698  0.1527
  258TMC3    C8 3916   1.030   2.355  13.532  0.3883  0.4951  0.4902
  258TMC3    O1 3917   1.148   2.180  13.959 -0.0097  0.0704  0.0591
  258TMC3    O2 3918   0.954   2.257  13.515 -0.1073 -0.3159 -0.1138
  259MPD2     C 3919   3.945   3.769   1.430 -0.1892  0.4585 -0.2047
  259MPD2    C1 3920   4.060   3.829   1.462  0.6215 -0.6111 -0.5376
  259MPD2    C2 3921   4.154   3.844   1.367 -0.0783  0.2059 -0.2435
  259MPD2    C3 3922   4.124   3.803   1.236 -0.2130  0.6753  0.5159
  259MPD2    C4 3923   4.007   3.746   1.207 -0.6326 -0.2728 -0.6004
  259MPD2    C5 3924   3.917   3.725   1.305 -0.6069 -0.3121  0.1644
  259MPD2     H 3925   4.246   3.895   1.391 -0.7048  1.2878 -0.1462
  259MPD2    H1 3926   3.978   3.706   1.111 -0.3249 -0.0246 -0.7981
  259MPD2    H2 3927   3.867   3.751   1.503 -0.5783  1.3527 -0.4060
  259MPD2    H3 3928   3.823   3.673   1.287  1.0906 -2.1822 -3.2973
  259MPD2     N 3929   4.226   3.828   1.138  0.2912 -0.4227  0.0823
  259MPD2    H5 3930   4.311   3.863   1.182  1.5708  0.4009 -2.9884
  259MPD2    N1 3931   4.083   3.872   1.596  0.0783 -0.3417 -0.2461
  259MPD2    H7 3932   4.000   3.864   1.652 -0.7502 -1.6157 -1.6742
  260TMC3    C1 3933   4.362   3.773   0.953  0.4284  0.3958 -0.0034
  260TMC3    C2 3934   4.457   3.866   0.989  0.1190  0.0457 -0.4723
  260TMC3    C3 3935   4.574   3.861   0.918  0.1618 -0.3573 -0.4811
  260TMC3    C4 3936   4.384   3.675   0.862  0.2045  0.1813 -0.5243
  260TMC3    C5 3937   4.511   3.661   0.821  0.0781 -0.3528 -0.0308
  260TMC3    C6 3938   4.608   3.758   0.842  0.0264  0.1761 -0.3755
  260TMC3     C 3939   4.226   3.782   1.005  0.5540 -0.2959 -0.3127
  260TMC3     O 3940   4.138   3.726   0.948 -0.0648  0.4187  0.0935
  260TMC3     H 3941   4.439   3.935   1.072 -0.8086  1.4326 -1.8320
  260TMC3    H1 3942   4.307   3.601   0.842  0.3302  0.4795 -2.1278
  260TMC3    H2 3943   4.706   3.736   0.801 -0.4896 -2.4747 -0.1523
  260TMC3    C7 3944   4.526   3.549   0.731  0.0647  0.0468 -0.3906
  260TMC3    C8 3945   4.653   3.978   0.942 -0.0405 -0.2815  0.6632
  260TMC3    O1 3946   4.596   3.566   0.631  0.1526  0.1333 -0.3577
  260TMC3    O2 3947   4.620   4.055   1.033  0.0812 -0.1295  0.0765
  261MPD2     C 3948   1.980   2.241  12.251  0.1169  0.0932 -0.7019
  261MPD2    C1 3949   2.116   2.219  12.252  0.0386  0.4761  0.0070
  261MPD2    C2 3950   2.184   2.254  12.143 -0.2403 -0.9164  0.2276
  261MPD2    C3 3951   2.138   2.300  12.026  0.2654 -0.4897 -0.1587
  261MPD2    C4 3952   2.001   2.302  12.022  0.9067  0.4788  0.2247
  261MPD2    C5 3953   1.922   2.283  12.133  0.0345 -0.2158  0.2518
  261MPD2     H 3954   2.292   2.243  12.145 -0.0842  0.6313 -0.4905
  261MPD2    H1 3955   1.954   2.350  11.937 -2.1255  0.5368  1.9179
  261MPD2    H2 3956   1.913   2.232  12.335 -0.1330 -2.6509 -1.1977
  261MPD2    H3 3957   1.815   2.301  12.130 -0.2371 -1.8307  0.5153
  261MPD2     N 3958   2.219   2.345  11.923 -0.3543 -0.2909 -0.0406
  261MPD2    H5 3959   2.318   2.353  11.944 -0.7775  1.9423  1.0506
  261MPD2    N1 3960   2.190   2.182  12.371 -0.1851 -0.6679 -0.8506
  261MPD2    H7 3961   2.286   2.151  12.358  0.1137 -0.2566  0.4260
  262TMC3    C1 3962   2.284   2.416  11.701  0.0299 -0.4105 -0.2374
  262TMC3    C2 3963   2.360   2.513  11.754  0.6965 -0.6218 -0.5307
  262TMC3    C3 3964   2.396   2.624  11.682  0.4733  0.3971 -0.5439
  262TMC3    C4 3965   2.238   2.428  11.574  0.1521  0.4568  0.4791
  262TMC3    C5 3966   2.293   2.526  11.498  0.0246 -0.2437 -0.1172
  262TMC3    C6 3967   2.368   2.628  11.548  0.5394 -0.0744  0.2499
  262TMC3     C 3968   2.181   2.356  11.791  0.4074 -0.7547  0.0049
  262TMC3     O 3969   2.075   2.330  11.735 -0.7404 -0.2648 -0.5140
  262TMC3     H 3970   2.393   2.498  11.856  0.0062 -2.0215 -0.5224
  262TMC3    H1 3971   2.174   2.353  11.529  1.5717  0.7011 -1.9698
  262TMC3    H2 3972   2.394   2.716  11.490  0.1405  0.2041  0.4969
  262TMC3    C7 3973   2.210   2.541  11.378  0.0381  0.4522  0.5537
  262TMC3    C8 3974   2.419   2.756  11.745  0.3369  0.4647 -0.7116
  262TMC3    O1 3975   2.128   2.457  11.353 -0.2424 -0.3110  0.0182
  262TMC3    O2 3976   2.471   2.853  11.687  0.3741  0.3835  0.1857
  263MPD2     C 3977   2.956   2.223  11.395 -0.0102  0.3224  0.0417
  263MPD2    C1 3978   3.078   2.160  11.379  0.8307 -0.3642  0.7303
  263MPD2    C2 3979   3.165   2.202  11.282  0.3302 -0.7077  0.0176
  263MPD2    C3 3980   3.140   2.317  11.211 -0.5727  0.1501 -0.8443
  263MPD2    C4 3981   3.017   2.379  11.223 -0.2552  0.4906  0.1580
  263MPD2    C5 3982   2.921   2.328  11.308 -0.1971  0.0990  0.0113
  263MPD2     H 3983   3.257   2.149  11.266  1.6850  1.4976  0.4753
  263MPD2    H1 3984   2.981   2.465  11.169  1.0511  1.3437  0.6597
  263MPD2    H2 3985   2.884   2.194  11.471 -2.1615  1.3251 -1.6021
  263MPD2    H3 3986   2.820   2.368  11.305 -0.2210  0.1891  1.8156
  263MPD2     N 3987   3.238   2.383  11.133 -0.1649  0.3291 -0.0224
  263MPD2    H5 3988   3.222   2.479  11.104 -0.9869 -0.2296 -1.4171
  263MPD2    N1 3989   3.118   2.060  11.462  0.1270  0.5396 -0.2663
  263MPD2    H7 3990   3.215   2.033  11.451 -0.0526  0.4520 -1.5969
  264TMC3    C1 3991   3.425   2.393  10.982 -0.3081 -0.3492  0.4120
  264TMC3    C2 3992   3.363   2.496  10.920 -0.7467  0.0879 -0.3426
  264TMC3    C3 3993   3.405   2.546  10.803 -1.2400  0.7416  0.2340
  264TMC3    C4 3994   3.526   2.328  10.912  0.3998  0.1795  0.2153
  264TMC3    C5 3995   3.567   2.376  10.793  0.2065 -0.3442 -0.1927
  264TMC3    C6 3996   3.507   2.481  10.732  0.0891  0.5358 -0.5140
  264TMC3     C 3997   3.351   2.322  11.091  0.1806 -0.7954  0.4414
  264TMC3     O 3998   3.392   2.206  11.102  0.1964  0.1688  0.0297
  264TMC3     H 3999   3.282   2.552  10.964 -1.9433 -1.8379 -0.1179
  264TMC3    H1 4000   3.587   2.254  10.964 -1.5462 -0.6401  1.3390
  264TMC3    H2 4001   3.551   2.526  10.643 -0.1955 -0.0970 -0.9689
  264TMC3    C7 4002   3.712   2.365  10.781 -0.8258  0.7106  0.7911
  264TMC3    C8 4003   3.433   2.693  10.801  0.0341  0.2212 -0.0086
  264TMC3    O1 4004   3.772   2.257  10.788 -0.0469  0.4642 -0.3365
  264TMC3    O2 4005   3.547   2.722  10.778  0.3494  0.1382 -0.6408
  265MPD2     C 4006   4.590   2.106  15.485  0.0055  0.0366 -0.2013
  265MPD2    C1 4007   4.650   2.218  15.423  0.2897 -0.1835  0.4702
  265MPD2    C2 4008   0.022   2.200  15.319  0.2371  0.8619  0.7102
  265MPD2    C3 4009   0.055   2.065  15.282 -0.0798 -0.9741 -0.0915
  265MPD2    C4 4010   4.714   1.957  15.347  0.3300  0.2074 -0.0087
  265MPD2    C5 4011   4.618   1.978  15.443 -0.1556 -0.7989 -0.0650
  265MPD2     H 4012   0.050   2.282  15.254  2.3942 -0.4209  0.0303
  265MPD2    H1 4013   0.032   1.858  15.324 -0.4199 -0.2071  0.5159
  265MPD2    H2 4014   4.520   2.116  15.567  1.3765  0.0198  0.9717
  265MPD2    H3 4015   4.565   1.895  15.489  1.0832 -0.4272  2.0296
  265MPD2     N 4016   0.152   2.028  15.183  0.8089 -0.1257  0.2395
  265MPD2    H5 4017   0.181   1.932  15.169  1.8646 -0.0873  2.1599
  265MPD2    N1 4018   4.623   2.350  15.475 -0.1001 -0.6188  0.0940
  265MPD2    H7 4019   4.677   2.426  15.436 -0.9284 -0.3362 -0.4964
  266TMC3    C1 4020   4.553   2.515  15.625 -0.0617  0.5906 -0.3957
  266TMC3    C2 4021   4.586   2.523  15.758 -0.4087 -0.0290 -0.3208
  266TMC3    C3 4022   4.640   2.635  15.814 -0.2160  0.0136  0.1870
  266TMC3    C4 4023   4.588   2.619  15.547  0.8570 -0.2230  0.1393
  266TMC3    C5 4024   4.652   2.729  15.601  0.1344  0.3878  0.3913
  266TMC3    C6 4025   4.688   2.740  15.733 -0.1814 -0.2637  0.0025
  266TMC3     C 4026   4.531   2.380  15.572 -0.0098  0.4106  0.1867
  266TMC3     O 4027   4.453   2.303  15.629 -0.5806 -0.3150 -0.8732
  266TMC3     H 4028   4.550   2.436  15.812 -0.4134 -0.5848 -1.2241
  266TMC3    H1 4029   4.569   2.617  15.441  2.4816 -1.8434 -0.1215
  266TMC3    H2 4030   0.010   2.826  15.784 -0.0999  0.3912 -1.1690
  266TMC3    C7 4031   4.680   2.833  15.511  0.1716 -0.1788  0.2658
  266TMC3    C8 4032   4.674   2.625  15.954 -0.0970  0.7369  0.0150
  266TMC3    O1 4033   4.628   2.820  15.403 -0.4413  0.8070 -0.2356
  266TMC3    O2 4034   4.667   2.509  16.002 -0.1936  0.2236 -0.0508
  267MPD2     C 4035   1.905   3.347   0.887 -0.4036 -0.3637 -0.2114
  267MPD2    C1 4036   1.903   3.480   0.848  0.4230  1.0679  0.0910
  267MPD2    C2 4037   1.786   3.546   0.811  0.8392  0.0898  0.2856
  267MPD2    C3 4038   1.665   3.467   0.803 -0.3033 -0.7271  0.0044
  267MPD2    C4 4039   1.668   3.334   0.852 -0.3999  0.4816  0.6686
  267MPD2    C5 4040   1.785   3.276   0.894  0.3715  0.0278  0.0592
  267MPD2     H 4041   1.789   3.648   0.775  1.8633 -0.0272  0.0184
  267MPD2    H1 4042   1.581   3.271   0.842 -1.8313  1.9739  3.9121
  267MPD2    H2 4043   1.994   3.298   0.926  0.3893  1.7950  0.7282
  267MPD2    H3 4044   1.776   3.174   0.928 -2.8508  0.2640 -0.1605
  267MPD2     N 4045   1.538   3.522   0.755 -0.0143 -0.1551 -0.1111
  267MPD2    H5 4046   1.454   3.465   0.757 -1.0509  1.4326  2.0632
  267MPD2    N1 4047   2.031   3.530   0.833 -0.2001 -0.8326  0.0380
  267MPD2    H7 4048   2.112   3.475   0.860  0.1318 -1.0324 -1.3610
  268TMC3    C1 4049   2.193   3.690   0.808 -0.4144 -0.2656  0.2113
  268TMC3    C2 4050   2.235   3.807   0.743 -0.7344  0.4544 -0.1300
  268TMC3    C3 4051   2.357   3.855   0.775  0.5624 -0.3888 -0.9516
  268TMC3    C4 4052   2.275   3.633   0.899  0.2822  0.3313  0.2767
  268TMC3    C5 4053   2.395   3.682   0.936 -0.2584 -0.7853 -0.3597
  268TMC3    C6 4054   2.437   3.797   0.875 -0.3861 -0.4492  0.0883
  268TMC3     C 4055   2.059   3.648   0.778  0.2461 -0.3432 -0.0180
  268TMC3     O 4056   1.984   3.728   0.725  0.5542 -0.4421 -0.3844
  268TMC3     H 4057   2.165   3.859   0.678 -1.0958 -0.0407 -0.1403
  268TMC3    H1 4058   2.236   3.550   0.957  0.1121 -0.1852 -0.5701
  268TMC3    H2 4059   2.532   3.841   0.905  0.0923 -1.0479 -0.5357
  268TMC3    C7 4060   2.484   3.617   1.036 -0.4017 -0.2743 -0.3351
  268TMC3    C8 4061   2.390   3.987   0.739  0.1374 -0.4969 -0.3717
  268TMC3    O1 4062   2.441   3.616   1.149 -0.3456  0.2389 -0.0179
  268TMC3    O2 4063   2.468   4.051   0.806  0.1014  0.3706 -0.2487
  269MPD2     C 4064   2.652   2.487  15.845  0.0415 -0.5596  0.8555
  269MPD2    C1 4065   2.515   2.507  15.825  0.1831  0.2051  0.8294
  269MPD2    C2 4066   2.476   2.630  15.783 -0.2790  0.5868 -0.4914
  269MPD2    C3 4067   2.567   2.735  15.762  0.3921  0.1315 -1.2454
  269MPD2    C4 4068   2.701   2.713  15.796 -1.0815  0.0043 -0.0214
  269MPD2    C5 4069   2.741   2.587  15.837 -0.5910 -0.1196  0.1345
  269MPD2     H 4070   2.373   2.648  15.754 -0.7104 -0.3675  0.4570
  269MPD2    H1 4071   2.768   2.798  15.789 -0.6315 -0.4812 -1.5735
  269MPD2    H2 4072   2.696   2.393  15.873  0.7246 -0.3626  0.4403
  269MPD2    H3 4073   2.847   2.574  15.856 -0.2149  1.9073 -0.4841
  269MPD2     N 4074   2.516   2.854  15.715  0.5156 -0.0670  0.4506
  269MPD2    H5 4075   2.416   2.870  15.706  0.5825  0.0543 -0.0494
  269MPD2    N1 4076   2.427   2.400  15.845  0.5273  0.0061 -0.2202
  269MPD2    H7 4077   2.469   2.311  15.870 -2.1777 -1.5402 -1.2045
  270TMC3    C1 4078   2.243   2.256  15.807  0.2311  0.1553 -0.1607
  270TMC3    C2 4079   2.131   2.240  15.734  0.4516  0.5223 -0.0429
  270TMC3    C3 4080   2.094   2.117  15.705  0.5169 -1.0814  0.0527
  270TMC3    C4 4081   2.303   2.153  15.878  0.2007 -0.1812  0.1016
  270TMC3    C5 4082   2.257   2.026  15.852 -0.2542  0.0679 -0.0422
  270TMC3    C6 4083   2.158   2.003  15.757 -0.1396  0.8911 -0.4744
  270TMC3     C 4084   2.290   2.391  15.819 -0.3458  0.7324  0.4441
  270TMC3     O 4085   2.211   2.478  15.778 -0.0186  0.1876 -0.0391
  270TMC3     H 4086   2.071   2.319  15.691 -0.8786 -0.0892  0.6942
  270TMC3    H1 4087   2.387   2.162  15.946 -1.1682 -0.4221  1.8233
  270TMC3    H2 4088   2.108   1.910  15.737  0.2393  0.5599  0.1166
  270TMC3    C7 4089   2.354   1.915  15.845 -0.0663 -0.4099 -0.3508
  270TMC3    C8 4090   2.017   2.089  15.594 -0.0518 -0.8289  0.4465
  270TMC3    O1 4091   2.472   1.941  15.859 -0.5023 -0.0093 -0.2277
  270TMC3    O2 4092   1.927   2.007  15.613  0.5294  0.3119  0.3114
  271MPD2     C 4093   1.735   2.751  13.918  0.5029 -0.2253 -0.6376
  271MPD2    C1 4094   1.667   2.670  13.998  0.6532 -0.0188 -0.7400
  271MPD2    C2 4095   1.529   2.676  13.990 -0.5734 -0.1828  0.0339
  271MPD2    C3 4096   1.461   2.768  13.914  0.2735 -0.0129  0.8705
  271MPD2    C4 4097   1.537   2.851  13.835 -0.2238 -0.1299  0.0777
  271MPD2    C5 4098   1.674   2.845  13.837 -0.8462  0.1223 -0.3051
  271MPD2     H 4099   1.474   2.606  14.051 -2.0723  1.9849  1.1837
  271MPD2    H1 4100   1.490   2.936  13.785  0.2152 -1.2681 -2.2757
  271MPD2    H2 4101   1.844   2.747  13.913  0.4475 -1.1212 -1.3469
  271MPD2    H3 4102   1.731   2.907  13.768 -0.5041 -0.0194 -0.1491
  271MPD2     N 4103   1.322   2.773  13.908 -0.0470  0.4888 -0.1296
  271MPD2    H5 4104   1.284   2.854  13.859 -2.1744  1.0976  2.5404
  271MPD2    N1 4105   1.728   2.580  14.088 -0.4582  0.4154  0.3140
  271MPD2    H7 4106   1.663   2.547  14.158  2.0058  0.4542  2.6393
  272TMC3    C1 4107   1.900   2.461  14.198 -0.5048 -0.8248  0.9342
  272TMC3    C2 4108   2.002   2.369  14.179 -0.0341 -0.2307  0.3846
  272TMC3    C3 4109   2.017   2.273  14.276 -0.0422  0.4459 -0.6398
  272TMC3    C4 4110   1.828   2.468  14.314  0.0322 -0.4249  0.5547
  272TMC3    C5 4111   1.866   2.382  14.415  0.1393  0.0994 -0.3751
  272TMC3    C6 4112   1.964   2.284  14.404  0.0217  0.5001  0.4726
  272TMC3     C 4113   1.852   2.536  14.080  0.5284 -0.4552  0.5837
  272TMC3     O 4114   1.923   2.536  13.982  0.3853 -0.8380  0.2292
  272TMC3     H 4115   2.048   2.357  14.082  0.8848 -1.3439  0.9608
  272TMC3    H1 4116   1.748   2.533  14.347 -0.1346 -0.1944 -0.3091
  272TMC3    H2 4117   1.986   2.223  14.490  2.2719 -0.4962 -0.8230
  272TMC3    C7 4118   1.799   2.400  14.540  0.3579  0.0886 -0.0644
  272TMC3    C8 4119   2.121   2.179  14.259 -0.2215 -0.0749 -0.1339
  272TMC3    O1 4120   1.678   2.422  14.548  0.9194  0.2014 -0.5491
  272TMC3    O2 4121   2.191   2.186  14.158  0.3914 -0.6184  0.0612
  273MPD2     C 4122   3.886   0.492  11.745 -0.3332  0.4336 -0.0418
  273MPD2    C1 4123   3.932   0.617  11.783  0.5047  0.3041 -0.4468
  273MPD2    C2 4124   3.937   0.724  11.677 -0.5057 -0.3750 -0.2458
  273MPD2    C3 4125   3.898   0.685  11.547  0.8574 -0.4686 -0.2821
  273MPD2    C4 4126   3.856   0.557  11.520 -0.3567 -0.3731  0.4507
  273MPD2    C5 4127   3.855   0.470  11.618 -0.9229  0.1734 -0.0761
  273MPD2     H 4128   3.965   0.825  11.702  2.9368 -1.8583  1.9405
  273MPD2    H1 4129   3.835   0.517  11.422 -1.2642  1.9326 -0.2809
  273MPD2    H2 4130   3.876   0.402  11.805  3.5131  0.2687  0.3598
  273MPD2    H3 4131   3.827   0.370  11.590 -1.5243 -0.0407  1.2935
  273MPD2     N 4132   3.877   0.779  11.439 -0.1434  0.4204  1.0523
  273MPD2    H5 4133   3.822   0.751  11.358  0.3767  0.8500  0.5490
  273MPD2    N1 4134   3.958   0.642  11.921 -0.9785 -0.5143 -0.4438
  273MPD2    H7 4135   3.954   0.565  11.988  2.6421 -1.0791 -0.8351
  274TMC3    C1 4136   3.856   0.997  11.346 -0.0673 -0.8956  0.8165
  274TMC3    C2 4137   3.777   0.953  11.243 -0.0013  0.0545 -0.2484
  274TMC3    C3 4138   3.702   1.049  11.178  0.3741 -0.1578  0.0682
  274TMC3    C4 4139   3.869   1.134  11.374 -0.1653 -0.4693 -0.3462
  274TMC3    C5 4140   3.799   1.221  11.304  0.2061 -0.1054 -0.5409
  274TMC3    C6 4141   3.721   1.184  11.198 -0.3165  0.1607  0.0934
  274TMC3     C 4142   3.916   0.911  11.448 -0.3695 -0.1077 -0.3941
  274TMC3     O 4143   3.989   0.967  11.526  0.5900 -0.4356 -0.2083
  274TMC3     H 4144   3.765   0.852  11.206  1.1135  1.3888 -4.2185
  274TMC3    H1 4145   3.919   1.158  11.467  0.6486 -1.1161 -0.6172
  274TMC3    H2 4146   3.649   1.256  11.161 -1.0399 -0.5285  0.1372
  274TMC3    C7 4147   3.749   1.339  11.376  0.1627 -0.2725  0.1618
  274TMC3    C8 4148   3.591   1.023  11.086  0.6830 -0.1165 -0.3506
  274TMC3    O1 4149   3.629   1.359  11.369  0.1893 -0.1650  0.7938
  274TMC3    O2 4150   3.532   1.121  11.042 -0.5381  0.4243 -0.4609
  275MPD2     C 4151   3.421   3.155  14.336  0.9489  0.1656 -0.1058
  275MPD2    C1 4152   3.370   3.130  14.459  0.1178 -0.3032  0.0908
  275MPD2    C2 4153   3.237   3.142  14.485 -0.3073  0.1474  0.7924
  275MPD2    C3 4154   3.147   3.166  14.377 -0.6972  0.8666  0.4190
  275MPD2    C4 4155   3.200   3.198  14.251 -0.1604  0.1743 -0.0889
  275MPD2    C5 4156   3.334   3.185  14.233  0.3733 -0.1345 -0.9792
  275MPD2     H 4157   3.191   3.121  14.581 -2.6124  1.5822 -0.0029
  275MPD2    H1 4158   3.138   3.214  14.163  0.7080  0.9196 -0.5642
  275MPD2    H2 4159   3.527   3.149  14.312  0.3733 -3.1319 -1.8634
  275MPD2    H3 4160   3.376   3.204  14.135  1.7440 -0.3625 -0.4352
  275MPD2     N 4161   3.008   3.176  14.391  0.5451  0.3248  0.2689
  275MPD2    H5 4162   2.950   3.199  14.311  1.4939  1.1711 -0.1650
  275MPD2    N1 4163   3.443   3.093  14.577  0.0206 -0.1084  0.1432
  275MPD2    H7 4164   3.388   3.076  14.661 -0.0312 -1.2591 -0.1214
  276TMC3    C1 4165   3.617   3.046  14.724  1.0155 -0.2517 -0.0799
  276TMC3    C2 4166   3.537   2.976  14.806 -0.1758  0.1875  0.4457
  276TMC3    C3 4167   3.574   2.952  14.935 -0.2050 -0.2434  0.4297
  276TMC3    C4 4168   3.738   3.103  14.760  0.4632  0.0522  0.2143
  276TMC3    C5 4169   3.777   3.073  14.891  0.2575  0.7647  0.2259
  276TMC3    C6 4170   3.700   3.001  14.978 -0.0415  0.7644  0.5636
  276TMC3     C 4171   3.576   3.084  14.587 -1.1251 -0.2868  1.0354
  276TMC3     O 4172   3.665   3.120  14.507  0.5983 -0.6089  0.6410
  276TMC3     H 4173   3.457   2.915  14.765 -0.5497  0.6914  0.4212
  276TMC3    H1 4174   3.810   3.139  14.687  1.1998 -0.4666  0.6775
  276TMC3    H2 4175   3.730   2.991  15.081 -0.5131 -0.2486  0.6030
  276TMC3    C7 4176   3.843   3.184  14.967 -0.5114 -0.6209 -0.2313
  276TMC3    C8 4177   3.503   2.866  15.033 -0.2139  0.1557  0.2205
  276TMC3    O1 4178   3.838   3.174  15.093 -0.0820  0.4913 -0.8731
  276TMC3    O2 4179   3.544   2.858  15.148  0.2402 -0.8241 -0.1088
  277MPD2     C 4180   0.734   2.116  13.216 -0.5279 -0.0365 -0.4876
  277MPD2    C1 4181   0.605   2.169  13.197 -0.0269 -0.0650  0.1512
  277MPD2    C2 4182   0.497   2.104  13.246 -1.0208 -0.2004 -0.6752
  277MPD2    C3 4183   0.516   1.984  13.313 -0.3989  0.4921  0.1227
  277MPD2    C4 4184   0.636   1.926  13.331  0.0127  0.2592  0.6570
  277MPD2    C5 4185   0.745   1.989  13.277 -0.3365 -0.4620  0.1706
  277MPD2     H 4186   0.400   2.151  13.237 -0.0887  1.8377 -0.0884
  277MPD2    H1 4187   0.646   1.832  13.383  2.8175 -0.4480 -1.1804
  277MPD2    H2 4188   0.818   2.169  13.173  0.6122 -0.5711  1.0977
  277MPD2    H3 4189   0.840   1.938  13.277 -0.0238  0.0559 -4.3131
  277MPD2     N 4190   0.392   1.915  13.345 -0.4041 -0.0200  0.8188
  277MPD2    H5 4191   0.314   1.981  13.342 -0.2137  0.1555 -0.4351
  277MPD2    N1 4192   0.591   2.295  13.133 -0.0755  0.1704 -0.0642
  277MPD2    H7 4193   0.675   2.351  13.122  0.8255 -0.9882  0.8974
  278TMC3    C1 4194   0.248   1.747  13.400  0.7874 -0.0207 -0.1031
  278TMC3    C2 4195   0.218   1.618  13.358 -0.2349 -0.5418  0.0077
  278TMC3    C3 4196   0.081   1.596  13.350 -0.2831  0.7854  0.3851
  278TMC3    C4 4197   0.163   1.844  13.444  0.1800 -0.1212 -0.4629
  278TMC3    C5 4198   0.027   1.809  13.436  0.4815 -0.9545  0.3164
  278TMC3    C6 4199   4.705   1.687  13.391  0.3406  0.2959  0.1126
  278TMC3     C 4200   0.384   1.785  13.370 -0.0626 -0.4126 -0.3794
  278TMC3     O 4201   0.461   1.693  13.336  0.1475  0.3091  0.2468
  278TMC3     H 4202   0.286   1.540  13.325  1.2601  2.5734 -4.2516
  278TMC3    H1 4203   0.196   1.939  13.485  1.0485 -1.0759  1.0260
  278TMC3    H2 4204   4.601   1.658  13.390  1.2137 -2.9865  3.3343
  278TMC3    C7 4205   4.672   1.864  13.543  0.2626 -0.0088 -0.3260
  278TMC3    C8 4206   0.037   1.466  13.305  0.2284 -0.0752  0.0455
  278TMC3    O1 4207   0.017   1.911  13.637 -0.2735 -0.4224  0.0378
  278TMC3    O2 4208   4.689   1.389  13.371 -0.2847 -0.0465 -0.4251
  279MPD2     C 4209   4.075   2.425   0.390 -0.7536  0.6539  0.0971
  279MPD2    C1 4210   3.945   2.434   0.386  0.1789  0.0498  1.3489
  279MPD2    C2 4211   3.891   2.482   0.270 -0.2165  0.0282 -0.1275
  279MPD2    C3 4212   3.966   2.511   0.155 -0.1268  0.2480  0.1332
  279MPD2    C4 4213   4.104   2.503   0.167  0.2973  0.7336  0.4014
  279MPD2    C5 4214   4.152   2.455   0.284  0.2321 -0.4001 -0.4954
  279MPD2     H 4215   3.783   2.488   0.260 -0.1542 -0.9051 -1.4369
  279MPD2    H1 4216   4.176   2.530   0.090  2.6820 -2.2148  1.5700
  279MPD2    H2 4217   4.120   2.406   0.486 -1.0791 -0.8056 -0.0312
  279MPD2    H3 4218   4.259   2.457   0.295 -0.2467 -1.5019  4.2388
  279MPD2     N 4219   3.913   2.560   0.031  0.4780  0.3577  0.4662
  279MPD2    H5 4220   3.979   2.603  17.655  3.0979 -1.4510  1.9955
  279MPD2    N1 4221   3.872   2.421   0.506 -0.4441 -0.0382 -0.2137
  279MPD2    H7 4222   3.919   2.427   0.596 -0.7407  0.2689 -0.0747
  280TMC3    C1 4223   3.683   2.392   0.637 -0.3768  0.4095 -0.0315
  280TMC3    C2 4224   3.558   2.342   0.633  0.0150 -0.0034 -0.7387
  280TMC3    C3 4225   3.458   2.390   0.715 -0.7441  0.3370 -0.3875
  280TMC3    C4 4226   3.719   2.501   0.718  0.0819  0.4033 -0.3591
  280TMC3    C5 4227   3.612   2.552   0.785  0.4504 -0.7307 -0.2472
  280TMC3    C6 4228   3.478   2.509   0.778  0.0465 -0.1489 -0.1961
  280TMC3     C 4229   3.740   2.390   0.504  0.2152 -0.1662  0.3513
  280TMC3     O 4230   3.666   2.372   0.411 -0.1124 -0.2888  0.0553
  280TMC3     H 4231   3.547   2.258   0.566  2.0024  0.1805 -1.2743
  280TMC3    H1 4232   3.814   2.549   0.736 -0.5859  1.9626 -1.0654
  280TMC3    H2 4233   3.396   2.557   0.830  1.9915  0.9090  1.8797
  280TMC3    C7 4234   3.633   2.670   0.860 -0.9127  0.7452 -0.2132
  280TMC3    C8 4235   3.322   2.351   0.700 -0.2157  0.3308 -0.4836
  280TMC3    O1 4236   3.726   2.672   0.942  0.1955 -0.0379  0.4930
  280TMC3    O2 4237   3.237   2.438   0.712  0.0014  0.1496  0.5866
  281TMC3    C1 4238   3.117   2.444  13.736  0.2164 -0.3202  0.1051
  281TMC3    C2 4239   3.225   2.459  13.653  0.1740  0.3314 -0.8863
  281TMC3    C3 4240   3.252   2.348  13.567  0.0483 -0.4930  0.2541
  281TMC3    C4 4241   3.025   2.340  13.726  0.0524  0.0364  0.3598
  281TMC3    C5 4242   3.050   2.246  13.629  0.8692  0.1364 -0.1871
  281TMC3    C6 4243   3.174   2.237  13.559  0.0285  0.0894  0.0314
  281TMC3     C 4244   3.070   2.555  13.811  0.4998  0.8522 -0.4152
  281TMC3     O 4245   3.027   2.539  13.926 -0.0785  0.1735  1.2922
  281TMC3     H 4246   3.285   2.548  13.669 -2.1983  2.0390 -1.5873
  281TMC3    H1 4247   2.930   2.346  13.778 -1.2202  0.1839 -1.9821
  281TMC3    H2 4248   3.200   2.163  13.485 -1.0126  0.3952 -0.6368
  281TMC3    C7 4249   2.921   2.210  13.567  0.1589  0.3876 -0.2419
  281TMC3    C8 4250   3.264   2.403  13.433 -0.4847 -0.5225 -0.5576
  281TMC3    O1 4251   2.829   2.178  13.638  0.2235  0.1131  0.0885
  281TMC3    O2 4252   3.195   2.349  13.350  0.8666  0.2466  0.2521
  282MPD2     C 4253   0.205   4.134  15.342  0.4625  0.6267  0.4232
  282MPD2    C1 4254   0.067   4.148  15.312 -0.2182 -0.0760  0.2973
  282MPD2    C2 4255   0.026   4.161  15.183  0.4286 -0.0937 -0.0284
  282MPD2    C3 4256   0.113   4.140  15.081 -0.0537 -1.2565 -0.3430
  282MPD2    C4 4257   0.248   4.140  15.105 -0.0519 -0.4610 -0.2582
  282MPD2    C5 4258   0.289   4.139  15.236 -1.5014 -0.3279 -0.3923
  282MPD2     H 4259   4.642   4.165  15.157  0.4033  0.1486  0.1108
  282MPD2    H1 4260   0.321   4.150  15.025 -0.8926 -1.2017 -1.1274
  282MPD2    H2 4261   0.249   4.153  15.439  3.0143 -1.7022 -0.2553
  282MPD2    H3 4262   0.395   4.127  15.254 -1.6974 -0.7097  0.5238
  282MPD2     N 4263   0.057   4.115  14.956 -0.8287  0.1934 -1.2501
  282MPD2    H5 4264   4.678   4.101  14.960 -0.6878 -0.2976  0.5167
  282MPD2    N1 4265   4.687   4.147  15.413 -0.1100  0.2649  0.3863
  282MPD2    H7 4266   4.598   4.175  15.374  0.6457  0.5965 -1.1206
  283TMC3    C1 4267   4.573   4.125  15.614  0.6385  0.4601  0.1684
  283TMC3    C2 4268   4.502   4.233  15.597  1.0589  0.0017  0.3335
  283TMC3    C3 4269   4.397   4.256  15.685  0.4714 -0.2697 -0.0300
  283TMC3    C4 4270   4.562   4.037  15.722 -0.1817 -0.0255  0.5999
  283TMC3    C5 4271   4.453   4.055  15.804  0.3354  0.6302  0.1243
  283TMC3    C6 4272   4.373   4.166  15.790 -0.0450  0.0978 -0.2168
  283TMC3     C 4273   4.701   4.115  15.542 -0.2959 -0.6176  0.4108
  283TMC3     O 4274   0.079   4.061  15.596  0.1139 -0.0348  0.0237
  283TMC3     H 4275   4.520   4.304  15.517 -0.0533 -1.3943 -1.1538
  283TMC3    H1 4276   4.621   3.946  15.728 -0.3648 -0.0981  1.3030
  283TMC3    H2 4277   4.283   4.169  15.850  1.4750 -0.2080  2.0774
  283TMC3    C7 4278   4.409   3.944  15.884 -0.6501  1.2091 -0.0385
  283TMC3    C8 4279   4.334   4.382  15.690  0.4499  0.0813 -1.2080
  283TMC3    O1 4280   4.370   3.973  15.997 -0.4670 -0.0649  0.4135
  283TMC3    O2 4281   4.259   4.397  15.787 -0.5450  0.5121 -0.0690
  284MPD2     C 4282   3.577   3.151  12.049 -0.5835  0.0101 -0.1866
  284MPD2    C1 4283   3.579   3.193  11.915 -1.0062 -0.1254 -0.0061
  284MPD2    C2 4284   3.488   3.141  11.825  0.6024 -0.6321 -0.5061
  284MPD2    C3 4285   3.418   3.028  11.850 -0.2803 -0.2250  0.9080
  284MPD2    C4 4286   3.422   2.976  11.980  0.2743 -0.6299  0.4718
  284MPD2    C5 4287   3.492   3.044  12.078 -0.0759  0.2496  0.0655
  284MPD2     H 4288   3.481   3.186  11.727 -1.5598  2.2394  0.9503
  284MPD2    H1 4289   3.373   2.884  12.009  1.1617 -1.1370  0.3707
  284MPD2    H2 4290   3.643   3.192  12.123  0.0022 -1.2468 -0.0125
  284MPD2    H3 4291   3.480   3.006  12.179 -1.5749 -0.3797 -0.3514
  284MPD2     N 4292   3.357   2.965  11.739 -0.7120 -0.2691  0.1261
  284MPD2    H5 4293   3.353   3.029  11.660 -2.7079 -1.7185 -0.9454
  284MPD2    N1 4294   3.668   3.291  11.864  0.4281 -0.2327 -0.4698
  284MPD2    H7 4295   3.666   3.309  11.764 -2.8690  0.4035 -0.2923
  285TMC3    C1 4296   3.831   3.451  11.846  0.5296  0.1987 -0.3080
  285TMC3    C2 4297   3.866   3.400  11.726  0.1882  0.4730 -0.0143
  285TMC3    C3 4298   3.948   3.477  11.651  0.1290  0.0611 -0.6499
  285TMC3    C4 4299   3.867   3.577  11.888 -0.3459 -0.2249  0.4507
  285TMC3    C5 4300   3.938   3.654  11.802  0.1354 -0.6506 -0.6847
  285TMC3    C6 4301   3.980   3.604  11.682 -0.2559  0.6274 -0.0394
  285TMC3     C 4302   3.752   3.375  11.938  0.2800 -0.5931 -0.5821
  285TMC3     O 4303   3.749   3.407  12.059 -0.1799  0.3767  0.5853
  285TMC3     H 4304   3.850   3.295  11.706 -3.8562  1.0734  0.0584
  285TMC3    H1 4305   3.851   3.607  11.991  0.4362  1.3041  0.1298
  285TMC3    H2 4306   4.064   3.650  11.632 -0.9262  1.5388 -0.3424
  285TMC3    C7 4307   3.999   3.778  11.856  0.1235  0.4266 -0.4368
  285TMC3    C8 4308   3.982   3.421  11.521 -0.8994 -0.2192 -0.6874
  285TMC3    O1 4309   3.972   3.811  11.974  0.0832  0.3330  0.7658
  285TMC3    O2 4310   3.909   3.335  11.488 -0.1122  0.0211  0.4672
  286MPD2     C 4311   2.888   2.494   2.229 -0.6390 -0.3538 -0.1051
  286MPD2    C1 4312   2.867   2.467   2.098  0.7177 -0.4079 -1.2016
  286MPD2    C2 4313   2.962   2.407   2.024  0.6602 -0.7627 -0.8083
  286MPD2    C3 4314   3.070   2.353   2.095  0.2430 -0.4846  0.1014
  286MPD2    C4 4315   3.091   2.378   2.229 -0.1354  0.3156  0.1489
  286MPD2    C5 4316   3.001   2.457   2.294 -0.7977 -0.0573 -0.5717
  286MPD2     H 4317   2.944   2.383   1.920 -1.2591 -0.2605 -0.5955
  286MPD2    H1 4318   3.182   2.345   2.278 -1.0749 -0.4237  1.4015
  286MPD2    H2 4319   2.821   2.555   2.288 -0.3878 -1.8314  1.7326
  286MPD2    H3 4320   3.019   2.482   2.398  0.2571 -0.8805 -0.5693
  286MPD2     N 4321   3.163   2.267   2.032 -0.2163 -0.4205 -0.7660
  286MPD2    H5 4322   3.246   2.249   2.088 -0.2120 -0.3651 -0.7548
  286MPD2    N1 4323   2.751   2.505   2.027 -0.5233 -0.4881  0.0233
  286MPD2    H7 4324   2.752   2.495   1.926 -0.0388 -1.1853  0.0984
  287TMC3    C1 4325   3.251   2.114   1.872  0.1739 -0.7475 -0.5509
  287TMC3    C2 4326   3.221   2.030   1.771 -0.3107 -0.4222  0.1669
  287TMC3    C3 4327   3.328   1.958   1.736  0.0028 -0.2723  0.2054
  287TMC3    C4 4328   3.372   2.137   1.923  0.2512 -0.1142 -0.8375
  287TMC3    C5 4329   3.472   2.058   1.876 -0.1431 -0.2078 -0.6579
  287TMC3    C6 4330   3.451   1.956   1.782  0.4199  0.6373 -0.4277
  287TMC3     C 4331   3.147   2.202   1.910 -0.2258 -0.2333 -0.2289
  287TMC3     O 4332   3.055   2.198   1.828 -0.3544  0.6278 -0.3222
  287TMC3     H 4333   3.119   2.018   1.737 -0.5187  1.3035  0.1809
  287TMC3    H1 4334   3.390   2.217   1.994  0.2175  1.0785 -2.1691
  287TMC3    H2 4335   3.525   1.882   1.755 -0.7772 -1.0534  0.9326
  287TMC3    C7 4336   3.613   2.107   1.889 -1.0095 -0.3582  0.4190
  287TMC3    C8 4337   3.304   1.868   1.622  1.0646 -0.2059 -0.8750
  287TMC3    O1 4338   3.642   2.183   1.986 -0.1679  0.4049  0.9729
  287TMC3    O2 4339   3.385   1.778   1.601  0.1090 -0.4560 -0.5837
  288TMC3    C1 4340   4.575   2.453  14.024 -0.1578 -0.3177 -0.4252
  288TMC3    C2 4341   4.648   2.382  14.119 -0.5103 -0.3416  0.5071
  288TMC3    C3 4342   0.059   2.416  14.129  0.3141  0.0703 -0.1958
  288TMC3    C4 4343   4.636   2.557  13.953 -0.8596 -0.5467 -0.7808
  288TMC3    C5 4344   0.045   2.589  13.980 -0.2534 -0.2225  0.1062
  288TMC3    C6 4345   0.125   2.518  14.070  0.3469  0.1496  0.0362
  288TMC3     C 4346   4.442   2.403  14.000 -0.6003  0.4038  0.7784
  288TMC3     O 4347   4.389   2.339  14.088 -0.4034  0.3185  0.2942
  288TMC3     H 4348   4.601   2.304  14.178  0.9876 -2.0090 -0.4913
  288TMC3    H1 4349   4.578   2.614  13.882  0.3546 -1.1970 -2.2909
  288TMC3    H2 4350   0.233   2.529  14.075  0.4729 -0.9696 -0.2728
  288TMC3    C7 4351   0.090   2.711  13.922 -0.5543 -0.1702 -0.6889
  288TMC3    C8 4352   0.139   2.354  14.233 -0.1146  0.1613  0.2344
  288TMC3    O1 4353   0.026   2.772  13.836 -0.3616 -0.7494  0.1658
  288TMC3    O2 4354   0.242   2.412  14.262 -0.4182 -0.1822 -0.0350
  289MPD2     C 4355   0.379   0.935  14.595  0.1577 -0.8658 -0.0459
  289MPD2    C1 4356   0.365   1.066  14.549 -0.5732  0.4770  0.1038
  289MPD2    C2 4357   0.240   1.114  14.506 -0.2015 -0.5889 -0.8490
  289MPD2    C3 4358   0.130   1.039  14.522  0.2166  0.2840  0.3900
  289MPD2    C4 4359   0.147   0.910  14.566  0.5376  0.2970 -0.5947
  289MPD2    C5 4360   0.271   0.856  14.596 -0.1708  0.6745  0.2043
  289MPD2     H 4361   0.232   1.216  14.469 -1.2315 -0.1894  0.4467
  289MPD2    H1 4362   0.066   0.843  14.592  0.2454  0.7849 -0.2527
  289MPD2    H2 4363   0.475   0.888  14.610 -0.5961 -2.4496 -0.1632
  289MPD2    H3 4364   0.271   0.757  14.640 -3.3772  0.6254  0.0898
  289MPD2     N 4365   0.005   1.079  14.468 -0.1984  0.5574 -0.2919
  289MPD2    H5 4366   4.651   1.012  14.463 -0.5835  1.0031 -0.5009
  289MPD2    N1 4367   0.480   1.144  14.539  0.1639  0.3202 -0.6380
  289MPD2    H7 4368   0.566   1.092  14.557  0.1275 -0.0563 -1.5735
  290TMC3    C1 4369   4.580   1.203  14.332  0.2615 -0.0296  0.4986
  290TMC3    C2 4370   4.536   1.325  14.290 -0.4037 -0.4011  0.2962
  290TMC3    C3 4371   4.453   1.339  14.183  0.2315 -0.5704 -0.3933
  290TMC3    C4 4372   4.547   1.087  14.261  0.4235 -0.0691 -0.0773
  290TMC3    C5 4373   4.468   1.107  14.149 -0.2044 -0.4674 -0.3683
  290TMC3    C6 4374   4.430   1.231  14.103 -0.2279 -0.8960  0.1084
  290TMC3     C 4375   4.704   1.203  14.410  0.3101  0.4884  0.1001
  290TMC3     O 4376   0.046   1.307  14.401  0.8528  0.2226 -0.7198
  290TMC3     H 4377   4.571   1.410  14.348  1.5263  0.1057 -1.6209
  290TMC3    H1 4378   4.596   0.992  14.279  0.7791  0.5409  2.1296
  290TMC3    H2 4379   4.369   1.253  14.016 -1.1285 -4.5329 -0.2110
  290TMC3    C7 4380   4.465   1.004  14.045  0.2928  0.0868  0.1933
  290TMC3    C8 4381   4.409   1.470  14.138 -0.1493  0.9447  0.5031
  290TMC3    O1 4382   4.486   1.039  13.930  0.0409  0.2571 -0.2548
  290TMC3    O2 4383   4.374   1.482  14.022 -0.1115 -0.0183  0.0386
  291MPD2     C 4384   4.067   0.909   0.449 -0.5224 -0.8405 -0.7150
  291MPD2    C1 4385   4.056   0.805   0.363  0.2241 -0.4349 -0.9252
  291MPD2    C2 4386   4.171   0.750   0.311 -0.9282  0.4456 -0.2595
  291MPD2    C3 4387   4.296   0.802   0.328  1.0208  0.5218 -0.4949
  291MPD2    C4 4388   4.305   0.910   0.408 -0.4657 -0.7884  0.4371
  291MPD2    C5 4389   4.193   0.957   0.475 -0.1484 -0.4699 -0.4334
  291MPD2     H 4390   4.171   0.669   0.240 -1.1713 -0.4066  0.7200
  291MPD2    H1 4391   4.398   0.961   0.428 -2.1897  3.0333 -1.2889
  291MPD2    H2 4392   3.982   0.949   0.504  0.2654  0.5787 -0.5257
  291MPD2    H3 4393   4.207   1.040   0.543  0.2944 -1.0441  0.1762
  291MPD2     N 4394   4.401   0.737   0.259 -0.3593 -0.1759  0.1151
  291MPD2    H5 4395   4.379   0.649   0.213 -1.2861 -0.0702  0.3543
  291MPD2    N1 4396   3.934   0.748   0.324 -1.1392  0.2797 -0.2145
  291MPD2    H7 4397   3.929   0.692   0.239 -0.1879 -0.9683  0.5626
  292TMC3    C1 4398   3.693   0.742   0.298  0.7571  0.7230  0.0417
  292TMC3    C2 4399   3.569   0.753   0.357 -0.0414 -0.5569 -0.5455
  292TMC3    C3 4400   3.459   0.741   0.281  0.1070 -0.1652  0.1165
  292TMC3    C4 4401   3.703   0.702   0.163 -0.2428  0.7789 -0.2151
  292TMC3    C5 4402   3.584   0.704   0.096  0.0406  0.7560  0.3836
  292TMC3    C6 4403   3.466   0.722   0.154 -0.4909  0.5146  0.6546
  292TMC3     C 4404   3.807   0.778   0.376  0.2910  0.3709 -0.4384
  292TMC3     O 4405   3.783   0.851   0.471  0.4855 -0.2432  0.7919
  292TMC3     H 4406   3.553   0.774   0.462 -0.0144 -3.2555  0.0235
  292TMC3    H1 4407   3.798   0.673   0.119 -1.0110 -2.1540  0.0692
  292TMC3    H2 4408   3.372   0.721   0.100 -0.3128  1.3394  0.3251
  292TMC3    C7 4409   3.589   0.581   0.016 -0.4111 -0.3428  0.2027
  292TMC3    C8 4410   3.329   0.749   0.341 -0.1351  0.6152 -0.7686
  292TMC3    O1 4411   3.691   0.513   0.011  0.0811  0.1632  0.5828
  292TMC3    O2 4412   3.236   0.807   0.284  0.4000 -0.3782 -0.0864
  293MPD2     C 4413   1.909   2.600  12.752  0.3099  0.1393 -0.6920
  293MPD2    C1 4414   1.837   2.495  12.798 -0.5758 -0.1619  0.3323
  293MPD2    C2 4415   1.851   2.455  12.932  0.4867 -0.4554 -0.5868
  293MPD2    C3 4416   1.941   2.522  13.013 -0.1147 -1.0628  0.2049
  293MPD2    C4 4417   2.011   2.629  12.958  0.0062  0.2946  0.4209
  293MPD2    C5 4418   1.996   2.668  12.830 -0.8118 -1.1338  0.2846
  293MPD2     H 4419   1.799   2.368  12.973 -2.1313  0.8856 -1.0689
  293MPD2    H1 4420   2.085   2.689  13.010  1.7255  0.4619 -2.2239
  293MPD2    H2 4421   1.897   2.641  12.652  0.9061  1.6823 -0.1315
  293MPD2    H3 4422   2.057   2.748  12.792 -0.4304 -1.9099 -0.7600
  293MPD2     N 4423   1.954   2.501  13.154 -0.4579 -0.3828  0.2339
  293MPD2    H5 4424   2.018   2.562  13.202  0.3928  0.6059 -2.1476
  293MPD2    N1 4425   1.759   2.432  12.693 -0.1130  0.4216 -0.0208
  293MPD2    H7 4426   1.768   2.476  12.602  0.1944  1.7018  0.6270
  294TMC3    C1 4427   1.589   2.318  12.582 -0.9341  0.2740  0.2027
  294TMC3    C2 4428   1.492   2.220  12.581  0.3070 -0.6890 -0.5530
  294TMC3    C3 4429   1.414   2.203  12.468  0.1938 -0.3263 -0.0732
  294TMC3    C4 4430   1.608   2.403  12.474  0.7315 -0.2595  0.6929
  294TMC3    C5 4431   1.528   2.381  12.360 -0.0253  0.0901 -0.6964
  294TMC3    C6 4432   1.435   2.284  12.361  0.3327  0.5119 -0.5138
  294TMC3     C 4433   1.668   2.332  12.709 -0.0966  0.3208  0.2251
  294TMC3     O 4434   1.626   2.281  12.810  0.1866  0.2035  0.3489
  294TMC3     H 4435   1.479   2.156  12.668 -0.3371  0.0097 -0.1334
  294TMC3    H1 4436   1.657   2.500  12.479 -0.7268  0.4645  1.2186
  294TMC3    H2 4437   1.357   2.291  12.285 -0.1584 -1.4653 -0.2052
  294TMC3    C7 4438   1.550   2.466  12.248 -0.7227  0.5262  1.0263
  294TMC3    C8 4439   1.310   2.101  12.473 -0.0111  0.8047  0.9672
  294TMC3    O1 4440   1.598   2.579  12.263 -0.0632  0.9513  0.6893
  294TMC3    O2 4441   1.270   2.071  12.579 -0.2284  0.0173 -0.1315
  295MPD2     C 4442   1.216   0.461  17.306 -0.8663 -0.0764  0.7393
  295MPD2    C1 4443   1.289   0.513  17.405  0.1801 -0.0645  0.6355
  295MPD2    C2 4444   1.232   0.610  17.484 -0.0628 -0.3178 -0.2761
  295MPD2    C3 4445   1.101   0.652  17.469 -0.8990 -0.4986  0.2837
  295MPD2    C4 4446   1.023   0.588  17.376  0.2174  0.3577  0.0721
  295MPD2    C5 4447   1.081   0.502  17.292  0.1162  0.2787 -0.1169
  295MPD2     H 4448   1.290   0.652  17.566 -3.1483  2.4647  0.4736
  295MPD2    H1 4449   0.916   0.609  17.370 -0.0948 -1.4603 -0.7232
  295MPD2    H2 4450   1.260   0.393  17.235 -1.6452 -1.4821  1.6029
  295MPD2    H3 4451   1.013   0.463  17.217 -0.4724 -0.0002  0.5609
  295MPD2     N 4452   1.039   0.749  17.553  0.0284 -0.1768  0.0765
  295MPD2    H5 4453   0.939   0.761  17.542 -0.5163 -2.5216  2.2235
  295MPD2    N1 4454   1.429   0.487  17.424 -0.3028  0.2026 -0.0156
  295MPD2    H7 4455   1.470   0.543  17.498 -0.5955  1.3483 -0.7150
  296TMC3    C1 4456   1.031   0.932   0.029 -0.1254 -0.0260 -0.2850
  296TMC3    C2 4457   1.106   1.012   0.112 -0.2957 -0.5109 -0.3091
  296TMC3    C3 4458   1.047   1.083   0.212 -0.1370  0.3049 -0.0992
  296TMC3    C4 4459   0.894   0.923   0.035  0.8228 -0.1395 -0.6193
  296TMC3    C5 4460   0.838   0.994   0.139 -0.2106 -0.6543  0.0602
  296TMC3    C6 4461   0.911   1.065   0.238 -1.0310  0.2174  0.4005
  296TMC3     C 4462   1.107   0.833  17.637 -0.3125  0.0013  0.1774
  296TMC3     O 4463   1.228   0.850  17.636 -0.3294  0.4463 -0.2350
  296TMC3     H 4464   1.211   1.030   0.092 -0.0834 -1.6268 -0.1935
  296TMC3    H1 4465   0.838   0.853  17.662 -0.8262 -0.1862  0.9562
  296TMC3    H2 4466   0.864   1.141   0.300 -1.3378  0.7499 -0.4824
  296TMC3    C7 4467   0.695   0.992   0.172 -0.6530  0.1198 -0.0908
  296TMC3    C8 4468   1.122   1.200   0.253 -0.1188  0.6084 -0.0883
  296TMC3    O1 4469   0.631   0.956   0.069 -0.0999  0.4245 -0.5311
  296TMC3    O2 4470   1.225   1.234   0.197  0.6008  0.2465 -0.1932
  297MPD2     C 4471   3.827   3.122  16.992 -0.4531 -0.2322  0.5441
  297MPD2    C1 4472   3.772   3.099  16.866  0.0389 -0.3786  0.0751
  297MPD2    C2 4473   3.837   3.164  16.760  0.1673  0.0035 -0.5584
  297MPD2    C3 4474   3.949   3.247  16.777  0.7070 -1.4835 -0.0540
  297MPD2    C4 4475   3.998   3.262  16.898 -0.1862 -0.2408  0.0971
  297MPD2    C5 4476   3.936   3.203  17.005 -0.4199 -0.3659 -0.7326
  297MPD2     H 4477   3.796   3.152  16.661 -0.0166 -0.5680 -0.4146
  297MPD2    H1 4478   4.097   3.304  16.910 -1.3031  2.9190 -1.8876
  297MPD2    H2 4479   3.780   3.094  17.085  0.8155 -0.3626  1.1419
  297MPD2    H3 4480   3.976   3.230  17.103 -1.9438  1.0903 -0.5027
  297MPD2     N 4481   3.995   3.323  16.663  0.1603 -0.4447  0.3313
  297MPD2    H5 4482   3.934   3.325  16.581 -2.0208 -1.1270  1.9322
  297MPD2    N1 4483   3.658   3.013  16.843 -0.3818  0.2670  0.3908
  297MPD2    H7 4484   3.633   2.998  16.746  0.1663  0.2057  0.2594
  298TMC3    C1 4485   3.465   2.877  16.888 -0.4511 -0.1826  0.2343
  298TMC3    C2 4486   3.433   2.759  16.963  0.0148 -0.4907  0.3728
  298TMC3    C3 4487   3.306   2.705  16.953 -0.5174 -0.3414 -0.7236
  298TMC3    C4 4488   3.377   2.938  16.804 -0.0608  0.5876 -0.3420
  298TMC3    C5 4489   3.257   2.879  16.795 -0.2145 -0.0459  0.6998
  298TMC3    C6 4490   3.221   2.766  16.866 -0.2770  0.4007  1.0786
  298TMC3     C 4491   3.579   2.948  16.935 -0.0326 -0.3145 -0.9940
  298TMC3     O 4492   3.589   2.954  17.059 -0.3591  0.2624 -0.8489
  298TMC3     H 4493   3.492   2.732  17.049  1.9803  0.6860 -0.6178
  298TMC3    H1 4494   3.396   3.031  16.752  1.5375  1.0123  1.0300
  298TMC3    H2 4495   3.115   2.749  16.885 -0.0566 -0.8438  1.2238
  298TMC3    C7 4496   3.148   2.950  16.728 -0.1338  0.2956  0.2713
  298TMC3    C8 4497   3.256   2.596  17.037  0.1030 -0.2402 -0.2977
  298TMC3    O1 4498   3.048   2.891  16.695 -0.2099  0.2803 -0.0633
  298TMC3    O2 4499   3.134   2.573  17.026 -0.5899  0.1574 -0.4880
  299MPD2     C 4500   0.492   2.884  10.547 -0.3886 -0.2575  0.0169
  299MPD2    C1 4501   0.501   2.924  10.411  0.6090 -0.2957  0.1629
  299MPD2    C2 4502   0.398   2.898  10.323 -0.1777  1.1931  0.9137
  299MPD2    C3 4503   0.278   2.848  10.367  0.8653 -0.3950  0.0212
  299MPD2    C4 4504   0.268   2.826  10.507 -0.0106 -0.3328  0.3332
  299MPD2    C5 4505   0.374   2.831  10.592 -0.9717  0.0472  0.0115
  299MPD2     H 4506   0.406   2.928  10.219  0.0653 -3.1478 -0.3022
  299MPD2    H1 4507   0.187   2.774  10.555  0.6696  0.2491  2.1141
  299MPD2    H2 4508   0.574   2.896  10.616 -0.4736 -3.3263  0.6501
  299MPD2    H3 4509   0.362   2.810  10.698 -1.0760 -2.5230 -0.5082
  299MPD2     N 4510   0.168   2.832  10.285  0.1427 -0.8092  0.0078
  299MPD2    H5 4511   0.084   2.788  10.321 -0.2741  0.5856  0.7416
  299MPD2    N1 4512   0.630   2.989  10.373 -0.2875 -0.2454 -0.2068
  299MPD2    H7 4513   0.707   2.977  10.438  0.1156 -1.0601 -0.8426
  300TMC3    C1 4514   0.022   2.831  10.104  0.0077 -0.3950 -0.0880
  300TMC3    C2 4515   4.699   2.894   9.989 -0.0833  0.5800  0.8347
  300TMC3    C3 4516   4.571   2.867   9.943  0.5931  0.1195  0.3257
  300TMC3    C4 4517   4.667   2.738  10.168 -0.7693  0.1775 -0.2968
  300TMC3    C5 4518   4.550   2.701  10.104  0.4208 -1.1288 -0.1951
  300TMC3    C6 4519   4.500   2.764   9.994 -0.5464  0.2584  0.1889
  300TMC3     C 4520   0.155   2.871  10.151  0.1403  0.2622  0.0576
  300TMC3     O 4521   0.215   2.956  10.089 -0.0356  0.4157  0.0797
  300TMC3     H 4522   0.033   2.970   9.935  0.3066 -1.0390 -0.9892
  300TMC3    H1 4523   4.706   2.686  10.254 -0.8253 -0.5920 -0.7342
  300TMC3    H2 4524   4.400   2.738   9.959 -1.0523  0.7104  1.2869
  300TMC3    C7 4525   4.443   2.631  10.179  0.7353  0.2252  0.0181
  300TMC3    C8 4526   4.478   2.981   9.932  0.1368  0.5927  0.8560
  300TMC3    O1 4527   4.376   2.544  10.123  0.3999  0.0657  0.1081
  300TMC3    O2 4528   4.361   2.957   9.912 -0.2219 -0.1531 -0.2488
  301MPD2     C 4529   1.233   0.081   1.443 -0.2663 -0.3156 -0.3395
  301MPD2    C1 4530   1.101   0.064   1.424  0.2715  0.3996  0.1851
  301MPD2    C2 4531   1.058   4.696   1.329  0.4313  0.2137  0.0935
  301MPD2    C3 4532   1.146   4.630   1.247 -0.0532 -0.2230  0.0574
  301MPD2    C4 4533   1.281   4.662   1.253  0.0486  0.2674 -0.2751
  301MPD2    C5 4534   1.321   0.020   1.356 -0.2726  0.1749  0.8843
  301MPD2     H 4535   0.954   4.666   1.326 -0.1135  2.0717  0.6369
  301MPD2    H1 4536   1.355   4.623   1.185  0.0973  0.2960 -0.2389
  301MPD2    H2 4537   1.286   0.149   1.508 -0.9442  0.8695 -1.0349
  301MPD2    H3 4538   1.426   0.046   1.364 -0.7059  1.6623  2.0140
  301MPD2     N 4539   1.121   4.535   1.147  0.1162  0.1952 -0.3659
  301MPD2    H5 4540   1.205   4.494   1.106  1.3741 -0.2594  2.6478
  301MPD2    N1 4541   1.014   0.133   1.513 -0.2285 -0.1359  0.3292
  301MPD2    H7 4542   0.918   0.098   1.516 -0.3525  0.1671 -0.2236
  302TMC3    C1 4543   0.989   4.386   1.017  0.2923  0.3131  0.4275
  302TMC3    C2 4544   1.103   4.320   0.987  0.1335  0.0242 -0.7369
  302TMC3    C3 4545   1.087   4.212   0.905 -0.9316 -0.5472  0.1791
  302TMC3    C4 4546   0.867   4.348   0.973 -0.4165 -0.2299 -0.2437
  302TMC3    C5 4547   0.857   4.245   0.884 -0.9595 -0.6264  0.0946
  302TMC3    C6 4548   0.968   4.177   0.843 -0.4695 -0.1223 -0.0203
  302TMC3     C 4549   0.990   4.487   1.118  0.5026 -0.2991 -0.7730
  302TMC3     O 4550   0.884   4.527   1.168  0.7590  0.2515 -0.2458
  302TMC3     H 4551   1.202   4.332   1.031  0.0077  0.4254 -0.5644
  302TMC3    H1 4552   0.785   4.412   1.005 -1.9859 -2.9723  1.2381
  302TMC3    H2 4553   0.961   4.092   0.776  1.0772 -1.6184  1.7202
  302TMC3    C7 4554   0.736   4.166   0.891  0.7322 -0.4874  0.7427
  302TMC3    C8 4555   1.171   4.102   0.943  0.0567 -0.5875  0.3226
  302TMC3    O1 4556   0.738   4.061   0.833 -0.2022 -0.4079  0.0169
  302TMC3    O2 4557   1.286   4.120   0.983  0.7653  0.3816  0.3886
  303MPD2     C 4558   2.630   2.356  10.418 -0.4664 -0.9676  0.4663
  303MPD2    C1 4559   2.537   2.317  10.326 -0.0482  0.1342  0.6140
  303MPD2    C2 4560   2.584   2.279  10.200 -0.1145 -0.3314 -0.4701
  303MPD2    C3 4561   2.720   2.285  10.175 -0.1490 -0.3661 -0.1093
  303MPD2    C4 4562   2.804   2.326  10.269 -0.2671 -0.4269  0.0133
  303MPD2    C5 4563   2.763   2.372  10.389 -0.1793 -0.5840  0.3411
  303MPD2     H 4564   2.506   2.260  10.127  0.5842  0.5632 -1.4528
  303MPD2    H1 4565   2.909   2.343  10.250 -0.6746 -0.1806 -1.9924
  303MPD2    H2 4566   2.596   2.377  10.518 -1.2679  1.8899 -0.3980
  303MPD2    H3 4567   2.831   2.416  10.461 -0.2160 -0.5103  0.3307
  303MPD2     N 4568   2.778   2.237  10.054 -0.0571 -0.1750  0.3485
  303MPD2    H5 4569   2.878   2.224  10.042 -0.0743  0.4261 -0.4836
  303MPD2    N1 4570   2.397   2.306  10.353 -0.3081  0.3223 -0.2784
  303MPD2    H7 4571   2.337   2.284  10.274 -0.4322 -0.9694  0.1873
  304TMC3    C1 4572   2.195   2.280  10.478  0.2433 -0.9638  0.5116
  304TMC3    C2 4573   2.116   2.316  10.374 -0.1848  0.0661 -0.0513
  304TMC3    C3 4574   1.986   2.270  10.364  0.5088 -0.3639  0.1059
  304TMC3    C4 4575   2.160   2.187  10.572  0.3159  0.2837 -0.3084
  304TMC3    C5 4576   2.037   2.128  10.558  0.2301 -0.3039 -0.3605
  304TMC3    C6 4577   1.951   2.176  10.456  0.2014  0.0103  0.3968
  304TMC3     C 4578   2.340   2.310  10.479 -0.0950 -0.3186 -0.3018
  304TMC3     O 4579   2.394   2.307  10.588  0.7374 -0.6497 -0.3298
  304TMC3     H 4580   2.163   2.369  10.293 -0.0721 -0.7076 -0.4994
  304TMC3    H1 4581   2.220   2.161  10.658  1.0475  0.0622 -0.8843
  304TMC3    H2 4582   1.846   2.148  10.455 -0.3848  2.2045 -0.9202
  304TMC3    C7 4583   2.052   1.987  10.546  0.4196 -0.0677 -0.4639
  304TMC3    C8 4584   1.943   2.240  10.226  0.1575 -0.3452 -0.1796
  304TMC3    O1 4585   1.996   1.940  10.449  0.6339 -0.1071 -0.1968
  304TMC3    O2 4586   1.979   2.317  10.134  0.7612 -0.2631 -0.3484
  305MPD2     C 4587   4.553   4.196  13.935 -0.8263  0.0830  0.1639
  305MPD2    C1 4588   4.693   4.216  13.926 -0.4146  0.0495 -0.5313
  305MPD2    C2 4589   0.047   4.186  13.807 -0.9695 -0.3636  0.3031
  305MPD2    C3 4590   4.695   4.135  13.702 -0.0046 -0.0068  0.5348
  305MPD2    C4 4591   4.558   4.123  13.708 -0.2067 -0.0069  0.2183
  305MPD2    C5 4592   4.489   4.153  13.825 -0.2756 -0.2120 -0.3917
  305MPD2     H 4593   0.154   4.202  13.803 -0.3788 -3.7929  2.9243
  305MPD2    H1 4594   4.497   4.096  13.623 -0.9046  1.7481  0.1709
  305MPD2    H2 4595   4.499   4.201  14.029 -0.2323 -0.5076  0.5325
  305MPD2    H3 4596   4.383   4.137  13.839 -0.2261 -0.6813 -0.5636
  305MPD2     N 4597   0.024   4.100  13.573  0.6089  0.2575  0.3468
  305MPD2    H5 4598   4.672   4.081  13.506 -1.0319  0.0082  2.1873
  305MPD2    N1 4599   0.037   4.251  14.039  0.4157  0.1632  0.7965
  305MPD2    H7 4600   4.698   4.246  14.121 -1.2371  0.3164 -0.4311
  306TMC3    C1 4601   0.185   4.317  14.197  0.4590 -0.5327 -0.1259
  306TMC3    C2 4602   0.305   4.280  14.258 -0.1871 -0.4031 -0.3793
  306TMC3    C3 4603   0.306   4.280  14.392 -0.6059  0.6651 -0.0651
  306TMC3    C4 4604   0.077   4.365  14.266 -0.6469 -0.0305 -0.1361
  306TMC3    C5 4605   0.087   4.356  14.401  0.3670  0.1997 -0.4025
  306TMC3    C6 4606   0.198   4.311  14.465  0.5795  0.5517  0.1787
  306TMC3     C 4607   0.166   4.285  14.060  0.0883  0.6615  0.3672
  306TMC3     O 4608   0.264   4.307  13.984 -0.0452  0.1011 -1.1292
  306TMC3     H 4609   0.385   4.258  14.189  0.6851  0.7006  0.2641
  306TMC3    H1 4610   4.715   4.421  14.225 -0.5192 -1.1735 -1.9870
  306TMC3    H2 4611   0.202   4.284  14.570  1.6998 -1.7222 -0.4405
  306TMC3    C7 4612   4.698   4.405  14.485  0.6166 -0.5885  0.7333
  306TMC3    C8 4613   0.427   4.235  14.458  0.3033 -0.0087 -0.5627
  306TMC3    O1 4614   4.588   4.425  14.437 -0.0570  0.1908 -0.1999
  306TMC3    O2 4615   0.504   4.167  14.391 -0.4164 -0.5587  0.7127
  307MPD2     C 4616   2.213   1.698   0.409 -0.5824 -0.0070  0.3729
  307MPD2    C1 4617   2.194   1.828   0.445  0.0091 -0.4338  0.3511
  307MPD2    C2 4618   2.103   1.855   0.545  0.2104 -0.1520  0.0979
  307MPD2    C3 4619   2.035   1.755   0.610 -0.5280  0.5108 -0.0783
  307MPD2    C4 4620   2.058   1.622   0.578 -0.2239  0.2944  0.4533
  307MPD2    C5 4621   2.146   1.596   0.471  0.0697  0.3561  0.1433
  307MPD2     H 4622   2.073   1.958   0.560  1.0137 -0.2064  2.0084
  307MPD2    H1 4623   2.001   1.545   0.628 -0.3699  1.2238  1.7197
  307MPD2    H2 4624   2.277   1.675   0.324 -1.9584  0.5765 -0.8225
  307MPD2    H3 4625   2.159   1.494   0.439 -1.2034 -0.1125  1.1001
  307MPD2     N 4626   1.936   1.793   0.701 -0.3642  0.0675 -1.2842
  307MPD2    H5 4627   1.938   1.885   0.745  1.7727 -0.0297 -1.1840
  307MPD2    N1 4628   2.248   1.937   0.368  0.0931 -0.2896 -0.5745
  307MPD2    H7 4629   2.229   2.030   0.404 -0.6703 -0.2357 -1.1000
  308TMC3    C1 4630   1.529   1.878   0.856 -0.4092  0.2562 -0.1946
  308TMC3    C2 4631   1.569   1.975   0.944 -0.4316  0.6012 -0.2609
  308TMC3    C3 4632   1.703   1.972   0.978 -0.0425 -0.2983 -0.8010
  308TMC3    C4 4633   1.613   1.778   0.817 -0.0557  0.2352  0.2059
  308TMC3    C5 4634   1.749   1.783   0.848  0.1454  0.2629  0.2586
  308TMC3    C6 4635   1.792   1.881   0.936  0.4716 -0.3566 -0.3526
  308TMC3     C 4636   1.388   1.873   0.818  0.1624  0.5158  0.3904
  308TMC3     O 4637   1.344   1.762   0.802 -0.3227 -0.2135 -0.2313
  308TMC3     H 4638   1.495   2.043   0.984  0.0240  0.4992  0.7600
  308TMC3    H1 4639   1.577   1.711   0.739 -0.0703  1.4260 -0.8069
  308TMC3    H2 4640   1.895   1.898   0.965 -0.1408 -2.0289  2.7320
  308TMC3    C7 4641   1.831   1.717   0.750  0.4735  0.2159 -0.0167
  308TMC3    C8 4642   1.765   2.080   1.050  0.0952  0.6120 -0.7989
  308TMC3    O1 4643   1.802   1.599   0.721 -0.0224  0.1383 -0.0070
  308TMC3    O2 4644   1.876   2.060   1.095  0.4510 -0.3785 -0.6256
  309MPD2     C 4645   1.502   2.419  17.524  1.0069  0.0076 -0.0734
  309MPD2    C1 4646   1.468   2.479  17.402  0.1808  0.3071  0.0585
  309MPD2    C2 4647   1.387   2.590  17.402 -0.4548  0.2464 -0.3827
  309MPD2    C3 4648   1.328   2.639  17.520 -0.8231 -0.6218 -0.4260
  309MPD2    C4 4649   1.357   2.579  17.644  0.5193  0.2821 -0.0150
  309MPD2    C5 4650   1.445   2.474  17.644 -0.6421  0.2626  0.2924
  309MPD2     H 4651   1.373   2.632  17.303  2.0134 -3.0057 -2.1014
  309MPD2    H1 4652   1.317   2.604   0.053 -1.9940 -1.1581 -0.7025
  309MPD2    H2 4653   1.580   2.344  17.531  1.3949  0.5424  1.2762
  309MPD2    H3 4654   1.474   2.432   0.051  0.7810  1.6005  0.4531
  309MPD2     N 4655   1.247   2.750  17.521 -0.9852 -0.5837  0.8421
  309MPD2    H5 4656   1.184   2.753  17.600 -0.8846  0.2454  0.8901
  309MPD2    N1 4657   1.517   2.444  17.278 -0.2724 -0.0759  0.2062
  309MPD2    H7 4658   1.515   2.523  17.214 -0.1756  1.7192  2.4557
  310TMC3    C1 4659   1.627   2.359  17.103  0.0797 -0.9316 -0.7449
  310TMC3    C2 4660   1.560   2.449  17.025 -0.1011  0.1260  0.2667
  310TMC3    C3 4661   1.620   2.484  16.913  0.5105  0.1886  0.5170
  310TMC3    C4 4662   1.758   2.319  17.075 -0.1810  0.3003  0.2532
  310TMC3    C5 4663   1.819   2.358  16.959  0.0974  0.8499 -0.6706
  310TMC3    C6 4664   1.747   2.440  16.876 -0.3953 -0.3093  0.1880
  310TMC3     C 4665   1.591   2.333  17.242 -0.2837  0.0704  0.3794
  310TMC3     O 4666   1.640   2.243  17.299  0.0164  0.1015  0.3205
  310TMC3     H 4667   1.457   2.476  17.045 -0.1762 -0.4425  0.6599
  310TMC3    H1 4668   1.802   2.238  17.132  1.7317  0.0396 -1.6062
  310TMC3    H2 4669   1.785   2.480  16.782 -1.5426  2.8876  1.1007
  310TMC3    C7 4670   1.918   2.271  16.902 -0.2216 -0.3673 -0.2862
  310TMC3    C8 4671   1.542   2.562  16.816 -0.2289 -0.2777 -0.2209
  310TMC3    O1 4672   1.942   2.281  16.781  0.6075  0.4055 -0.6979
  310TMC3    O2 4673   1.562   2.534  16.698 -0.1454  0.6072 -0.0847
  311MPD2     C 4674   4.182   3.584  12.668 -0.0373  0.0397  0.4976
  311MPD2    C1 4675   4.174   3.691  12.753 -0.3054 -0.2305 -0.5182
  311MPD2    C2 4676   4.085   3.678  12.863  0.7343  0.0108 -0.3828
  311MPD2    C3 4677   4.000   3.563  12.882 -1.0292  0.2355 -0.6988
  311MPD2    C4 4678   4.014   3.457  12.798 -0.1500 -0.0520  0.2471
  311MPD2    C5 4679   4.106   3.473  12.696  0.2257 -0.5271  1.1984
  311MPD2     H 4680   4.087   3.768  12.924 -1.9385 -1.3041  1.6223
  311MPD2    H1 4681   3.957   3.365  12.801 -1.7969  0.9341 -1.1388
  311MPD2    H2 4682   4.246   3.581  12.581  0.4985 -2.4920  0.9792
  311MPD2    H3 4683   4.116   3.380  12.641  0.8557  0.3652 -0.2088
  311MPD2     N 4684   3.900   3.567  12.984  0.1114 -0.8098 -0.2754
  311MPD2    H5 4685   3.895   3.653  13.038  1.3814 -1.2710  0.5681
  311MPD2    N1 4686   4.250   3.807  12.748  0.6463 -0.6291  0.1148
  311MPD2    H7 4687   4.248   3.881  12.818  3.6332  1.3246 -1.8761
  312TMC3    C1 4688   3.677   3.537  13.065  0.1487 -0.4902  0.5991
  312TMC3    C2 4689   3.559   3.541  13.003 -0.4819 -0.0359  0.8947
  312TMC3    C3 4690   3.473   3.645  13.022  0.2526 -0.8619  0.2563
  312TMC3    C4 4691   3.707   3.631  13.163 -0.1687  0.2323  0.5363
  312TMC3    C5 4692   3.611   3.732  13.183  0.0791  0.6162 -0.1273
  312TMC3    C6 4693   3.497   3.746  13.108  0.7298  0.1427  0.3920
  312TMC3     C 4694   3.790   3.482  12.987 -0.1748 -0.7865  0.3022
  312TMC3     O 4695   3.764   3.391  12.914  0.2309  0.3078  0.5019
  312TMC3     H 4696   3.531   3.457  12.941 -1.5256 -1.4949  3.3496
  312TMC3    H1 4697   3.798   3.633  13.222  0.6248 -0.4510 -0.6721
  312TMC3    H2 4698   3.420   3.819  13.131 -0.3300 -1.0755  0.6834
  312TMC3    C7 4699   3.612   3.815  13.304 -0.5428 -0.2417  0.1381
  312TMC3    C8 4700   3.338   3.624  12.972  0.1111  0.0863  0.2099
  312TMC3    O1 4701   3.547   3.922  13.311 -0.2586 -0.0055 -0.2582
  312TMC3    O2 4702   3.290   3.513  12.992  0.4487  0.7686 -0.5570
  313MPD2     C 4703   4.473   3.714  10.488  0.5585  0.4102  0.0164
  313MPD2    C1 4704   4.383   3.632  10.559  0.1077  0.3526 -0.0350
  313MPD2    C2 4705   4.280   3.568  10.487 -0.5539  0.6136  0.2677
  313MPD2    C3 4706   4.249   3.603  10.358 -0.2945 -0.3701  0.2528
  313MPD2    C4 4707   4.338   3.686  10.286  0.3031 -0.1425 -0.1069
  313MPD2    C5 4708   4.450   3.737  10.355  0.3688 -0.2195  0.5514
  313MPD2     H 4709   4.217   3.502  10.546 -0.9678  1.5093  0.8514
  313MPD2    H1 4710   4.332   3.708  10.180 -0.5913  0.0880 -0.0123
  313MPD2    H2 4711   4.550   3.779  10.527  0.6659 -0.5697  1.4197
  313MPD2    H3 4712   4.509   3.813  10.305  1.6938 -1.3513  0.4123
  313MPD2     N 4713   4.141   3.527  10.298  0.1924 -0.1994  0.1105
  313MPD2    H5 4714   4.081   3.468  10.354 -0.8931 -0.5199 -1.4153
  313MPD2    N1 4715   4.382   3.625  10.697  0.0082 -0.3254 -0.1010
  313MPD2    H7 4716   4.301   3.573  10.731 -0.4161 -1.6135 -3.0108
  314TMC3    C1 4717   4.406   3.703  10.912  0.4277  0.0392 -0.2623
  314TMC3    C2 4718   4.429   3.833  10.958 -0.1324 -1.1883 -0.0059
  314TMC3    C3 4719   4.318   3.909  10.990  0.5881 -0.7013 -0.4774
  314TMC3    C4 4720   4.288   3.642  10.922 -0.0102 -0.0260  0.4483
  314TMC3    C5 4721   4.179   3.723  10.942 -0.4062 -0.2327 -0.0183
  314TMC3    C6 4722   4.190   3.856  10.983  0.0284 -0.1092  0.6818
  314TMC3     C 4723   4.464   3.690  10.784  0.4337 -0.2073  0.2678
  314TMC3     O 4724   4.557   3.759  10.753 -0.1363 -0.0505 -0.4185
  314TMC3     H 4725   4.522   3.883  10.937 -1.4304  1.6597  0.9345
  314TMC3    H1 4726   4.275   3.537  10.896 -0.1902 -0.3814  1.9697
  314TMC3    H2 4727   4.105   3.921  10.996  0.3779  0.8024 -1.4372
  314TMC3    C7 4728   4.062   3.686  10.870 -0.9781 -0.0122 -0.4281
  314TMC3    C8 4729   4.340   4.036  11.046  0.7315  0.0856 -0.5129
  314TMC3    O1 4730   4.000   3.586  10.913  0.2003 -0.0685 -0.1577
  314TMC3    O2 4731   4.252   4.123  11.035 -0.7206  0.3178 -0.0816
  315MPD2     C 4732   2.589   3.100   0.545 -0.5082  0.5419  0.5905
  315MPD2    C1 4733   2.705   3.043   0.595  0.0083 -0.0708  0.4110
  315MPD2    C2 4734   2.816   3.118   0.621 -0.0818  0.2048 -0.4641
  315MPD2    C3 4735   2.816   3.254   0.606 -0.0965  0.5860  0.5593
  315MPD2    C4 4736   2.697   3.314   0.571  0.0728  0.4453  0.1323
  315MPD2    C5 4737   2.583   3.238   0.534 -0.8496 -0.0099 -0.1696
  315MPD2     H 4738   2.903   3.065   0.657 -0.1728 -0.0719 -0.6540
  315MPD2    H1 4739   2.685   3.421   0.561 -1.5309  0.1979 -0.6029
  315MPD2    H2 4740   2.499   3.046   0.520 -0.9908  1.9870 -0.7652
  315MPD2    H3 4741   2.489   3.283   0.506 -0.9332  0.1980  0.4478
  315MPD2     N 4742   2.936   3.325   0.631 -0.1049 -0.2618 -0.4117
  315MPD2    H5 4743   3.021   3.271   0.642  1.4532  2.2996  0.1478
  315MPD2    N1 4744   2.721   2.907   0.633  0.5046 -0.1345  0.2738
  315MPD2    H7 4745   2.812   2.873   0.662  0.5455  0.5631  0.9532
  316TMC3    C1 4746   3.084   3.495   0.583 -0.8288  0.0972 -0.2636
  316TMC3    C2 4747   3.166   3.468   0.689  0.2543  0.3741  0.1781
  316TMC3    C3 4748   3.280   3.401   0.675 -0.5440 -0.5405 -0.7784
  316TMC3    C4 4749   3.125   3.467   0.454  0.5029 -0.0615  0.3444
  316TMC3    C5 4750   3.244   3.406   0.439  0.3056 -0.6552 -0.1250
  316TMC3    C6 4751   3.332   3.377   0.541 -0.2631  0.5893 -0.5977
  316TMC3     C 4752   2.945   3.464   0.609 -0.6459  0.4876  0.8890
  316TMC3     O 4753   2.855   3.549   0.617  1.0480  0.1032  0.0118
  316TMC3     H 4754   3.115   3.488   0.782 -0.7920 -0.8016 -0.1321
  316TMC3    H1 4755   3.052   3.471   0.374  0.6596  0.5433  0.2334
  316TMC3    H2 4756   3.421   3.315   0.536  0.4381  1.4802  0.5471
  316TMC3    C7 4757   3.283   3.363   0.309 -0.4573 -0.0200 -0.6163
  316TMC3    C8 4758   3.339   3.340   0.791 -0.7436 -0.3941 -0.2993
  316TMC3    O1 4759   3.393   3.309   0.307 -0.7965  0.2428  0.3765
  316TMC3    O2 4760   3.339   3.388   0.903  0.5239 -0.0769  0.3732
  317MPD2     C 4761   0.688   1.228  12.425  0.4347 -0.1099  1.1202
  317MPD2    C1 4762   0.716   1.091  12.421  0.2165  0.5003 -0.7860
  317MPD2    C2 4763   0.751   1.018  12.537 -0.5739 -0.0531 -0.7545
  317MPD2    C3 4764   0.715   1.075  12.665  0.1622  0.0030 -0.2695
  317MPD2    C4 4765   0.670   1.206  12.663 -0.2926  0.0214  0.7713
  317MPD2    C5 4766   0.658   1.284  12.549  0.7543 -0.1077  0.8874
  317MPD2     H 4767   0.788   0.916  12.540  0.4561  0.3271 -0.8759
  317MPD2    H1 4768   0.633   1.249  12.755 -1.9217  0.7728 -0.2166
  317MPD2    H2 4769   0.650   1.283  12.339  0.5567  1.0349  1.7967
  317MPD2    H3 4770   0.616   1.384  12.549  3.1141  0.8924 -0.1171
  317MPD2     N 4771   0.727   0.991  12.774 -0.6110 -0.3083 -0.5609
  317MPD2    H5 4772   0.750   0.894  12.752  0.0084 -0.5998  1.3386
  317MPD2    N1 4773   0.729   1.032  12.295 -0.5217 -0.1656 -0.1042
  317MPD2    H7 4774   0.755   0.934  12.306 -2.4179 -0.6133  0.2915
  318TMC3    C1 4775   0.738   0.920  13.001  0.1165  0.0710 -0.4861
  318TMC3    C2 4776   0.692   0.792  12.968 -0.1325 -0.2852 -0.4276
  318TMC3    C3 4777   0.705   0.696  13.059  0.1224 -0.3276 -0.6556
  318TMC3    C4 4778   0.772   0.958  13.128  0.1226 -0.3845 -0.1128
  318TMC3    C5 4779   0.786   0.849  13.220  0.0722 -0.2337  0.0411
  318TMC3    C6 4780   0.740   0.723  13.189 -0.3218  0.7553  0.3782
  318TMC3     C 4781   0.714   1.033  12.910 -0.0898  0.8986 -0.4672
  318TMC3     O 4782   0.699   1.146  12.954  0.6048  0.0537 -0.1367
  318TMC3     H 4783   0.658   0.763  12.869  0.6335  4.9314 -2.2235
  318TMC3    H1 4784   0.788   1.060  13.161 -1.2402  0.0972 -0.9734
  318TMC3    H2 4785   0.754   0.654  13.272  0.9618 -0.3488 -0.7525
  318TMC3    C7 4786   0.847   0.884  13.354  0.3164 -0.1312  0.3111
  318TMC3    C8 4787   0.650   0.563  13.036 -0.8067  0.1426 -0.1090
  318TMC3    O1 4788   0.809   0.985  13.413 -0.3866 -0.0817  0.8619
  318TMC3    O2 4789   0.678   0.475  13.119  0.2998  0.1356 -0.2743
  319MPD2     C 4790   1.274   2.056  16.534  0.0122  0.2058 -0.4901
  319MPD2    C1 4791   1.154   2.033  16.594  0.0566 -0.7221 -0.5097
  319MPD2    C2 4792   1.045   2.013  16.515 -0.2346 -0.2775 -0.1203
  319MPD2    C3 4793   1.056   2.014  16.379 -0.1754  0.6800  0.6609
  319MPD2    C4 4794   1.175   2.040  16.315 -0.3585  0.8108  0.3244
  319MPD2    C5 4795   1.279   2.047  16.397  0.2026 -0.2020 -0.5804
  319MPD2     H 4796   0.947   1.996  16.558 -0.8310 -1.4306 -1.9094
  319MPD2    H1 4797   1.190   2.051  16.208  1.3169 -0.8382  0.3942
  319MPD2    H2 4798   1.367   2.080  16.585 -0.9206 -0.5480  1.5831
  319MPD2    H3 4799   1.377   2.061  16.351 -0.5654 -0.0534 -2.1772
  319MPD2     N 4800   0.946   2.005  16.295 -0.4400  0.1998 -0.3357
  319MPD2    H5 4801   0.957   2.021  16.196 -1.0691 -2.7844 -0.8930
  319MPD2    N1 4802   1.131   2.033  16.734 -0.4162 -0.4923  0.1920
  319MPD2    H7 4803   1.038   2.008  16.766 -0.6645 -1.4990 -1.3085
  320TMC3    C1 4804   0.717   1.985  16.231  0.8515 -0.3775 -0.9173
  320TMC3    C2 4805   0.722   2.100  16.158 -0.7517 -0.4851 -0.0301
  320TMC3    C3 4806   0.605   2.158  16.125 -0.8176  0.2075  0.3152
  320TMC3    C4 4807   0.603   1.925  16.253 -0.2482 -0.1481  0.1385
  320TMC3    C5 4808   0.484   1.990  16.229  0.5200  0.5594 -0.0843
  320TMC3    C6 4809   0.483   2.111  16.162  0.3588 -0.4387 -0.5816
  320TMC3     C 4810   0.818   1.955  16.331  0.6456 -0.1823  0.1787
  320TMC3     O 4811   0.775   1.896  16.431  0.2843 -0.2203  0.0614
  320TMC3     H 4812   0.814   2.150  16.131 -1.0676 -1.5696 -3.1276
  320TMC3    H1 4813   0.599   1.829  16.303 -3.7823  0.8962  1.8297
  320TMC3    H2 4814   0.394   2.172  16.178  0.1823 -0.8532  0.0418
  320TMC3    C7 4815   0.358   1.918  16.232 -0.6294 -0.3732  0.1620
  320TMC3    C8 4816   0.601   2.284  16.054  0.5175 -0.1664  0.1675
  320TMC3    O1 4817   0.278   1.935  16.137  0.3660 -0.2433  0.0111
  320TMC3    O2 4818   0.686   2.367  16.074  0.5725 -0.2523  0.0328
  321TMC3    C1 4819   1.157   2.063  16.968 -0.3681 -0.4632  0.6719
  321TMC3    C2 4820   1.070   1.961  16.987 -0.2789  0.2224  0.4113
  321TMC3    C3 4821   1.063   1.913  17.110  0.4279 -0.1849 -0.6648
  321TMC3    C4 4822   1.235   2.104  17.072  0.0412 -0.1669  0.0012
  321TMC3    C5 4823   1.201   2.078  17.200  0.0475 -0.2720 -0.0400
  321TMC3    C6 4824   1.115   1.971  17.221 -0.9137  0.7733 -0.1623
  321TMC3     C 4825   1.220   2.073  16.831 -0.6670  0.4044  0.4357
  321TMC3     O 4826   1.333   2.121  16.827  0.0740 -0.3129 -0.4958
  321TMC3     H 4827   1.030   1.898  16.909  0.8380  1.5639 -1.2406
  321TMC3    H1 4828   1.300   2.188  17.052 -0.3380 -0.0364 -0.6774
  321TMC3    H2 4829   1.124   1.919  17.316 -1.6538  0.5364 -0.2247
  321TMC3    C7 4830   1.321   2.030  17.273 -0.5316 -0.6087 -0.1703
  321TMC3    C8 4831   1.065   1.772  17.096 -0.4421  0.3647  0.2179
  321TMC3    O1 4832   1.398   1.964  17.207  0.3951  0.4202 -0.1666
  321TMC3    O2 4833   0.964   1.716  17.065  0.2424 -0.5942 -0.1890
  322MPD2     C 4834   0.356   3.681  13.461 -0.1478  0.2790 -0.1932
  322MPD2    C1 4835   0.247   3.647  13.541  0.0646 -0.5295  0.9165
  322MPD2    C2 4836   0.168   3.535  13.517  0.0977  0.0818 -0.0214
  322MPD2    C3 4837   0.205   3.445  13.419 -0.5490 -0.4558 -0.2058
  322MPD2    C4 4838   0.310   3.480  13.335 -0.4391  0.3814 -0.3755
  322MPD2    C5 4839   0.383   3.593  13.361  0.1473 -0.2622  0.4215
  322MPD2     H 4840   0.086   3.510  13.584 -0.2529  2.4284  0.4392
  322MPD2    H1 4841   0.348   3.406  13.265 -0.4767 -1.4504  1.5455
  322MPD2    H2 4842   0.419   3.764  13.491  1.6065 -0.1070 -2.8752
  322MPD2    H3 4843   0.472   3.607  13.302 -0.2921 -1.8477 -0.6194
  322MPD2     N 4844   0.138   3.320  13.414 -0.0097 -0.4272 -0.3094
  322MPD2    H5 4845   0.057   3.316  13.476  0.1372 -0.0534 -0.0963
  322MPD2    N1 4846   0.233   3.729  13.656 -0.2853  0.5490 -0.2952
  322MPD2    H7 4847   0.311   3.792  13.674  0.5871 -0.5896 -0.1617
  323TMC3    C1 4848   0.190   3.785  13.877  0.1960  0.3925  0.1113
  323TMC3    C2 4849   0.272   3.896  13.864  0.1960  1.1489  0.0309
  323TMC3    C3 4850   0.327   3.945  13.984 -0.1149 -0.2606 -0.5074
  323TMC3    C4 4851   0.178   3.720  13.997 -0.2547  0.3804  0.0728
  323TMC3    C5 4852   0.226   3.776  14.112  0.1707  0.6318 -0.0480
  323TMC3    C6 4853   0.308   3.885  14.104  0.0115  0.0651  0.1655
  323TMC3     C 4854   0.141   3.722  13.754 -0.4651 -0.2041 -0.7205
  323TMC3     O 4855   0.040   3.656  13.765 -0.0519 -0.3527  0.0211
  323TMC3     H 4856   0.275   3.945  13.768  0.6442  0.2368 -0.4181
  323TMC3    H1 4857   0.119   3.630  14.000 -0.5476  0.5859  0.4670
  323TMC3    H2 4858   0.355   3.915  14.197  0.8505  0.6619 -0.4402
  323TMC3    C7 4859   0.244   3.686  14.222 -0.7566  0.2759 -0.4883
  323TMC3    C8 4860   0.456   4.004  13.978  0.0700  0.4013  0.2410
  323TMC3    O1 4861   0.231   3.567  14.197  0.0652  0.1177  0.2084
  323TMC3    O2 4862   0.536   3.991  14.070 -0.0232 -0.0526 -0.1308
  324MPD2     C 4863   1.927   4.475  14.193  0.1613 -0.6572 -0.0274
  324MPD2    C1 4864   1.903   4.592  14.254  0.4249 -0.2312 -0.1055
  324MPD2    C2 4865   1.801   4.681  14.219  0.1632  0.4656  0.3020
  324MPD2    C3 4866   1.723   4.645  14.107 -0.1342  0.4199 -0.2326
  324MPD2    C4 4867   1.748   4.530  14.045 -0.7135  0.1874 -0.0188
  324MPD2    C5 4868   1.840   4.444  14.090 -0.0391  0.1700 -0.6302
  324MPD2     H 4869   1.792   0.054  14.271 -0.7143  1.3137 -1.3813
  324MPD2    H1 4870   1.690   4.495  13.961  0.2921  1.2773 -1.1606
  324MPD2    H2 4871   2.004   4.401  14.212  0.8796  0.8868  2.9722
  324MPD2    H3 4872   1.858   4.352  14.035  0.5257 -0.2384  0.2267
  324MPD2     N 4873   1.610   4.714  14.050 -0.8434  0.4733 -0.2298
  324MPD2    H5 4874   1.572   4.662  13.972  0.3089 -2.5111  1.1850
  324MPD2    N1 4875   1.982   4.644  14.357  0.4931  0.1192 -0.2785
  324MPD2    H7 4876   1.973   0.018  14.390 -2.6949  0.5922 -2.4537
  325TMC3    C1 4877   1.452   0.166  14.010  0.2578 -0.5236 -0.0350
  325TMC3    C2 4878   1.348   0.077  13.986  0.1256 -0.1798  0.0976
  325TMC3    C3 4879   1.228   0.119  13.952 -0.3442 -0.6034  0.8161
  325TMC3    C4 4880   1.436   0.301  14.006  0.1718  0.2145 -0.2916
  325TMC3    C5 4881   1.316   0.332  13.965  0.2969  0.1723 -0.0992
  325TMC3    C6 4882   1.207   0.251  13.932 -0.8400 -0.8013  0.2201
  325TMC3     C 4883   1.568   0.117  14.084 -0.2551 -0.2903  0.5408
  325TMC3     O 4884   1.616   0.190  14.168 -0.2335 -0.1068 -0.1024
  325TMC3     H 4885   1.353   4.694  14.017  0.7982 -0.3773 -0.6853
  325TMC3    H1 4886   1.514   0.368  14.039  0.2452  0.2814 -0.5973
  325TMC3    H2 4887   1.124   0.291  13.875 -0.0181  1.9319  0.9052
  325TMC3    C7 4888   1.276   0.467  13.986  0.0845 -0.2045 -0.3817
  325TMC3    C8 4889   1.144   0.027  13.881 -0.3223  1.2444 -0.2208
  325TMC3    O1 4890   1.365   0.546  13.964  0.7389 -0.6934 -0.0937
  325TMC3    O2 4891   1.202   4.653  13.832 -0.6636 -0.2094 -0.7356
  326MPD2     C 4892   2.918   1.624  11.153 -0.0062  0.0936 -0.0237
  326MPD2    C1 4893   2.997   1.523  11.103 -0.0681 -0.0793  0.5769
  326MPD2    C2 4894   3.133   1.533  11.129 -0.4012  0.0449  0.7318
  326MPD2    C3 4895   3.185   1.647  11.188  0.6362  0.9446 -0.4529
  326MPD2    C4 4896   3.109   1.753  11.228 -0.3707  0.1527 -0.0226
  326MPD2    C5 4897   2.969   1.737  11.215 -0.6159 -0.1059 -0.8346
  326MPD2     H 4898   3.196   1.460  11.078 -1.8564 -2.1861  2.1209
  326MPD2    H1 4899   3.143   1.854  11.244  2.1900 -0.5280 -1.2434
  326MPD2    H2 4900   2.810   1.619  11.149 -0.0693  0.2870  1.4851
  326MPD2    H3 4901   2.912   1.827  11.234 -2.0362 -0.7309 -2.1269
  326MPD2     N 4902   3.323   1.664  11.198  0.1837  0.4709  0.3132
  326MPD2    H5 4903   3.356   1.754  11.232 -0.6575  1.0753 -0.4510
  326MPD2    N1 4904   2.953   1.407  11.042  0.6512 -0.4383 -0.4637
  326MPD2    H7 4905   3.024   1.340  11.015 -0.8891 -3.1282  2.1705
  327TMC3    C1 4906   2.813   1.247  10.927 -0.0098  0.2811  0.2575
  327TMC3    C2 4907   2.737   1.264  10.815 -0.3088 -0.0917  0.5261
  327TMC3    C3 4908   2.760   1.185  10.706  0.5647 -0.5173  0.5098
  327TMC3    C4 4909   2.912   1.148  10.948 -0.7246  0.0658  0.1753
  327TMC3    C5 4910   2.924   1.071  10.838 -0.0966 -1.2249 -0.5400
  327TMC3    C6 4911   2.857   1.090  10.722 -0.5173  0.6618 -0.1614
  327TMC3     C 4912   2.825   1.374  11.000  0.7062 -0.3885  0.3153
  327TMC3     O 4913   2.731   1.448  11.004  0.0766 -0.2850  0.5009
  327TMC3     H 4914   2.660   1.341  10.814 -2.0825 -1.8284  2.6660
  327TMC3    H1 4915   2.955   1.129  11.045  1.8400 -1.3872 -1.2676
  327TMC3    H2 4916   2.874   1.012  10.649 -1.8450 -1.0177  1.3268
  327TMC3    C7 4917   3.007   0.947  10.839  0.6290 -0.3223  0.4912
  327TMC3    C8 4918   2.771   1.267  10.590  0.0701  0.4302  0.3907
  327TMC3    O1 4919   2.983   0.865  10.754  0.2461 -0.3142 -0.0080
  327TMC3    O2 4920   2.770   1.385  10.617 -0.5014  0.4457  0.1968
  328MPD2     C 4921   0.510   0.818  16.841 -0.0988  0.1854 -0.8679
  328MPD2    C1 4922   0.375   0.794  16.838 -0.0894  0.1229 -0.2665
  328MPD2    C2 4923   0.294   0.903  16.868 -0.5070  0.5371 -0.4903
  328MPD2    C3 4924   0.344   1.024  16.909 -0.0341  0.0190 -0.7080
  328MPD2    C4 4925   0.476   1.043  16.926 -0.1757 -0.1609 -0.2037
  328MPD2    C5 4926   0.561   0.939  16.879 -0.1087 -0.1060 -0.1602
  328MPD2     H 4927   0.186   0.896  16.853 -0.4596  0.6273 -0.8779
  328MPD2    H1 4928   0.516   1.141  16.946 -0.5311  0.6721 -3.6283
  328MPD2    H2 4929   0.566   0.728  16.816  0.5014  0.0613  0.9022
  328MPD2    H3 4930   0.668   0.947  16.891 -0.0329  1.0452 -1.5742
  328MPD2     N 4931   0.264   1.134  16.945 -0.1654  0.4101 -0.2919
  328MPD2    H5 4932   0.310   1.222  16.969 -0.2961  0.6816 -1.0419
  328MPD2    N1 4933   0.326   0.673  16.809 -0.6468  0.3332 -0.4716
  328MPD2    H7 4934   0.388   0.595  16.790  0.4882  0.7087  1.7944
  329TMC3    C1 4935   0.195   0.489  16.769 -0.3761  0.1377 -0.2125
  329TMC3    C2 4936   0.138   0.414  16.862 -0.6306 -0.6385  0.6848
  329TMC3    C3 4937   0.169   0.280  16.862  0.2198 -0.0637 -0.7641
  329TMC3    C4 4938   0.276   0.447  16.670  0.3596 -0.3700 -1.1599
  329TMC3    C5 4939   0.301   0.312  16.658  0.6041  0.3505 -0.5356
  329TMC3    C6 4940   0.249   0.229  16.763 -0.2889 -0.2642 -0.0339
  329TMC3     C 4941   0.194   0.632  16.803  0.0212  0.2264 -0.1362
  329TMC3     O 4942   0.095   0.689  16.844 -0.0442  0.1265  0.4908
  329TMC3     H 4943   0.081   0.462  16.941  0.1298  1.3825 -0.0137
  329TMC3    H1 4944   0.320   0.512  16.595  0.7077 -2.5815 -2.8548
  329TMC3    H2 4945   0.254   0.120  16.763  0.8653 -0.2101 -0.1221
  329TMC3    C7 4946   0.379   0.276  16.537  0.2961 -0.1956 -0.4368
  329TMC3    C8 4947   0.168   0.207  16.990 -0.0985 -0.2859  0.2509
  329TMC3    O1 4948   0.401   0.360  16.446  0.0481  0.1183 -0.3418
  329TMC3    O2 4949   0.217   0.097  16.984 -0.3309 -0.0680  0.1530
  330TMC3    C1 4950   4.467   4.478  10.019 -0.5678  0.3312  0.2190
  330TMC3    C2 4951   4.351   4.428  10.068 -0.0232  0.7078 -0.0058
  330TMC3    C3 4952   4.290   4.320  10.006  1.2204  0.2111 -0.0457
  330TMC3    C4 4953   4.520   4.425   9.902 -0.1440  0.3365 -0.0752
  330TMC3    C5 4954   4.457   4.317   9.847 -0.0436  0.0888 -0.2661
  330TMC3    C6 4955   4.347   4.264   9.895  0.4808 -0.1392  0.1400
  330TMC3     C 4956   4.512   4.609  10.062  0.2339  0.6344  0.0824
  330TMC3     O 4957   4.535   4.693   9.977  0.2406  0.4454  0.1929
  330TMC3     H 4958   4.295   4.484  10.143 -1.8835  0.9061 -1.5420
  330TMC3    H1 4959   4.607   4.477   9.864 -0.3271  1.0997  0.5385
  330TMC3    H2 4960   4.310   4.172   9.853  1.4827 -1.1380  1.4618
  330TMC3    C7 4961   4.517   4.277   9.722  0.3135  0.0524  0.7900
  330TMC3    C8 4962   4.163   4.273  10.059 -0.2689 -0.5130  0.1034
  330TMC3    O1 4963   4.635   4.300   9.715 -1.0062  0.1515  0.0290
  330TMC3    O2 4964   4.155   4.264  10.182 -0.1498  0.5998  0.6360
  331MPD2     C 4965   1.061   4.106  12.565  0.7137 -0.6052 -0.3921
  331MPD2    C1 4966   1.191   4.128  12.543 -0.2572  0.3815 -0.6423
  331MPD2    C2 4967   1.269   4.019  12.525 -0.8218 -0.4116  0.8268
  331MPD2    C3 4968   1.224   3.891  12.547  0.9999  0.3724  0.8193
  331MPD2    C4 4969   1.090   3.866  12.576  0.2744 -0.3002  0.0836
  331MPD2    C5 4970   1.010   3.978  12.581 -0.5064 -1.0983  1.0889
  331MPD2     H 4971   1.374   4.036  12.502 -1.4291  0.5603 -1.2320
  331MPD2    H1 4972   1.046   3.768  12.589 -2.3602  0.9789  0.9552
  331MPD2    H2 4973   0.999   4.194  12.561  0.6721 -0.6218 -0.1566
  331MPD2    H3 4974   0.909   3.952  12.612 -1.8559 -0.0700 -2.4055
  331MPD2     N 4975   1.333   3.802  12.530 -0.4430 -0.0819  0.0495
  331MPD2    H5 4976   1.426   3.841  12.527  0.0989 -1.4122 -0.2049
  331MPD2    N1 4977   1.240   4.253  12.531 -0.1448 -0.4335 -0.2687
  331MPD2    H7 4978   1.171   4.322  12.503 -0.5496 -0.3637  0.8876
  332TMC3    C1 4979   1.451   3.611  12.526  0.6922  0.4560  0.1954
  332TMC3    C2 4980   1.540   3.667  12.439 -0.0280 -0.2648 -0.1602
  332TMC3    C3 4981   1.665   3.609  12.430 -0.0607  0.0825 -0.6269
  332TMC3    C4 4982   1.489   3.499  12.597 -0.3361  0.1724  0.1149
  332TMC3    C5 4983   1.613   3.445  12.587  0.7811 -0.1725 -0.1902
  332TMC3    C6 4984   1.702   3.504  12.504  0.0522 -0.2846  0.1089
  332TMC3     C 4985   1.321   3.669  12.543  0.1974  0.0038 -0.5897
  332TMC3     O 4986   1.224   3.601  12.572 -0.2021 -0.3325 -0.4405
  332TMC3     H 4987   1.529   3.749  12.368  1.2275  0.0702  0.0316
  332TMC3    H1 4988   1.422   3.452  12.669  1.4862 -1.1223  0.9920
  332TMC3    H2 4989   1.802   3.467  12.486  1.0978  2.2318  0.7483
  332TMC3    C7 4990   1.655   3.356  12.689  0.0011  0.8544 -0.0922
  332TMC3    C8 4991   1.758   3.678  12.339  0.1243 -0.2132 -0.3666
  332TMC3    O1 4992   1.573   3.314  12.769  0.0157  0.1122  0.4010
  332TMC3    O2 4993   1.752   3.800  12.344  0.5254 -0.0121  0.3837
  333MPD2     C 4994   2.028   4.458  11.271  0.0250 -0.1511 -0.3621
  333MPD2    C1 4995   2.094   4.374  11.183 -0.1014  0.5866 -1.1372
  333MPD2    C2 4996   2.076   4.239  11.199  1.3931 -0.2879 -0.7090
  333MPD2    C3 4997   2.005   4.185  11.306 -0.3017 -0.4358  0.2633
  333MPD2    C4 4998   1.939   4.271  11.390  0.8036 -0.0058 -0.3117
  333MPD2    C5 4999   1.941   4.408  11.366  0.1717 -0.2367  0.5555
  333MPD2     H 5000   2.138   4.172  11.140  1.2718 -0.4945 -0.5992
  333MPD2    H1 5001   1.885   4.246  11.480 -0.2903 -0.5389 -1.1210
  333MPD2    H2 5002   2.032   4.566  11.272  1.0937 -0.1884 -0.2463
  333MPD2    H3 5003   1.894   4.474  11.438 -2.3983 -0.9492 -0.5070
  333MPD2     N 5004   2.003   4.045  11.324  0.1696  0.1109  0.4507
  333MPD2    H5 5005   2.029   3.979  11.251  0.4990  0.0554  0.6168
  333MPD2    N1 5006   2.171   4.431  11.085 -0.1258  0.5017 -0.3879
  333MPD2    H7 5007   2.178   4.532  11.094  0.4137  0.2935  1.3886
  334TMC3    C1 5008   2.324   4.459  10.909 -0.2012 -0.0459 -0.2931
  334TMC3    C2 5009   2.418   4.397  10.828  0.3449 -0.7656  0.7634
  334TMC3    C3 5010   2.472   4.469  10.724  1.1585  0.3670 -0.0011
  334TMC3    C4 5011   2.287   4.587  10.898  0.7837 -0.2642  0.0515
  334TMC3    C5 5012   2.338   4.651  10.790 -0.5846  0.7678  0.3686
  334TMC3    C6 5013   2.430   4.600  10.702 -0.2178 -0.4260 -0.5146
  334TMC3     C 5014   2.244   4.367  10.990 -0.2912 -0.0915 -0.0799
  334TMC3     O 5015   2.256   4.245  10.971  0.1384  0.0186 -0.8581
  334TMC3     H 5016   2.435   4.291  10.837  1.1119 -0.5555  1.7161
  334TMC3    H1 5017   2.205   4.619  10.961  0.8216  2.2763 -1.1876
  334TMC3    H2 5018   2.465   4.657  10.617 -1.4343 -0.9906 -1.3892
  334TMC3    C7 5019   2.280   0.060  10.764 -0.3107  0.3275  0.0993
  334TMC3    C8 5020   2.593   4.404  10.666 -0.1081 -0.1335  0.2309
  334TMC3    O1 5021   2.255   0.130  10.863  0.4465 -0.4407 -1.0610
  334TMC3    O2 5022   2.586   4.283  10.666  0.3668  0.0353  0.0045
  335TMC3    C1 5023   1.186   1.049  17.348 -0.3266  1.0896 -0.6408
  335TMC3    C2 5024   1.075   0.993  17.297 -0.0541 -0.1763 -0.3215
  335TMC3    C3 5025   1.088   0.898  17.206  0.0667 -0.6664  0.3974
  335TMC3    C4 5026   1.311   1.002  17.308  0.5211  0.4376 -0.0696
  335TMC3    C5 5027   1.322   0.882  17.244  0.3647  0.5413 -0.8851
  335TMC3    C6 5028   1.208   0.822  17.186 -0.5848 -0.1848  0.0544
  335TMC3     C 5029   1.171   1.164  17.434  0.4355  0.6804  0.4109
  335TMC3     O 5030   1.065   1.219  17.446 -0.0405  0.0449 -0.1217
  335TMC3     H 5031   0.979   1.030  17.331  0.0901  1.3461 -1.5577
  335TMC3    H1 5032   1.394   1.053  17.355 -1.1411  0.3281  3.0238
  335TMC3    H2 5033   1.212   0.728  17.133  1.2358  1.0138 -1.9292
  335TMC3    C7 5034   1.448   0.820  17.217 -0.3050 -0.2068  0.4205
  335TMC3    C8 5035   0.968   0.827  17.165  0.0854  0.0482 -0.1275
  335TMC3    O1 5036   1.443   0.728  17.129 -0.0801  0.3109 -0.1074
  335TMC3    O2 5037   0.867   0.827  17.239 -0.4339 -0.6683  0.5152
  336MPD2     C 5038   0.906   3.242  16.400  0.2582 -0.3077  0.0844
  336MPD2    C1 5039   0.859   3.209  16.271  0.2384  0.5041 -0.4659
  336MPD2    C2 5040   0.849   3.074  16.239  0.1143 -0.1436 -0.4248
  336MPD2    C3 5041   0.874   2.978  16.335 -0.0180  0.2845 -0.0507
  336MPD2    C4 5042   0.926   3.014  16.459 -0.5948 -0.3755 -0.8551
  336MPD2    C5 5043   0.946   3.148  16.494  0.0644  0.0610 -0.2770
  336MPD2     H 5044   0.804   3.037  16.148  0.8801 -0.4524 -0.6815
  336MPD2    H1 5045   0.959   2.941  16.532  3.1958 -0.5084 -2.7073
  336MPD2    H2 5046   0.917   3.345  16.433 -0.6255 -0.3205  0.4060
  336MPD2    H3 5047   0.982   3.187  16.589  2.9300  1.5478 -1.9561
  336MPD2     N 5048   0.874   2.843  16.301  0.0094 -0.2741 -0.5332
  336MPD2    H5 5049   0.882   2.780  16.380 -1.1416  0.8504  0.4845
  336MPD2    N1 5050   0.822   3.303  16.177 -0.3409 -0.1357  0.3147
  336MPD2    H7 5051   0.772   3.267  16.096 -0.3091  2.6431 -0.9472
  337TMC3    C1 5052   0.790   3.515  16.080 -0.0364  0.3482  0.3227
  337TMC3    C2 5053   0.678   3.481  16.007 -0.2150  0.3748  0.0127
  337TMC3    C3 5054   0.605   3.581  15.941  0.2649 -0.4957 -0.8054
  337TMC3    C4 5055   0.833   3.643  16.074 -1.1743  0.2800 -0.0258
  337TMC3    C5 5056   0.760   3.746  16.014  0.3383 -0.6539  0.1190
  337TMC3    C6 5057   0.638   3.717  15.955  0.3857 -0.6044 -0.2386
  337TMC3     C 5058   0.852   3.436  16.183  0.4586 -0.2774  0.8760
  337TMC3     O 5059   0.935   3.487  16.256  1.0189  0.2460 -0.3284
  337TMC3     H 5060   0.645   3.378  15.992  0.4088  0.5556 -2.4756
  337TMC3    H1 5061   0.923   3.675  16.125 -0.6378 -1.0251 -0.1608
  337TMC3    H2 5062   0.595   3.797  15.896  0.7054  1.4037  2.2463
  337TMC3    C7 5063   0.782   3.880  16.050 -0.3672  0.3465  0.6941
  337TMC3    C8 5064   0.462   3.552  15.928  0.2124  0.7810  0.4940
  337TMC3    O1 5065   0.686   3.954  16.052 -0.3909  0.0813 -0.2129
  337TMC3    O2 5066   0.421   3.458  15.992 -0.5358 -0.2777  0.3454
  338MPD2     C 5067   0.870   2.788   1.364  0.0438  0.5928  0.8041
  338MPD2    C1 5068   0.827   2.854   1.249 -0.4567  0.1730 -0.2275
  338MPD2    C2 5069   0.787   2.988   1.240 -0.1729 -0.4875  0.2175
  338MPD2    C3 5070   0.805   3.062   1.356  0.3881 -0.8990  0.0812
  338MPD2    C4 5071   0.863   3.002   1.473  0.6476  0.5857  0.3421
  338MPD2    C5 5072   0.882   2.866   1.475  0.0690  0.1747 -0.4164
  338MPD2     H 5073   0.744   3.029   1.149 -1.2253 -0.8934  0.5325
  338MPD2    H1 5074   0.892   3.062   1.558  1.6103 -2.3480  2.0760
  338MPD2    H2 5075   0.900   2.684   1.366  0.6832  0.7659  0.1763
  338MPD2    H3 5076   0.937   2.820   1.556  0.6074  1.7373  0.1040
  338MPD2     N 5077   0.755   3.195   1.348  0.1992  0.3574  0.1128
  338MPD2    H5 5078   0.708   3.222   1.263  0.4226  0.0259 -0.1179
  338MPD2    N1 5079   0.810   2.789   1.123  0.1036  0.3300  0.3119
  338MPD2    H7 5080   0.780   2.848   1.046 -1.1266  1.0147  1.3109
  339TMC3    C1 5081   0.687   3.411   1.418 -0.1375  0.2118 -1.0878
  339TMC3    C2 5082   0.650   3.493   1.520  0.5568 -0.1962 -0.4103
  339TMC3    C3 5083   0.635   3.628   1.492 -0.3543 -0.8372 -0.7908
  339TMC3    C4 5084   0.718   3.460   1.291 -0.7246  0.0646 -1.0802
  339TMC3    C5 5085   0.708   3.594   1.270  0.0303  0.3208 -1.0297
  339TMC3    C6 5086   0.666   3.688   1.369  0.3259  0.0803  0.4446
  339TMC3     C 5087   0.749   3.281   1.457 -0.1122 -0.4460 -0.3363
  339TMC3     O 5088   0.804   3.273   1.570  0.1480 -0.2960 -0.2126
  339TMC3     H 5089   0.646   3.451   1.620  0.3934  0.5736 -0.0918
  339TMC3    H1 5090   0.764   3.399   1.215 -1.0329 -0.2250 -1.0340
  339TMC3    H2 5091   0.644   3.791   1.345  0.6892 -0.1375 -0.8171
  339TMC3    C7 5092   0.712   3.648   1.134  0.0438 -0.3886 -0.0798
  339TMC3    C8 5093   0.593   3.712   1.599  0.3395  0.0456 -0.0482
  339TMC3    O1 5094   0.728   3.769   1.128  0.3115  0.3250 -0.2185
  339TMC3    O2 5095   0.621   3.829   1.582 -0.0426 -0.3932 -0.0334
  340MPD2     C 5096   1.725   0.306   9.897  0.3110 -0.0404  0.0870
  340MPD2    C1 5097   1.842   0.271   9.834  0.1841  0.1486  0.4836
  340MPD2    C2 5098   1.956   0.293   9.904 -0.2345 -0.6826  0.1970
  340MPD2    C3 5099   1.956   0.355  10.026  0.7784  0.8848  0.1636
  340MPD2    C4 5100   1.839   0.394  10.083 -0.4923 -0.1127 -0.1391
  340MPD2    C5 5101   1.719   0.370  10.019  0.8326 -0.1183 -0.2837
  340MPD2     H 5102   2.049   0.254   9.865 -0.3105  0.0131 -0.6564
  340MPD2    H1 5103   1.855   0.430  10.184 -1.7892  1.0440 -0.3483
  340MPD2    H2 5104   1.628   0.288   9.851  1.2244 -0.4713 -1.6710
  340MPD2    H3 5105   1.627   0.374  10.076  1.4417 -0.7354  0.7449
  340MPD2     N 5106   2.075   0.373  10.097 -0.1288  0.6195 -0.3994
  340MPD2    H5 5107   2.064   0.426  10.183  0.5284 -0.5846  0.4255
  340MPD2    N1 5108   1.833   0.209   9.708 -0.2977  0.0482  0.0956
  340MPD2    H7 5109   1.744   0.187   9.665  0.9702 -0.8112 -2.0554
  341TMC3    C1 5110   1.916   0.133   9.493  0.8615 -0.2472  0.7735
  341TMC3    C2 5111   1.822   0.031   9.491  0.1348  0.0732  0.0855
  341TMC3    C3 5112   1.807   4.685   9.374 -0.0207  0.2401 -0.6248
  341TMC3    C4 5113   2.015   0.131   9.401  0.1541  0.1762 -0.5480
  341TMC3    C5 5114   2.006   0.046   9.298  0.4099  0.3074  0.3406
  341TMC3    C6 5115   1.902   4.684   9.274 -0.0103  0.5992 -0.0904
  341TMC3     C 5116   1.949   0.192   9.628 -0.1730 -0.5581  0.3647
  341TMC3     O 5117   2.068   0.218   9.649 -0.7932 -0.0341 -0.3730
  341TMC3     H 5118   1.753   0.016   9.572  0.5268  0.4109  0.4823
  341TMC3    H1 5119   2.102   0.196   9.400  0.7003 -0.5411  0.3156
  341TMC3    H2 5120   1.892   4.618   9.189  0.0319 -1.8110  1.7760
  341TMC3    C7 5121   2.131   0.017   9.238  0.5134  0.2231  0.2095
  341TMC3    C8 5122   1.709   4.573   9.377  0.5395 -0.0327 -0.1814
  341TMC3    O1 5123   2.198   0.117   9.206 -0.3261 -0.0034 -0.1830
  341TMC3    O2 5124   1.660   4.523   9.477 -0.0950  0.3996  0.1338
  342MPD2     C 5125   3.752   4.004  16.915 -0.9320  0.7669  0.0273
  342MPD2    C1 5126   3.799   3.983  17.040  0.2708  0.0269  0.0860
  342MPD2    C2 5127   3.783   4.076  17.142  0.3609 -0.6867  0.8903
  342MPD2    C3 5128   3.710   4.190  17.115 -0.0857  0.8600 -0.0583
  342MPD2    C4 5129   3.658   4.214  16.990  0.0124 -0.8793 -0.5587
  342MPD2    C5 5130   3.679   4.116  16.892  0.1610 -0.2261 -0.2248
  342MPD2     H 5131   3.833   4.064  17.238 -0.8551 -1.5611  1.4237
  342MPD2    H1 5132   3.597   4.299  16.962  1.5790  0.0335 -1.1991
  342MPD2    H2 5133   3.759   3.921  16.845 -0.2674 -0.2904  1.3367
  342MPD2    H3 5134   3.628   4.126  16.797 -1.0963  3.3817  0.8100
  342MPD2     N 5135   3.698   4.304  17.208  0.5641 -0.1824 -0.1001
  342MPD2    H5 5136   3.667   4.391  17.167  0.1196  0.2455  1.1417
  342MPD2    N1 5137   3.881   3.868  17.069  1.4301 -0.1676  0.4188
  342MPD2    H7 5138   3.906   3.839  17.163  0.0287 -0.7388  0.6022
  343TMC3    C1 5139   3.972   3.656  17.041 -0.2956  0.1217 -0.1187
  343TMC3    C2 5140   4.094   3.607  17.007 -0.1323  0.3001 -0.1406
  343TMC3    C3 5141   4.149   3.517  17.100 -0.0132  0.2302  0.8494
  343TMC3    C4 5142   3.907   3.619  17.159 -0.0991 -0.8720  0.2256
  343TMC3    C5 5143   3.963   3.505  17.231  0.0784 -1.5540  0.1039
  343TMC3    C6 5144   4.092   3.462  17.208  0.2069 -0.0462  0.2366
  343TMC3     C 5145   3.927   3.778  16.976 -0.2574  0.1223  0.4539
  343TMC3     O 5146   3.953   3.809  16.859 -0.4541  0.0286 -0.3343
  343TMC3     H 5147   4.147   3.643  16.920 -1.3133  0.3969 -0.8032
  343TMC3    H1 5148   3.806   3.649  17.184 -0.0145 -0.6167  0.2576
  343TMC3    H2 5149   4.139   3.380  17.262 -0.2438 -0.7884 -0.5016
  343TMC3    C7 5150   3.870   3.409  17.282  0.6008 -0.1843 -0.3378
  343TMC3    C8 5151   4.295   3.517  17.101  0.6385  0.4065  0.6809
  343TMC3    O1 5152   3.753   3.407  17.240 -0.4393 -0.3854 -0.1565
  343TMC3    O2 5153   4.355   3.525  17.209  0.0192  0.5746  0.2920
  344MPD2     C 5154   1.019   3.616  10.425  0.0918  0.2397  0.8164
  344MPD2    C1 5155   1.011   3.574  10.299  0.3156 -0.3005  0.0509
  344MPD2    C2 5156   1.051   3.655  10.195  0.2864  0.0125  0.1884
  344MPD2    C3 5157   1.112   3.776  10.228  0.4548 -0.0815 -0.0033
  344MPD2    C4 5158   1.106   3.823  10.354 -0.5616 -0.1126  0.6455
  344MPD2    C5 5159   1.064   3.746  10.456  0.2692 -0.4926 -0.2745
  344MPD2     H 5160   1.063   3.610  10.097 -0.1800 -0.9557  0.5735
  344MPD2    H1 5161   1.130   3.922  10.390 -3.5844 -0.3153  3.2267
  344MPD2    H2 5162   0.993   3.552  10.509  1.8072  0.5099  1.5536
  344MPD2    H3 5163   1.085   3.781  10.556 -0.4474  0.8645 -0.5950
  344MPD2     N 5164   1.151   3.872  10.129  0.4588 -0.1372 -0.2362
  344MPD2    H5 5165   1.193   3.959  10.160  0.6524 -0.5455  0.6239
  344MPD2    N1 5166   0.969   3.442  10.263  0.0481  0.7494  0.2138
  344MPD2    H7 5167   0.957   3.412  10.167  0.6429  1.2130 -0.0063
  345TMC3    C1 5168   1.198   3.960   9.926 -0.2267 -0.5984  0.3626
  345TMC3    C2 5169   1.320   4.011   9.978 -0.2561 -0.4222  0.6367
  345TMC3    C3 5170   1.383   4.108   9.908 -0.0288 -0.0178  0.0596
  345TMC3    C4 5171   1.135   4.018   9.826  0.1467  0.2765 -0.9730
  345TMC3    C5 5172   1.201   4.124   9.766  0.6036 -0.3186  0.0392
  345TMC3    C6 5173   1.323   4.169   9.806  0.8179 -0.7046  0.3235
  345TMC3     C 5174   1.136   3.853   9.995  0.0281 -0.5299 -0.2038
  345TMC3     O 5175   1.052   3.794   9.935 -0.0859  0.0058  0.0384
  345TMC3     H 5176   1.366   3.965  10.064  1.4293 -0.1910 -0.1388
  345TMC3    H1 5177   1.041   3.983   9.786 -1.0689  1.2014  1.1089
  345TMC3    H2 5178   1.349   4.266   9.765 -0.1342  0.3162  2.1635
  345TMC3    C7 5179   1.117   4.227   9.717  0.7833  0.1016  0.3673
  345TMC3    C8 5180   1.492   4.176   9.983  0.4285 -0.9350  0.7666
  345TMC3    O1 5181   1.136   4.338   9.763  0.4453 -0.5299  0.5623
  345TMC3    O2 5182   1.510   4.144  10.099 -0.1642  0.0984  0.6071
  346MPD2     C 5183   0.155   0.259  13.989 -0.0238 -0.4258  0.3752
  346MPD2    C1 5184   0.253   0.351  13.957  0.4267  0.6689 -0.0561
  346MPD2    C2 5185   0.303   0.428  14.055 -1.0888 -0.0035 -0.0196
  346MPD2    C3 5186   0.258   0.428  14.187 -0.2724 -0.4847  0.7818
  346MPD2    C4 5187   0.170   0.328  14.220  0.4567 -0.4147  0.5822
  346MPD2    C5 5188   0.122   0.243  14.120  0.0206  0.2106 -0.4124
  346MPD2     H 5189   0.379   0.501  14.027 -1.8376  1.2017  1.0967
  346MPD2    H1 5190   0.144   0.324  14.326  2.2704 -0.1864  1.0299
  346MPD2    H2 5191   0.103   0.190  13.925  1.8884 -3.4425  2.0653
  346MPD2    H3 5192   0.042   0.178  14.155  0.0705  0.0026 -0.6858
  346MPD2     N 5193   0.327   0.513  14.282 -0.6500  0.1335 -1.5074
  346MPD2    H5 5194   0.383   0.590  14.248 -1.1443  0.1691 -2.2669
  346MPD2    N1 5195   0.308   0.356  13.827 -0.0368  0.3524 -0.3599
  346MPD2    H7 5196   0.351   0.442  13.794 -0.1599  0.2399 -0.8108
  347TMC3    C1 5197   0.434   0.562  14.483 -0.0783  0.3860  1.0525
  347TMC3    C2 5198   0.548   0.594  14.410 -0.1667 -0.5842  0.2837
  347TMC3    C3 5199   0.673   0.585  14.479  0.2479  0.0328 -0.2896
  347TMC3    C4 5200   0.447   0.522  14.614  0.0580  0.3096  0.1768
  347TMC3    C5 5201   0.572   0.509  14.668 -0.4221  0.5115 -0.0934
  347TMC3    C6 5202   0.687   0.526  14.601  0.3083 -0.9509  0.2830
  347TMC3     C 5203   0.317   0.511  14.417  0.4910 -0.8994 -0.5167
  347TMC3     O 5204   0.238   0.451  14.489 -0.2557 -0.7341 -0.1015
  347TMC3     H 5205   0.552   0.641  14.312 -2.2560 -0.1239  0.4240
  347TMC3    H1 5206   0.356   0.505  14.670 -0.3213  2.8530  0.3288
  347TMC3    H2 5207   0.785   0.537  14.647  0.9099  0.7023 -1.4155
  347TMC3    C7 5208   0.585   0.497  14.813  0.4032  0.0474 -0.5267
  347TMC3    C8 5209   0.782   0.555  14.392 -0.0995  0.2235  0.6322
  347TMC3    O1 5210   0.493   0.555  14.869 -0.9294 -0.7056  0.3466
  347TMC3    O2 5211   0.867   0.477  14.434  0.4598  0.8444  0.0156
  348MPD2     C 5212   4.059   4.501  11.913  0.6010  0.4191 -0.3303
  348MPD2    C1 5213   4.136   4.601  11.960  0.4440 -0.4076  0.0370
  348MPD2    C2 5214   4.144   4.720  11.886  0.4297 -0.0075 -0.4484
  348MPD2    C3 5215   4.081   0.014  11.763  1.1927  0.2610  0.0298
  348MPD2    C4 5216   4.025   4.620  11.715 -0.6466  0.5469  0.0145
  348MPD2    C5 5217   4.009   4.508  11.784  0.1435 -0.9362 -0.2575
  348MPD2     H 5218   4.201   0.086  11.919  0.8199 -0.5601  0.3549
  348MPD2    H1 5219   3.994   4.619  11.611  0.0140 -4.3037 -0.0937
  348MPD2    H2 5220   4.053   4.411  11.973 -1.5730  1.0850  0.4378
  348MPD2    H3 5221   3.961   4.420  11.742 -0.7161 -0.8876  0.6307
  348MPD2     N 5222   4.114   0.127  11.682  0.2828  0.4302 -0.5760
  348MPD2    H5 5223   4.167   0.201  11.727  0.5915 -0.9549  1.3299
  348MPD2    N1 5224   4.203   4.593  12.083 -0.3556 -0.4538 -0.2453
  348MPD2    H7 5225   4.279   4.659  12.093 -1.6773  1.1365 -0.7780
  349TMC3    C1 5226   4.294   4.496  12.276 -0.1085  0.0775 -0.2007
  349TMC3    C2 5227   4.317   4.362  12.291  0.3931  0.2262 -0.8249
  349TMC3    C3 5228   4.433   4.295  12.254  0.2172  0.5822 -0.7027
  349TMC3    C4 5229   4.399   4.568  12.228 -0.0111  0.3250  0.7215
  349TMC3    C5 5230   4.519   4.509  12.188 -0.5207  0.4557 -0.2789
  349TMC3    C6 5231   4.528   4.371  12.187  0.7295  0.0558 -0.1604
  349TMC3     C 5232   4.182   4.508  12.190 -0.4483  0.1659  0.3410
  349TMC3     O 5233   4.095   4.426  12.207  0.0994 -0.1985 -0.2760
  349TMC3     H 5234   4.241   4.301  12.338  0.3662  1.6976  1.0397
  349TMC3    H1 5235   4.397   4.677  12.228  0.9428  0.3428  0.1554
  349TMC3    H2 5236   4.631   4.344  12.168  1.4083  1.1518  1.9341
  349TMC3    C7 5237   4.574   4.567  12.060 -0.1169 -0.3360 -0.5911
  349TMC3    C8 5238   4.444   4.151  12.268 -0.1748 -0.5973 -0.0798
  349TMC3    O1 5239   4.603   4.482  11.975  0.1123 -0.5927  0.3962
  349TMC3    O2 5240   4.353   4.090  12.321  0.2804 -0.3110 -0.1824
  350MPD2     C 5241   3.403   3.005  10.035 -0.2717 -0.2484 -0.1074
  350MPD2    C1 5242   3.505   2.915  10.004  0.6712  0.4895 -0.2415
  350MPD2    C2 5243   3.620   2.964   9.946  0.4786  0.6585  0.3104
  350MPD2    C3 5244   3.633   3.107   9.943  0.2654  0.0346 -0.2803
  350MPD2    C4 5245   3.534   3.195   9.972 -0.0621 -1.2188  0.0068
  350MPD2    C5 5246   3.417   3.142  10.023 -0.5503 -0.0956 -0.7939
  350MPD2     H 5247   3.693   2.895   9.906  1.0482  0.9125  0.9303
  350MPD2    H1 5248   3.552   3.302   9.973  1.8242 -1.5295 -0.2633
  350MPD2    H2 5249   3.308   2.979  10.080  0.3581 -0.8125  0.8900
  350MPD2    H3 5250   3.329   3.204  10.033  0.5305  1.3291 -0.1193
  350MPD2     N 5251   3.758   3.154   9.903 -0.2929 -0.0449 -0.1180
  350MPD2    H5 5252   3.819   3.076   9.883 -1.2612 -1.4410  2.4186
  350MPD2    N1 5253   3.496   2.775  10.020 -0.2027  0.0337 -0.2871
  350MPD2    H7 5254   3.578   2.719   9.999 -0.9360 -1.4129  0.7056
  351TMC3    C1 5255   3.401   2.559  10.043  0.0530  0.6560  0.8039
  351TMC3    C2 5256   3.527   2.505  10.030  0.0616  0.3677  0.6640
  351TMC3    C3 5257   3.535   2.368  10.035 -0.4119 -0.1887  0.5845
  351TMC3    C4 5258   3.291   2.483  10.065  0.2667  0.3592 -0.4043
  351TMC3    C5 5259   3.301   2.345  10.068  0.0753 -0.2375  0.1251
  351TMC3    C6 5260   3.424   2.286  10.049 -0.1819  0.0562 -0.0731
  351TMC3     C 5261   3.385   2.704  10.061  1.0283 -0.3332  0.4425
  351TMC3     O 5262   3.274   2.745  10.096  0.1114 -0.5053  0.9501
  351TMC3     H 5263   3.620   2.559  10.018 -1.0656  2.0738 -0.3662
  351TMC3    H1 5264   3.192   2.527  10.076 -0.7695 -2.0886  0.2175
  351TMC3    H2 5265   3.444   2.180  10.058  2.0282  0.6760  2.4103
  351TMC3    C7 5266   3.180   2.263  10.093 -0.0575  0.6026 -0.6407
  351TMC3    C8 5267   3.669   2.321  10.054  0.4943  0.1151 -0.5552
  351TMC3    O1 5268   3.073   2.318  10.106 -0.2874 -0.0152  0.4561
  351TMC3    O2 5269   3.758   2.383   9.998 -0.3056 -0.0790  0.2744
  352MPD2     C 5270   0.723   0.949   1.157 -0.2192  0.0377  0.5602
  352MPD2    C1 5271   0.661   0.833   1.132 -0.3304 -0.6716 -0.7320
  352MPD2    C2 5272   0.658   0.741   1.240 -1.2018 -0.3191  0.3469
  352MPD2    C3 5273   0.721   0.755   1.363  0.2629  0.3896  0.0925
  352MPD2    C4 5274   0.800   0.865   1.375  0.1671 -0.1630 -0.2803
  352MPD2    C5 5275   0.802   0.960   1.271  0.2154  0.0536 -0.1450
  352MPD2     H 5276   0.605   0.648   1.226 -1.4594 -0.2088  0.6015
  352MPD2    H1 5277   0.860   0.885   1.463  2.6444 -1.0404 -1.7638
  352MPD2    H2 5278   0.717   1.024   1.079  1.0220 -1.0658 -0.6158
  352MPD2    H3 5279   0.867   1.046   1.282  0.3561  0.0206 -0.7581
  352MPD2     N 5280   0.703   0.653   1.457  0.7545 -0.4438  0.4316
  352MPD2    H5 5281   0.656   0.566   1.437 -1.4422  0.6624  0.8590
  352MPD2    N1 5282   0.609   0.822   1.002  0.5485 -0.7652  0.0153
  352MPD2    H7 5283   0.642   0.895   0.940  1.8692  0.8002  2.5961
  353TMC3    C1 5284   0.787   0.503   1.608  0.2004  0.5686 -0.2581
  353TMC3    C2 5285   0.910   0.450   1.624  0.6680 -0.8116  0.5989
  353TMC3    C3 5286   0.917   0.312   1.634  0.1820 -0.1284 -0.6809
  353TMC3    C4 5287   0.674   0.432   1.627  0.3148 -1.0286 -0.1098
  353TMC3    C5 5288   0.688   0.301   1.652 -0.5568  0.0169  0.0685
  353TMC3    C6 5289   0.805   0.239   1.657  0.3664  0.0182 -0.0832
  353TMC3     C 5290   0.777   0.642   1.579 -0.4566 -0.2597 -0.8567
  353TMC3     O 5291   0.834   0.727   1.641 -0.0809 -0.7799 -0.2972
  353TMC3     H 5292   0.999   0.512   1.617 -0.5613  0.6801 -1.5987
  353TMC3    H1 5293   0.573   0.472   1.631  0.0771 -1.4556 -1.8455
  353TMC3    H2 5294   0.818   0.137   1.693  0.2378 -0.7954 -2.3300
  353TMC3    C7 5295   0.574   0.211   1.663  0.2993 -0.1211  0.3387
  353TMC3    C8 5296   1.039   0.247   1.586 -0.2506  1.2953  0.0713
  353TMC3    O1 5297   0.490   0.215   1.577  0.1976  0.3972 -0.0847
  353TMC3    O2 5298   1.140   0.315   1.587 -0.0316 -0.1586 -0.2715
  354TMC3    C1 5299   2.645   1.111  13.476 -0.1754 -0.0359  0.4987
  354TMC3    C2 5300   2.658   1.245  13.489 -0.1907  0.1987 -0.6140
  354TMC3    C3 5301   2.578   1.334  13.421 -0.7289  0.2053 -0.1155
  354TMC3    C4 5302   2.529   1.060  13.418  0.2689  0.4271  0.4784
  354TMC3    C5 5303   2.457   1.148  13.344  0.4231  0.6169  0.0633
  354TMC3    C6 5304   2.475   1.283  13.356 -0.6476  0.1798 -0.3829
  354TMC3     C 5305   2.674   1.035  13.593 -0.7838 -0.0591 -0.3991
  354TMC3     O 5306   2.601   0.936  13.609  0.3740  0.3450  0.4387
  354TMC3     H 5307   2.746   1.287  13.536 -1.7031 -1.7282  3.8722
  354TMC3    H1 5308   2.533   0.955  13.390  0.3923 -0.6680  4.5497
  354TMC3    H2 5309   2.427   1.341  13.279 -0.6511  2.4650  1.3294
  354TMC3    C7 5310   2.470   1.121  13.202  0.0627 -0.0171  0.3056
  354TMC3    C8 5311   2.637   1.454  13.360  0.1579 -0.2123 -0.3026
  354TMC3    O1 5312   2.370   1.144  13.131  0.4368 -0.2513 -0.1952
  354TMC3    O2 5313   2.558   1.533  13.318  0.0511  0.1509 -0.1822
  355MPD2     C 5314   3.786   2.043  12.156 -0.2195 -0.5829  0.2356
  355MPD2    C1 5315   3.817   2.084  12.028  1.3276 -0.4657 -0.1879
  355MPD2    C2 5316   3.887   1.998  11.945  0.4449 -0.3440  0.5408
  355MPD2    C3 5317   3.949   1.888  11.995 -0.1010  0.7553 -0.0657
  355MPD2    C4 5318   3.922   1.849  12.127 -0.1707  0.0890  0.8588
  355MPD2    C5 5319   3.844   1.931  12.206  0.1242 -0.5320  0.4761
  355MPD2     H 5320   3.895   2.026  11.841 -2.6524 -0.8807  0.1644
  355MPD2    H1 5321   3.972   1.760  12.163  0.5841  0.3158  0.3716
  355MPD2    H2 5322   3.718   2.100  12.219 -2.3094 -1.4511 -1.2306
  355MPD2    H3 5323   3.816   1.894  12.303  0.1732  1.4990  1.2586
  355MPD2     N 5324   4.045   1.812  11.923 -0.4163 -0.2694 -0.1961
  355MPD2    H5 5325   4.061   1.717  11.957 -0.4737  1.0787  3.5285
  355MPD2    N1 5326   3.773   2.201  11.974 -0.1694 -0.1292  0.1733
  355MPD2    H7 5327   3.774   2.208  11.873 -1.2974 -0.0637  0.1569
  356TMC3    C1 5328   4.136   1.988  11.803 -0.1100 -0.6686 -0.0007
  356TMC3    C2 5329   4.130   2.060  11.682 -0.6325  0.1027 -0.0361
  356TMC3    C3 5330   4.193   2.180  11.680 -0.2792 -0.2548  0.1743
  356TMC3    C4 5331   4.204   2.033  11.911  0.6501 -0.1414  0.0121
  356TMC3    C5 5332   4.254   2.162  11.911  0.9127  0.5028 -0.1586
  356TMC3    C6 5333   4.252   2.238  11.793  0.2196 -0.3151 -0.0213
  356TMC3     C 5334   4.098   1.850  11.807 -0.0846  0.9536  0.2336
  356TMC3     O 5335   4.149   1.774  11.721  0.1599  0.1267 -0.1915
  356TMC3     H 5336   4.092   2.005  11.596 -0.0118 -0.9130  0.3345
  356TMC3    H1 5337   4.221   1.963  11.993 -1.2930  0.7212  1.1390
  356TMC3    H2 5338   4.293   2.338  11.791 -0.3106 -0.1219 -1.0204
  356TMC3    C7 5339   4.336   2.204  12.019 -0.1008 -0.6817 -0.2724
  356TMC3    C8 5340   4.167   2.257  11.558  0.3932 -0.1794 -0.7538
  356TMC3    O1 5341   4.385   2.125  12.094 -0.5984 -0.0269  0.1697
  356TMC3    O2 5342   4.051   2.243  11.513 -0.1854  0.1956  0.0306
  357MPD2     C 5343   2.919   0.297   1.323  0.1668  0.1469 -0.1629
  357MPD2    C1 5344   3.040   0.322   1.380  0.3779 -0.1974  0.1015
  357MPD2    C2 5345   3.109   0.222   1.425  0.0501 -0.0306 -0.1281
  357MPD2    C3 5346   3.060   0.097   1.426  0.2062  0.6729 -0.2647
  357MPD2    C4 5347   2.936   0.067   1.380  0.0489  0.0707  0.2685
  357MPD2    C5 5348   2.863   0.170   1.324  0.5662  0.2712 -0.7451
  357MPD2     H 5349   3.212   0.230   1.460  0.1996  1.6031 -0.9502
  357MPD2    H1 5350   2.892   4.689   1.378 -2.5793  1.2751 -2.1995
  357MPD2    H2 5351   2.870   0.378   1.270 -3.4289 -1.2245  1.0542
  357MPD2    H3 5352   2.770   0.150   1.272 -0.5559  2.9883  0.2502
  357MPD2     N 5353   3.129   4.717   1.486  1.1064 -0.9740 -0.0964
  357MPD2    H5 5354   3.106   4.619   1.474 -1.5754 -0.1677 -1.6045
  357MPD2    N1 5355   3.070   0.458   1.398  0.3301 -0.2057  0.0974
  357MPD2    H7 5356   2.999   0.525   1.368 -0.9356 -1.6599 -0.1784
  358TMC3    C1 5357   3.169   0.649   1.510 -0.0592 -0.3757 -0.1759
  358TMC3    C2 5358   3.091   0.738   1.443 -0.4563  0.2161 -0.1707
  358TMC3    C3 5359   3.111   0.873   1.471  0.1275  0.7794  0.8773
  358TMC3    C4 5360   3.262   0.692   1.602 -0.0785  0.9961 -0.0034
  358TMC3    C5 5361   3.271   0.826   1.631  0.5143 -0.0459  0.4747
  358TMC3    C6 5362   3.193   0.917   1.568  0.0767  0.2029  0.7608
  358TMC3     C 5363   3.172   0.504   1.476  0.0135  0.0769 -0.4763
  358TMC3     O 5364   3.268   0.439   1.521 -0.8625 -0.2743  0.0226
  358TMC3     H 5365   3.012   0.709   1.375  0.6769  1.5999 -2.1043
  358TMC3    H1 5366   3.312   0.613   1.657 -2.6927 -1.1091 -0.6425
  358TMC3    H2 5367   3.229   1.020   1.568 -0.6276  0.4574 -0.6819
  358TMC3    C7 5368   3.379   0.880   1.712  0.4088  0.2963 -0.0672
  358TMC3    C8 5369   3.043   0.974   1.392 -0.1523 -0.0858  0.1948
  358TMC3    O1 5370   3.438   0.981   1.676  0.1966  0.5838  0.1241
  358TMC3    O2 5371   3.011   0.939   1.280 -0.7475  0.1918 -0.1891
  359MPD2     C 5372   3.714   0.691  12.635  0.3454 -0.1678  0.0875
  359MPD2    C1 5373   3.697   0.715  12.498  0.5304  0.6161  0.2363
  359MPD2    C2 5374   3.569   0.725  12.447 -0.1338 -0.3958 -0.1923
  359MPD2    C3 5375   3.456   0.729  12.530  0.7499 -0.6505  0.6439
  359MPD2    C4 5376   3.476   0.721  12.662 -0.5265 -0.4501 -0.2624
  359MPD2    C5 5377   3.601   0.708  12.714 -0.3566 -0.2987 -0.3073
  359MPD2     H 5378   3.560   0.720  12.339 -1.6640  2.0537 -0.1727
  359MPD2    H1 5379   3.395   0.733  12.733  0.3065  0.3187  0.5425
  359MPD2    H2 5380   3.810   0.680  12.683  1.6900 -0.2746 -2.6332
  359MPD2    H3 5381   3.613   0.713  12.822 -0.6271 -1.1761 -0.2390
  359MPD2     N 5382   3.322   0.735  12.495 -0.2037 -0.3188 -0.6997
  359MPD2    H5 5383   3.254   0.723  12.570  0.4152  1.3831  0.1209
  359MPD2    N1 5384   3.810   0.720  12.416  0.7385 -0.0335  0.0199
  359MPD2    H7 5385   3.785   0.742  12.320  1.3380 -2.9561 -0.8140
  360TMC3    C1 5386   4.024   0.735  12.328  0.1270  0.1248 -0.1716
  360TMC3    C2 5387   4.158   0.744  12.347  0.2077 -0.0633  0.5564
  360TMC3    C3 5388   4.241   0.758  12.244  0.6764 -0.9204 -0.3604
  360TMC3    C4 5389   3.971   0.726  12.201 -0.1904  0.6906 -0.6164
  360TMC3    C5 5390   4.059   0.733  12.103 -0.3108  0.4163  0.0280
  360TMC3    C6 5391   4.193   0.756  12.120 -0.3097 -0.6431  0.5572
  360TMC3     C 5392   3.942   0.703  12.443  0.5503 -0.4725 -0.2541
  360TMC3     O 5393   3.996   0.657  12.545  0.5527 -0.1737  0.8752
  360TMC3     H 5394   4.197   0.759  12.446 -1.7714  2.8883  0.8825
  360TMC3    H1 5395   3.864   0.727  12.184 -0.3122 -0.2066  0.0895
  360TMC3    H2 5396   4.246   0.777  12.028  0.2552 -0.5111  0.9170
  360TMC3    C7 5397   4.007   0.755  11.971  0.1905 -0.4705  0.0129
  360TMC3    C8 5398   4.370   0.818  12.276  1.2425  0.2359 -0.2102
  360TMC3    O1 5399   4.046   0.852  11.912  0.5239  0.3765  0.0279
  360TMC3    O2 5400   4.393   0.854  12.389  0.0086 -0.0128  0.1387
  361MPD2     C 5401   4.596   4.076  16.639  0.0732  0.1466  0.4277
  361MPD2    C1 5402   4.658   4.165  16.725 -0.3888  0.2486 -0.2673
  361MPD2    C2 5403   0.062   4.136  16.768 -0.6118 -0.5635  0.1346
  361MPD2    C3 5404   0.127   4.015  16.736 -0.0298  0.6674  0.4549
  361MPD2    C4 5405   0.064   3.924  16.656 -0.1984 -0.0467 -0.7539
  361MPD2    C5 5406   4.663   3.962  16.598  0.0457 -0.1410 -0.4336
  361MPD2     H 5407   0.106   4.206  16.837  1.3776 -2.4820  0.7884
  361MPD2    H1 5408   0.113   3.831  16.628  1.2059  0.7713 -0.9850
  361MPD2    H2 5409   4.512   4.116  16.583 -0.9471 -0.5270  1.4997
  361MPD2    H3 5410   4.610   3.898  16.529  0.7666 -1.1352 -0.0802
  361MPD2     N 5411   0.255   3.979  16.787  0.3235  0.4161 -0.0671
  361MPD2    H5 5412   0.304   3.893  16.761 -0.0332  0.4054 -0.7034
  361MPD2    N1 5413   4.597   4.285  16.768 -0.2477 -0.6604  0.1956
  361MPD2    H7 5414   4.652   4.360  16.808  0.0989 -1.6182  1.5033
  362TMC3    C1 5415   4.432   4.428  16.837  0.0587 -0.8205 -0.1231
  362TMC3    C2 5416   4.328   4.425  16.927 -0.4730 -0.0047 -0.5313
  362TMC3    C3 5417   4.265   4.545  16.952 -0.0587 -0.7707  0.0031
  362TMC3    C4 5418   4.491   4.543  16.796  0.0502 -0.4053  0.5363
  362TMC3    C5 5419   4.426   4.658  16.836 -0.8985 -0.7347 -0.1051
  362TMC3    C6 5420   4.311   4.660  16.909 -0.0955  0.5219 -0.4499
  362TMC3     C 5421   4.464   4.302  16.778  0.2861 -0.2913 -0.1451
  362TMC3     O 5422   4.383   4.211  16.765 -0.2514  0.7079  0.1944
  362TMC3     H 5423   4.282   4.331  16.955  0.2427 -0.2419 -0.1441
  362TMC3    H1 5424   4.574   4.542  16.726 -0.3953 -2.0981  0.0170
  362TMC3    H2 5425   4.283   0.035  16.949 -0.1173  0.0907  0.5739
  362TMC3    C7 5426   4.459   0.062  16.763 -0.1185 -0.5229  0.4652
  362TMC3    C8 5427   4.134   4.536  17.004 -0.1722  0.6993 -0.5755
  362TMC3    O1 5428   4.368   0.136  16.749 -0.0709  0.7474 -0.3628
  362TMC3    O2 5429   4.085   4.424  16.997 -0.0380 -0.1144 -0.9841
  363TMC3    C1 5430   0.584   2.562   9.551 -1.3941  0.4714 -0.4105
  363TMC3    C2 5431   0.582   2.500   9.670 -0.7937 -0.2010  0.4275
  363TMC3    C3 5432   0.494   2.400   9.695 -0.0240  0.0266 -0.4022
  363TMC3    C4 5433   0.483   2.552   9.458 -0.3287  0.1653  0.2411
  363TMC3    C5 5434   0.382   2.474   9.502 -0.0846 -0.2252  0.6788
  363TMC3    C6 5435   0.389   2.388   9.607 -0.0919 -0.4965  0.3488
  363TMC3     C 5436   0.659   2.689   9.544 -0.2904 -0.9030 -0.1179
  363TMC3     O 5437   0.606   2.791   9.499 -0.2599  0.1546 -0.3422
  363TMC3     H 5438   0.643   2.534   9.753  0.1748  0.7321 -0.6696
  363TMC3    H1 5439   0.482   2.627   9.380  0.7817 -0.3007 -0.2185
  363TMC3    H2 5440   0.301   2.333   9.638 -0.4194  0.4432  1.0630
  363TMC3    C7 5441   0.252   2.483   9.447  0.8994  0.1049  0.0075
  363TMC3    C8 5442   0.460   2.353   9.828  0.7026 -0.3481 -0.3310
  363TMC3    O1 5443   0.157   2.432   9.504  0.3000  0.2902  0.1042
  363TMC3    O2 5444   0.491   2.418   9.925  0.1885  0.5817 -0.1532
  364MPD2     C 5445   3.029   1.357  10.158  0.2599 -0.2779 -0.0773
  364MPD2    C1 5446   3.002   1.439  10.263 -0.2858  1.0766 -0.4637
  364MPD2    C2 5447   2.924   1.397  10.371  0.0842 -0.0425 -0.1681
  364MPD2    C3 5448   2.885   1.257  10.372 -0.2158  0.1837 -0.4033
  364MPD2    C4 5449   2.915   1.177  10.263  0.1209  0.1409  0.6246
  364MPD2    C5 5450   2.983   1.223  10.159  0.3671 -0.2898  0.2580
  364MPD2     H 5451   2.896   1.468  10.448  0.6559  0.0419 -0.0390
  364MPD2    H1 5452   2.884   1.073  10.264 -1.0000  0.4744  1.1132
  364MPD2    H2 5453   3.086   1.391  10.073 -2.5128  1.1448 -1.3854
  364MPD2    H3 5454   3.010   1.166  10.071  0.9959  0.1851  0.1401
  364MPD2     N 5455   2.821   1.199  10.484 -0.0995 -0.4974 -0.5102
  364MPD2    H5 5456   2.803   1.099  10.479  0.5008 -0.6979  0.9971
  364MPD2    N1 5457   3.065   1.568  10.272 -0.5840  0.4885 -0.7187
  364MPD2    H7 5458   3.138   1.583  10.204 -0.8482  0.4832 -1.0026
  365TMC3    C1 5459   3.160   1.763  10.367  0.2850 -0.3793 -0.1313
  365TMC3    C2 5460   3.274   1.740  10.297 -0.0628 -0.4699 -0.3018
  365TMC3    C3 5461   3.371   1.840  10.288 -0.4052  0.6527 -0.3433
  365TMC3    C4 5462   3.136   1.880  10.432  0.2438 -0.1218  0.4154
  365TMC3    C5 5463   3.237   1.970  10.430 -0.0479 -0.3903 -0.3302
  365TMC3    C6 5464   3.347   1.957  10.352  0.4837  0.3842 -0.0596
  365TMC3     C 5465   3.049   1.666  10.367 -0.3235 -0.0434 -1.3472
  365TMC3     O 5466   2.949   1.686  10.436  0.6375  0.6254 -0.3863
  365TMC3     H 5467   3.287   1.652  10.235  1.0473 -0.6048  0.1214
  365TMC3    H1 5468   3.047   1.893  10.493  1.1040 -1.6139  2.0232
  365TMC3    H2 5469   3.428   2.029  10.354 -0.3937  1.2713  3.5760
  365TMC3    C7 5470   3.220   2.102  10.489 -0.0719 -0.1579  0.9191
  365TMC3    C8 5471   3.444   1.854  10.168 -0.7972 -0.5088  0.0496
  365TMC3    O1 5472   3.295   2.188  10.445  0.0111 -0.2597 -0.0925
  365TMC3    O2 5473   3.471   1.972  10.145  0.1253  0.6482 -0.2138
  366MPD2     C 5474   0.339   2.420  15.377  0.3246 -0.3239  0.5169
  366MPD2    C1 5475   0.450   2.502  15.390  1.1027 -0.2863  0.0524
  366MPD2    C2 5476   0.574   2.448  15.360 -0.5718  0.0574 -0.0348
  366MPD2    C3 5477   0.593   2.316  15.330 -0.5100 -0.2835  0.2636
  366MPD2    C4 5478   0.479   2.235  15.340  0.4824  0.7652  0.6820
  366MPD2    C5 5479   0.359   2.286  15.360 -0.9016  0.0989  0.2285
  366MPD2     H 5480   0.659   2.515  15.355 -0.1560 -0.4357  0.3254
  366MPD2    H1 5481   0.500   2.130  15.325  0.8308  0.7116  1.5767
  366MPD2    H2 5482   0.239   2.446  15.411  0.7409  1.3269  0.4610
  366MPD2    H3 5483   0.274   2.218  15.363  0.6970 -1.8288  2.4500
  366MPD2     N 5484   0.722   2.266  15.294 -0.6289  0.4718  0.3501
  366MPD2    H5 5485   0.799   2.333  15.293 -0.5172  0.3573  1.0480
  366MPD2    N1 5486   0.442   2.643  15.408 -0.8265 -0.3569 -0.4844
  366MPD2    H7 5487   0.529   2.695  15.406  0.0671 -1.8761 -0.2409
  367TMC3    C1 5488   0.347   2.855  15.446 -0.0195 -0.5250 -0.6581
  367TMC3    C2 5489   0.456   2.873  15.532  0.4913 -0.1793  1.3750
  367TMC3    C3 5490   0.520   2.992  15.524 -0.0148 -0.2904 -0.6372
  367TMC3    C4 5491   0.319   2.941  15.337  0.4791 -0.0363  0.3387
  367TMC3    C5 5492   0.396   3.052  15.329  0.0241 -0.0074 -0.2923
  367TMC3    C6 5493   0.494   3.074  15.421 -0.0822 -0.2437 -0.5257
  367TMC3     C 5494   0.323   2.712  15.408 -0.2279  0.4625 -0.2068
  367TMC3     O 5495   0.203   2.678  15.403  0.2535 -0.3071 -0.7286
  367TMC3     H 5496   0.507   2.798  15.592 -0.3470  0.3218  2.7181
  367TMC3    H1 5497   0.240   2.921  15.266  0.5337  0.4388  0.1503
  367TMC3    H2 5498   0.553   3.163  15.407  0.6788 -0.3018  2.2406
  367TMC3    C7 5499   0.391   3.145  15.221  0.2733  0.3550  0.3854
  367TMC3    C8 5500   0.614   3.024  15.631 -0.1376 -0.0172 -0.1344
  367TMC3    O1 5501   0.449   3.252  15.232 -0.5570  0.0865 -0.0380
  367TMC3    O2 5502   0.603   2.944  15.725 -0.0179 -0.0997  0.2806
  368MPD2     C 5503   1.947   4.572  13.126 -0.3583 -0.5627  0.5960
  368MPD2    C1 5504   1.977   4.703  13.151 -0.5245  0.4421  0.1473
  368MPD2    C2 5505   2.111   0.017  13.138 -0.4738  0.2078 -0.5044
  368MPD2    C3 5506   2.208   4.646  13.109 -0.8544  0.2096  0.6969
  368MPD2    C4 5507   2.172   4.518  13.082 -0.5319  0.1391 -0.1157
  368MPD2    C5 5508   2.042   4.475  13.093 -0.2654 -0.0400 -0.6399
  368MPD2     H 5509   2.129   0.123  13.151  1.1149  0.1346 -2.1412
  368MPD2    H1 5510   2.245   4.456  13.031 -0.4434  2.2267 -2.5216
  368MPD2    H2 5511   1.844   4.539  13.127 -0.4385 -0.3069  0.6931
  368MPD2    H3 5512   2.009   4.374  13.073  0.2216  0.1086 -2.1740
  368MPD2     N 5513   2.345   4.684  13.092  0.2597 -0.0780  0.1338
  368MPD2    H5 5514   2.411   4.609  13.070  0.6406  0.1915  0.3523
  368MPD2    N1 5515   1.870   0.065  13.180 -0.3899  0.6628  0.5812
  368MPD2    H7 5516   1.781   0.017  13.180 -0.2387  0.3812  2.3721
  369TMC3    C1 5517   1.724   0.246  13.222  0.0754  0.6725  0.4514
  369TMC3    C2 5518   1.698   0.372  13.269  0.6621  0.6684 -0.4965
  369TMC3    C3 5519   1.564   0.404  13.304  0.5072  0.5028  0.5055
  369TMC3    C4 5520   1.624   0.155  13.207 -0.1021 -0.2377 -0.5524
  369TMC3    C5 5521   1.495   0.182  13.241  0.0930  0.2941 -0.0132
  369TMC3    C6 5522   1.466   0.307  13.298 -0.5226  0.1403  0.1419
  369TMC3     C 5523   1.864   0.200  13.211  0.4004  0.1065 -0.6714
  369TMC3     O 5524   1.951   0.287  13.220 -0.1734  0.4451  0.3074
  369TMC3     H 5525   1.769   0.454  13.259  0.4627  1.1878  2.4452
  369TMC3    H1 5526   1.633   0.059  13.156  0.1752  0.2430 -1.4118
  369TMC3    H2 5527   1.363   0.334  13.317 -0.2461  1.2536  0.0401
  369TMC3    C7 5528   1.394   0.106  13.188  0.5342  0.3534  0.1914
  369TMC3    C8 5529   1.511   0.538  13.283 -0.4176  0.1197 -0.7590
  369TMC3    O1 5530   1.292   0.085  13.254 -0.0993 -0.5931  0.3104
  369TMC3    O2 5531   1.411   0.541  13.215  0.3645 -0.0507  0.7790
  370TMC3    C1 5532   1.069   0.292  16.017 -0.1713  0.6482 -0.3125
  370TMC3    C2 5533   0.972   0.225  16.092  0.6090 -0.6441 -0.0502
  370TMC3    C3 5534   0.965   0.087  16.090 -0.0469 -0.0246  0.2638
  370TMC3    C4 5535   1.166   0.219  15.945  0.0011 -0.6998 -0.0523
  370TMC3    C5 5536   1.161   0.082  15.953 -0.1327 -0.0933  0.2922
  370TMC3    C6 5537   1.060   0.018  16.017  0.1389  0.1007 -0.1873
  370TMC3     C 5538   1.096   0.422  16.066 -0.6624 -0.0100 -0.1646
  370TMC3     O 5539   1.038   0.452  16.169  0.5756 -0.3125  0.5233
  370TMC3     H 5540   0.887   0.280  16.131  1.1167 -1.6780  2.5308
  370TMC3    H1 5541   1.253   0.255  15.892  0.0286  3.5203  2.8838
  370TMC3    H2 5542   1.066   4.631  16.026  1.1164  0.1967  0.3093
  370TMC3    C7 5543   1.214   0.013  15.834  0.1163  0.3249 -0.9195
  370TMC3    C8 5544   0.932   0.025  16.220  0.0905  0.8378  0.2913
  370TMC3    O1 5545   1.196   0.062  15.723  0.5402  0.2234 -0.4879
  370TMC3    O2 5546   0.967   4.633  16.237 -0.4078  0.0764  0.0979
  371TMC3    C1 5547   2.531   3.084  15.655 -0.0528  0.1725  0.0888
  371TMC3    C2 5548   2.446   3.122  15.757 -0.0966 -0.1985 -0.3658
  371TMC3    C3 5549   2.399   3.249  15.763  0.9371 -0.0502 -0.4275
  371TMC3    C4 5550   2.593   3.183  15.578  0.4328  0.8801 -0.4346
  371TMC3    C5 5551   2.555   3.312  15.590 -0.8596 -0.7810  0.7693
  371TMC3    C6 5552   2.451   3.345  15.675  0.2058  0.4032 -0.6110
  371TMC3     C 5553   2.592   2.952  15.660  0.0681 -0.4577 -0.8563
  371TMC3     O 5554   2.707   2.940  15.612 -0.1261 -0.0790 -0.1595
  371TMC3     H 5555   2.403   3.046  15.821  0.8000 -0.0674  0.3943
  371TMC3    H1 5556   2.654   3.145  15.497 -0.0906 -0.0530 -0.4006
  371TMC3    H2 5557   2.427   3.450  15.687  0.5538  0.5953 -1.5687
  371TMC3    C7 5558   2.615   3.423  15.514 -0.3383 -0.4176  0.4351
  371TMC3    C8 5559   2.296   3.286  15.860  0.2731 -0.4922 -0.1925
  371TMC3    O1 5560   2.564   3.532  15.501  0.1109 -0.6373 -0.6727
  371TMC3    O2 5561   2.250   3.190  15.921 -0.3067 -0.1386  0.2097
  372MPD2     C 5562   2.361   0.064  13.447 -0.1266 -0.5499 -0.0686
  372MPD2    C1 5563   2.466   4.702  13.488 -0.0107  0.5235  0.1502
  372MPD2    C2 5564   2.443   4.568  13.500 -0.0600  0.1758 -0.3792
  372MPD2    C3 5565   2.312   4.527  13.498  0.0354 -0.0966  0.4522
  372MPD2    C4 5566   2.207   4.608  13.458 -0.4941  0.2592 -0.2229
  372MPD2    C5 5567   2.229   0.019  13.447  0.0019 -0.6481  0.2484
  372MPD2     H 5568   2.521   4.504  13.538 -0.2064 -0.5314 -1.2824
  372MPD2    H1 5569   2.104   4.574  13.450 -0.9666  1.9011 -1.1290
  372MPD2    H2 5570   2.375   0.172  13.440 -3.6227 -0.1390 -0.8246
  372MPD2    H3 5571   2.149   0.083  13.411  0.7199  1.3310  2.1814
  372MPD2     N 5572   2.286   4.390  13.526  0.2773  0.1863  0.9490
  372MPD2    H5 5573   2.366   4.339  13.564  0.9609  1.3584  1.0703
  372MPD2    N1 5574   2.596   0.031  13.515 -0.3562 -0.5631 -0.1237
  372MPD2    H7 5575   2.672   4.688  13.535 -0.0884 -0.1317  0.2359
  373TMC3    C1 5576   2.178   4.195  13.594  0.2351 -0.7750  0.6417
  373TMC3    C2 5577   2.112   4.202  13.709  0.2770  0.3004 -0.4237
  373TMC3    C3 5578   2.156   4.129  13.819  0.0383 -0.4879 -0.0472
  373TMC3    C4 5579   2.298   4.124  13.577 -0.2898 -0.4879 -0.0886
  373TMC3    C5 5580   2.336   4.042  13.681  1.2933 -0.3889  0.0402
  373TMC3    C6 5581   2.268   4.045  13.803 -0.4554  0.6587  0.6446
  373TMC3     C 5582   2.165   4.328  13.531  0.2054  0.3694  0.0024
  373TMC3     O 5583   2.049   4.361  13.505  0.3689  0.4506 -0.2557
  373TMC3     H 5584   2.021   4.260  13.719  0.7234  0.6395  1.6841
  373TMC3    H1 5585   2.353   4.145  13.485 -1.9248 -1.4476 -1.2817
  373TMC3    H2 5586   2.294   3.982  13.886  0.1664  1.8288  1.3375
  373TMC3    C7 5587   2.454   3.956  13.667  0.8156 -0.2422  0.4407
  373TMC3    C8 5588   2.161   4.196  13.942  0.7890 -0.3666  0.0675
  373TMC3    O1 5589   2.519   3.952  13.561  0.0287 -0.7567 -0.0491
  373TMC3    O2 5590   2.172   4.134  14.046 -0.6544  0.1964 -0.2851
  374TMC3    C1 5591   3.917   0.804   9.413  0.7938 -0.8509  0.2683
  374TMC3    C2 5592   3.980   0.898   9.491 -0.5071  0.7592  0.0548
  374TMC3    C3 5593   4.094   0.949   9.439 -0.1532  0.0869  0.3076
  374TMC3    C4 5594   3.939   0.787   9.278 -0.0603  0.7325 -0.3668
  374TMC3    C5 5595   4.041   0.867   9.226  0.5672  0.5062  0.1872
  374TMC3    C6 5596   4.120   0.940   9.304 -0.7689  0.0048 -1.3244
  374TMC3     C 5597   3.799   0.737   9.462  0.4139  0.5592  0.0917
  374TMC3     O 5598   3.756   0.777   9.572  0.1158 -0.2768 -0.3793
  374TMC3     H 5599   3.943   0.903   9.593  0.8239 -2.7502  0.7054
  374TMC3    H1 5600   3.897   0.714   9.210 -0.4551  1.8079 -1.2614
  374TMC3    H2 5601   4.206   0.991   9.260  0.1622  1.5380  2.2831
  374TMC3    C7 5602   4.064   0.863   9.082 -0.2985 -0.1576  0.2079
  374TMC3    C8 5603   4.182   1.029   9.530 -0.7142  0.5952 -0.0453
  374TMC3    O1 5604   4.176   0.887   9.042  0.2620  0.3500  0.2488
  374TMC3    O2 5605   4.269   1.095   9.478 -0.6724  0.3743  0.2076
  375MPD2     C 5606   2.300   0.657  16.260 -0.2167 -0.0453 -0.1697
  375MPD2    C1 5607   2.270   0.524  16.291  0.2907 -0.6213 -0.2510
  375MPD2    C2 5608   2.317   0.420  16.214  0.2859 -0.2283 -0.2448
  375MPD2    C3 5609   2.383   0.459  16.094 -0.3641  0.7276  0.3138
  375MPD2    C4 5610   2.401   0.587  16.060  0.0407  0.0372 -0.2100
  375MPD2    C5 5611   2.360   0.683  16.140 -0.4086  0.2400  0.1200
  375MPD2     H 5612   2.292   0.317  16.235  2.2063 -0.4168  1.0506
  375MPD2    H1 5613   2.467   0.617  15.979  2.0184 -1.4336  0.8371
  375MPD2    H2 5614   2.257   0.743  16.309  0.2646 -0.7274  1.4493
  375MPD2    H3 5615   2.378   0.786  16.113 -0.2617  0.2051  0.0903
  375MPD2     N 5616   2.450   0.365  16.015  0.5035  0.8974 -0.1457
  375MPD2    H5 5617   2.479   0.394  15.922  0.1742  0.0098 -0.5286
  375MPD2    N1 5618   2.176   0.498  16.394  0.6953  0.6561  0.2329
  375MPD2    H7 5619   2.134   0.406  16.400  0.0765  1.0865  2.5106
  376TMC3    C1 5620   2.561   0.177  15.946 -0.2207 -0.4098 -0.0919
  376TMC3    C2 5621   2.648   0.078  15.996  0.4687  0.0529  0.1691
  376TMC3    C3 5622   2.752   0.034  15.911 -1.2495  0.0293  0.1729
  376TMC3    C4 5623   2.562   0.227  15.819 -0.2341  0.1849 -0.2685
  376TMC3    C5 5624   2.646   0.161  15.731 -0.5135 -0.1830  0.0940
  376TMC3    C6 5625   2.744   0.073  15.780  0.1325 -0.6291 -0.7156
  376TMC3     C 5626   2.475   0.236  16.051 -0.1379 -0.6116 -1.0403
  376TMC3     O 5627   2.444   0.178  16.156  0.3956 -0.1848 -0.0395
  376TMC3     H 5628   2.637   0.045  16.099  1.1049 -1.8380 -0.3605
  376TMC3    H1 5629   2.486   0.296  15.782 -0.4762 -0.1179 -0.3407
  376TMC3    H2 5630   2.829   0.038  15.721  2.7079  1.6788  1.6055
  376TMC3    C7 5631   2.659   0.206  15.593 -0.9262 -0.1459  0.3558
  376TMC3    C8 5632   2.879   0.087  15.969  0.6411 -0.5206  0.7626
  376TMC3    O1 5633   2.606   0.316  15.575  0.8345  0.3758 -0.0776
  376TMC3    O2 5634   2.942   0.162  15.897 -0.7720  0.1444  0.4645
  377MPD2     C 5635   0.994   0.363  12.109  0.4869  0.8003 -0.3338
  377MPD2    C1 5636   1.053   0.295  12.211 -0.0021 -0.4925  0.0095
  377MPD2    C2 5637   0.970   0.222  12.297 -0.6188 -0.1681  0.4190
  377MPD2    C3 5638   0.830   0.224  12.277 -0.4385  0.3036  0.3811
  377MPD2    C4 5639   0.782   0.292  12.172  0.2698  0.4762 -0.4476
  377MPD2    C5 5640   0.863   0.361  12.087 -0.0841  0.0265  0.0669
  377MPD2     H 5641   1.012   0.162  12.377  0.4636 -0.2604 -0.2271
  377MPD2    H1 5642   0.677   0.301  12.146 -0.2511 -1.3854  1.0485
  377MPD2    H2 5643   1.056   0.414  12.036  2.2491 -1.8125 -0.6528
  377MPD2    H3 5644   0.818   0.415  12.004  0.2369 -0.1361 -0.2120
  377MPD2     N 5645   0.742   0.153  12.357 -0.1848 -0.7595  0.4867
  377MPD2    H5 5646   0.643   0.169  12.342 -0.2613 -1.1778  0.5677
  377MPD2    N1 5647   1.196   0.292  12.219  0.1247 -0.2024  0.1605
  377MPD2    H7 5648   1.251   0.351  12.158 -0.2499  1.0719  1.0522
  378TMC3    C1 5649   1.588   0.288  12.177 -0.7278  0.2123 -0.1900
  378TMC3    C2 5650   1.456   0.304  12.198  0.1360  0.3356 -0.3221
  378TMC3    C3 5651   1.410   0.270  12.329 -0.5613  0.5869 -0.8349
  378TMC3    C4 5652   1.682   0.263  12.276 -0.1143  0.5159 -0.0482
  378TMC3    C5 5653   1.625   0.224  12.397 -0.5196 -0.2898  0.5269
  378TMC3    C6 5654   1.492   0.231  12.428 -0.3281  0.1619  0.2455
  378TMC3     C 5655   1.633   0.362  12.056  0.2862 -0.3694 -0.6685
  378TMC3     O 5656   1.560   0.446  12.002  0.0036  0.5950  0.0355
  378TMC3     H 5657   1.400   0.332  12.110  0.8338  0.9225 -0.5773
  378TMC3    H1 5658   1.789   0.267  12.261  0.2594 -1.0711  2.1305
  378TMC3    H2 5659   1.455   0.198  12.525 -1.5203 -0.1155 -0.3111
  378TMC3    C7 5660   1.713   0.188  12.510  0.3499  1.0220  0.1816
  378TMC3    C8 5661   1.265   0.255  12.330  0.1729  0.0242  0.4658
  378TMC3    O1 5662   1.680   0.211  12.629 -0.3974  0.3812  0.6266
  378TMC3    O2 5663   1.222   0.223  12.440  0.1277  0.3328  0.1423
  379MPD2     C 5664   1.199   2.962  16.719 -0.4334 -0.7230  0.0786
  379MPD2    C1 5665   1.258   2.866  16.637  0.0403  0.0814  0.3931
  379MPD2    C2 5666   1.353   2.772  16.683  0.5774  0.3133 -0.8838
  379MPD2    C3 5667   1.380   2.759  16.818 -0.6786  0.4868  0.2600
  379MPD2    C4 5668   1.304   2.835  16.902 -0.1396  0.1223 -0.0849
  379MPD2    C5 5669   1.233   2.944  16.853  0.5736  1.0794 -0.0635
  379MPD2     H 5670   1.401   2.693  16.626  1.2455  0.1312 -0.0817
  379MPD2    H1 5671   1.302   2.827  17.010 -1.3735 -0.8388 -0.1763
  379MPD2    H2 5672   1.135   3.043  16.686 -1.6880 -1.9000 -0.3353
  379MPD2    H3 5673   1.187   3.011  16.925 -0.7689  0.7995 -0.6623
  379MPD2     N 5674   1.468   2.668  16.876  0.1958 -0.3358 -0.5498
  379MPD2    H5 5675   1.461   2.673  16.977 -0.1065  1.6265 -0.6719
  379MPD2    N1 5676   1.223   2.878  16.502  0.0672 -0.2397  0.5511
  379MPD2    H7 5677   1.165   2.956  16.473  0.6387  1.1635  3.1647
  380TMC3    C1 5678   1.227   2.816  16.272  0.3671  0.5699 -0.2357
  380TMC3    C2 5679   1.266   2.723  16.174 -0.7217 -0.1293 -0.4998
  380TMC3    C3 5680   1.244   2.745  16.041 -0.3772 -1.0103  1.0355
  380TMC3    C4 5681   1.191   2.938  16.230 -0.0577 -0.3362  0.2798
  380TMC3    C5 5682   1.170   2.955  16.098 -0.2266  0.0191  0.4413
  380TMC3    C6 5683   1.183   2.861  16.003 -0.5107 -0.2692  0.2422
  380TMC3     C 5684   1.252   2.783  16.406 -0.1549  0.4579 -0.0477
  380TMC3     O 5685   1.293   2.669  16.424  0.1282  0.1333 -0.2118
  380TMC3     H 5686   1.313   2.631  16.207  0.5531  0.4184 -0.7838
  380TMC3    H1 5687   1.184   3.031  16.285 -0.3382 -0.1866 -0.0132
  380TMC3    H2 5688   1.156   2.866  15.898 -3.0335  1.1421  0.9572
  380TMC3    C7 5689   1.110   3.079  16.058 -0.2163  0.1096  0.1316
  380TMC3    C8 5690   1.358   2.706  15.969 -0.9128 -0.1615  0.4142
  380TMC3    O1 5691   1.156   3.181  16.111 -0.0874  0.9681 -0.1605
  380TMC3    O2 5692   1.411   2.600  15.989  0.2475 -0.4879  0.1090
  381TMC3    C1 5693   1.126   4.101  16.333  0.4407  0.3064  0.0309
  381TMC3    C2 5694   1.204   4.190  16.265 -0.2932  0.1083 -0.6696
  381TMC3    C3 5695   1.198   4.325  16.295  0.6179 -0.4848  0.1054
  381TMC3    C4 5696   1.040   4.145  16.437 -0.7220 -0.4428  0.0021
  381TMC3    C5 5697   1.030   4.275  16.466  0.5834 -0.4240  0.6409
  381TMC3    C6 5698   1.122   4.361  16.413  0.3009 -0.2522 -0.0583
  381TMC3     C 5699   1.128   3.958  16.313 -0.2939 -0.1201  0.2417
  381TMC3     O 5700   1.050   3.886  16.372  0.5278 -0.7003 -0.5137
  381TMC3     H 5701   1.274   4.167  16.186  0.1676  0.3128 -0.3234
  381TMC3    H1 5702   0.968   4.080  16.486  1.3288 -1.5878  1.4782
  381TMC3    H2 5703   1.107   4.464  16.444  2.3464  0.4138 -1.2889
  381TMC3    C7 5704   1.006   4.271  16.607  0.0158 -0.3755  0.1279
  381TMC3    C8 5705   1.286   4.420  16.233 -0.5058 -1.0852 -0.2502
  381TMC3    O1 5706   1.067   4.190  16.671  0.1416 -0.3840 -0.8021
  381TMC3    O2 5707   1.358   4.384  16.141 -0.0861 -0.6160 -0.4409
  382MPD2     C 5708   0.755   2.031  17.263 -0.1348 -0.1825 -0.2100
  382MPD2    C1 5709   0.658   2.126  17.267  0.3229 -0.4861  0.9771
  382MPD2    C2 5710   0.528   2.092  17.246 -0.0313  0.1316  0.0130
  382MPD2    C3 5711   0.492   1.965  17.202  0.4676 -0.3965 -0.1406
  382MPD2    C4 5712   0.596   1.870  17.199 -0.3396 -0.2000  0.1403
  382MPD2    C5 5713   0.726   1.901  17.231 -0.4185 -0.2670 -0.0306
  382MPD2     H 5714   0.448   2.165  17.252  0.0762  0.2266  0.2613
  382MPD2    H1 5715   0.576   1.770  17.162  0.8592 -0.1071 -0.7615
  382MPD2    H2 5716   0.858   2.051  17.291 -0.1732 -2.9286  1.9817
  382MPD2    H3 5717   0.805   1.830  17.213  0.3940  1.1779 -2.1211
  382MPD2     N 5718   0.356   1.922  17.180 -0.4828 -0.1021 -0.0085
  382MPD2    H5 5719   0.342   1.822  17.176 -3.1677  0.3194 -1.5237
  382MPD2    N1 5720   0.681   2.261  17.296 -0.0313  0.0440  0.5240
  382MPD2    H7 5721   0.607   2.330  17.296 -1.0224 -1.0211  2.1775
  383TMC3    C1 5722   0.132   1.923  17.252  0.3071 -0.4316  0.4909
  383TMC3    C2 5723   0.064   1.841  17.167  0.4420  0.2001 -0.1107
  383TMC3    C3 5724   4.704   1.745  17.236  0.1354 -0.3193 -0.0384
  383TMC3    C4 5725   0.150   1.895  17.385  0.4696  1.0067  0.4155
  383TMC3    C5 5726   0.078   1.803  17.441 -0.2853 -0.2242 -0.4381
  383TMC3    C6 5727   4.703   1.729  17.373  0.3587 -0.3028 -0.1687
  383TMC3     C 5728   0.238   2.002  17.204  0.1684  0.0896  0.0803
  383TMC3     O 5729   0.222   2.123  17.226  0.7099  0.5067 -0.1582
  383TMC3     H 5730   0.046   1.875  17.066 -1.6885  2.1300  0.9223
  383TMC3    H1 5731   0.220   1.952  17.445  1.2288  0.6328 -0.1056
  383TMC3    H2 5732   4.636   1.654  17.414 -0.8131  0.6341 -0.3892
  383TMC3    C7 5733   0.092   1.791  17.583 -0.6317  0.3931  0.0224
  383TMC3    C8 5734   4.617   1.667  17.155  0.6405  1.1400  0.7454
  383TMC3    O1 5735   0.191   1.837  17.641  0.5792 -0.2684  0.0904
  383TMC3    O2 5736   4.585   1.712  17.043  0.1708 -0.6503 -0.2868
  384MPD2     C 5737   2.704   3.397  12.014 -0.1110 -0.0693 -0.4532
  384MPD2    C1 5738   2.717   3.301  12.116  0.1777 -0.4230 -0.1463
  384MPD2    C2 5739   2.757   3.175  12.077 -0.4830  0.2034 -0.1184
  384MPD2    C3 5740   2.777   3.140  11.941 -0.8361  0.1423 -0.0344
  384MPD2    C4 5741   2.766   3.236  11.840 -0.0657 -1.0730 -0.8917
  384MPD2    C5 5742   2.727   3.360  11.885  0.3056  0.8312  0.3709
  384MPD2     H 5743   2.777   3.099  12.152  0.3950 -1.1874 -1.7670
  384MPD2    H1 5744   2.779   3.215  11.735  1.6081  1.3857 -1.1802
  384MPD2    H2 5745   2.684   3.500  12.040  0.3921 -0.6411  2.2085
  384MPD2    H3 5746   2.715   3.431  11.803 -1.3091  1.4613  1.1507
  384MPD2     N 5747   2.838   3.014  11.915  0.0104 -0.4187  0.5404
  384MPD2    H5 5748   2.856   2.949  11.991 -0.9154 -0.8579  0.3870
  384MPD2    N1 5749   2.690   3.319  12.251 -0.1082  0.6478 -0.0247
  384MPD2    H7 5750   2.682   3.229  12.297  0.6940  0.6306  0.0823
  385TMC3    C1 5751   2.915   2.829  11.817  0.3741  0.0897  0.0402
  385TMC3    C2 5752   2.841   2.722  11.770 -0.5546 -0.1382 -0.2827
  385TMC3    C3 5753   2.836   2.613  11.862 -0.0925  0.4844 -0.4546
  385TMC3    C4 5754   2.979   2.830  11.938 -0.9200  1.1880  0.8240
  385TMC3    C5 5755   2.987   2.718  12.017 -0.4920 -0.7333 -0.7770
  385TMC3    C6 5756   2.916   2.607  11.975  0.1248  0.1062  0.3329
  385TMC3     C 5757   2.852   2.955  11.795 -0.0244 -0.1538 -0.2575
  385TMC3     O 5758   2.825   2.986  11.679 -0.0005  0.0771 -0.4945
  385TMC3     H 5759   2.761   2.730  11.697  1.1419 -1.3293 -2.2707
  385TMC3    H1 5760   3.046   2.913  11.952  0.0317  0.3856  1.0378
  385TMC3    H2 5761   2.926   2.518  12.037  2.0756 -0.7038 -1.1495
  385TMC3    C7 5762   2.944   2.753  12.153 -0.0405 -0.2330  0.5712
  385TMC3    C8 5763   2.776   2.488  11.828  0.1258  0.2497  0.6562
  385TMC3    O1 5764   2.938   2.874  12.168 -0.0662  0.0636 -0.9299
  385TMC3    O2 5765   2.756   2.404  11.918  0.3035  0.5539 -0.2647
  386TMC3    C1 5766   2.165   0.570  11.951  0.1100 -0.3182  0.0307
  386TMC3    C2 5767   2.198   0.626  11.827 -0.0514 -1.2794 -0.2472
  386TMC3    C3 5768   2.134   0.738  11.781 -0.1278  0.3182  0.1460
  386TMC3    C4 5769   2.061   0.613  12.026 -0.0216  0.6978 -0.1550
  386TMC3    C5 5770   1.993   0.715  11.972  0.0726 -0.4176  0.1926
  386TMC3    C6 5771   2.016   0.774  11.845  0.3279  0.0341 -0.5439
  386TMC3     C 5772   2.254   0.475  12.013  0.3340 -0.9984 -0.2512
  386TMC3     O 5773   2.213   0.432  12.121 -0.4274 -0.0650 -0.2970
  386TMC3     H 5774   2.265   0.574  11.759  0.4262  1.1872 -1.6513
  386TMC3    H1 5775   2.034   0.572  12.123 -0.6813  3.9022  1.0023
  386TMC3    H2 5776   1.952   0.849  11.801 -0.2390  0.1610  0.4791
  386TMC3    C7 5777   1.878   0.766  12.046  0.3245  0.3680 -0.0227
  386TMC3    C8 5778   2.149   0.783  11.643  0.2133  0.2314 -0.3085
  386TMC3    O1 5779   1.877   0.728  12.161 -0.2078  0.7107  0.4430
  386TMC3    O2 5780   2.048   0.801  11.574 -0.3993 -0.2549 -0.3430
  387MPD2     C 5781   0.366   0.853   9.385 -0.4261  0.2498  0.3434
  387MPD2    C1 5782   0.459   0.840   9.484 -0.1926 -0.0308  0.4234
  387MPD2    C2 5783   0.523   0.718   9.506  0.1343 -0.1145 -0.5037
  387MPD2    C3 5784   0.499   0.611   9.424  0.3319  0.0526  0.7054
  387MPD2    C4 5785   0.405   0.617   9.321 -0.0867 -0.7133  0.8195
  387MPD2    C5 5786   0.349   0.744   9.302  1.4633  0.0527 -0.3772
  387MPD2     H 5787   0.586   0.701   9.593  0.3959  0.2524 -0.6268
  387MPD2    H1 5788   0.383   0.535   9.254  0.8476  0.1228 -0.5104
  387MPD2    H2 5789   0.303   0.940   9.376 -0.5139  0.3158  1.5647
  387MPD2    H3 5790   0.278   0.748   9.220  0.7027  1.1077  0.3292
  387MPD2     N 5791   0.570   0.496   9.462 -0.9845 -0.2660  0.0737
  387MPD2    H5 5792   0.637   0.510   9.537 -1.3289  2.3269 -0.0890
  387MPD2    N1 5793   0.490   0.924   9.589  0.1391  0.3968 -0.8399
  387MPD2    H7 5794   0.565   0.892   9.649  0.2324  0.7891 -0.7508
  388TMC3    C1 5795   0.456   1.093   9.751 -0.4566  0.2088 -0.0972
  388TMC3    C2 5796   0.468   1.226   9.780  1.0568  0.3686  0.2467
  388TMC3    C3 5797   0.496   1.258   9.910  0.0898  0.9356  0.1003
  388TMC3    C4 5798   0.453   0.997   9.847 -0.2872 -0.3207  0.1580
  388TMC3    C5 5799   0.473   1.031   9.980  0.0399 -0.2239  0.4780
  388TMC3    C6 5800   0.483   1.165  10.015  0.6371 -0.2290  0.2558
  388TMC3     C 5801   0.433   1.046   9.618 -0.5236 -0.1635  0.3575
  388TMC3     O 5802   0.371   1.115   9.541 -0.0886 -0.3175 -0.0099
  388TMC3     H 5803   0.485   1.295   9.698  1.9620  1.0058  0.9723
  388TMC3    H1 5804   0.439   0.894   9.814  1.1458 -0.2642 -0.6355
  388TMC3    H2 5805   0.513   1.210  10.109 -2.3603  1.4103  0.4362
  388TMC3    C7 5806   0.513   0.932  10.082 -0.1080 -0.9736 -0.7934
  388TMC3    C8 5807   0.499   1.394   9.956  0.3207 -0.2347  0.4908
  388TMC3    O1 5808   0.543   0.955  10.197  0.0394 -0.5616 -0.7617
  388TMC3    O2 5809   0.430   1.420  10.057 -0.0084 -0.1288  0.1654
  389MPD2     C 5810   0.198   3.467  11.173  0.3288 -0.5142  0.3080
  389MPD2    C1 5811   0.113   3.400  11.081  0.3115  0.0154 -0.2679
  389MPD2    C2 5812   0.014   3.326  11.132  0.5763  0.1600 -0.7143
  389MPD2    C3 5813   4.715   3.310  11.268 -0.0028 -0.1429  0.1205
  389MPD2    C4 5814   0.079   3.370  11.352 -0.4110 -0.9961  0.0907
  389MPD2    C5 5815   0.177   3.445  11.307  0.3016  0.8136 -0.1704
  389MPD2     H 5816   4.660   3.285  11.065  1.6768  0.6921 -2.2782
  389MPD2    H1 5817   0.070   3.366  11.459  1.7268  0.5016  0.3228
  389MPD2    H2 5818   0.275   3.538  11.144 -0.3540 -0.5048 -1.4781
  389MPD2    H3 5819   0.246   3.494  11.375 -0.0260  1.1091 -0.0476
  389MPD2     N 5820   4.610   3.230  11.323  0.1924 -0.0465 -0.1013
  389MPD2    H5 5821   4.603   3.230  11.424  1.4668 -0.8503 -0.0089
  389MPD2    N1 5822   0.128   3.401  10.942  0.4683  0.8347  0.7263
  389MPD2    H7 5823   0.059   3.349  10.888  1.6489  0.3113 -0.2800
  390TMC3    C1 5824   4.410   3.106  11.327 -0.1331  0.3072 -0.4880
  390TMC3    C2 5825   4.378   3.148  11.450  0.2309 -0.1653 -0.5391
  390TMC3    C3 5826   4.247   3.131  11.485 -0.1860 -0.8785  0.0355
  390TMC3    C4 5827   4.323   3.035  11.252  0.0367 -1.0953 -0.2190
  390TMC3    C5 5828   4.188   3.037  11.289 -0.0838 -0.8670  0.4218
  390TMC3    C6 5829   4.148   3.074  11.407  0.2832  0.5076 -0.3103
  390TMC3     C 5830   4.527   3.151  11.254 -0.2588 -0.2410 -0.2043
  390TMC3     O 5831   4.523   3.131  11.131 -0.7507 -0.3839 -0.0837
  390TMC3     H 5832   4.437   3.217  11.510 -0.4370 -1.0392  1.1145
  390TMC3    H1 5833   4.349   3.002  11.152 -1.2659 -0.7718 -0.6537
  390TMC3    H2 5834   4.045   3.081  11.442 -0.1251 -1.8919 -1.0383
  390TMC3    C7 5835   4.097   2.996  11.189  0.5895 -0.6962  0.4379
  390TMC3    C8 5836   4.214   3.133  11.628 -0.3987  0.2721 -0.3744
  390TMC3    O1 5837   4.144   2.985  11.078  0.3493 -0.0417 -0.1661
  390TMC3    O2 5838   4.276   3.208  11.701  0.0641  0.2014 -0.0379
  391MPD2     C 5839   3.875   0.281  10.909  0.3556 -0.0874  0.0099
  391MPD2    C1 5840   3.979   0.360  10.956  0.7676 -0.3719  0.4954
  391MPD2    C2 5841   4.019   0.455  10.867  0.5562 -0.4070  1.0009
  391MPD2    C3 5842   3.985   0.466  10.728 -0.1144 -0.6367 -0.7086
  391MPD2    C4 5843   3.887   0.382  10.680 -0.3647 -0.8102  0.0953
  391MPD2    C5 5844   3.836   0.291  10.774  0.9236 -1.3803  0.0446
  391MPD2     H 5845   4.091   0.529  10.900 -2.0267  2.6254 -0.2710
  391MPD2    H1 5846   3.851   0.368  10.579 -1.6485 -0.3223  0.4715
  391MPD2    H2 5847   3.822   0.198  10.955 -0.8881  1.4368  1.3149
  391MPD2    H3 5848   3.751   0.236  10.736 -0.8501  0.4218  1.4176
  391MPD2     N 5849   4.039   0.572  10.655 -0.2288 -0.1730 -0.5339
  391MPD2    H5 5850   4.126   0.613  10.689  1.6941 -2.0753 -3.0589
  391MPD2    N1 5851   4.031   0.348  11.087  0.9285  0.6064 -0.1536
  391MPD2    H7 5852   3.999   0.269  11.141  0.7970 -0.0916 -1.2540
  392TMC3    C1 5853   4.088   0.731  10.488  0.6715  0.2866  0.5645
  392TMC3    C2 5854   4.060   0.770  10.357  0.3176  0.4420 -0.6061
  392TMC3    C3 5855   4.125   0.886  10.317  0.1267  0.0541 -0.2421
  392TMC3    C4 5856   4.159   0.809  10.574 -0.3031 -0.3487 -0.7833
  392TMC3    C5 5857   4.224   0.917  10.531  0.1055  0.4312  0.6830
  392TMC3    C6 5858   4.208   0.964  10.399 -0.3125  0.1818  0.2168
  392TMC3     C 5859   4.007   0.615  10.531 -0.1887  0.2178 -0.4020
  392TMC3     O 5860   3.909   0.590  10.461  0.2102  0.3179  0.0578
  392TMC3     H 5861   4.004   0.711  10.287 -2.2664  0.3769  1.5366
  392TMC3    H1 5862   4.161   0.787  10.680  0.6738  3.0315 -0.1102
  392TMC3    H2 5863   4.259   1.054  10.365 -0.6250 -0.7119 -2.6411
  392TMC3    C7 5864   4.300   0.994  10.626  0.6223  0.4446  0.7610
  392TMC3    C8 5865   4.137   0.908  10.174 -0.5996  0.2341 -0.6459
  392TMC3    O1 5866   4.282   0.961  10.743 -0.3323  0.4384  0.1971
  392TMC3    O2 5867   4.103   0.815  10.097  0.3790  0.3165  0.4492
  393TMC3    C1 5868   3.187   2.993  10.535  0.7200 -0.1053  0.1819
  393TMC3    C2 5869   3.071   2.915  10.532  0.0946 -0.1865  0.0077
  393TMC3    C3 5870   3.073   2.782  10.485 -0.3301  0.6802  0.3023
  393TMC3    C4 5871   3.306   2.939  10.497  0.0458  0.2863  0.6457
  393TMC3    C5 5872   3.303   2.803  10.465 -0.4039 -0.5756  0.2544
  393TMC3    C6 5873   3.191   2.724  10.449 -1.2480 -0.3074  0.5480
  393TMC3     C 5874   3.153   3.132  10.500 -0.4185  0.2473  0.0192
  393TMC3     O 5875   3.041   3.157  10.455  0.1617  0.3966  0.0871
  393TMC3     H 5876   2.976   2.964  10.549 -0.2624 -0.1782 -2.0648
  393TMC3    H1 5877   3.395   3.000  10.496 -0.6546  1.2900 -1.1430
  393TMC3    H2 5878   3.200   2.626  10.405  0.7841 -0.7800  2.0427
  393TMC3    C7 5879   3.422   2.735  10.425  0.2519  0.1841  0.2816
  393TMC3    C8 5880   2.949   2.725  10.430 -0.1651 -0.2465  0.7030
  393TMC3    O1 5881   3.427   2.614  10.455 -0.4383  0.6645 -0.1622
  393TMC3    O2 5882   2.957   2.634  10.343  0.0134  0.3055 -0.5297
  394TMC3    C1 5883   0.157   3.477  10.727 -0.1646 -0.4462  0.0534
  394TMC3    C2 5884   0.030   3.422  10.700  0.5827  0.3905  0.0885
  394TMC3    C3 5885   4.703   3.445  10.571 -0.6559  0.2525 -0.4384
  394TMC3    C4 5886   0.240   3.522  10.628  0.1091 -0.0813 -0.4082
  394TMC3    C5 5887   0.185   3.529  10.502  0.0044  0.6117  0.2585
  394TMC3    C6 5888   0.056   3.502  10.464 -0.7435  0.1173  0.0812
  394TMC3     C 5889   0.219   3.469  10.860  0.3149 -0.4165 -0.2545
  394TMC3     O 5890   0.317   3.535  10.891  0.7481  0.1999 -0.4238
  394TMC3     H 5891   4.682   3.370  10.765  0.1864  1.1930  0.3131
  394TMC3    H1 5892   0.338   3.562  10.652 -0.8207  1.9901 -0.0094
  394TMC3    H2 5893   0.023   3.529  10.365 -2.6295 -0.7735  0.4774
  394TMC3    C7 5894   0.281   3.580  10.404  0.7507 -0.5833 -0.2202
  394TMC3    C8 5895   4.590   3.364  10.537 -0.1925  0.2533 -0.0799
  394TMC3    O1 5896   0.362   3.663  10.442 -0.3772 -0.0601  0.0211
  394TMC3    O2 5897   4.547   3.288  10.621  0.1338 -0.3978  0.4088
  395TMC3    C1 5898   4.050   0.595  14.966  0.0810  0.4033 -0.3228
  395TMC3    C2 5899   4.065   0.499  14.872  0.0126 -0.3224 -0.1810
  395TMC3    C3 5900   4.155   0.525  14.775 -0.2621 -0.7316 -0.6342
  395TMC3    C4 5901   4.092   0.723  14.951 -0.1534  0.0158 -0.1408
  395TMC3    C5 5902   4.184   0.745  14.850  0.1757 -0.5471  0.3453
  395TMC3    C6 5903   4.219   0.646  14.759 -0.0714 -0.2679 -0.0021
  395TMC3     C 5904   3.952   0.568  15.068 -0.2555 -0.0187  0.0834
  395TMC3     O 5905   3.898   0.667  15.112  0.3957  0.2248  0.4523
  395TMC3     H 5906   4.010   0.405  14.880  0.6272 -0.6438  0.3104
  395TMC3    H1 5907   4.068   0.801  15.023 -1.4951 -0.2205 -0.3407
  395TMC3    H2 5908   4.294   0.668  14.685  0.6215 -1.1224  0.4479
  395TMC3    C7 5909   4.217   0.883  14.805  0.2770 -0.0400  0.5601
  395TMC3    C8 5910   4.161   0.442  14.652  0.2521  0.3426 -0.7774
  395TMC3    O1 5911   4.263   0.951  14.894 -0.1085 -0.2259 -0.4529
  395TMC3    O2 5912   4.245   0.469  14.575  0.2403 -0.3356  0.5789
  396MPD2     C 5913   2.666   2.122   0.371 -0.9944 -0.2235  0.6507
  396MPD2    C1 5914   2.693   2.090   0.235  0.3954  0.5904 -0.2927
  396MPD2    C2 5915   2.672   2.186   0.140 -0.4832  0.8980  0.5086
  396MPD2    C3 5916   2.644   2.316   0.174 -0.3952  0.4620 -0.2759
  396MPD2    C4 5917   2.619   2.344   0.305 -0.1532 -0.7186 -0.0898
  396MPD2    C5 5918   2.628   2.250   0.401  0.4117  0.1733 -0.4600
  396MPD2     H 5919   2.680   2.152   0.037  1.7788  0.8015  0.7030
  396MPD2    H1 5920   2.595   2.443   0.344  1.6529 -0.9583  1.6410
  396MPD2    H2 5921   2.676   2.054   0.455 -1.2630 -1.1424 -0.0559
  396MPD2    H3 5922   2.609   2.278   0.504  3.1756 -0.8640  0.3280
  396MPD2     N 5923   2.628   2.402   0.064 -0.1844  0.3607 -0.1436
  396MPD2    H5 5924   2.610   2.363  17.660  1.8079 -0.9452  0.0185
  396MPD2    N1 5925   2.706   1.954   0.203 -0.9291 -0.4634 -0.2721
  396MPD2    H7 5926   2.695   1.889   0.280 -1.5109  1.9665  1.7186
  397TMC3    C1 5927   2.678   1.754   0.065  0.0528 -0.2531  0.3758
  397TMC3    C2 5928   2.644   1.746  17.622  0.0193  0.6591  0.1947
  397TMC3    C3 5929   2.661   1.629  17.546 -0.1000 -0.0914  0.1670
  397TMC3    C4 5930   2.759   1.650   0.110 -0.4820 -0.3016 -0.0605
  397TMC3    C5 5931   2.801   1.548   0.026  0.2115 -0.5437 -0.0226
  397TMC3    C6 5932   2.747   1.529  17.594  0.0526 -0.3832 -0.2225
  397TMC3     C 5933   2.722   1.897   0.076 -0.2088 -0.8549 -0.3090
  397TMC3     O 5934   2.760   1.949  17.657  0.0335 -0.2762  0.2595
  397TMC3     H 5935   2.570   1.814  17.581 -0.6764  0.5228  1.2231
  397TMC3    H1 5936   2.801   1.659   0.210 -1.2905 -1.2189  0.3512
  397TMC3    H2 5937   2.759   1.447  17.524  2.2474 -0.2746  0.0419
  397TMC3    C7 5938   2.830   1.422   0.088 -0.2500 -1.2067  0.1281
  397TMC3    C8 5939   2.649   1.648  17.404 -0.1416  0.2357 -0.2999
  397TMC3    O1 5940   2.788   1.320   0.036 -0.4234 -0.0388 -0.0984
  397TMC3    O2 5941   2.666   1.762  17.361 -0.2479  0.3179 -0.3483
  398MPD2     C 5942   1.074   2.836   0.545 -0.5341  0.0433 -0.6627
  398MPD2    C1 5943   1.178   2.767   0.481  0.6590 -0.0679 -0.1269
  398MPD2    C2 5944   1.307   2.795   0.508 -0.5573  0.0985 -0.3053
  398MPD2    C3 5945   1.339   2.906   0.587 -0.0669  1.4494  0.1649
  398MPD2    C4 5946   1.235   2.979   0.644  0.3873  0.7632  0.1018
  398MPD2    C5 5947   1.108   2.940   0.627 -0.2242 -0.7171  0.3863
  398MPD2     H 5948   1.386   2.732   0.469 -0.3347  0.7377 -0.8978
  398MPD2    H1 5949   1.252   3.072   0.697 -0.4052  0.7608  0.3610
  398MPD2    H2 5950   0.967   2.818   0.543 -0.3632 -1.1361  0.1697
  398MPD2    H3 5951   1.027   3.002   0.664 -0.2493 -0.9479  0.7208
  398MPD2     N 5952   1.472   2.933   0.620 -1.3447  0.8935 -0.3272
  398MPD2    H5 5953   1.543   2.872   0.581 -1.7799  0.1456  0.0532
  398MPD2    N1 5954   1.161   2.640   0.415  0.4292  0.1370 -0.2791
  398MPD2    H7 5955   1.242   2.588   0.383  0.5198 -1.3905  2.5203
  399TMC3    C1 5956   1.053   2.429   0.377 -0.1050  0.2265 -0.0445
  399TMC3    C2 5957   1.174   2.363   0.412  0.7834  0.5453  0.0625
  399TMC3    C3 5958   1.179   2.221   0.398 -0.6131 -0.0403  0.7063
  399TMC3    C4 5959   0.945   2.355   0.338 -0.0644  0.1568  0.0064
  399TMC3    C5 5960   0.955   2.221   0.332 -0.3202 -0.6720 -0.0210
  399TMC3    C6 5961   1.064   2.151   0.364  0.4165  0.3184 -0.2311
  399TMC3     C 5962   1.042   2.567   0.417 -0.1131  0.0127 -0.8084
  399TMC3     O 5963   0.933   2.621   0.429  0.1431  0.9024 -0.5382
  399TMC3     H 5964   1.261   2.418   0.447  1.3651 -0.6212  0.4646
  399TMC3    H1 5965   0.853   2.402   0.307  0.5036  0.5492 -1.0857
  399TMC3    H2 5966   1.054   2.043   0.359  2.6518  0.2391 -2.7289
  399TMC3    C7 5967   0.847   2.137   0.287  0.0038 -0.2354 -0.6858
  399TMC3    C8 5968   1.306   2.169   0.426  0.2758  0.4200  0.1799
  399TMC3    O1 5969   0.837   2.022   0.327 -0.2054 -0.0032  0.3618
  399TMC3    O2 5970   1.388   2.245   0.478 -0.0223 -0.0014 -0.2844
  400TMC3    C1 5971   0.078   1.274  16.947  0.1881  0.3021  0.6873
  400TMC3    C2 5972   4.680   1.282  16.888 -0.5912 -0.0306  0.4175
  400TMC3    C3 5973   4.649   1.401  16.823 -0.7485 -0.2982  0.3069
  400TMC3    C4 5974   0.167   1.372  16.947 -0.3367 -0.4778  0.2862
  400TMC3    C5 5975   0.142   1.486  16.878 -0.4181 -0.0083  0.0031
  400TMC3    C6 5976   0.018   1.501  16.811 -1.2565  0.2851 -0.3380
  400TMC3     C 5977   0.128   1.134  16.944  0.2448 -0.4406  0.1072
  400TMC3     O 5978   0.039   1.048  16.935  0.3563 -0.0119 -0.3117
  400TMC3     H 5979   4.597   1.216  16.911 -1.2078  1.3633  2.2496
  400TMC3    H1 5980   0.254   1.360  17.011 -1.4963 -1.7727  1.6194
  400TMC3    H2 5981   4.711   1.590  16.755 -0.2555  0.5322 -0.4598
  400TMC3    C7 5982   0.247   1.584  16.896  0.1140  0.1761  0.8747
  400TMC3    C8 5983   4.529   1.418  16.740 -0.0469 -0.3934  0.5290
  400TMC3    O1 5984   0.350   1.546  16.953 -0.4960  0.0097 -0.1816
  400TMC3    O2 5985   4.506   1.533  16.704 -0.3523  0.0958 -0.0743
  401MPD2     C 5986   2.636   4.587   1.042  0.5434 -0.2880  0.2160
  401MPD2    C1 5987   2.766   4.539   1.052  0.5526 -0.4761 -0.0825
  401MPD2    C2 5988   2.777   4.405   1.074  0.1625  0.9509 -0.9060
  401MPD2    C3 5989   2.673   4.318   1.073  0.1897 -0.8549  0.0387
  401MPD2    C4 5990   2.544   4.364   1.061  0.2517  0.2971 -0.3021
  401MPD2    C5 5991   2.529   4.500   1.039  0.3445  0.1277  0.4688
  401MPD2     H 5992   2.878   4.369   1.089 -0.5146 -0.7801 -0.4927
  401MPD2    H1 5993   2.462   4.296   1.040 -1.3356  1.5979  1.6608
  401MPD2    H2 5994   2.612   4.692   1.034 -2.0501 -0.8707  0.2889
  401MPD2    H3 5995   2.432   4.542   1.016  0.0082 -0.3643  0.9850
  401MPD2     N 5996   2.703   4.184   1.072 -0.0497  0.4201  0.2940
  401MPD2    H5 5997   2.802   4.159   1.072 -0.2902 -0.5316  0.6623
  401MPD2    N1 5998   2.881   4.622   1.040  0.0297 -0.3625  0.2920
  401MPD2    H7 5999   2.970   4.582   1.068  0.4181  0.0774 -0.3012
  402TMC3    C1 6000   2.668   3.953   1.114  0.8334  0.4346  0.2132
  402TMC3    C2 6001   2.700   3.889   1.228 -0.5575  0.0237  0.3826
  402TMC3    C3 6002   2.801   3.803   1.228  0.4280 -0.5531  0.0130
  402TMC3    C4 6003   2.738   3.928   1.001  0.1547 -0.9195  0.6028
  402TMC3    C5 6004   2.850   3.846   1.004  0.2576 -0.1463 -0.6178
  402TMC3    C6 6005   2.886   3.786   1.121 -0.0343 -0.3656 -0.3483
  402TMC3     C 6006   2.619   4.090   1.127 -0.0631 -0.3500  0.0650
  402TMC3     O 6007   2.517   4.109   1.188  0.0238 -0.1020  0.1517
  402TMC3     H 6008   2.650   3.921   1.319 -2.4151 -2.7440  0.3296
  402TMC3    H1 6009   2.712   3.986   0.913 -0.1769  2.3593  2.8384
  402TMC3    H2 6010   2.955   3.703   1.124 -1.2235 -1.3136  1.1350
  402TMC3    C7 6011   2.929   3.839   0.883  0.4078  0.6522 -0.0796
  402TMC3    C8 6012   2.852   3.735   1.351  1.1227 -0.1362 -0.4308
  402TMC3    O1 6013   2.875   3.884   0.783 -0.0558  0.2646  1.4465
  402TMC3    O2 6014   2.969   3.706   1.343 -0.2484 -0.0958 -0.5340
  403MPD2     C 6015   2.049   3.026  13.416  0.1977  0.0358  0.0436
  403MPD2    C1 6016   2.057   2.929  13.511 -0.2975  0.7074 -0.1561
  403MPD2    C2 6017   2.153   2.945  13.610 -0.6632 -0.0730 -0.4728
  403MPD2    C3 6018   2.231   3.058  13.624  0.0314 -0.0241 -0.4694
  403MPD2    C4 6019   2.217   3.153  13.534  0.4838  0.5934 -0.7825
  403MPD2    C5 6020   2.129   3.132  13.431 -0.4432  0.8289  0.1740
  403MPD2     H 6021   2.177   2.871  13.686  1.4349  1.1606  0.0578
  403MPD2    H1 6022   2.289   3.234  13.524  0.2440  1.1342  1.9001
  403MPD2    H2 6023   1.994   3.020  13.323 -0.6529 -1.5515  0.6466
  403MPD2    H3 6024   2.125   3.207  13.352 -1.8228  1.1121  0.5206
  403MPD2     N 6025   2.323   3.059  13.733  0.1681  0.2975  0.1999
  403MPD2    H5 6026   2.328   2.971  13.785  1.6874 -0.8573 -1.9144
  403MPD2    N1 6027   1.985   2.802  13.487 -0.7574 -0.0996  0.3871
  403MPD2    H7 6028   1.947   2.775  13.397  4.0729 -1.8470 -1.0871
  404TMC3    C1 6029   1.898   2.589  13.538 -0.1988  0.0258  0.2259
  404TMC3    C2 6030   1.890   2.488  13.632 -0.0711 -0.3158  0.3295
  404TMC3    C3 6031   1.883   2.364  13.585  0.0862 -0.2118  0.3192
  404TMC3    C4 6032   1.905   2.562  13.405 -0.2777  0.1223  0.9394
  404TMC3    C5 6033   1.886   2.435  13.365  0.3724  0.5469 -0.0863
  404TMC3    C6 6034   1.872   2.336  13.453 -0.0196  0.0031  0.2498
  404TMC3     C 6035   1.969   2.705  13.586 -0.5910  0.3266 -0.6690
  404TMC3     O 6036   2.003   2.698  13.704  0.0307 -0.3822 -0.0360
  404TMC3     H 6037   1.906   2.504  13.738  0.5350  1.2161  0.0056
  404TMC3    H1 6038   1.897   2.642  13.332  1.7450  0.4939  1.1123
  404TMC3    H2 6039   1.862   2.231  13.426  0.5331 -0.4689  1.9158
  404TMC3    C7 6040   1.873   2.419  13.227 -0.6979  0.0531 -0.2968
  404TMC3    C8 6041   1.873   2.258  13.679  0.0442 -0.3336 -0.4510
  404TMC3    O1 6042   1.807   2.322  13.187 -0.0778 -0.1932 -0.0680
  404TMC3    O2 6043   1.935   2.150  13.650 -0.1524 -0.1463  0.1444
  405MPD2     C 6044   2.233   3.312  14.540 -0.0862 -0.0964  0.4011
  405MPD2    C1 6045   2.162   3.205  14.485  0.2280 -0.4928  0.0725
  405MPD2    C2 6046   2.099   3.228  14.365 -0.2817 -0.2047  0.0350
  405MPD2    C3 6047   2.091   3.360  14.313 -0.1801 -0.3876 -0.6915
  405MPD2    C4 6048   2.171   3.462  14.363  0.4490 -0.0810  0.6787
  405MPD2    C5 6049   2.238   3.436  14.478 -0.2418 -0.2977 -0.0588
  405MPD2     H 6050   2.042   3.150  14.316  1.1525 -1.3572  0.1978
  405MPD2    H1 6051   2.182   3.559  14.315 -1.5024 -0.4954 -0.6354
  405MPD2    H2 6052   2.286   3.311  14.635 -0.9371 -0.4941  0.8755
  405MPD2    H3 6053   2.297   3.514  14.525  1.3234 -2.6857  2.0103
  405MPD2     N 6054   2.001   3.376  14.205  0.3686 -0.3503 -0.0182
  405MPD2    H5 6055   1.950   3.292  14.179 -0.1819  0.3666 -1.2225
  405MPD2    N1 6056   2.163   3.079  14.555 -0.6426 -0.1557 -0.5423
  405MPD2    H7 6057   2.209   3.062  14.644 -0.9551  2.8903  0.1872
  406TMC3    C1 6058   1.630   3.526  14.139  0.2022 -0.5855 -1.1701
  406TMC3    C2 6059   1.593   3.392  14.140 -0.7554 -0.3272  0.3704
  406TMC3    C3 6060   1.680   3.305  14.084  0.6062  0.6723  0.1545
  406TMC3    C4 6061   1.741   3.581  14.099 -0.5349 -0.8304 -0.6018
  406TMC3    C5 6062   1.836   3.486  14.079 -0.2359  0.2760  0.2825
  406TMC3    C6 6063   1.810   3.353  14.061  1.2141 -0.1583 -0.0355
  406TMC3     C 6064   1.514   3.616  14.150  0.1854 -0.3016  0.3717
  406TMC3     O 6065   1.515   3.726  14.092  0.5921  0.9239 -0.1518
  406TMC3     H 6066   1.487   3.371  14.154 -0.5839  0.2569  2.5486
  406TMC3    H1 6067   1.766   3.683  14.123 -0.3282 -1.2870  1.1530
  406TMC3    H2 6068   1.880   3.283  14.017  0.1597 -1.4300  0.3204
  406TMC3    C7 6069   1.954   3.499  14.160 -0.3617 -0.0824 -0.1786
  406TMC3    C8 6070   1.689   3.176  14.147 -0.2020 -0.1031  0.5931
  406TMC3    O1 6071   1.991   3.611  14.188 -0.3604  0.4355 -0.4957
  406TMC3    O2 6072   1.804   3.148  14.184  0.0450 -0.0027  0.0557
  407MPD2     C 6073   0.055   0.053   9.423 -0.0291  0.2497  0.0086
  407MPD2    C1 6074   0.176   0.129   9.417  0.0938 -0.1806  0.3470
  407MPD2    C2 6075   0.206   0.205   9.528  0.6217 -0.1363 -0.2351
  407MPD2    C3 6076   0.118   0.223   9.630 -0.1925 -0.1432 -0.0804
  407MPD2    C4 6077   4.717   0.154   9.627  0.2235 -0.0459  0.2215
  407MPD2    C5 6078   4.689   0.074   9.527 -0.1228  0.3254  0.3368
  407MPD2     H 6079   0.304   0.252   9.526  0.4333  0.1988 -2.2475
  407MPD2    H1 6080   4.645   0.161   9.708  1.4814  0.9684  1.2523
  407MPD2    H2 6081   0.034   4.702   9.345 -0.6285  0.5456 -0.1089
  407MPD2    H3 6082   4.592   0.025   9.519  1.1130 -1.9475 -0.5053
  407MPD2     N 6083   0.134   0.300   9.746  0.3503 -0.4526  0.1363
  407MPD2    H5 6084   0.057   0.301   9.812 -1.5221 -0.9474 -2.0392
  407MPD2    N1 6085   0.275   0.123   9.318 -0.0865  0.1568  0.3164
  407MPD2    H7 6086   0.352   0.188   9.329 -1.1772  1.3229  0.9762
  408TMC3    C1 6087   0.377   0.060   9.123  0.1288  0.3845 -0.3930
  408TMC3    C2 6088   0.473   4.681   9.123  0.1961  0.6099  0.8777
  408TMC3    C3 6089   0.601   4.719   9.094  0.2478 -0.5822 -0.7088
  408TMC3    C4 6090   0.408   0.193   9.091  0.1256 -0.2410  0.4097
  408TMC3    C5 6091   0.536   0.221   9.047 -0.0799  0.1164 -0.2774
  408TMC3    C6 6092   0.631   0.122   9.048  0.4301 -0.3088 -0.3470
  408TMC3     C 6093   0.270   0.037   9.216  0.2633 -0.0467 -0.7317
  408TMC3     O 6094   0.216   4.648   9.205 -0.1422 -0.4213 -0.1700
  408TMC3     H 6095   0.448   4.582   9.160  1.1617 -0.1899 -0.5718
  408TMC3    H1 6096   0.338   0.273   9.115  1.1679  0.3450  1.5134
  408TMC3    H2 6097   0.731   0.139   9.009  1.7330 -3.1716  1.6924
  408TMC3    C7 6098   0.564   0.357   9.032 -0.2458  0.0284 -0.6333
  408TMC3    C8 6099   0.701   4.616   9.106 -0.2094  0.5225 -0.1151
  408TMC3    O1 6100   0.681   0.379   9.064 -0.0546  0.1897 -0.1889
  408TMC3    O2 6101   0.668   4.506   9.059  0.1313  0.0584  0.1281
  409MPD2     C 6102   3.498   0.841  16.851 -0.2157  0.4806  0.3700
  409MPD2    C1 6103   3.559   0.901  16.955  0.7998  0.9757  0.1351
  409MPD2    C2 6104   3.612   1.026  16.938 -0.5108  0.0638 -0.2839
  409MPD2    C3 6105   3.613   1.089  16.814  0.1683 -0.0602  0.2971
  409MPD2    C4 6106   3.551   1.035  16.711  0.5081  0.2935  0.1000
  409MPD2    C5 6107   3.497   0.905  16.730 -0.3521 -0.6093 -0.2573
  409MPD2     H 6108   3.654   1.072  17.027 -0.6253  1.3273 -0.8797
  409MPD2    H1 6109   3.560   1.076  16.611 -2.4736  0.9887  0.0944
  409MPD2    H2 6110   3.472   0.736  16.853  0.8826  0.2395  2.2248
  409MPD2    H3 6111   3.455   0.851  16.646 -0.5840  0.3512 -0.7698
  409MPD2     N 6112   3.682   1.212  16.801  0.3703 -0.3877 -0.1485
  409MPD2    H5 6113   3.701   1.240  16.705  0.4835 -0.2666 -0.0905
  409MPD2    N1 6114   3.605   0.831  17.070 -0.3133 -0.3980  0.4787
  409MPD2    H7 6115   3.641   0.892  17.143  2.9076 -1.0178 -0.6056
  410TMC3    C1 6116   3.827   1.386  16.828 -0.0949  0.3482  0.2702
  410TMC3    C2 6117   3.935   1.432  16.900 -0.0396 -0.4661  0.5914
  410TMC3    C3 6118   4.017   1.533  16.854  0.2598 -0.3751  1.2132
  410TMC3    C4 6119   3.802   1.446  16.707  0.1277 -0.1862  0.3737
  410TMC3    C5 6120   3.883   1.549  16.667  0.3334  0.5254 -0.1845
  410TMC3    C6 6121   3.993   1.595  16.735 -0.1448 -0.2989 -0.2280
  410TMC3     C 6122   3.751   1.283  16.894  0.0280 -0.1996 -1.1723
  410TMC3     O 6123   3.741   1.278  17.016  0.3052  0.8424 -0.7473
  410TMC3     H 6124   3.950   1.377  16.992 -0.3275  0.6478  1.3165
  410TMC3    H1 6125   3.717   1.423  16.643  0.2482  1.8608 -0.5537
  410TMC3    H2 6126   4.067   1.656  16.685 -1.3970  1.4862  0.0746
  410TMC3    C7 6127   3.860   1.597  16.530 -0.3447  0.0851  0.5803
  410TMC3    C8 6128   4.152   1.540  16.903  0.0329 -0.3405 -0.2424
  410TMC3    O1 6129   3.797   1.520  16.458  0.6405  0.0987  0.0635
  410TMC3    O2 6130   4.208   1.650  16.908 -0.4215 -0.1039 -0.0996
  411MPD2     C 6131   4.186   1.494  14.868 -1.0245  0.4367  0.5940
  411MPD2    C1 6132   4.133   1.512  14.742 -0.7454 -0.4373  0.5009
  411MPD2    C2 6133   4.053   1.411  14.688  0.4120  0.2888 -0.0418
  411MPD2    C3 6134   4.025   1.294  14.755  0.3600  0.4315  1.1919
  411MPD2    C4 6135   4.069   1.281  14.884 -0.3887 -0.1539 -0.4605
  411MPD2    C5 6136   4.155   1.375  14.937  0.1043 -0.4319 -0.1785
  411MPD2     H 6137   4.019   1.431  14.587 -0.9374 -0.3188  0.2982
  411MPD2    H1 6138   4.061   1.192  14.944 -1.0515 -0.1960 -0.6125
  411MPD2    H2 6139   4.262   1.562  14.905 -0.1988 -1.0929  1.7051
  411MPD2    H3 6140   4.191   1.354  15.037  1.8033  1.6062 -0.3674
  411MPD2     N 6141   3.946   1.186  14.697 -0.1817  0.6287 -0.1688
  411MPD2    H5 6142   3.933   1.101  14.750  2.3946  1.4406  1.7580
  411MPD2    N1 6143   4.162   1.634  14.686  0.2896  0.3044 -0.2621
  411MPD2    H7 6144   4.208   1.707  14.740  0.7309  0.5401 -0.9474
  412TMC3    C1 6145   3.811   1.077  14.539 -0.1280  0.4770 -0.1975
  412TMC3    C2 6146   3.721   1.092  14.434 -0.3618 -0.5355 -0.1830
  412TMC3    C3 6147   3.695   0.980  14.350  1.2870  0.0175  0.2154
  412TMC3    C4 6148   3.877   0.960  14.564 -0.2898  0.2843  0.6469
  412TMC3    C5 6149   3.854   0.855  14.483 -0.8444 -0.4829 -0.4945
  412TMC3    C6 6150   3.763   0.865  14.379  0.0230  0.1478  0.0742
  412TMC3     C 6151   3.868   1.206  14.580  0.1699 -0.2408  0.1583
  412TMC3     O 6152   3.832   1.303  14.517 -0.5812 -0.5215 -0.0975
  412TMC3     H 6153   3.659   1.181  14.426 -0.3304 -0.6224 -1.4103
  412TMC3    H1 6154   3.968   0.956  14.623 -0.4910  0.0548  0.9407
  412TMC3    H2 6155   3.735   0.772  14.331  1.5889  0.7878 -2.0820
  412TMC3    C7 6156   3.960   0.763  14.450  0.1915 -0.0115  0.2601
  412TMC3    C8 6157   3.731   1.012  14.215  0.4998 -0.2462 -0.8927
  412TMC3    O1 6158   4.033   0.712  14.530 -0.0583 -0.8226  0.6330
  412TMC3    O2 6159   3.809   0.930  14.165  0.4404 -0.0616 -0.3126
  413MPD2     C 6160   0.795   4.552  15.149 -0.0597 -0.6628 -1.1845
  413MPD2    C1 6161   0.733   4.459  15.231  0.4371  0.1070 -0.1343
  413MPD2    C2 6162   0.789   4.339  15.244  0.0688  0.5583 -0.1365
  413MPD2    C3 6163   0.906   4.304  15.183  0.3080  0.0590  0.4720
  413MPD2    C4 6164   0.968   4.399  15.107 -0.1612 -0.2778  0.3886
  413MPD2    C5 6165   0.914   4.521  15.090  0.1682 -0.1555  0.2070
  413MPD2     H 6166   0.721   4.273  15.296  0.2068  0.5945  0.0905
  413MPD2    H1 6167   1.049   4.368  15.042  0.7413 -1.1172  1.8998
  413MPD2    H2 6168   0.749   4.646  15.123  2.0134  0.4525 -0.8153
  413MPD2    H3 6169   0.958   4.588  15.017 -0.7158  1.3176  1.0541
  413MPD2     N 6170   0.967   4.180  15.185 -0.6489  0.7394 -0.8622
  413MPD2    H5 6171   1.060   4.169  15.144  0.2542 -0.0020  1.3632
  413MPD2    N1 6172   0.606   4.498  15.285 -0.4142 -0.2687 -0.4246
  413MPD2    H7 6173   0.572   4.591  15.263  3.6300  1.7587  2.0285
  414TMC3    C1 6174   1.003   3.961  15.246 -0.2629 -0.5719  0.6169
  414TMC3    C2 6175   1.043   3.920  15.370  0.1628  0.5717 -0.8296
  414TMC3    C3 6176   1.126   3.808  15.359 -0.4141  0.5642 -0.5249
  414TMC3    C4 6177   1.037   3.904  15.124  1.1521  0.2588 -0.1879
  414TMC3    C5 6178   1.118   3.797  15.127  0.1264 -0.7357  0.0469
  414TMC3    C6 6179   1.153   3.740  15.246 -0.7603 -0.1782 -0.3857
  414TMC3     C 6180   0.912   4.074  15.250  0.0420 -0.7618 -0.1536
  414TMC3     O 6181   0.820   4.071  15.329 -0.4518 -0.1300  0.2455
  414TMC3     H 6182   1.017   3.963  15.466 -1.8388  0.7138 -1.4495
  414TMC3    H1 6183   0.997   3.947  15.033  1.1895  0.7322  0.0202
  414TMC3    H2 6184   1.211   3.648  15.251 -0.3060  0.1556  0.3746
  414TMC3    C7 6185   1.195   3.762  15.009  0.2939  0.6069 -0.1947
  414TMC3    C8 6186   1.227   3.792  15.463  0.4101 -0.0729  0.3184
  414TMC3    O1 6187   1.159   3.814  14.906 -0.3878  0.0412  0.3274
  414TMC3    O2 6188   1.281   3.683  15.465 -0.4517 -0.6973 -0.6400
  415TMC3    C1 6189   2.776   2.100   9.852 -0.6441 -0.0281  0.1939
  415TMC3    C2 6190   2.909   2.134   9.826 -0.5025 -0.2257 -0.2798
  415TMC3    C3 6191   2.987   2.050   9.744  0.3498  0.1459  0.0314
  415TMC3    C4 6192   2.730   1.980   9.810  0.0217  0.0418  0.2595
  415TMC3    C5 6193   2.817   1.894   9.747 -0.5916  0.3726  0.2481
  415TMC3    C6 6194   2.941   1.930   9.702 -0.9307 -1.1126  0.1021
  415TMC3     C 6195   2.702   2.174   9.955  0.0991  0.3324 -0.0858
  415TMC3     O 6196   2.586   2.148   9.953 -0.6950 -0.3228  0.4411
  415TMC3     H 6197   2.945   2.230   9.860 -1.0001 -0.3778  0.6894
  415TMC3    H1 6198   2.626   1.954   9.827  0.0143 -0.6002 -0.7730
  415TMC3    H2 6199   2.998   1.865   9.637  0.5467  1.3890 -1.1002
  415TMC3    C7 6200   2.768   1.769   9.705 -0.9788 -0.4928  0.6422
  415TMC3    C8 6201   3.120   2.087   9.717 -0.4560 -0.0603  0.0972
  415TMC3    O1 6202   2.817   1.719   9.603  0.1370 -0.1112  0.1181
  415TMC3    O2 6203   3.197   1.995   9.700 -0.4833  0.4101 -0.1204
  416MPD2     C 6204   3.755   1.654  11.772  0.4914  0.3603  0.3455
  416MPD2    C1 6205   3.667   1.649  11.671 -0.0341  0.1561 -0.5183
  416MPD2    C2 6206   3.700   1.564  11.569  0.7810 -0.0012 -0.0521
  416MPD2    C3 6207   3.818   1.489  11.565 -0.2988 -0.1281 -0.0943
  416MPD2    C4 6208   3.905   1.496  11.673  0.7298 -0.2982  0.0224
  416MPD2    C5 6209   3.875   1.582  11.774 -0.0554  0.3602 -0.1191
  416MPD2     H 6210   3.630   1.549  11.487  0.1609 -0.2463  0.5222
  416MPD2    H1 6211   4.001   1.445  11.670  1.7051  1.4364  1.6549
  416MPD2    H2 6212   3.725   1.713  11.857  0.2503 -0.1767  0.6297
  416MPD2    H3 6213   3.946   1.592  11.854  0.8118  0.0195 -0.8433
  416MPD2     N 6214   3.842   1.391  11.470  0.3052  0.1542  0.0685
  416MPD2    H5 6215   3.933   1.345  11.470 -0.4885 -1.4244  0.3042
  416MPD2    N1 6216   3.549   1.713  11.698  0.5225  0.3365  0.4696
  416MPD2    H7 6217   3.545   1.768  11.783 -0.5946  0.1469  0.5510
  417TMC3    C1 6218   3.322   1.786  11.674 -0.3892 -0.3274  1.1564
  417TMC3    C2 6219   3.311   1.787  11.808 -0.7115 -1.2021  0.1877
  417TMC3    C3 6220   3.205   1.865  11.861 -0.2272 -0.1952 -0.8843
  417TMC3    C4 6221   3.238   1.837  11.584  0.4087 -0.0526  0.2535
  417TMC3    C5 6222   3.129   1.899  11.637  0.6964  0.2146 -0.8092
  417TMC3    C6 6223   3.121   1.929  11.775 -0.7069  0.6493  0.3934
  417TMC3     C 6224   3.442   1.724  11.617  0.3761  0.3216 -0.3838
  417TMC3     O 6225   3.425   1.668  11.509 -0.2506 -0.3800  0.0671
  417TMC3     H 6226   3.373   1.717  11.863 -1.3399 -0.8439  1.3693
  417TMC3    H1 6227   3.251   1.828  11.477  2.8478  1.0700  0.4437
  417TMC3    H2 6228   3.036   1.986  11.811 -0.8624  0.6866 -0.0369
  417TMC3    C7 6229   3.044   1.979  11.545 -0.2434  0.4101  0.7397
  417TMC3    C8 6230   3.178   1.872  12.003 -0.3175 -0.1730 -0.2504
  417TMC3    O1 6231   2.923   1.983  11.568  0.2157  0.0921  0.7977
  417TMC3    O2 6232   3.082   1.939  12.042  0.3626  0.1674 -0.1449
  418TMC3    C1 6233   1.810   2.908   0.539 -0.2337  0.6072  0.4452
  418TMC3    C2 6234   1.719   3.007   0.571  0.0811  0.8920  0.0105
  418TMC3    C3 6235   1.668   3.006   0.697  0.7548 -0.1079  0.0931
  418TMC3    C4 6236   1.849   2.817   0.637  0.2494 -0.6190  0.8183
  418TMC3    C5 6237   1.800   2.822   0.760  0.3461  0.3604 -0.5070
  418TMC3    C6 6238   1.706   2.917   0.794 -0.0148  0.2206  0.2312
  418TMC3     C 6239   1.888   2.921   0.420 -0.1172 -0.1710 -0.3308
  418TMC3     O 6240   1.882   3.028   0.358 -0.3201  0.5538  0.6604
  418TMC3     H 6241   1.697   3.089   0.504  0.2246 -0.6252 -1.8623
  418TMC3    H1 6242   1.923   2.741   0.617 -0.3348 -0.7816 -0.7189
  418TMC3    H2 6243   1.648   2.901   0.884 -0.1993  1.2063  0.2810
  418TMC3    C7 6244   1.781   2.685   0.803 -0.0545  0.0500 -0.1801
  418TMC3    C8 6245   1.526   3.023   0.699 -0.2428  0.1586 -0.4426
  418TMC3    O1 6246   1.726   2.601   0.730 -0.1491 -0.3353 -0.3149
  418TMC3    O2 6247   1.465   3.089   0.782  0.5594 -0.5351 -0.3681
  419MPD2     C 6248   1.137   1.039  12.325 -0.6600 -0.4197 -0.5269
  419MPD2    C1 6249   1.090   1.173  12.307 -0.4623 -0.1052  0.2568
  419MPD2    C2 6250   1.073   1.244  12.423  0.0739 -0.4375 -0.4039
  419MPD2    C3 6251   1.080   1.186  12.544 -0.0135  0.2920  0.0970
  419MPD2    C4 6252   1.130   1.060  12.560 -0.2352 -0.5596  0.2217
  419MPD2    C5 6253   1.159   0.982  12.447 -0.4065  0.1061  0.5977
  419MPD2     H 6254   1.039   1.346  12.412 -1.4171 -0.7657  1.1343
  419MPD2    H1 6255   1.140   1.013  12.658 -1.3027  0.7508  0.9583
  419MPD2    H2 6256   1.149   0.977  12.237  3.1887 -0.5549  0.1148
  419MPD2    H3 6257   1.195   0.879  12.446 -1.0460 -0.1184  0.5494
  419MPD2     N 6258   1.030   1.261  12.650  0.2622 -0.0337 -0.3498
  419MPD2    H5 6259   0.985   1.351  12.633  1.2922  0.2919 -1.3470
  419MPD2    N1 6260   1.059   1.239  12.185 -0.7645 -0.7356  0.6072
  419MPD2    H7 6261   1.026   1.335  12.188 -1.2038 -0.9331  1.8075
  420TMC3    C1 6262   0.973   1.322  12.859 -0.4659  0.5398  0.0841
  420TMC3    C2 6263   0.908   1.420  12.792 -0.6268  0.5778 -0.1235
  420TMC3    C3 6264   0.891   1.534  12.859 -0.0533  0.0012 -0.1482
  420TMC3    C4 6265   1.019   1.336  12.985  0.2060 -0.1227  0.5078
  420TMC3    C5 6266   1.006   1.455  13.049 -0.4978  0.4939 -0.4489
  420TMC3    C6 6267   0.940   1.556  12.986 -0.1023  0.2298  0.3728
  420TMC3     C 6268   1.032   1.215  12.784  0.3508  0.0948 -0.7709
  420TMC3     O 6269   1.097   1.128  12.838  0.2970 -0.1209  0.5850
  420TMC3     H 6270   0.851   1.402  12.702  1.0805  0.1652 -1.1178
  420TMC3    H1 6271   1.074   1.258  13.038  0.9598  1.1670  1.6356
  420TMC3    H2 6272   0.898   1.642  13.036  0.5534  1.8143 -1.7742
  420TMC3    C7 6273   0.966   1.445  13.188 -0.1915 -0.0113  0.5167
  420TMC3    C8 6274   0.789   1.623  12.797  0.5405  0.0762  0.0412
  420TMC3    O1 6275   0.914   1.339  13.229  0.0465 -0.4714  0.4943
  420TMC3    O2 6276   0.781   1.617  12.671 -0.1045  0.3088  0.7327
  421TMC3    C1 6277   2.516   3.113  13.854 -0.1827 -0.0107  0.0805
  421TMC3    C2 6278   2.592   3.223  13.907 -0.2059 -0.4300 -0.0760
  421TMC3    C3 6279   2.705   3.175  13.968 -0.4505 -0.8688  0.1876
  421TMC3    C4 6280   2.547   2.984  13.859 -0.0727  0.1397  0.2913
  421TMC3    C5 6281   2.658   2.948  13.923 -0.4148  0.3239  0.3714
  421TMC3    C6 6282   2.744   3.043  13.982  0.1834  0.5395 -0.4709
  421TMC3     C 6283   2.404   3.158  13.772  0.5061 -0.0222 -0.3778
  421TMC3     O 6284   2.383   3.277  13.759  0.4799  0.6949 -0.2682
  421TMC3     H 6285   2.570   3.329  13.893  1.1333 -0.1574 -0.1601
  421TMC3    H1 6286   2.507   2.916  13.784  2.1362  0.2752 -1.0283
  421TMC3    H2 6287   2.823   3.023  14.053 -1.9630  1.2376  2.0989
  421TMC3    C7 6288   2.683   2.810  13.954  0.6402  0.8656  0.0823
  421TMC3    C8 6289   2.764   3.256  14.069  0.0488 -0.4596 -0.1599
  421TMC3    O1 6290   2.791   2.789  14.009  0.3493  0.1905 -0.3793
  421TMC3    O2 6291   2.874   3.236  14.124  0.7306  0.1882 -0.3064
  422TMC3    C1 6292   4.639   4.016  12.573 -0.8062  0.0976  0.7947
  422TMC3    C2 6293   4.596   4.142  12.608  0.1981  0.0029  0.7161
  422TMC3    C3 6294   4.476   4.158  12.668 -0.3981  0.1616  0.1828
  422TMC3    C4 6295   4.564   3.905  12.595  0.0523 -0.0704  0.8694
  422TMC3    C5 6296   4.445   3.929  12.655 -0.1389 -0.4833 -0.4097
  422TMC3    C6 6297   4.391   4.052  12.681 -0.0191  0.4495  0.4194
  422TMC3     C 6298   0.043   4.015  12.496  0.7071  0.0724  1.0029
  422TMC3     O 6299   0.088   4.123  12.455  1.2605 -0.0270  0.7092
  422TMC3     H 6300   4.652   4.228  12.572 -1.3794 -0.6214 -3.2520
  422TMC3    H1 6301   4.594   3.805  12.565  1.7604  0.7875 -0.2789
  422TMC3    H2 6302   4.296   4.065  12.732 -1.1468  2.7339 -2.2553
  422TMC3    C7 6303   4.354   3.816  12.652  0.6272  1.0443  0.1081
  422TMC3    C8 6304   4.435   4.298  12.682 -0.4602  0.3918  0.0729
  422TMC3    O1 6305   4.383   3.736  12.563 -0.0580 -0.0066  0.3713
  422TMC3    O2 6306   4.523   4.375  12.717 -0.4837 -0.1573  0.2552
  423MPD2     C 6307   0.938   0.696   0.307 -0.3936  0.3793 -0.6161
  423MPD2    C1 6308   0.820   0.628   0.321  0.0406 -0.6999  0.3149
  423MPD2    C2 6309   0.792   0.521   0.233  0.2203 -0.4425  0.5530
  423MPD2    C3 6310   0.878   0.481   0.136 -0.4023 -0.3392 -0.7684
  423MPD2    C4 6311   0.999   0.549   0.125 -0.2352 -0.1875 -0.1565
  423MPD2    C5 6312   1.029   0.654   0.208  0.4810 -1.2841  0.9578
  423MPD2     H 6313   0.699   0.468   0.247 -0.2134 -0.0854 -0.9350
  423MPD2    H1 6314   1.059   0.523   0.039 -0.3954  1.4202 -0.7472
  423MPD2    H2 6315   0.968   0.770   0.379 -1.8831  0.9389 -0.5834
  423MPD2    H3 6316   1.122   0.709   0.200  0.2511 -1.0160  0.1000
  423MPD2     N 6317   0.852   0.379   0.047 -0.4202 -0.1168  0.2952
  423MPD2    H5 6318   0.917   0.372  17.657 -1.1234 -0.4360 -0.2531
  423MPD2    N1 6319   0.727   0.647   0.420 -0.1795  0.0592  0.6470
  423MPD2    H7 6320   0.645   0.587   0.430 -0.1416 -0.3648 -1.5417
  424TMC3    C1 6321   0.615   0.744   0.606  0.0975  0.1578 -1.0580
  424TMC3    C2 6322   0.627   0.761   0.737 -0.6897  0.5629 -0.2619
  424TMC3    C3 6323   0.513   0.734   0.807  0.2031 -0.1327 -0.4850
  424TMC3    C4 6324   0.500   0.703   0.544  0.5477  0.2613  0.0564
  424TMC3    C5 6325   0.384   0.683   0.621  0.1828  0.1931 -0.0961
  424TMC3    C6 6326   0.394   0.702   0.757 -0.2779 -0.3232 -0.2448
  424TMC3     C 6327   0.735   0.740   0.526  1.1594 -0.7065  0.1615
  424TMC3     O 6328   0.839   0.795   0.572 -0.5561  0.3525 -0.1202
  424TMC3     H 6329   0.723   0.781   0.784 -1.7279  0.6947  1.8030
  424TMC3    H1 6330   0.474   0.698   0.439  1.2480  0.2464 -0.1184
  424TMC3    H2 6331   0.312   0.683   0.825  0.2456  1.1204  0.7916
  424TMC3    C7 6332   0.270   0.627   0.559 -0.1868 -0.5686 -0.0952
  424TMC3    C8 6333   0.531   0.719   0.947 -0.1305 -0.1639  0.7264
  424TMC3    O1 6334   0.286   0.558   0.452  0.2010  1.2512  0.8149
  424TMC3    O2 6335   0.500   0.615   1.001 -0.1575  0.1355 -0.0719
  425MPD2     C 6336   4.522   4.695  17.336  0.6557 -0.2837 -0.2183
  425MPD2    C1 6337   4.463   4.570  17.314 -0.5955 -0.2032 -0.4125
  425MPD2    C2 6338   4.326   4.552  17.338 -0.1096 -0.4665  0.0343
  425MPD2    C3 6339   4.248   4.645  17.389 -0.3222 -0.2566 -0.0544
  425MPD2    C4 6340   4.307   0.041  17.433  0.6467 -0.2646 -0.6999
  425MPD2    C5 6341   4.441   0.059  17.410  0.3518 -0.5480 -0.4231
  425MPD2     H 6342   4.278   4.457  17.315 -2.3886  0.8619 -0.7726
  425MPD2    H1 6343   4.245   0.112  17.486  0.7770  0.2616 -1.2489
  425MPD2    H2 6344   4.627   4.719  17.319  0.0508  2.2774 -0.3277
  425MPD2    H3 6345   4.479   0.159  17.430  0.0511 -0.8301  1.5668
  425MPD2     N 6346   4.113   4.609  17.409 -0.3372 -0.1045  0.4754
  425MPD2    H5 6347   4.080   4.516  17.386 -0.0860  0.4804 -2.2661
  425MPD2    N1 6348   4.551   4.465  17.268 -0.3364 -0.1960  0.6415
  425MPD2    H7 6349   4.649   4.483  17.250 -0.5414 -0.6950 -0.9787
  426TMC3    C1 6350   4.621   4.247  17.230 -0.3000  0.5291 -0.8938
  426TMC3    C2 6351   4.603   4.146  17.135 -0.1958 -0.6236 -0.0713
  426TMC3    C3 6352   4.700   4.049  17.128 -0.0992 -0.0031  0.4781
  426TMC3    C4 6353   4.719   4.249  17.316 -0.1955 -0.1614  0.3486
  426TMC3    C5 6354   0.095   4.147  17.302  0.1259  0.0640  0.6002
  426TMC3    C6 6355   0.091   4.053  17.209 -0.1107  0.3303 -0.3539
  426TMC3     C 6356   4.513   4.337  17.232  0.1851 -0.6047  0.1084
  426TMC3     O 6357   4.400   4.302  17.196  0.0427 -0.2913  0.0489
  426TMC3     H 6358   4.514   4.143  17.074 -0.3835 -1.7993  0.2728
  426TMC3    H1 6359   0.002   4.331  17.387  0.8950 -0.3470  0.4864
  426TMC3    H2 6360   0.170   3.979  17.212 -1.0611 -0.6536  0.5050
  426TMC3    C7 6361   0.193   4.139  17.408 -0.5897  0.5111  0.6740
  426TMC3    C8 6362   4.700   3.938  17.033 -0.9047 -0.3453  0.5618
  426TMC3    O1 6363   0.300   4.087  17.381 -0.3664  0.3221  0.5698
  426TMC3    O2 6364   0.075   3.870  17.015 -0.2077  0.2543 -0.6620
  427MPD2     C 6365   3.340   1.680  14.639  0.3448 -0.2180 -0.3775
  427MPD2    C1 6366   3.313   1.705  14.775 -0.1741 -0.3167 -0.1748
  427MPD2    C2 6367   3.192   1.740  14.829  0.3451  0.6083  0.3881
  427MPD2    C3 6368   3.080   1.738  14.739 -0.1018 -0.1786  0.2111
  427MPD2    C4 6369   3.101   1.705  14.611 -0.7036 -0.2553  0.4088
  427MPD2    C5 6370   3.226   1.680  14.553 -0.5999  0.8203  0.0281
  427MPD2     H 6371   3.168   1.751  14.935  0.0668  2.0053  0.1868
  427MPD2    H1 6372   3.019   1.714  14.540 -1.0872  0.9375  0.9841
  427MPD2    H2 6373   3.434   1.642  14.602  0.6810  0.1686  0.0800
  427MPD2    H3 6374   3.241   1.666  14.447  2.5266 -0.8345  0.6725
  427MPD2     N 6375   2.949   1.775  14.774  0.0015 -0.7316  0.8311
  427MPD2    H5 6376   2.876   1.750  14.708  1.1320 -1.1122 -0.2989
  427MPD2    N1 6377   3.404   1.680  14.884 -0.3983  0.0740 -0.3624
  427MPD2    H7 6378   3.364   1.697  14.976  0.0790  1.4890 -0.4283
  428TMC3    C1 6379   3.605   1.616  15.001 -0.1750  0.8731 -0.5931
  428TMC3    C2 6380   3.533   1.525  15.075 -0.0254  0.4427  0.6443
  428TMC3    C3 6381   3.605   1.425  15.131  0.4021  0.5103  1.1371
  428TMC3    C4 6382   3.746   1.606  14.994 -0.5963  0.3346  0.1422
  428TMC3    C5 6383   3.810   1.506  15.056 -0.3706 -0.0664  0.3548
  428TMC3    C6 6384   3.739   1.405  15.111 -0.7713  0.3964  0.7901
  428TMC3     C 6385   3.542   1.657  14.880  0.2667  0.7453  1.0657
  428TMC3     O 6386   3.609   1.650  14.776 -0.1965 -0.2596 -0.2248
  428TMC3     H 6387   3.426   1.534  15.090 -0.3092  0.7114 -1.6230
  428TMC3    H1 6388   3.796   1.661  14.915  0.3806 -0.7339  0.0186
  428TMC3    H2 6389   3.786   1.324  15.166 -1.2781 -1.4823 -1.5489
  428TMC3    C7 6390   3.924   1.539  15.137  0.3318 -0.2611  0.0716
  428TMC3    C8 6391   3.535   1.348  15.233  0.3644 -0.5561  0.0325
  428TMC3    O1 6392   3.942   1.487  15.243 -0.3312  0.1215 -0.3090
  428TMC3    O2 6393   3.583   1.237  15.249  0.1120  0.5119 -0.1946
  429MPD2     C 6394   4.492   1.979  17.527 -0.6033  0.1309 -0.5105
  429MPD2    C1 6395   4.457   1.963  17.392 -0.2007  0.2875 -0.6137
  429MPD2    C2 6396   4.494   2.063  17.305 -0.0125  0.3120 -0.4768
  429MPD2    C3 6397   4.578   2.168  17.342 -0.4120  0.7589 -0.7473
  429MPD2    C4 6398   4.624   2.176  17.471  0.3351  0.8832 -0.1621
  429MPD2    C5 6399   4.590   2.075  17.563  0.7753  0.2368 -0.0507
  429MPD2     H 6400   4.456   2.057  17.203  1.3241  1.3034 -1.0399
  429MPD2    H1 6401   4.681   2.259  17.511  1.3745 -0.4843  1.1501
  429MPD2    H2 6402   4.456   1.919  17.610  2.5035  0.6680  1.2307
  429MPD2    H3 6403   4.625   2.085  17.665 -1.0824 -0.0908  0.6224
  429MPD2     N 6404   4.607   2.266  17.240  0.1316  0.8084  0.0994
  429MPD2    H5 6405   4.558   2.250  17.153 -1.0097 -0.7611  1.0248
  429MPD2    N1 6406   4.379   1.859  17.335 -0.0222  0.0534  0.8103
  429MPD2    H7 6407   4.345   1.873  17.240  3.0625 -1.0778 -0.4545
  430TMC3    C1 6408   4.717   2.436  17.121  0.4022  0.0136 -0.3497
  430TMC3    C2 6409   4.610   2.491  17.064 -0.0464  0.4219 -0.6815
  430TMC3    C3 6410   4.599   2.472  16.932  0.1140  0.1927 -0.2653
  430TMC3    C4 6411   0.101   2.379  17.055 -0.6598 -0.4562  0.4093
  430TMC3    C5 6412   0.074   2.350  16.925  0.1251 -0.4135  0.4383
  430TMC3    C6 6413   4.687   2.394  16.859 -0.8795 -0.2231 -0.2354
  430TMC3     C 6414   4.695   2.373  17.250 -0.3444  0.0286 -0.6638
  430TMC3     O 6415   0.057   2.418  17.334  0.2430 -0.2251  0.4676
  430TMC3     H 6416   4.535   2.550  17.115  1.1225  1.2340  0.0778
  430TMC3    H1 6417   0.172   2.325  17.117 -0.0096  0.2125  0.2488
  430TMC3    H2 6418   4.661   2.375  16.755 -0.5223  0.2852 -0.4185
  430TMC3    C7 6419   0.122   2.222  16.868 -0.0720 -0.0305 -0.2802
  430TMC3    C8 6420   4.484   2.519  16.853 -0.2078  0.0466 -0.1972
  430TMC3    O1 6421   0.050   2.180  16.780  0.1806  0.8590  0.6409
  430TMC3    O2 6422   4.443   2.439  16.771  0.3449 -0.0933 -0.1934
  431MPD2     C 6423   1.078   1.951  12.424 -1.0320 -0.4965  0.5436
  431MPD2    C1 6424   1.176   1.956  12.329  0.2158  0.3626 -0.2038
  431MPD2    C2 6425   1.167   1.871  12.220  0.0996  0.7809  0.1081
  431MPD2    C3 6426   1.056   1.784  12.203 -0.1185  0.0166  0.5299
  431MPD2    C4 6427   0.955   1.791  12.290 -0.0962 -0.7096  0.0044
  431MPD2    C5 6428   0.964   1.877  12.399 -0.5301 -0.0742  0.4319
  431MPD2     H 6429   1.254   1.875  12.156  0.2009 -0.4819  0.1767
  431MPD2    H1 6430   0.873   1.720  12.285  1.1107 -1.8836 -2.9512
  431MPD2    H2 6431   1.070   2.024  12.504  2.3139  0.5418 -0.0632
  431MPD2    H3 6432   0.880   1.874  12.468 -0.7717  0.7090  0.1762
  431MPD2     N 6433   1.056   1.672  12.114 -0.4198 -0.1850  0.4318
  431MPD2    H5 6434   0.965   1.628  12.100 -2.0029  2.6839  1.6538
  431MPD2    N1 6435   1.285   2.046  12.352 -0.1867  0.0884  0.0844
  431MPD2    H7 6436   1.350   2.063  12.276 -0.7840  0.3945 -0.3595
  432TMC3    C1 6437   1.148   1.511  11.964  0.0350 -0.0194  0.1844
  432TMC3    C2 6438   1.251   1.479  11.879 -0.0257 -0.2045 -0.2616
  432TMC3    C3 6439   1.247   1.351  11.828 -0.8810 -0.4229 -0.7923
  432TMC3    C4 6440   1.051   1.419  12.002  0.5885 -0.1045  0.2090
  432TMC3    C5 6441   1.051   1.291  11.951  0.1629 -0.7727  0.1511
  432TMC3    C6 6442   1.145   1.265  11.855 -0.4838  0.4214  0.4447
  432TMC3     C 6443   1.162   1.634  12.044  0.0808 -0.4230 -0.1458
  432TMC3     O 6444   1.270   1.688  12.015 -0.4166  0.4823  0.2425
  432TMC3     H 6445   1.329   1.542  11.838  1.6469 -1.1226  1.4859
  432TMC3    H1 6446   0.978   1.448  12.077  0.3223 -3.1555  1.1698
  432TMC3    H2 6447   1.159   1.164  11.818  2.0918  1.5022 -1.5071
  432TMC3    C7 6448   1.051   1.186  12.058 -0.6526 -0.0838  0.5286
  432TMC3    C8 6449   1.377   1.300  11.780 -0.2344 -0.1197 -0.5915
  432TMC3    O1 6450   1.079   1.068  12.032  0.8043  0.4215 -0.0717
  432TMC3    O2 6451   1.376   1.217  11.688 -0.5590 -0.2133  0.1599
  433MPD2     C 6452   0.023   0.831  10.846 -1.0274  0.9487 -0.3188
  433MPD2    C1 6453   0.067   0.719  10.920  0.2024 -0.0442 -0.3698
  433MPD2    C2 6454   0.113   0.748  11.049 -0.6353 -0.6727 -0.1062
  433MPD2    C3 6455   0.111   0.877  11.100  0.3000 -0.2043  0.5334
  433MPD2    C4 6456   0.071   0.986  11.021 -0.0609  0.4780  0.6235
  433MPD2    C5 6457   0.016   0.961  10.897 -0.5504 -0.4033  0.0758
  433MPD2     H 6458   0.147   0.668  11.114 -2.7274 -1.7749 -0.3881
  433MPD2    H1 6459   0.074   1.089  11.055  1.5599  0.5308  0.2971
  433MPD2    H2 6460   4.705   0.814  10.746 -0.9247  1.8224 -0.5069
  433MPD2    H3 6461   4.699   1.040  10.833 -3.0000 -2.2690 -0.7796
  433MPD2     N 6462   0.147   0.901  11.231 -0.5082 -0.1154  0.4580
  433MPD2    H5 6463   0.167   0.814  11.281  0.7624 -0.2114 -0.2051
  433MPD2    N1 6464   0.094   0.594  10.852 -0.3503 -0.3304  0.6364
  433MPD2    H7 6465   0.050   0.590  10.760  0.3377  0.4314  0.2719
  434TMC3    C1 6466   0.169   0.377  10.849 -0.6406 -0.5874  0.2960
  434TMC3    C2 6467   0.203   0.267  10.925  0.4624 -1.2411  0.1386
  434TMC3    C3 6468   0.266   0.164  10.860 -0.3306 -0.3872 -0.4604
  434TMC3    C4 6469   0.204   0.379  10.722 -0.6358  0.0769  0.1303
  434TMC3    C5 6470   0.240   0.264  10.656 -0.8788 -0.3961  0.5019
  434TMC3    C6 6471   0.288   0.156  10.723 -0.0099  0.2621  0.6453
  434TMC3     C 6472   0.170   0.497  10.915  0.6019  0.2237  0.1973
  434TMC3     O 6473   0.229   0.496  11.017  0.2622  0.1636  0.6622
  434TMC3     H 6474   0.189   0.270  11.033  2.2347  1.7703  0.2769
  434TMC3    H1 6475   0.199   0.472  10.665  0.3159  0.5803  0.8696
  434TMC3    H2 6476   0.294   0.061  10.671  0.0336  0.1974  0.7676
  434TMC3    C7 6477   0.224   0.251  10.515  0.0033  0.1523 -0.6087
  434TMC3    C8 6478   0.354   0.088  10.948  0.9456  0.2688 -0.1326
  434TMC3    O1 6479   0.180   0.347  10.456  0.3713 -0.3034  0.1951
  434TMC3    O2 6480   0.306   0.064  11.057  0.3377 -0.0188  0.3392
  435MPD2     C 6481   1.366   0.072  15.285  0.2463  0.1837  0.9943
  435MPD2    C1 6482   1.331   0.111  15.410 -0.4487 -0.1526  0.1977
  435MPD2    C2 6483   1.430   0.118  15.508  0.0709  0.4022 -0.5709
  435MPD2    C3 6484   1.556   0.081  15.472 -0.4129 -0.5507 -0.4060
  435MPD2    C4 6485   1.594   0.051  15.343 -0.2303 -0.3519 -0.1765
  435MPD2    C5 6486   1.494   0.050  15.252  0.0531  0.0009 -0.4098
  435MPD2     H 6487   1.411   0.127  15.615 -1.7469  3.0178 -1.1083
  435MPD2    H1 6488   1.698   0.035  15.317  0.1521  0.6182  0.7549
  435MPD2    H2 6489   1.295   0.068  15.204 -0.3844 -1.6695  1.6345
  435MPD2    H3 6490   1.528   0.025  15.152  0.5491  0.7553 -0.4231
  435MPD2     N 6491   1.647   0.067  15.583 -0.1023 -0.1319 -0.1829
  435MPD2    H5 6492   1.597   0.065  15.671 -1.6745  3.1866 -0.9770
  435MPD2    N1 6493   1.196   0.126  15.450 -0.1861 -0.2788  0.3546
  435MPD2    H7 6494   1.177   0.160  15.544  0.7535 -1.6576  1.0501
  436TMC3    C1 6495   0.847   0.288  15.590  0.0549 -0.3528 -1.0346
  436TMC3    C2 6496   0.969   0.239  15.543 -0.3502  0.7657 -0.3623
  436TMC3    C3 6497   0.960   0.135  15.451  0.1888  0.8364 -0.1542
  436TMC3    C4 6498   0.726   0.251  15.533  0.3851 -0.1166  0.0897
  436TMC3    C5 6499   0.731   0.162  15.436  0.6609 -0.2338 -0.3934
  436TMC3    C6 6500   0.843   0.095  15.392  0.8508  0.2201 -0.3927
  436TMC3     C 6501   0.857   0.403  15.668 -0.2500 -0.1737 -0.3516
  436TMC3     O 6502   0.970   0.454  15.685  0.6524 -0.1699 -0.3972
  436TMC3     H 6503   1.064   0.275  15.582  0.4366 -0.0782 -1.4779
  436TMC3    H1 6504   0.632   0.305  15.546  0.3542 -0.4161  1.1500
  436TMC3    H2 6505   0.838   0.020  15.315 -1.9157  1.7556 -1.6924
  436TMC3    C7 6506   0.599   0.108  15.397  0.1925  0.7894 -0.0653
  436TMC3    C8 6507   1.084   0.108  15.376  0.7556 -0.3078  0.3465
  436TMC3    O1 6508   0.599   0.059  15.284 -0.4934  0.1548 -0.8491
  436TMC3    O2 6509   1.076   0.057  15.265  0.5534 -0.3769  0.1992
  437TMC3    C1 6510   0.648   2.495  12.456  0.4968 -0.0494  0.6456
  437TMC3    C2 6511   0.528   2.562  12.450 -0.9756 -1.1268  0.4648
  437TMC3    C3 6512   0.516   2.650  12.340  0.0669 -1.1358 -0.3497
  437TMC3    C4 6513   0.750   2.512  12.356  0.1316  0.0307 -0.6234
  437TMC3    C5 6514   0.728   2.594  12.252  0.4297 -0.5696 -0.9180
  437TMC3    C6 6515   0.608   2.661  12.247  0.4835  0.3873 -1.1400
  437TMC3     C 6516   0.650   2.391  12.557  0.4572 -0.2338 -0.4885
  437TMC3     O 6517   0.545   2.359  12.609 -0.3334  0.4248 -0.4526
  437TMC3     H 6518   0.444   2.548  12.518  0.6910  0.4645  2.8659
  437TMC3    H1 6519   0.836   2.447  12.344 -0.4867 -0.7636 -0.8416
  437TMC3    H2 6520   0.590   2.717  12.156 -0.0364 -0.3287 -1.4840
  437TMC3    C7 6521   0.847   2.650  12.185  0.1805  0.2774  0.2707
  437TMC3    C8 6522   0.393   2.720  12.329  0.8118 -0.6371  0.2148
  437TMC3    O1 6523   0.819   2.719  12.088 -0.1828 -0.2154 -0.7568
  437TMC3    O2 6524   0.339   2.709  12.218 -1.1148  0.4747  0.6497
  438MPD2     C 6525   1.809   3.286  17.121  0.2162  0.1867  0.1483
  438MPD2    C1 6526   1.927   3.224  17.157 -0.1114 -0.0131 -0.0222
  438MPD2    C2 6527   1.921   3.134  17.258 -0.6027 -0.0732 -0.1467
  438MPD2    C3 6528   1.802   3.099  17.325  0.0278 -0.2088 -0.6408
  438MPD2    C4 6529   1.688   3.165  17.288  0.8044  0.3637 -0.2140
  438MPD2    C5 6530   1.697   3.250  17.189 -0.3229 -0.2098  0.8778
  438MPD2     H 6531   2.010   3.087  17.298 -0.6474  0.3096  0.3991
  438MPD2    H1 6532   1.597   3.152  17.346 -0.0968  1.2016 -1.4398
  438MPD2    H2 6533   1.808   3.368  17.050  0.3734 -0.5154 -0.6677
  438MPD2    H3 6534   1.611   3.314  17.172  1.8789  2.6540  0.5932
  438MPD2     N 6535   1.796   2.993  17.426  0.0791  0.2347 -0.1294
  438MPD2    H5 6536   1.703   2.978  17.464  0.3566 -1.8670 -0.2821
  438MPD2    N1 6537   2.050   3.253  17.096  0.2050 -0.1151 -0.5537
  438MPD2    H7 6538   2.135   3.211  17.132 -0.3245 -0.0125  0.8092
  439TMC3    C1 6539   2.204   3.335  16.943  0.2457  0.2483  0.2724
  439TMC3    C2 6540   2.237   3.323  16.809  0.8373 -0.2514  0.1239
  439TMC3    C3 6541   2.370   3.316  16.784  0.2166 -0.0685 -0.2835
  439TMC3    C4 6542   2.291   3.344  17.046 -0.4980  0.0528 -0.1591
  439TMC3    C5 6543   2.423   3.342  17.010  0.4597 -0.8150 -0.7745
  439TMC3    C6 6544   2.463   3.319  16.885  0.0380  0.4004  0.5515
  439TMC3     C 6545   2.066   3.317  16.976 -0.4363  0.2179 -0.5378
  439TMC3     O 6546   1.973   3.317  16.892 -0.3298  0.2056 -0.6955
  439TMC3     H 6547   2.160   3.305  16.735 -1.3129  0.8805  2.0775
  439TMC3    H1 6548   2.250   3.363  17.144  0.3808 -1.9401  0.5885
  439TMC3    H2 6549   2.565   3.285  16.870  0.2307  1.2896 -0.1596
  439TMC3    C7 6550   2.518   3.316  17.115 -0.2345 -0.0680 -0.0824
  439TMC3    C8 6551   2.394   3.207  16.692  0.1268  0.1332 -0.0171
  439TMC3    O1 6552   2.620   3.261  17.092 -0.3294  0.8138  0.1701
  439TMC3    O2 6553   2.498   3.150  16.718 -0.6148 -0.3687  0.4545
  440MPD2     C 6554   2.222   3.448  15.092 -0.4002  0.4607 -0.3414
  440MPD2    C1 6555   2.088   3.406  15.097 -0.3395 -0.6479 -0.7238
  440MPD2    C2 6556   2.025   3.400  15.221 -0.0164 -0.4024  0.1438
  440MPD2    C3 6557   2.086   3.428  15.340 -0.0459  0.3020 -0.7926
  440MPD2    C4 6558   2.222   3.459  15.336  0.0254  0.1750 -0.0315
  440MPD2    C5 6559   2.285   3.468  15.210  0.3579 -0.5134  0.5700
  440MPD2     H 6560   1.917   3.388  15.210 -0.2951  2.7584 -0.5562
  440MPD2    H1 6561   2.284   3.471  15.424  1.0287 -0.9565 -0.5851
  440MPD2    H2 6562   2.284   3.448  15.003 -0.1359 -0.6315 -0.1449
  440MPD2    H3 6563   2.392   3.484  15.207  0.1660  1.1961  2.4493
  440MPD2     N 6564   2.005   3.433  15.459  0.0816  0.1293  0.5297
  440MPD2    H5 6565   1.911   3.396  15.456  0.3687 -0.5410 -0.2991
  440MPD2    N1 6566   2.004   3.380  14.983 -0.3134 -0.2003  0.3654
  440MPD2    H7 6567   1.915   3.336  15.008 -0.1168 -1.3699 -1.0403
  441TMC3    C1 6568   1.943   3.485  15.670 -0.5351  1.0175  0.2976
  441TMC3    C2 6569   1.914   3.605  15.731  0.1950 -0.1414 -1.0690
  441TMC3    C3 6570   1.824   3.608  15.830 -0.3617 -0.2944  0.5458
  441TMC3    C4 6571   1.879   3.365  15.703 -0.3901 -0.0629 -0.4523
  441TMC3    C5 6572   1.784   3.377  15.807  0.2652  0.6263  0.5402
  441TMC3    C6 6573   1.751   3.496  15.856  0.2198 -0.2742  0.5808
  441TMC3     C 6574   2.051   3.488  15.572 -0.2171 -0.1052  0.2641
  441TMC3     O 6575   2.142   3.562  15.599 -0.0276  0.2493  0.5527
  441TMC3     H 6576   1.969   3.693  15.700 -1.7935  1.6566  0.4887
  441TMC3    H1 6577   1.911   3.272  15.657 -0.3057  0.9854 -2.5203
  441TMC3    H2 6578   1.676   3.491  15.933  0.9626 -0.7464  1.2688
  441TMC3    C7 6579   1.708   3.259  15.837  0.0394 -0.0626 -0.7698
  441TMC3    C8 6580   1.750   3.730  15.856 -0.3794 -0.1864 -0.4140
  441TMC3    O1 6581   1.603   3.278  15.891 -0.2186 -0.9053  0.2153
  441TMC3    O2 6582   1.782   3.801  15.953 -0.6410  0.2417 -0.2457
  442MPD2     C 6583   4.117   4.328  16.251 -0.2597  0.0111  0.0261
  442MPD2    C1 6584   4.005   4.260  16.303 -0.4603  0.1384 -0.5904
  442MPD2    C2 6585   4.017   4.121  16.333 -0.3818  0.1087  0.1613
  442MPD2    C3 6586   4.131   4.055  16.299 -0.0724 -0.1574  0.2469
  442MPD2    C4 6587   4.235   4.127  16.239 -0.6516  0.2838  1.0200
  442MPD2    C5 6588   4.232   4.259  16.218 -0.6767 -0.3075  0.4976
  442MPD2     H 6589   3.937   4.076  16.391 -0.8869 -1.0547 -1.4472
  442MPD2    H1 6590   4.325   4.083  16.197 -1.7797  0.7703 -1.9749
  442MPD2    H2 6591   4.109   4.435  16.235  0.4722  0.4633  2.6492
  442MPD2    H3 6592   4.320   4.304  16.174 -1.3634 -0.9039 -1.5019
  442MPD2     N 6593   4.158   3.916  16.337 -0.1241 -0.7872  0.2021
  442MPD2    H5 6594   4.256   3.897  16.320  0.2277  2.1191 -0.9996
  442MPD2    N1 6595   3.884   4.321  16.331  0.5408 -0.5836  0.2497
  442MPD2    H7 6596   3.813   4.273  16.385 -0.8552  1.5725  0.3632
  443TMC3    C1 6597   3.738   4.501  16.358 -0.9533 -0.2114  0.2238
  443TMC3    C2 6598   3.648   4.545  16.268 -0.2069 -0.6902 -0.2696
  443TMC3    C3 6599   3.522   4.558  16.322  0.3198  0.0679 -0.1617
  443TMC3    C4 6600   3.724   4.504  16.495 -0.1913  0.0118  0.0793
  443TMC3    C5 6601   3.602   4.548  16.542  0.4942  0.3381  0.2056
  443TMC3    C6 6602   3.499   4.565  16.455 -0.5998 -0.2063 -0.0106
  443TMC3     C 6603   3.857   4.448  16.295  0.0000  0.5537  0.0697
  443TMC3     O 6604   3.896   4.498  16.194 -0.9225 -0.0996  0.2446
  443TMC3     H 6605   3.658   4.527  16.162  2.6925 -0.3426 -0.0574
  443TMC3    H1 6606   3.797   4.473  16.568 -0.7189  0.6567  0.8915
  443TMC3    H2 6607   3.399   4.590  16.489 -0.8294  1.2783 -1.7759
  443TMC3    C7 6608   3.542   4.502  16.655  0.1877 -0.3680  0.5456
  443TMC3    C8 6609   3.441   4.450  16.273 -0.1137 -0.6866  0.7166
  443TMC3    O1 6610   3.564   4.385  16.689 -0.4457  0.0842  0.4023
  443TMC3    O2 6611   3.404   4.366  16.354 -0.3381 -0.0807  0.1356
  444MPD2     C 6612   4.562   3.433  17.062  0.1206 -0.2856  0.0976
  444MPD2    C1 6613   4.459   3.400  16.976  0.1051  0.2287  0.0680
  444MPD2    C2 6614   4.466   3.291  16.891  0.2685  0.2617  0.2777
  444MPD2    C3 6615   4.575   3.209  16.902  0.1092 -0.2940 -0.2577
  444MPD2    C4 6616   4.674   3.237  16.995  0.3332  0.2562  0.0295
  444MPD2    C5 6617   4.663   3.343  17.075 -0.5659 -0.4928  0.2169
  444MPD2     H 6618   4.388   3.253  16.826  0.4819  1.0098 -0.4151
  444MPD2    H1 6619   0.050   3.191  17.002  0.3467  0.7553  3.0841
  444MPD2    H2 6620   4.566   3.524  17.120  0.1174 -0.8082  0.9161
  444MPD2    H3 6621   0.025   3.371  17.138 -1.0592  0.7761  0.2989
  444MPD2     N 6622   4.578   3.104  16.813  0.0117  0.8166 -0.4633
  444MPD2    H5 6623   4.512   3.089  16.737  1.8354 -1.1638 -1.6674
  444MPD2    N1 6624   4.334   3.468  16.976  0.1358 -0.0100 -0.4398
  444MPD2    H7 6625   4.262   3.454  16.906  0.0048  2.0583 -0.7334
  445TMC3    C1 6626   4.639   2.886  16.718 -0.6117  1.1136  0.1590
  445TMC3    C2 6627   4.519   2.870  16.646  0.4158 -0.5144 -0.1595
  445TMC3    C3 6628   4.513   2.761  16.563 -0.4826  0.5692  1.0359
  445TMC3    C4 6629   0.026   2.808  16.706 -0.1305 -0.3529  0.2577
  445TMC3    C5 6630   0.024   2.717  16.604  0.6844  0.1854  0.5568
  445TMC3    C6 6631   4.627   2.686  16.534 -0.3074 -0.2472  0.0210
  445TMC3     C 6632   4.657   2.992  16.828 -0.1344  0.4290 -0.3953
  445TMC3     O 6633   0.022   2.966  16.909 -1.0005 -0.2262 -0.2064
  445TMC3     H 6634   4.428   2.925  16.666  0.5471 -0.0508 -0.8431
  445TMC3    H1 6635   0.118   2.823  16.761  1.5317  1.5105 -3.0392
  445TMC3    H2 6636   4.632   2.613  16.454  0.2592 -0.6800  0.4525
  445TMC3    C7 6637   0.142   2.644  16.587 -0.3894  0.6196  0.0431
  445TMC3    C8 6638   4.387   2.739  16.497  0.6488 -0.1739 -0.2141
  445TMC3    O1 6639   0.244   2.698  16.630  0.3342 -0.0464 -0.6507
  445TMC3    O2 6640   4.315   2.838  16.478 -0.0077 -0.2463 -0.3582
  446MPD2     C 6641   4.685   0.207  11.442 -1.2562  0.0833 -0.3123
  446MPD2    C1 6642   4.674   0.263  11.313  0.7742 -0.1312  0.0730
  446MPD2    C2 6643   0.067   0.321  11.258  0.4433 -0.4558  0.5587
  446MPD2    C3 6644   0.190   0.304  11.314 -0.6032  1.0091  0.3716
  446MPD2    C4 6645   0.193   0.254  11.444  0.3524 -0.0852  0.5202
  446MPD2    C5 6646   0.078   0.210  11.504  0.4662 -0.3199 -0.3527
  446MPD2     H 6647   0.068   0.365  11.159 -0.7120 -0.4300  0.5515
  446MPD2    H1 6648   0.288   0.241  11.495  1.0878  1.7679 -0.3945
  446MPD2    H2 6649   4.598   0.164  11.491 -0.5674 -1.6103 -0.5969
  446MPD2    H3 6650   0.087   0.173  11.605 -1.7312 -1.5821 -0.6260
  446MPD2     N 6651   0.308   0.353  11.256  0.2463 -0.0448  0.1241
  446MPD2    H5 6652   0.290   0.420  11.182  1.0156 -1.6729 -1.5081
  446MPD2    N1 6653   4.553   0.238  11.242  0.3750  0.8378 -0.1523
  446MPD2    H7 6654   4.476   0.197  11.295  0.6746  2.6069  1.6293
  447TMC3    C1 6655   0.541   0.376  11.217  0.4322 -0.7585 -0.5492
  447TMC3    C2 6656   0.513   0.400  11.085 -0.0439 -0.3861  0.2788
  447TMC3    C3 6657   0.623   0.403  11.001  0.4393  0.2504 -0.8091
  447TMC3    C4 6658   0.668   0.355  11.260  0.0076  0.2477  0.2723
  447TMC3    C5 6659   0.773   0.355  11.181  0.0752  0.9606  0.3250
  447TMC3    C6 6660   0.747   0.391  11.054  0.3344 -0.5777 -0.6451
  447TMC3     C 6661   0.436   0.319  11.300  0.1136  0.0848  0.2416
  447TMC3     O 6662   0.466   0.224  11.374 -0.6241  0.2459 -0.1154
  447TMC3     H 6663   0.422   0.394  11.027  0.7161  0.1893 -0.9797
  447TMC3    H1 6664   0.678   0.341  11.367  0.0055  5.2874  0.9549
  447TMC3    H2 6665   0.833   0.409  10.991  1.9694  2.0259  2.3103
  447TMC3    C7 6666   0.905   0.317  11.217  0.5301  0.0914 -0.4494
  447TMC3    C8 6667   0.600   0.400  10.858 -0.4094  0.2390 -0.9092
  447TMC3    O1 6668   0.984   0.302  11.122 -0.4524 -0.6402 -0.6412
  447TMC3    O2 6669   0.508   0.469  10.817 -0.1163 -0.7382  0.1268
  448TMC3    C1 6670   1.983   4.458  17.560  0.0045  0.1469  0.2731
  448TMC3    C2 6671   2.043   4.376  17.465  0.9610 -0.5427  0.7337
  448TMC3    C3 6672   2.147   4.304  17.519 -0.8775 -0.0216  1.0169
  448TMC3    C4 6673   2.021   4.475   0.002  0.2277 -0.1014 -0.2769
  448TMC3    C5 6674   2.118   4.387   0.043  0.3382 -0.2347 -0.0413
  448TMC3    C6 6675   2.187   4.308  17.650  0.1699  0.5122  0.7701
  448TMC3     C 6676   1.861   4.526  17.515 -0.4242  0.1599 -0.2373
  448TMC3     O 6677   1.810   4.475  17.417  0.2302  0.2569  0.0221
  448TMC3     H 6678   1.997   4.364  17.367  0.2484 -0.9417  1.1118
  448TMC3    H1 6679   1.961   4.528   0.076 -0.2945  1.3165 -1.7078
  448TMC3    H2 6680   2.268   4.243  17.679  0.0390  0.6757  1.5029
  448TMC3    C7 6681   2.162   4.406   0.183  0.7148 -0.1888  0.2569
  448TMC3    C8 6682   2.230   4.210  17.433  0.3090 -0.1057  0.1386
  448TMC3    O1 6683   2.157   4.525   0.218 -0.0564  0.0571 -0.3256
  448TMC3    O2 6684   2.292   4.133  17.503 -0.8044 -0.0629 -0.2415
  449MPD2     C 6685   4.356   2.785  13.977 -0.2017 -0.0914  0.9386
  449MPD2    C1 6686   4.237   2.799  13.911  0.1882 -0.0962  0.1361
  449MPD2    C2 6687   4.127   2.734  13.959  0.1942  0.0241  0.1523
  449MPD2    C3 6688   4.123   2.669  14.078  0.1373 -0.0519  0.9842
  449MPD2    C4 6689   4.245   2.655  14.146 -0.0467 -0.9027  0.1840
  449MPD2    C5 6690   4.359   2.708  14.092  0.4077 -0.6219  0.1539
  449MPD2     H 6691   4.027   2.737  13.918 -0.5492 -0.7079  1.8829
  449MPD2    H1 6692   4.256   2.606  14.242 -1.9313 -0.5350  0.5975
  449MPD2    H2 6693   4.449   2.835  13.952 -2.0615  1.9554 -1.8019
  449MPD2    H3 6694   4.451   2.724  14.146  1.3161 -0.3307 -1.4814
  449MPD2     N 6695   3.995   2.622  14.118  0.0279  0.0250  0.4405
  449MPD2    H5 6696   3.919   2.654  14.058 -1.0157 -0.8228  1.3219
  449MPD2    N1 6697   4.220   2.865  13.789  0.4235 -0.2181 -0.2415
  449MPD2    H7 6698   4.132   2.866  13.738  0.3342  0.8195 -0.0784
  450TMC3    C1 6699   4.265   2.976  13.589  0.4195 -0.6237 -0.6621
  450TMC3    C2 6700   4.324   2.931  13.477  0.6755 -0.0925 -0.3482
  450TMC3    C3 6701   4.260   2.889  13.363 -0.1706  0.0512 -0.7384
  450TMC3    C4 6702   4.130   2.975  13.586 -0.6207  0.2441  0.4579
  450TMC3    C5 6703   4.060   2.918  13.477  0.2087  0.5363 -0.9962
  450TMC3    C6 6704   4.123   2.881  13.361 -0.1439 -0.8080  0.8878
  450TMC3     C 6705   4.320   2.924  13.717  0.8297 -0.5044  0.0184
  450TMC3     O 6706   4.439   2.912  13.720 -0.0282  0.0523  0.2960
  450TMC3     H 6707   4.432   2.936  13.482  0.5949  0.5497  0.7755
  450TMC3    H1 6708   4.067   2.999  13.671 -0.2896 -2.4630  1.4760
  450TMC3    H2 6709   4.066   2.876  13.269  0.2477 -0.2536  0.6083
  450TMC3    C7 6710   3.927   2.863  13.515 -0.1737 -0.5911 -0.1852
  450TMC3    C8 6711   4.319   2.953  13.252  0.0222  0.0045 -0.0672
  450TMC3    O1 6712   3.863   2.920  13.600 -0.5495  0.1378  0.4038
  450TMC3    O2 6713   4.248   3.025  13.182 -0.1039  1.1214  0.4023
  451MPD2     C 6714   0.011   1.999   1.672 -0.0310 -0.4957 -0.2441
  451MPD2    C1 6715   4.672   1.988   1.550  0.2059 -0.3547  0.5807
  451MPD2    C2 6716   4.684   1.874   1.474 -0.2844  0.4967  0.1283
  451MPD2    C3 6717   0.043   1.771   1.517  0.2013  0.1445  0.2531
  451MPD2    C4 6718   0.103   1.778   1.641  0.0230  0.4580  0.0023
  451MPD2    C5 6719   0.092   1.896   1.718 -0.0499  0.2904 -0.1930
  451MPD2     H 6720   4.632   1.862   1.380 -2.1293  1.4019  1.0259
  451MPD2    H1 6721   0.169   1.698   1.671 -1.5329 -1.6060 -2.1142
  451MPD2    H2 6722   0.023   2.094   1.722 -0.0657 -1.3418  1.3726
  451MPD2    H3 6723   0.143   1.909   1.813 -2.7244 -0.0807  1.2657
  451MPD2     N 6724   0.068   1.652   1.448  0.2050  0.2501  0.4653
  451MPD2    H5 6725   0.115   1.581   1.502  1.0280 -0.6736 -1.4768
  451MPD2    N1 6726   4.585   2.090   1.510 -0.2398 -0.9571  0.5462
  451MPD2    H7 6727   4.570   2.159   1.582  2.3891 -0.0363  0.1848
  452TMC3    C1 6728   0.076   1.494   1.256 -0.3447 -0.0924  0.1745
  452TMC3    C2 6729   0.085   1.386   1.336  0.0536  0.6192  0.2868
  452TMC3    C3 6730   0.094   1.265   1.281  0.0459  0.1633 -0.4589
  452TMC3    C4 6731   0.077   1.482   1.121  0.0478 -0.0809 -0.1262
  452TMC3    C5 6732   0.077   1.354   1.065  0.3713 -0.4584  0.3868
  452TMC3    C6 6733   0.084   1.245   1.145 -0.0545  0.1212  0.2238
  452TMC3     C 6734   0.047   1.634   1.310 -0.2310 -1.0985  0.0673
  452TMC3     O 6735   0.030   1.722   1.227 -0.1258 -0.3619 -0.6249
  452TMC3     H 6736   0.080   1.389   1.444  0.4787 -0.9039  0.3502
  452TMC3    H1 6737   0.060   1.573   1.065  1.7748  1.6497  2.1481
  452TMC3    H2 6738   0.100   1.144   1.109 -0.9994 -0.4448  1.4155
  452TMC3    C7 6739   0.063   1.346   0.926 -0.1162  0.1628  0.1912
  452TMC3    C8 6740   0.066   1.156   1.372  0.2284  0.4809 -0.2221
  452TMC3    O1 6741   0.107   1.443   0.868  0.1578 -0.0677 -0.3393
  452TMC3    O2 6742   4.715   1.065   1.330 -0.2331  0.1838 -0.1573
  453TMC3    C1 6743   2.436   3.688  12.015 -0.0583 -0.0900  0.3308
  453TMC3    C2 6744   2.390   3.574  12.073 -0.2276 -0.3849  0.4347
  453TMC3    C3 6745   2.350   3.476  11.986  0.2614 -0.0982 -0.1446
  453TMC3    C4 6746   2.449   3.705  11.877  0.1953  0.7128 -0.2956
  453TMC3    C5 6747   2.411   3.602  11.801  0.3449 -1.0335  0.4176
  453TMC3    C6 6748   2.363   3.478  11.850 -0.3471 -0.4116  0.3312
  453TMC3     C 6749   2.517   3.773  12.098 -0.3216  0.2526 -0.2049
  453TMC3     O 6750   2.605   3.837  12.043 -0.3763  0.4968  0.0129
  453TMC3     H 6751   2.385   3.561  12.181  0.1925  1.2846  0.6660
  453TMC3    H1 6752   2.505   3.792  11.844  1.9275 -0.1307  0.4012
  453TMC3    H2 6753   2.309   3.411  11.784  1.0069 -0.1557 -1.0362
  453TMC3    C7 6754   2.371   3.642  11.668  0.1062 -0.0033  0.1573
  453TMC3    C8 6755   2.318   3.351  12.053 -0.0591 -0.4805 -0.6689
  453TMC3    O1 6756   2.337   3.561  11.584  0.3327  0.4140 -0.4215
  453TMC3    O2 6757   2.303   3.353  12.175  0.0835 -0.2017  0.4131
  454MPD2     C 6758   0.550   2.884  16.505 -0.3732  0.5197 -0.8386
  454MPD2    C1 6759   0.508   3.013  16.484 -0.1762 -0.4663  0.5876
  454MPD2    C2 6760   0.466   3.084  16.591  0.2416  0.6926  0.7189
  454MPD2    C3 6761   0.450   3.024  16.714  0.2671 -0.6601  0.4648
  454MPD2    C4 6762   0.514   2.906  16.748  0.4036 -0.1816  0.2592
  454MPD2    C5 6763   0.558   2.837  16.636 -1.2143 -0.5198 -0.3123
  454MPD2     H 6764   0.432   3.186  16.582  2.3707  1.2559 -0.9831
  454MPD2    H1 6765   0.510   2.857  16.844 -2.0614 -2.5984 -1.0742
  454MPD2    H2 6766   0.601   2.823  16.431 -0.6806  0.3081 -0.8776
  454MPD2    H3 6767   0.603   2.740  16.653  2.8173  0.7548 -3.6546
  454MPD2     N 6768   0.383   3.094  16.816 -0.0233 -0.5845  0.7345
  454MPD2    H5 6769   0.396   3.058  16.909 -0.7526 -0.6324  0.8189
  454MPD2    N1 6770   0.505   3.067  16.354  0.0332  0.6743  0.7926
  454MPD2    H7 6771   0.485   3.166  16.344  0.4537  0.8993  2.1863
  455TMC3    C1 6772   0.212   3.222  16.700  0.3757  0.2658  0.1403
  455TMC3    C2 6773   0.124   3.334  16.713  0.6297  0.2624  0.1263
  455TMC3    C3 6774   0.023   3.346  16.613 -0.1907  0.2228 -0.2630
  455TMC3    C4 6775   0.181   3.120  16.615 -0.1933  0.3098 -0.4280
  455TMC3    C5 6776   0.088   3.144  16.510  0.2089  0.0805  0.2632
  455TMC3    C6 6777   0.015   3.260  16.504  0.5370 -0.0477  0.6294
  455TMC3     C 6778   0.302   3.200  16.809  0.4308  0.4674  0.0832
  455TMC3     O 6779   0.290   3.270  16.909 -0.0586 -0.5991 -0.2094
  455TMC3     H 6780   0.132   3.401  16.797  1.3109  1.1074 -0.6108
  455TMC3    H1 6781   0.228   3.023  16.626 -0.0291  0.6973  2.1451
  455TMC3    H2 6782   4.662   3.273  16.426 -0.2176  0.5848  1.4672
  455TMC3    C7 6783   0.064   3.047  16.396  0.2989 -0.2594 -0.7862
  455TMC3    C8 6784   4.619   3.418  16.635  0.2555  0.0018 -0.0278
  455TMC3    O1 6785   4.671   3.042  16.351  0.0456  0.1794  0.0455
  455TMC3    O2 6786   4.512   3.373  16.594  0.1623 -0.0398  0.4856
  456MPD2     C 6787   2.954   3.156  16.677 -0.4936 -0.2639  0.1585
  456MPD2    C1 6788   3.051   3.167  16.775 -0.2056  0.1883 -0.0966
  456MPD2    C2 6789   3.039   3.258  16.878  0.4363 -0.3358  0.4102
  456MPD2    C3 6790   2.927   3.334  16.883 -0.1874 -0.7972  0.2983
  456MPD2    C4 6791   2.823   3.321  16.795 -0.0779 -0.7354  0.1376
  456MPD2    C5 6792   2.847   3.240  16.688  0.1862  0.1779 -0.0278
  456MPD2     H 6793   3.120   3.267  16.950  0.8817 -2.2504  0.1336
  456MPD2    H1 6794   2.725   3.366  16.785  0.9762  1.1759 -1.5385
  456MPD2    H2 6795   2.972   3.095  16.589 -1.2053 -1.6169  0.9529
  456MPD2    H3 6796   2.771   3.229  16.611  0.3361  0.4604 -0.2140
  456MPD2     N 6797   2.913   3.424  16.992 -0.2773 -0.1012  0.0629
  456MPD2    H5 6798   2.983   3.411  17.064 -0.2864  1.1591  0.2998
  456MPD2    N1 6799   3.156   3.072  16.778 -0.0693  0.4125  0.5449
  456MPD2    H7 6800   3.243   3.098  16.825 -0.6983  2.3805  0.5947
  457TMC3    C1 6801   2.801   3.571  17.142  0.2073  0.5634 -0.0558
  457TMC3    C2 6802   2.695   3.652  17.165  0.0580  0.7601 -0.3417
  457TMC3    C3 6803   2.701   3.725  17.278 -0.8927 -0.3343 -0.1323
  457TMC3    C4 6804   2.902   3.549  17.230 -0.3423 -0.2540 -0.0341
  457TMC3    C5 6805   2.897   3.618  17.351 -0.1265 -0.6296  0.0518
  457TMC3    C6 6806   2.802   3.715  17.368 -0.8826 -0.0556  0.3105
  457TMC3     C 6807   2.804   3.510  17.016  0.3231  0.7246  0.6681
  457TMC3     O 6808   2.713   3.537  16.936 -0.5966  0.3341 -0.0215
  457TMC3     H 6809   2.607   3.646  17.101  0.9840  0.3320 -1.5812
  457TMC3    H1 6810   2.985   3.482  17.211 -0.1962  0.3401 -1.5567
  457TMC3    H2 6811   2.803   3.780  17.454 -1.0045  1.1241 -0.5742
  457TMC3    C7 6812   2.971   3.582  17.466  0.3482 -0.1296 -0.3339
  457TMC3    C8 6813   2.603   3.838  17.288 -0.5522 -0.0042 -0.7128
  457TMC3    O1 6814   2.940   3.632  17.572 -0.2608 -0.1977 -0.1874
  457TMC3    O2 6815   2.575   3.876  17.399 -0.4524  0.4754  0.5085
  458MPD2     C 6816   1.286   2.904  12.248 -0.2118 -0.0951 -0.3551
  458MPD2    C1 6817   1.284   2.802  12.336  0.5699 -0.2185  0.1404
  458MPD2    C2 6818   1.178   2.707  12.331 -0.6895  0.3514 -0.1069
  458MPD2    C3 6819   1.068   2.737  12.249 -0.6144  0.4923  1.0766
  458MPD2    C4 6820   1.070   2.851  12.165  0.2115  0.3042  0.4644
  458MPD2    C5 6821   1.181   2.930  12.163  0.2610  0.0763 -0.5761
  458MPD2     H 6822   1.189   2.621  12.395 -0.2723 -1.0603 -2.1024
  458MPD2    H1 6823   0.988   2.877  12.098 -0.8834  0.5121  1.8912
  458MPD2    H2 6824   1.376   2.964  12.250 -0.1505 -0.2044  0.3628
  458MPD2    H3 6825   1.193   3.015  12.097  0.9806  2.6130  2.8250
  458MPD2     N 6826   0.955   2.648  12.264  0.3557  0.2533  0.6220
  458MPD2    H5 6827   0.966   2.580  12.339  1.7485 -0.2873 -0.0598
  458MPD2    N1 6828   1.394   2.794  12.427  0.2471  0.2348  0.5924
  458MPD2    H7 6829   1.467   2.861  12.406 -1.0284  1.6777  0.7574
  459TMC3    C1 6830   1.522   2.742  12.624 -0.6825 -0.0950 -0.0570
  459TMC3    C2 6831   1.602   2.845  12.588  0.4376  0.0089 -1.0764
  459TMC3    C3 6832   1.689   2.894  12.675  0.2115  0.8248  0.0714
  459TMC3    C4 6833   1.524   2.690  12.752  0.4656 -0.3400 -0.1319
  459TMC3    C5 6834   1.607   2.751  12.847 -0.7894  0.2116 -0.2025
  459TMC3    C6 6835   1.694   2.852  12.805 -0.5519 -0.0306  0.0656
  459TMC3     C 6836   1.409   2.708  12.539 -0.5809  0.5378  0.4970
  459TMC3     O 6837   1.334   2.614  12.564 -0.8045  0.9817 -0.3357
  459TMC3     H 6838   1.620   2.868  12.483  0.7502  0.5649 -0.8993
  459TMC3    H1 6839   1.441   2.623  12.770 -0.0006 -0.1531 -1.6049
  459TMC3    H2 6840   1.767   2.899  12.869  0.5000  0.2135 -1.3140
  459TMC3    C7 6841   1.606   2.688  12.977 -0.4276  0.0984 -0.3209
  459TMC3    C8 6842   1.802   2.985  12.637  0.6716 -0.0666  0.0816
  459TMC3    O1 6843   1.511   2.605  12.983 -0.3840 -0.2730  0.1192
  459TMC3    O2 6844   1.895   3.000  12.718  0.7093 -0.7518  0.2190
  460MPD2     C 6845   0.772   0.211  10.589  0.0241  0.4880  0.0836
  460MPD2    C1 6846   0.684   0.302  10.645  0.2343 -0.5519 -0.7607
  460MPD2    C2 6847   0.594   0.367  10.562  0.3168 -0.0830  0.0168
  460MPD2    C3 6848   0.586   0.327  10.429 -0.3299 -0.2828  0.1900
  460MPD2    C4 6849   0.689   0.248  10.378  0.9085  0.6125 -0.0291
  460MPD2    C5 6850   0.788   0.199  10.454 -0.0346  0.4070  0.5949
  460MPD2     H 6851   0.513   0.425  10.605 -0.9799  0.5093 -3.2306
  460MPD2    H1 6852   0.701   0.219  10.274 -2.7979 -2.5886  0.4120
  460MPD2    H2 6853   0.839   0.152  10.650  1.0919  0.8735 -0.7309
  460MPD2    H3 6854   0.858   0.132  10.405 -0.1277  0.4508  0.4014
  460MPD2     N 6855   0.487   0.376  10.342  0.1653  0.5191 -0.1712
  460MPD2    H5 6856   0.456   0.470  10.368 -1.2639  0.1955 -0.7196
  460MPD2    N1 6857   0.694   0.326  10.787  1.1451 -0.2754 -0.0676
  460MPD2    H7 6858   0.766   0.274  10.836 -0.5196 -0.1739  2.4706
  461TMC3    C1 6859   0.359   0.400  10.138  0.0050 -0.0932  0.6370
  461TMC3    C2 6860   0.348   0.358  10.012  0.0593  0.0824 -0.1295
  461TMC3    C3 6861   0.252   0.406   9.929 -0.0824  0.0976 -0.3409
  461TMC3    C4 6862   0.287   0.504  10.180  0.1790  0.1239  0.1892
  461TMC3    C5 6863   0.187   0.554  10.100 -0.9875  0.7414  0.3922
  461TMC3    C6 6864   0.162   0.494   9.976 -0.0965  0.4708  0.5944
  461TMC3     C 6865   0.449   0.318  10.225 -0.1175 -0.2470 -0.6842
  461TMC3     O 6866   0.485   0.209  10.181  0.3692 -0.2753 -0.3524
  461TMC3     H 6867   0.420   0.286   9.974  0.7228 -0.1028  1.4984
  461TMC3    H1 6868   0.315   0.559  10.270 -1.1081  1.4963 -0.2408
  461TMC3    H2 6869   0.078   0.524   9.914  1.1161 -1.4362 -1.9833
  461TMC3    C7 6870   0.158   0.695  10.096 -1.0595  0.8598 -0.8018
  461TMC3    C8 6871   0.260   0.345   9.794 -0.4930  0.4804  0.0465
  461TMC3    O1 6872   0.111   0.732   9.989 -0.0751 -0.8827  0.4533
  461TMC3    O2 6873   0.373   0.320   9.751  0.1748  0.5154  0.1497
  462TMC3    C1 6874   0.094   0.730   0.025 -0.2356 -0.4021  0.4105
  462TMC3    C2 6875   0.080   0.601  17.672  0.3455 -0.3736 -1.0680
  462TMC3    C3 6876   4.692   0.536   0.031 -0.4571  0.0566 -0.3477
  462TMC3    C4 6877   0.001   0.790   0.101  0.3555  0.3643 -0.0383
  462TMC3    C5 6878   4.622   0.716   0.157 -0.3387  0.2197 -0.1638
  462TMC3    C6 6879   4.605   0.585   0.126  0.7138 -0.1623  0.6036
  462TMC3     C 6880   0.188   0.817  17.644  0.1044 -0.2725  0.3124
  462TMC3     O 6881   0.224   0.920   0.011 -0.1264  0.2376 -0.1071
  462TMC3     H 6882   0.151   0.559  17.601  0.1180  0.3088 -1.7068
  462TMC3    H1 6883   0.010   0.893   0.133 -0.7231 -0.1507  1.9191
  462TMC3    H2 6884   4.506   0.542   0.137  0.2921  0.8973  0.8806
  462TMC3    C7 6885   4.531   0.783   0.246  0.4043 -0.1768  0.2484
  462TMC3    C8 6886   4.660   0.406  17.655  1.1313  0.0480 -0.5274
  462TMC3    O1 6887   4.576   0.880   0.300 -0.2523  0.3929 -0.1023
  462TMC3    O2 6888   4.615   0.312   0.034  0.5072 -0.1560 -0.4319
  463MPD2     C 6889   0.303   0.719   1.710 -0.0683 -0.2245 -0.1354
  463MPD2    C1 6890   0.247   0.670   1.596  0.0664 -0.4178  0.5367
  463MPD2    C2 6891   0.275   0.725   1.466  0.6662 -0.2691  0.0727
  463MPD2    C3 6892   0.347   0.839   1.457 -0.5311  0.3253  0.3011
  463MPD2    C4 6893   0.416   0.883   1.570 -0.7309  0.3421  0.0981
  463MPD2    C5 6894   0.384   0.825   1.692 -0.2147 -0.7253 -0.2445
  463MPD2     H 6895   0.228   0.679   1.380  0.7647  1.1870 -0.7522
  463MPD2    H1 6896   0.472   0.976   1.567  0.7978 -0.5449  0.7215
  463MPD2    H2 6897   0.291   0.688   1.813 -1.0169  1.4203  0.2518
  463MPD2    H3 6898   0.437   0.862   1.779 -0.7256 -1.4820  0.3829
  463MPD2     N 6899   0.362   0.920   1.339  0.0508  0.6169  0.5376
  463MPD2    H5 6900   0.410   1.009   1.351  0.0844  0.4442  1.6944
  463MPD2    N1 6901   0.168   0.557   1.596  0.2737  0.5320 -0.2432
  463MPD2    H7 6902   0.126   0.519   1.512  1.9856 -2.3802  0.1858
  464TMC3    C1 6903   0.048   0.378   1.709 -0.2809 -0.5574  0.0412
  464TMC3    C2 6904   4.671   0.389   1.613 -0.9929  0.0700  0.2347
  464TMC3    C3 6905   4.573   0.294   1.617  0.5106  0.2035  0.0341
  464TMC3    C4 6906   0.055   0.275   1.796  0.3208 -0.4578  0.7412
  464TMC3    C5 6907   4.687   0.174   1.789  0.3224 -0.1347  0.5879
  464TMC3    C6 6908   4.580   0.185   1.703  0.0633  0.4714 -0.9275
  464TMC3     C 6909   0.157   0.476   1.706  0.1120 -0.1404 -0.7590
  464TMC3     O 6910   0.240   0.457   1.796 -0.3938 -0.3562  0.2917
  464TMC3     H 6911   4.663   0.479   1.553  0.6473  1.3979  2.0123
  464TMC3    H1 6912   0.142   0.259   1.858 -1.1013  0.6720  3.0592
  464TMC3    H2 6913   4.500   0.112   1.705 -1.9546  2.6568 -0.9271
  464TMC3    C7 6914   4.703   0.071   1.889  0.0922  0.5478  1.1217
  464TMC3    C8 6915   4.465   0.314   1.520 -0.6071  0.3909  0.5245
  464TMC3    O1 6916   0.059   0.097   1.983  0.3935  0.2867 -0.1633
  464TMC3    O2 6917   4.437   0.432   1.504  0.5300 -0.4638 -0.0296
  465MPD2     C 6918   2.265   3.702  16.941 -0.5656  0.0077  0.6168
  465MPD2    C1 6919   2.142   3.697  17.003 -0.1719  0.5900  0.7024
  465MPD2    C2 6920   2.033   3.674  16.925  0.1839 -0.5027 -0.1724
  465MPD2    C3 6921   2.035   3.669  16.784 -0.4992  0.1937  0.1508
  465MPD2    C4 6922   2.164   3.671  16.723  0.3018  0.2951  0.0439
  465MPD2    C5 6923   2.276   3.698  16.806 -0.0350  0.5912  0.5275
  465MPD2     H 6924   1.937   3.659  16.974  0.5530 -0.3144  0.6174
  465MPD2    H1 6925   2.179   3.653  16.618  2.3807 -1.2005  0.5996
  465MPD2    H2 6926   2.353   3.743  16.990  1.8467 -1.1972 -2.7070
  465MPD2    H3 6927   2.374   3.715  16.762 -0.7187  2.2606 -0.3547
  465MPD2     N 6928   1.912   3.636  16.712  0.9788 -0.4930 -0.1079
  465MPD2    H5 6929   1.823   3.619  16.758  0.6121  2.1203  0.1728
  465MPD2    N1 6930   2.131   3.716  17.141  0.1023  0.6444  0.7577
  465MPD2    H7 6931   2.039   3.733  17.178 -1.5735 -2.1452 -2.0777
  466TMC3    C1 6932   1.553   3.508  16.609  0.0418 -0.2889 -0.8936
  466TMC3    C2 6933   1.512   3.557  16.484  0.0167 -0.2226  0.6643
  466TMC3    C3 6934   1.607   3.593  16.390 -0.1288  0.1402 -0.2247
  466TMC3    C4 6935   1.691   3.515  16.639  0.1564  0.9502 -0.3286
  466TMC3    C5 6936   1.778   3.557  16.538  0.3272 -0.4039 -0.1201
  466TMC3    C6 6937   1.742   3.584  16.411  0.7075 -0.1063  1.0381
  466TMC3     C 6938   1.460   3.444  16.698  0.2534  0.6598 -0.7730
  466TMC3     O 6939   1.340   3.479  16.693  0.1734 -0.3109 -0.4264
  466TMC3     H 6940   1.409   3.535  16.457  0.4034  1.0468 -1.8723
  466TMC3    H1 6941   1.727   3.482  16.735  0.8173  0.8135 -0.6175
  466TMC3    H2 6942   1.805   3.627  16.333  0.1791  0.0332  0.6869
  466TMC3    C7 6943   1.906   3.606  16.577 -0.0167  0.3545  0.0939
  466TMC3    C8 6944   1.566   3.705  16.322  0.2682  0.0457 -0.1614
  466TMC3    O1 6945   1.989   3.614  16.487  0.6481 -0.5376  0.2316
  466TMC3    O2 6946   1.613   3.721  16.213  0.3313  0.7818  0.2077
  467TMC3    C1 6947   2.796   1.794  13.449 -0.3852  0.3074  0.2185
  467TMC3    C2 6948   2.698   1.855  13.375  0.1011 -0.3221  0.5067
  467TMC3    C3 6949   2.574   1.876  13.429  0.1730 -0.3219 -0.2682
  467TMC3    C4 6950   2.773   1.737  13.570 -0.4167 -0.9395  0.7669
  467TMC3    C5 6951   2.647   1.750  13.611 -0.2601  0.5113 -0.3642
  467TMC3    C6 6952   2.543   1.810  13.544  0.2602  0.2350 -0.0835
  467TMC3     C 6953   2.942   1.818  13.413  0.1631  0.2967 -1.1118
  467TMC3     O 6954   3.027   1.780  13.496  0.1119  0.3894 -0.1023
  467TMC3     H 6955   2.723   1.906  13.283 -2.0684 -2.2843 -1.1501
  467TMC3    H1 6956   2.855   1.687  13.621  1.1702 -0.8831 -1.7411
  467TMC3    H2 6957   2.439   1.792  13.570  0.1697 -2.2060 -2.1173
  467TMC3    C7 6958   2.621   1.654  13.717 -0.5517  0.2369 -0.4768
  467TMC3    C8 6959   2.463   1.951  13.365 -0.1289  0.2044  0.8241
  467TMC3    O1 6960   2.674   1.546  13.701 -0.1142 -0.1144 -0.0540
  467TMC3    O2 6961   2.351   1.908  13.381 -0.4776 -0.0779  0.4079
  468MPD2     C 6962   2.029   0.397  10.466 -0.5312  0.0032 -0.1590
  468MPD2    C1 6963   2.079   0.410  10.594 -0.8181  0.5740  0.1002
  468MPD2    C2 6964   2.161   0.306  10.644  0.1121 -0.1341  0.1022
  468MPD2    C3 6965   2.178   0.183  10.581 -0.9433  0.0065  0.1334
  468MPD2    C4 6966   2.110   0.169  10.457 -1.0777 -0.4283 -0.1318
  468MPD2    C5 6967   2.037   0.273  10.407  0.3093  0.0693 -0.2219
  468MPD2     H 6968   2.207   0.333  10.738  2.2261 -0.6909 -0.7802
  468MPD2    H1 6969   2.127   0.077  10.402 -1.7928  0.5566 -2.0410
  468MPD2    H2 6970   1.972   0.467  10.406  0.3694  1.0044  0.1573
  468MPD2    H3 6971   2.003   0.265  10.304  0.2708  0.1985 -0.2186
  468MPD2     N 6972   2.250   0.074  10.635 -0.2250  0.3067  0.9566
  468MPD2    H5 6973   2.259   0.005  10.562  2.3036  1.2868  0.3479
  468MPD2    N1 6974   2.069   0.527  10.669 -0.1830  0.4685  0.1644
  468MPD2    H7 6975   2.109   0.534  10.762 -0.1721 -0.8824  0.2609
  469TMC3    C1 6976   2.040   0.749  10.728  0.4855 -0.4743  0.2588
  469TMC3    C2 6977   2.154   0.755  10.805 -0.1348  0.4487 -1.0352
  469TMC3    C3 6978   2.143   0.838  10.912  0.8363  0.5736  0.2968
  469TMC3    C4 6979   1.946   0.851  10.729 -0.2685  0.3150 -0.1428
  469TMC3    C5 6980   1.946   0.937  10.829  0.3166 -0.2400  0.0060
  469TMC3    C6 6981   2.042   0.928  10.926 -0.1542  0.3527 -0.5193
  469TMC3     C 6982   2.016   0.645  10.635  0.4138  0.3665 -0.7844
  469TMC3     O 6983   1.982   0.678  10.525  0.4365  0.3452  1.2433
  469TMC3     H 6984   2.232   0.681  10.797 -0.4297  0.0153  0.0471
  469TMC3    H1 6985   1.867   0.854  10.655 -0.7985 -2.1509  0.3222
  469TMC3    H2 6986   2.054   1.008  10.999  0.0310  2.5041 -2.9114
  469TMC3    C7 6987   1.824   1.017  10.844  1.2387  0.0378 -1.0981
  469TMC3    C8 6988   2.256   0.825  11.007 -0.6318 -1.0292  0.1278
  469TMC3    O1 6989   1.733   0.981  10.775  0.4080 -0.4139  0.2891
  469TMC3    O2 6990   2.360   0.772  10.970 -0.1955  0.5561 -0.3820
  470TMC3    C1 6991   3.581   1.778   1.074  0.1776 -0.6096 -0.1428
  470TMC3    C2 6992   3.503   1.833   1.175 -0.1050 -0.6620 -0.1357
  470TMC3    C3 6993   3.569   1.881   1.286  0.3132 -0.9428 -0.6348
  470TMC3    C4 6994   3.716   1.757   1.090 -0.4635  0.5774  0.1443
  470TMC3    C5 6995   3.773   1.787   1.213 -0.3427 -0.2198  0.3181
  470TMC3    C6 6996   3.701   1.852   1.306  0.5565 -0.3160 -0.6089
  470TMC3     C 6997   3.521   1.739   0.948  0.4746 -0.6979  0.3327
  470TMC3     O 6998   3.421   1.801   0.921  0.4675  0.1827 -0.1093
  470TMC3     H 6999   3.402   1.860   1.146  0.2064  0.3333 -0.3082
  470TMC3    H1 7000   3.772   1.702   1.015 -1.6884 -1.6010  0.8356
  470TMC3    H2 7001   3.739   1.880   1.403 -2.9977 -0.3098  0.7817
  470TMC3    C7 7002   3.912   1.779   1.236  0.7451  0.3961 -0.2192
  470TMC3    C8 7003   3.513   1.983   1.369  0.2376  0.5704 -0.0567
  470TMC3    O1 7004   3.982   1.774   1.138  0.2556  0.4152 -0.3426
  470TMC3    O2 7005   3.595   2.028   1.445  0.5063  0.1018 -0.4956
  471MPD2     C 7006   4.067   2.827  16.841  0.5042  0.3497 -1.0726
  471MPD2    C1 7007   4.083   2.700  16.784 -0.4666 -0.8344  0.9639
  471MPD2    C2 7008   4.209   2.648  16.792  0.5108  0.0648  0.1913
  471MPD2    C3 7009   4.317   2.709  16.858 -0.2995 -0.4897  0.2634
  471MPD2    C4 7010   4.291   2.828  16.912 -0.0913  0.5293 -0.8130
  471MPD2    C5 7011   4.174   2.894  16.900 -0.9463 -0.4047 -0.7139
  471MPD2     H 7012   4.230   2.552  16.746  2.5676 -0.1421  1.5488
  471MPD2    H1 7013   4.370   2.881  16.963  0.4614 -1.3215  0.2140
  471MPD2    H2 7014   3.969   2.872  16.835  0.3741  0.5040  2.1295
  471MPD2    H3 7015   4.156   2.990  16.948  2.4491  0.6727 -1.5946
  471MPD2     N 7016   4.441   2.641  16.894  0.8980  0.5776 -0.0087
  471MPD2    H5 7017   4.508   2.700  16.942 -0.0114  1.3341  0.3224
  471MPD2    N1 7018   3.985   2.620  16.720  0.1794 -0.1531 -0.0875
  471MPD2    H7 7019   4.007   2.523  16.697  2.8194  0.3128  0.4327
  472TMC3    C1 7020   3.774   2.570  16.628 -0.2728  0.2633 -0.0992
  472TMC3    C2 7021   3.647   2.610  16.607  0.0983  0.6158  0.0267
  472TMC3    C3 7022   3.564   2.524  16.548 -0.0913  0.2027  0.5318
  472TMC3    C4 7023   3.824   2.449  16.596  0.0324  0.2910  0.3875
  472TMC3    C5 7024   3.740   2.376  16.523  0.0784 -0.7184 -0.2930
  472TMC3    C6 7025   3.607   2.405  16.500 -0.7655 -0.4788  0.5431
  472TMC3     C 7026   3.852   2.662  16.704  0.7211  0.3610 -0.1498
  472TMC3     O 7027   3.804   2.771  16.722 -0.4228  0.2973 -0.0573
  472TMC3     H 7028   3.606   2.705  16.639  0.3300 -0.3564  3.2724
  472TMC3    H1 7029   3.927   2.416  16.608  0.1991  0.9729  0.8510
  472TMC3    H2 7030   3.533   2.338  16.456  1.1527 -2.1938 -0.0860
  472TMC3    C7 7031   3.779   2.239  16.510  0.0667 -0.3732 -0.5367
  472TMC3    C8 7032   3.417   2.549  16.552  0.6164  0.4976  0.0729
  472TMC3    O1 7033   3.861   2.200  16.597 -0.1089  0.1552  0.1340
  472TMC3    O2 7034   3.385   2.669  16.561 -0.0990  0.6067 -0.0069
  473MPD2     C 7035   4.241   4.061  14.128 -0.6670  0.6200  0.4004
  473MPD2    C1 7036   4.212   4.166  14.047 -0.5366  0.0365 -0.0120
  473MPD2    C2 7037   4.243   4.298  14.091 -0.0579 -0.3157  0.4226
  473MPD2    C3 7038   4.320   4.318  14.207 -0.3961 -0.0704  0.3612
  473MPD2    C4 7039   4.357   4.212  14.281  0.5487 -0.5433  0.1448
  473MPD2    C5 7040   4.323   4.084  14.243  0.8880 -0.3148 -0.1646
  473MPD2     H 7041   4.214   4.379  14.026 -0.7416 -1.1629 -0.3282
  473MPD2    H1 7042   4.423   4.219  14.367  1.4974  0.1619 -0.6377
  473MPD2    H2 7043   4.225   3.957  14.102  0.2114 -0.1011  2.7684
  473MPD2    H3 7044   4.363   4.000  14.298  0.9140 -0.2479 -0.0816
  473MPD2     N 7045   4.364   4.449  14.248 -0.2552  0.4796 -0.1669
  473MPD2    H5 7046   4.436   4.444  14.320  1.4326 -0.4539 -1.9045
  473MPD2    N1 7047   4.135   4.151  13.932  0.3808  0.1412  0.3352
  473MPD2    H7 7048   4.139   4.234  13.873 -3.0517  0.8684  1.1442
  474TMC3    C1 7049   4.418   4.672  14.231  0.2809  0.3117 -0.1124
  474TMC3    C2 7050   4.436   0.054  14.145  0.1508 -0.1846 -0.8507
  474TMC3    C3 7051   4.489   0.169  14.188  0.1696  0.2415 -0.4210
  474TMC3    C4 7052   4.462   4.681  14.362 -0.7824  0.1097  0.3771
  474TMC3    C5 7053   4.488   0.086  14.405  0.4397 -0.1163  0.1946
  474TMC3    C6 7054   4.510   0.186  14.321  0.4679 -0.8372  0.0743
  474TMC3     C 7055   4.330   4.567  14.192 -0.2796 -0.0881 -0.7194
  474TMC3     O 7056   4.239   4.588  14.115 -0.0560  0.1967 -0.4892
  474TMC3     H 7057   4.403   0.033  14.044 -0.7568  0.7287 -0.7520
  474TMC3    H1 7058   4.441   4.602  14.434 -0.1930  0.4882  0.9723
  474TMC3    H2 7059   4.564   0.271  14.361 -0.2596 -0.4385  0.2063
  474TMC3    C7 7060   4.548   0.106  14.534  0.2995 -0.1071 -0.1255
  474TMC3    C8 7061   4.499   0.271  14.087 -0.1413  0.2100  0.2367
  474TMC3    O1 7062   4.478   0.169  14.611 -0.3555 -0.1568  0.3633
  474TMC3    O2 7063   4.489   0.231  13.972  0.2864 -0.6641  0.6644
  475MPD2     C 7064   3.877   2.731  10.184  1.2117  0.5183 -0.4104
  475MPD2    C1 7065   3.852   2.861  10.224  1.1947 -0.3062 -0.6328
  475MPD2    C2 7066   3.735   2.887  10.288 -0.1628 -0.1281  0.3276
  475MPD2    C3 7067   3.645   2.781  10.309  0.0485 -0.5367 -0.2770
  475MPD2    C4 7068   3.678   2.654  10.269  0.2668  0.2497 -0.1383
  475MPD2    C5 7069   3.794   2.631  10.206  0.2204 -0.1306 -0.2311
  475MPD2     H 7070   3.707   2.990  10.308 -0.9435 -0.3161  0.1991
  475MPD2    H1 7071   3.620   2.564  10.284  0.3567  0.0761 -0.8713
  475MPD2    H2 7072   3.968   2.707  10.130  0.6609 -1.1081 -0.5845
  475MPD2    H3 7073   3.833   2.537  10.167  0.5786  0.4046 -1.1616
  475MPD2     N 7074   3.518   2.818  10.367 -0.1215  0.9591  0.0610
  475MPD2    H5 7075   3.498   2.917  10.370  1.8701  1.3328  0.9835
  475MPD2    N1 7076   3.940   2.955  10.169 -0.8206  0.6363  0.3371
  475MPD2    H7 7077   4.003   2.928  10.094  0.3214  2.3169  0.7114
  476TMC3    C1 7078   4.024   3.179  10.130 -0.2917 -0.2122  0.3353
  476TMC3    C2 7079   3.980   3.175  10.005  0.1924  0.0630  0.9890
  476TMC3    C3 7080   3.938   3.290   9.947  0.0340  0.2186  0.1544
  476TMC3    C4 7081   4.057   3.296  10.193  0.3059 -0.0425 -0.4268
  476TMC3    C5 7082   4.035   3.412  10.126  0.1762 -0.3566 -0.1381
  476TMC3    C6 7083   3.972   3.409   9.997 -0.7941 -0.0218  0.0529
  476TMC3     C 7084   3.947   3.089  10.214  0.8541 -0.1242  0.0961
  476TMC3     O 7085   3.889   3.141  10.307 -0.0844  0.9678 -0.0649
  476TMC3     H 7086   3.973   3.077   9.958 -3.8054  1.4062 -1.2615
  476TMC3    H1 7087   4.091   3.289  10.296  1.2352 -3.0971 -0.9458
  476TMC3    H2 7088   3.936   3.503   9.957 -1.1723  0.3182  1.1886
  476TMC3    C7 7089   4.115   3.526  10.161  0.2484  0.1436  0.4020
  476TMC3    C8 7090   3.808   3.286   9.889 -0.8249 -0.3488 -0.2844
  476TMC3    O1 7091   4.161   3.593  10.072 -0.5221 -0.4202 -0.3343
  476TMC3    O2 7092   3.749   3.394   9.885 -0.3578  0.4799  0.1280
  477MPD2     C 7093   1.295   4.502  11.851  0.5374  0.7606 -0.2141
  477MPD2    C1 7094   1.167   4.456  11.878 -0.4572  0.4302 -0.0739
  477MPD2    C2 7095   1.140   4.350  11.966 -0.3139  0.5570  0.5635
  477MPD2    C3 7096   1.243   4.289  12.032 -0.4595  0.6547  0.2994
  477MPD2    C4 7097   1.367   4.339  12.011  0.3903 -0.1134  0.2831
  477MPD2    C5 7098   1.394   4.444  11.924 -0.5636  0.5805  0.3889
  477MPD2     H 7099   1.038   4.318  11.983 -0.1505  0.0891  0.6651
  477MPD2    H1 7100   1.454   4.303  12.066  1.1717 -0.4215 -1.1723
  477MPD2    H2 7101   1.319   4.577  11.776 -2.1103  0.7637 -1.0496
  477MPD2    H3 7102   1.499   4.467  11.912  0.2628 -2.5171  1.6476
  477MPD2     N 7103   1.230   4.180  12.119 -0.3435 -0.2082  0.2751
  477MPD2    H5 7104   1.318   4.143  12.152 -0.2753  0.0213  0.3494
  477MPD2    N1 7105   1.064   4.517  11.803  0.7483 -0.3742 -0.0096
  477MPD2    H7 7106   1.094   4.559  11.716 -0.7016 -2.3701 -1.4710
  478TMC3    C1 7107   0.841   4.606  11.757  0.6885  0.8177 -0.0909
  478TMC3    C2 7108   0.752   4.686  11.828 -0.5854 -0.4413  0.4161
  478TMC3    C3 7109   0.671   0.034  11.743 -0.7349  0.1536  0.0044
  478TMC3    C4 7110   0.860   4.593  11.629 -0.6071 -0.1380  0.4845
  478TMC3    C5 7111   0.780   4.665  11.549 -0.4124 -0.0041  0.2406
  478TMC3    C6 7112   0.679   0.021  11.605  0.0815 -0.4082  0.4440
  478TMC3     C 7113   0.926   4.521  11.844  0.3783  0.4815 -0.0006
  478TMC3     O 7114   0.874   4.499  11.954 -1.0246  0.4434  0.0693
  478TMC3     H 7115   0.737   4.689  11.935  1.7942  0.2172  0.7224
  478TMC3    H1 7116   0.938   4.528  11.592  1.4777  2.0020  1.1543
  478TMC3    H2 7117   0.597   0.053  11.542  0.4800 -0.6638 -0.2108
  478TMC3    C7 7118   0.793   4.654  11.404  0.0028  0.5447  0.1208
  478TMC3    C8 7119   0.561   0.103  11.796  0.0220  0.7371 -0.1696
  478TMC3    O1 7120   0.893   4.589  11.376 -0.4226  0.5013 -0.3226
  478TMC3    O2 7121   0.517   0.055  11.897 -0.5004 -0.1905 -0.0439
  479MPD2     C 7122   4.109   1.868  15.119 -0.0241 -0.3264  0.8685
  479MPD2    C1 7123   4.047   1.757  15.183  0.4488  0.4388  0.1106
  479MPD2    C2 7124   4.041   1.761  15.321  0.1417  0.2786  0.1335
  479MPD2    C3 7125   4.082   1.874  15.396 -0.1461 -0.1705 -0.1964
  479MPD2    C4 7126   4.147   1.974  15.327 -0.4396 -0.2135  0.4437
  479MPD2    C5 7127   4.166   1.970  15.190 -0.5952  0.2779 -0.0985
  479MPD2     H 7128   4.015   1.672  15.379  2.6099 -0.8493 -0.4874
  479MPD2    H1 7129   4.192   2.060  15.375 -1.4411 -0.2706  1.4830
  479MPD2    H2 7130   4.111   1.875  15.011 -1.0108  1.7944  1.0039
  479MPD2    H3 7131   4.226   2.037  15.130  0.2344  0.1383  0.5723
  479MPD2     N 7132   4.057   1.891  15.533 -0.2092 -0.2578  0.3968
  479MPD2    H5 7133   4.097   1.977  15.569 -0.6433  0.3459 -0.5645
  479MPD2    N1 7134   3.984   1.661  15.096 -0.4829 -0.0516 -0.3476
  479MPD2    H7 7135   3.978   1.697  15.002 -0.2319 -2.5827 -1.3279
  480TMC3    C1 7136   3.692   1.591  15.644  0.4279  0.0264  0.4090
  480TMC3    C2 7137   3.604   1.652  15.554 -0.1557 -0.3245  0.5337
  480TMC3    C3 7138   3.651   1.747  15.471  0.2434 -0.0141  0.5315
  480TMC3    C4 7139   3.817   1.640  15.663 -0.1949  0.3567  0.8570
  480TMC3    C5 7140   3.858   1.735  15.576  0.7564 -0.0898 -0.7067
  480TMC3    C6 7141   3.780   1.790  15.480 -0.0077  0.2806  0.4166
  480TMC3     C 7142   3.641   1.495  15.734 -0.2623 -0.6226  0.1356
  480TMC3     O 7143   3.706   1.437  15.820 -0.5665 -0.1776  0.3585
  480TMC3     H 7144   3.499   1.625  15.546 -0.2375 -0.7470  3.0597
  480TMC3    H1 7145   3.874   1.605  15.749 -2.2446 -1.1075  1.6377
  480TMC3    H2 7146   3.814   1.879  15.428 -0.2490 -0.8153 -1.5883
  480TMC3    C7 7147   3.974   1.821  15.623 -0.0884  0.8225 -0.3043
  480TMC3    C8 7148   3.574   1.779  15.353  0.1125  0.0317  0.0486
  480TMC3    O1 7149   3.974   1.844  15.745 -0.1610 -0.2738 -0.4828
  480TMC3    O2 7150   3.463   1.735  15.348 -0.2025  0.7813  0.6639
  481MPD2     C 7151   1.062   1.236  14.248  0.4920  0.3784 -0.7964
  481MPD2    C1 7152   0.930   1.216  14.273 -0.1339 -0.0354  0.5664
  481MPD2    C2 7153   0.897   1.135  14.377 -0.6097 -0.3335 -0.2364
  481MPD2    C3 7154   0.989   1.058  14.442 -0.3347 -0.3624  0.3365
  481MPD2    C4 7155   1.118   1.073  14.410 -1.0328  0.1229 -0.3024
  481MPD2    C5 7156   1.158   1.155  14.312 -0.1056 -0.1018 -0.4620
  481MPD2     H 7157   0.794   1.113  14.402 -0.4812 -1.5747 -0.8111
  481MPD2    H1 7158   1.192   1.027  14.474  2.2081  3.2050 -1.7645
  481MPD2    H2 7159   1.093   1.295  14.163  0.4355  0.4320 -0.7801
  481MPD2    H3 7160   1.262   1.159  14.282 -1.0652  0.6402 -3.7523
  481MPD2     N 7161   0.960   0.971  14.544 -0.0208 -0.1395  0.2450
  481MPD2    H5 7162   1.044   0.931  14.585  1.3332  2.2092 -0.2362
  481MPD2    N1 7163   0.831   1.256  14.185  0.1363 -0.5438  0.4472
  481MPD2    H7 7164   0.864   1.316  14.109 -0.7543 -1.5389 -0.7233
  482TMC3    C1 7165   0.632   1.297  14.079  0.1323 -0.1434  0.7224
  482TMC3    C2 7166   0.549   1.211  14.010 -0.5577  0.2755  0.1290
  482TMC3    C3 7167   0.538   1.233  13.872  0.1486  0.7977 -0.5010
  482TMC3    C4 7168   0.694   1.398  14.017  0.3263  0.3514  0.0464
  482TMC3    C5 7169   0.672   1.419  13.883  0.1429 -0.2016 -0.1915
  482TMC3    C6 7170   0.595   1.337  13.806  0.0311 -0.2747  0.2763
  482TMC3     C 7171   0.693   1.232  14.194  0.3107  0.1387  0.8070
  482TMC3     O 7172   0.628   1.154  14.255  0.4489  0.3662  0.1914
  482TMC3     H 7173   0.516   1.118  14.054 -1.1926  0.2299 -0.4498
  482TMC3    H1 7174   0.761   1.457  14.079  1.3613  0.0038 -0.7276
  482TMC3    H2 7175   0.580   1.378  13.706  0.1570 -0.2411  0.2720
  482TMC3    C7 7176   0.769   1.514  13.822 -0.4837 -0.7353  0.1585
  482TMC3    C8 7177   0.498   1.117  13.787 -0.1397 -0.0919  0.2544
  482TMC3    O1 7178   0.811   1.600  13.898  0.5716 -0.4230  0.1204
  482TMC3    O2 7179   0.469   1.017  13.858  0.5112 -0.7726 -0.5435
  483TMC3    C1 7180   3.009   0.090   1.023  0.2885 -0.3501 -0.0251
  483TMC3    C2 7181   3.042   0.197   0.949  0.6167  0.1913  0.0629
  483TMC3    C3 7182   3.169   0.253   0.950  0.3970  0.6518 -0.2739
  483TMC3    C4 7183   3.116   0.030   1.094  0.6457  0.1769  0.1070
  483TMC3    C5 7184   3.238   0.090   1.095 -0.2432 -0.4394  0.3198
  483TMC3    C6 7185   3.270   0.197   1.021  0.5791 -0.3522  0.5278
  483TMC3     C 7186   2.873   0.034   1.003  0.2386 -0.4149 -0.3143
  483TMC3     O 7187   2.780   0.106   0.967 -0.4633  0.1557  0.1473
  483TMC3     H 7188   2.970   0.246   0.885  0.9922 -2.5623 -2.4431
  483TMC3    H1 7189   3.097   4.683   1.177  0.6918 -0.4290 -0.3800
  483TMC3    H2 7190   3.358   0.254   1.049 -0.6791  0.6569  2.4521
  483TMC3    C7 7191   3.330   0.042   1.193 -0.0889  0.3904  0.6979
  483TMC3    C8 7192   3.206   0.361   0.857  0.0007  0.1114  0.2215
  483TMC3    O1 7193   3.335   4.646   1.218 -0.0169 -0.0445 -0.0585
  483TMC3    O2 7194   3.325   0.364   0.823  0.2028 -0.2348  0.2910
  484MPD2     C 7195   1.814   3.170  12.328  0.3372  0.2849  0.7065
  484MPD2    C1 7196   1.858   3.136  12.453  0.0572  0.1462  0.0046
  484MPD2    C2 7197   1.983   3.184  12.491  0.2741  0.3847  0.3819
  484MPD2    C3 7198   2.063   3.258  12.399  0.3068 -0.3767  0.2925
  484MPD2    C4 7199   2.004   3.303  12.285  0.4243 -1.0510 -0.1152
  484MPD2    C5 7200   1.882   3.257  12.251  0.3168  0.1738  0.4810
  484MPD2     H 7201   2.006   3.166  12.595  0.9579 -1.4504 -0.0706
  484MPD2    H1 7202   2.054   3.362  12.209  0.2550 -1.6838 -0.7143
  484MPD2    H2 7203   1.723   3.126  12.290  1.1389 -1.2535  0.5322
  484MPD2    H3 7204   1.837   3.286  12.157  0.7684 -2.5406 -0.5856
  484MPD2     N 7205   2.196   3.300  12.423 -0.0749 -0.0604 -0.6030
  484MPD2    H5 7206   2.251   3.341  12.349  0.3461  0.0791 -0.2093
  484MPD2    N1 7207   1.768   3.055  12.524 -0.1653  0.3007  0.4109
  484MPD2    H7 7208   1.681   3.031  12.477  1.4476 -0.7601 -2.0364
  485TMC3    C1 7209   2.411   3.282  12.524 -0.4405 -0.1933  0.3928
  485TMC3    C2 7210   2.496   3.183  12.574 -0.0871  0.3781 -0.2827
  485TMC3    C3 7211   2.631   3.200  12.560  0.0508 -0.0692 -0.2307
  485TMC3    C4 7212   2.469   3.392  12.458 -0.6150  0.1492  0.1121
  485TMC3    C5 7213   2.603   3.401  12.450  0.4317 -0.2190  0.2237
  485TMC3    C6 7214   2.685   3.316  12.514  0.2594 -0.2712 -0.7937
  485TMC3     C 7215   2.267   3.259  12.536  0.6199 -0.0372 -0.2500
  485TMC3     O 7216   2.242   3.178  12.623 -0.1886  0.4594 -0.0252
  485TMC3     H 7217   2.458   3.084  12.595  0.4807  0.0436 -0.8280
  485TMC3    H1 7218   2.403   3.463  12.409 -0.5273 -1.1246 -1.8480
  485TMC3    H2 7219   2.792   3.330  12.503  0.2771  2.3603  2.4865
  485TMC3    C7 7220   2.652   3.432  12.311  0.4138 -0.0526 -0.1275
  485TMC3    C8 7221   2.705   3.083  12.514  0.2550  0.0096 -0.2707
  485TMC3    O1 7222   2.636   3.545  12.264 -0.2200  0.0982  0.1774
  485TMC3    O2 7223   2.804   3.108  12.441 -0.1522 -0.0627  0.3889
  486MPD2     C 7224   3.742   1.659  12.792 -0.5284 -0.7149 -0.0206
  486MPD2    C1 7225   3.606   1.648  12.769 -0.0738 -0.4614 -0.3548
  486MPD2    C2 7226   3.540   1.743  12.696  0.2915  0.3005  0.0091
  486MPD2    C3 7227   3.599   1.866  12.668  0.6532 -0.5433  0.4924
  486MPD2    C4 7228   3.737   1.878  12.696  0.6611 -0.8201  0.5306
  486MPD2    C5 7229   3.807   1.778  12.756  0.4238  0.0263 -0.9823
  486MPD2     H 7230   3.433   1.731  12.680  0.2404  1.0196 -0.1743
  486MPD2    H1 7231   3.794   1.969  12.680 -1.8188  0.6839  0.3655
  486MPD2    H2 7232   3.788   1.577  12.846  0.1819 -1.4451 -1.7169
  486MPD2    H3 7233   3.914   1.781  12.775  0.1673 -1.2484  0.7167
  486MPD2     N 7234   3.525   1.949  12.586 -0.2022  0.0576 -0.1250
  486MPD2    H5 7235   3.434   1.914  12.557 -0.3868  0.0736  0.4402
  486MPD2    N1 7236   3.538   1.531  12.820 -0.2255 -0.0525 -0.5918
  486MPD2    H7 7237   3.599   1.460  12.860  0.5350  0.9264 -0.0255
  487TMC3    C1 7238   3.374   1.386  12.898  0.2905 -0.3298  0.0314
  487TMC3    C2 7239   3.238   1.350  12.899 -0.4188 -0.4919  0.2679
  487TMC3    C3 7240   3.210   1.236  12.966 -0.6691 -0.7423  0.4468
  487TMC3    C4 7241   3.479   1.303  12.942 -0.1375 -0.1467  0.1370
  487TMC3    C5 7242   3.438   1.188  13.005 -0.0709 -0.2658  0.3008
  487TMC3    C6 7243   3.307   1.149  13.012 -0.0396 -0.0781 -0.1297
  487TMC3     C 7244   3.402   1.513  12.831  0.2995  0.5966  0.6562
  487TMC3     O 7245   3.307   1.587  12.809 -0.4545 -0.5202 -0.2828
  487TMC3     H 7246   3.161   1.423  12.876 -0.6350 -0.7613  0.1348
  487TMC3    H1 7247   3.581   1.339  12.948 -0.6950  1.4276  0.0084
  487TMC3    H2 7248   3.280   1.076  13.088 -0.8746 -1.7550 -2.0397
  487TMC3    C7 7249   3.541   1.106  13.071 -0.1175  0.5462  0.1642
  487TMC3    C8 7250   3.069   1.211  12.997  0.1521 -0.0875  0.3511
  487TMC3    O1 7251   3.652   1.159  13.075 -0.0803  0.1483  0.0984
  487TMC3    O2 7252   3.060   1.144  13.102 -0.4159  0.0456 -0.0590
  488MPD2     C 7253   3.698   3.495  16.760 -0.2221  0.0507 -0.3599
  488MPD2    C1 7254   3.659   3.608  16.707 -0.1534  0.8921  0.0731
  488MPD2    C2 7255   3.588   3.698  16.787 -1.0634  0.5875  0.0326
  488MPD2    C3 7256   3.562   3.678  16.921 -0.9597 -0.2999  0.4856
  488MPD2    C4 7257   3.609   3.566  16.977  0.0625 -0.9838 -0.4698
  488MPD2    C5 7258   3.678   3.474  16.896  0.1250  0.3842 -0.3825
  488MPD2     H 7259   3.557   3.795  16.749 -1.2560 -0.1090 -1.5602
  488MPD2    H1 7260   3.602   3.550  17.084 -3.3922 -0.4820 -0.6307
  488MPD2    H2 7261   3.753   3.424  16.699  0.1727 -1.0631  1.2870
  488MPD2    H3 7262   3.713   3.382  16.941  0.3362  0.3553 -0.6118
  488MPD2     N 7263   3.489   3.781  16.991 -0.1356 -0.2975  0.2429
  488MPD2    H5 7264   3.464   3.864  16.938 -0.9430 -1.1380 -0.7092
  488MPD2    N1 7265   3.686   3.641  16.574 -0.3960  0.8778 -0.1713
  488MPD2    H7 7266   3.647   3.729  16.542  0.9884  1.8776  0.8447
  489TMC3    C1 7267   3.426   3.896  17.178  0.0560 -0.2220  0.4133
  489TMC3    C2 7268   3.352   3.993  17.106  0.4601 -0.3450 -0.7382
  489TMC3    C3 7269   3.327   4.117  17.153  0.3467 -0.3260  0.2402
  489TMC3    C4 7270   3.482   3.933  17.298  0.2242 -0.9761  0.0273
  489TMC3    C5 7271   3.462   4.065  17.338  0.6349 -0.0856  0.1953
  489TMC3    C6 7272   3.382   4.158  17.275  0.3394  0.0426 -0.3010
  489TMC3     C 7273   3.470   3.772  17.126 -0.0433  0.3808 -0.0021
  489TMC3     O 7274   3.499   3.686  17.212 -0.3400  0.4007  0.0652
  489TMC3     H 7275   3.309   3.965  17.010  0.4440 -2.5438 -0.0934
  489TMC3    H1 7276   3.531   3.863  17.364 -0.1651  0.3499  1.7307
  489TMC3    H2 7277   3.372   4.260  17.308 -0.0629 -0.1739  0.2387
  489TMC3    C7 7278   3.537   4.101  17.458 -0.3790  0.3111 -0.0592
  489TMC3    C8 7279   3.315   4.210  17.049  0.7521 -0.4366  0.2690
  489TMC3    O1 7280   3.635   4.041  17.502 -0.2266  0.0531  0.1560
  489TMC3    O2 7281   3.327   4.176  16.930  0.0543  0.3169  0.0514
  490MPD2     C 7282   4.145   3.021  17.234 -0.4117  0.5945  0.2335
  490MPD2    C1 7283   4.124   2.988  17.369  0.3466  0.4793  0.1216
  490MPD2    C2 7284   4.223   3.013  17.458  0.4611 -0.8734 -0.3711
  490MPD2    C3 7285   4.332   3.083  17.425  0.0613  0.8335  0.3103
  490MPD2    C4 7286   4.350   3.131  17.295 -0.1645 -0.1254 -0.4222
  490MPD2    C5 7287   4.262   3.089  17.201  0.2155  0.0840  0.2166
  490MPD2     H 7288   4.206   2.984  17.562 -0.7981  0.9445 -0.0773
  490MPD2    H1 7289   4.428   3.197  17.260 -1.1279  0.8320 -0.7509
  490MPD2    H2 7290   4.071   3.010  17.156 -0.5682  1.1204  0.3084
  490MPD2    H3 7291   4.284   3.135  17.105 -1.6457 -2.2223 -1.3343
  490MPD2     N 7292   4.430   3.123  17.516  0.1095  0.4449 -1.0210
  490MPD2    H5 7293   4.496   3.190  17.481  2.6985 -0.6825  1.7182
  490MPD2    N1 7294   4.010   2.936  17.425  0.4504  0.4144 -0.0581
  490MPD2    H7 7295   4.012   2.922  17.525  0.9108  0.2483 -0.0909
  491TMC3    C1 7296   3.800   2.829  17.425 -0.3927 -0.0766 -0.4182
  491TMC3    C2 7297   3.851   2.738  17.515 -0.3422  0.5237 -0.2942
  491TMC3    C3 7298   3.759   2.650  17.567  0.1551 -0.3432  0.0285
  491TMC3    C4 7299   3.680   2.826  17.376 -0.2623  0.4979  0.4909
  491TMC3    C5 7300   3.593   2.748  17.439  0.2658  0.4122  0.9355
  491TMC3    C6 7301   3.627   2.665  17.536  0.0074  0.1140  0.1926
  491TMC3     C 7302   3.896   2.901  17.348  0.3808 -0.3112 -0.4444
  491TMC3     O 7303   3.880   2.896  17.229 -0.5245 -0.2023  0.6875
  491TMC3     H 7304   3.956   2.722  17.536 -0.6278 -2.3669 -0.9967
  491TMC3    H1 7305   3.654   2.901  17.303  1.9656  1.2599  0.4876
  491TMC3    H2 7306   3.558   2.587  17.568  1.9308 -2.1029 -1.0858
  491TMC3    C7 7307   3.449   2.769  17.409  0.2117  0.0462  0.0755
  491TMC3    C8 7308   3.781   2.565  17.683  0.0052 -0.3479 -0.6061
  491TMC3    O1 7309   3.377   2.728  17.498  0.2159 -0.0344 -0.3084
  491TMC3    O2 7310   3.684   2.516   0.046 -0.3160  0.1665  0.4171
  492MPD2     C 7311   1.155   3.008  10.824  0.9582  0.5814 -0.5071
  492MPD2    C1 7312   1.042   2.971  10.752  0.0660 -0.2588  0.1672
  492MPD2    C2 7313   0.937   2.917  10.821 -0.3245  0.4280 -0.5882
  492MPD2    C3 7314   0.933   2.912  10.959  0.1816 -0.1208  0.8161
  492MPD2    C4 7315   1.046   2.946  11.023  0.9409 -0.5565  0.2846
  492MPD2    C5 7316   1.159   2.985  10.958  0.8866 -0.0779 -0.2092
  492MPD2     H 7317   0.848   2.886  10.768 -0.7720  0.0093  0.4104
  492MPD2    H1 7318   1.047   2.945  11.131 -1.2151 -0.3217  0.3177
  492MPD2    H2 7319   1.251   3.049  10.795  1.7385 -0.8439  0.0355
  492MPD2    H3 7320   1.251   3.002  11.013  1.2104 -2.0525 -0.1749
  492MPD2     N 7321   0.827   2.866  11.036  0.6154 -0.3881  0.1875
  492MPD2    H5 7322   0.833   2.864  11.137 -1.4568 -1.0727  0.2900
  492MPD2    N1 7323   1.045   2.992  10.612 -0.9961  0.2145 -0.1139
  492MPD2    H7 7324   1.124   3.047  10.578  1.6475 -1.8172  2.7113
  493TMC3    C1 7325   0.971   2.986  10.381  0.7675 -0.8003  0.5093
  493TMC3    C2 7326   1.020   3.115  10.375  0.5283 -0.7653  0.8987
  493TMC3    C3 7327   0.958   3.211  10.290 -0.7662  0.9052  0.0871
  493TMC3    C4 7328   0.862   2.952  10.306  0.2741  0.3735  0.3491
  493TMC3    C5 7329   0.797   3.042  10.228  0.4486 -0.8018 -0.0393
  493TMC3    C6 7330   0.838   3.174  10.225  0.1749 -0.0346  0.1393
  493TMC3     C 7331   0.949   2.945  10.522 -0.3950  0.6613 -0.0398
  493TMC3     O 7332   0.843   2.893  10.547  0.0747 -0.1757  0.0542
  493TMC3     H 7333   1.100   3.142  10.443 -0.7077  1.2034  1.5630
  493TMC3    H1 7334   0.828   2.850  10.318 -0.2062  0.4234 -0.5793
  493TMC3    H2 7335   0.768   3.239  10.173 -0.0155 -0.3180  0.0446
  493TMC3    C7 7336   0.657   3.029  10.245 -0.1850  0.2843 -0.7448
  493TMC3    C8 7337   0.973   3.338  10.356  0.2730 -0.0620  0.1055
  493TMC3    O1 7338   0.587   3.071  10.158 -0.2752 -0.1639 -0.7416
  493TMC3    O2 7339   1.013   3.344  10.474  0.2197 -0.3816 -0.4199
  494TMC3    C1 7340   4.690   0.187   0.462 -0.2623  0.1256 -0.5367
  494TMC3    C2 7341   0.024   0.217   0.586  0.8325 -0.5925  0.5774
  494TMC3    C3 7342   0.154   0.250   0.580  1.2480  0.0621  0.0670
  494TMC3    C4 7343   0.034   0.181   0.342  0.9396 -0.5794  0.4737
  494TMC3    C5 7344   0.163   0.218   0.348  0.0974  0.6053  0.8958
  494TMC3    C6 7345   0.221   0.268   0.464  0.0819  0.3362  0.8882
  494TMC3     C 7346   4.582   0.088   0.483  0.2091 -0.3300 -0.5098
  494TMC3     O 7347   4.508   0.107   0.578  0.4617  0.1684 -0.4473
  494TMC3     H 7348   4.685   0.238   0.673 -0.4746  2.4345 -1.0603
  494TMC3    H1 7349   4.704   0.165   0.248  0.2055 -2.2210  1.1600
  494TMC3    H2 7350   0.326   0.294   0.473  0.6066 -1.2799 -0.5910
  494TMC3    C7 7351   0.235   0.246   0.226  0.7197 -0.1586  0.0715
  494TMC3    C8 7352   0.236   0.233   0.694 -0.4490 -0.4378 -0.3269
  494TMC3    O1 7353   0.220   0.166   0.136 -0.3481 -0.4270 -0.5418
  494TMC3    O2 7354   0.351   0.280   0.690 -0.3462 -0.2669  0.3827
  495TMC3    C1 7355   4.088   1.807  14.555  0.7662 -0.3285  0.0906
  495TMC3    C2 7356   4.021   1.843  14.441 -0.1809 -0.2639 -0.3382
  495TMC3    C3 7357   3.911   1.931  14.449 -0.6385 -0.4152 -0.3352
  495TMC3    C4 7358   4.056   1.870  14.677  0.0068 -0.0071 -0.3851
  495TMC3    C5 7359   3.948   1.955  14.679 -0.8064 -0.2875 -0.3278
  495TMC3    C6 7360   3.872   1.986  14.568  0.6154  0.5419  0.1917
  495TMC3     C 7361   4.116   1.660  14.557  0.2237 -0.2620  0.3265
  495TMC3     O 7362   4.113   1.594  14.453 -0.6913 -0.1223 -0.3701
  495TMC3     H 7363   4.061   1.800  14.350  1.6024  0.0809  0.2883
  495TMC3    H1 7364   4.123   1.860  14.762 -2.3695 -0.1054  1.4735
  495TMC3    H2 7365   3.783   2.049  14.571 -0.2439 -0.7035  0.8738
  495TMC3    C7 7366   3.869   1.938  14.805  0.6889  0.0112  0.4957
  495TMC3    C8 7367   3.801   1.894  14.362 -0.6765 -0.5589  0.3713
  495TMC3    O1 7368   3.926   1.868  14.887  0.4304 -0.3979  0.3331
  495TMC3    O2 7369   3.696   1.879  14.425 -0.2010 -0.3031  0.7159
  496MPD2     C 7370   1.328   1.828  15.540 -0.0542  0.1216 -0.2392
  496MPD2    C1 7371   1.238   1.738  15.471 -0.2323 -0.5050  0.4475
  496MPD2    C2 7372   1.101   1.761  15.480 -0.1588 -0.6309  0.8199
  496MPD2    C3 7373   1.049   1.867  15.546 -0.2925 -0.3456  0.0837
  496MPD2    C4 7374   1.138   1.949  15.619 -0.2457  1.0452  0.9994
  496MPD2    C5 7375   1.275   1.931  15.613  0.0891  0.5671  0.0126
  496MPD2     H 7376   1.041   1.696  15.418  1.1062 -0.0760 -0.9783
  496MPD2    H1 7377   1.103   2.041  15.664 -1.8428  0.8518  0.1621
  496MPD2    H2 7378   1.435   1.812  15.531 -0.0346 -0.2585  0.6531
  496MPD2    H3 7379   1.334   2.014  15.651 -0.0645  1.0994 -0.8948
  496MPD2     N 7380   0.907   1.880  15.531 -0.3001  0.1594 -0.4264
  496MPD2    H5 7381   0.858   1.807  15.481 -0.3887 -0.0252 -0.0693
  496MPD2    N1 7382   1.297   1.638  15.387 -0.2256 -0.2339  0.0339
  496MPD2    H7 7383   1.398   1.644  15.379 -0.3053  0.1859 -0.6267
  497TMC3    C1 7384   0.691   1.950  15.559 -0.0278 -0.1012  0.0219
  497TMC3    C2 7385   0.655   1.886  15.441  0.1084  0.0689 -0.4770
  497TMC3    C3 7386   0.539   1.808  15.439  0.6333  0.1590  0.1373
  497TMC3    C4 7387   0.623   1.916  15.675 -0.7569  0.3781 -0.2282
  497TMC3    C5 7388   0.512   1.836  15.671 -0.7761  0.5727  0.4970
  497TMC3    C6 7389   0.466   1.786  15.554  0.2238  0.6039 -0.1234
  497TMC3     C 7390   0.829   1.981  15.589  1.1319 -0.1241  0.5625
  497TMC3     O 7391   0.863   2.068  15.670 -0.2573  0.2136 -0.3560
  497TMC3     H 7392   0.721   1.890  15.355  1.8021 -0.9047  0.7637
  497TMC3    H1 7393   0.662   1.943  15.773 -0.4158  0.5236 -0.4012
  497TMC3    H2 7394   0.392   1.707  15.562 -0.3750  1.0913 -0.7970
  497TMC3    C7 7395   0.485   1.747  15.784 -0.5658  0.1974  0.3586
  497TMC3    C8 7396   0.527   1.729  15.318 -0.4397 -0.3909 -0.2724
  497TMC3    O1 7397   0.368   1.705  15.804 -0.0433  0.2443  0.0884
  497TMC3    O2 7398   0.472   1.618  15.330  0.2391 -0.4201 -0.1897
  498MPD2     C 7399   3.516   2.412   9.674 -0.0906  0.3749 -0.2342
  498MPD2    C1 7400   3.398   2.484   9.683 -0.2546  0.7821  0.1485
  498MPD2    C2 7401   3.281   2.416   9.702 -0.5395  0.1987  0.4736
  498MPD2    C3 7402   3.278   2.275   9.713 -0.2716 -0.3862  0.7686
  498MPD2    C4 7403   3.395   2.206   9.701  0.2802  0.4402  0.4604
  498MPD2    C5 7404   3.514   2.274   9.685  0.0767 -0.2365  0.0242
  498MPD2     H 7405   3.186   2.467   9.716 -0.4981  0.6358 -0.9153
  498MPD2    H1 7406   3.394   2.098   9.699 -1.3673  0.5179 -2.1298
  498MPD2    H2 7407   3.609   2.467   9.671 -0.0662  0.3865  0.6164
  498MPD2    H3 7408   3.602   2.210   9.677 -0.7314 -1.0876 -2.1405
  498MPD2     N 7409   3.146   2.224   9.726 -0.0150 -0.0310  0.2346
  498MPD2    H5 7410   3.065   2.285   9.727 -0.5223 -0.6786 -0.8003
  498MPD2    N1 7411   3.390   2.624   9.681  0.4067  0.2027  0.2255
  498MPD2    H7 7412   3.297   2.662   9.669 -0.3021 -1.7704 -0.3975
  499TMC3    C1 7413   3.448   2.854   9.665  0.0570 -0.1150  0.6458
  499TMC3    C2 7414   3.543   2.944   9.613 -0.0775 -0.4653 -0.1628
  499TMC3    C3 7415   3.513   3.078   9.604 -0.0185  0.1366 -0.8215
  499TMC3    C4 7416   3.325   2.900   9.708 -0.3535  0.5759 -0.9573
  499TMC3    C5 7417   3.305   3.038   9.705 -0.1209 -0.5693  0.4686
  499TMC3    C6 7418   3.392   3.130   9.655 -0.5612  0.1025 -0.3912
  499TMC3     C 7419   3.492   2.713   9.683  0.1064 -0.2635 -0.0047
  499TMC3     O 7420   3.610   2.691   9.708 -0.0037  0.2979  0.1317
  499TMC3     H 7421   3.636   2.894   9.589 -0.5570  0.4859 -3.9855
  499TMC3    H1 7422   3.255   2.832   9.754  0.5676  0.4297  0.2445
  499TMC3    H2 7423   3.383   3.238   9.663 -0.0618  0.0938  0.2691
  499TMC3    C7 7424   3.183   3.082   9.773 -0.1601  0.1530  0.1476
  499TMC3    C8 7425   3.619   3.179   9.577  0.0601  0.9608 -0.0000
  499TMC3    O1 7426   3.133   3.008   9.853  0.3417  0.3709 -0.2661
  499TMC3    O2 7427   3.740   3.145   9.565 -0.1764 -0.2511 -0.5344
  500MPD2     C 7428   0.028   3.897   9.769  0.8803 -0.2789 -0.1341
  500MPD2    C1 7429   4.713   3.941   9.893  0.3643  1.2806  0.3329
  500MPD2    C2 7430   4.579   3.930   9.926  0.4787  0.9237  0.2495
  500MPD2    C3 7431   4.483   3.886   9.836  0.2547 -0.2191  0.4297
  500MPD2    C4 7432   4.530   3.835   9.713  0.4232 -0.1058 -0.1055
  500MPD2    C5 7433   4.667   3.838   9.686  0.1431 -0.3731 -0.4101
  500MPD2     H 7434   4.542   3.966  10.021 -0.2527  0.1174  0.2694
  500MPD2    H1 7435   4.463   3.796   9.637  1.8482  2.2454 -2.5712
  500MPD2    H2 7436   0.133   3.894   9.740  1.1827  0.6883  0.8375
  500MPD2    H3 7437   4.713   3.801   9.595  0.4238  4.0158 -2.0594
  500MPD2     N 7438   4.343   3.888   9.867  0.2592 -1.2095 -0.4862
  500MPD2    H5 7439   4.286   3.855   9.790 -3.5052 -0.2473  1.9131
  500MPD2    N1 7440   0.084   4.001   9.982 -0.7084 -0.0845 -0.3492
  500MPD2    H7 7441   0.049   4.042  10.068  0.2314 -0.5874  0.2611
  501TMC3    C1 7442   0.297   4.075  10.068  0.1030  0.0142 -0.1294
  501TMC3    C2 7443   0.270   4.204  10.101  0.1209 -0.1347 -0.0718
  501TMC3    C3 7444   0.372   4.270  10.162  0.8437 -0.5045  0.4423
  501TMC3    C4 7445   0.402   4.007  10.120  0.1250  0.4384 -0.6469
  501TMC3    C5 7446   0.482   4.073  10.205 -0.2377  0.7132  0.3790
  501TMC3    C6 7447   0.475   4.207  10.225 -0.6589  0.2367  0.7000
  501TMC3     C 7448   0.221   4.001   9.963  0.0456 -0.3177 -0.6221
  501TMC3     O 7449   0.287   3.954   9.869 -0.2670 -0.3977  0.1244
  501TMC3     H 7450   0.182   4.250  10.056  0.1994  0.7569  0.6903
  501TMC3    H1 7451   0.425   3.911  10.074 -0.4670 -0.8401  1.7287
  501TMC3    H2 7452   0.551   4.264  10.278 -1.5946 -0.1760  2.4956
  501TMC3    C7 7453   0.546   3.989  10.312 -0.4939 -0.3614  0.2541
  501TMC3    C8 7454   0.356   4.415  10.196  0.8802  0.3794  0.4547
  501TMC3    O1 7455   0.624   3.902  10.274  0.4676 -0.4171 -0.0896
  501TMC3    O2 7456   0.440   4.460  10.269 -0.3375  0.2840  0.1121
  502TMC3    C1 7457   3.322   2.399  15.767 -0.3186 -0.2447  0.4836
  502TMC3    C2 7458   3.351   2.484  15.661  0.3432 -0.0529 -0.4779
  502TMC3    C3 7459   3.276   2.475  15.553  0.3797  0.5388  0.3004
  502TMC3    C4 7460   3.218   2.303  15.749  0.0966 -0.3198  0.2724
  502TMC3    C5 7461   3.142   2.301  15.635 -0.1869  0.3407 -0.2108
  502TMC3    C6 7462   3.181   2.380  15.531  0.1398 -0.4392  0.1797
  502TMC3     C 7463   3.328   2.473  15.893  0.0436 -0.1402 -0.2641
  502TMC3     O 7464   3.412   2.559  15.908 -0.1218  0.2434  0.3932
  502TMC3     H 7465   3.450   2.528  15.659  0.4711 -0.3200  0.0623
  502TMC3    H1 7466   3.205   2.231  15.828  1.9832 -1.0031 -0.0413
  502TMC3    H2 7467   3.129   2.371  15.436 -0.1426  1.8515  0.1351
  502TMC3    C7 7468   3.010   2.228  15.636  0.3524 -0.1647  0.3116
  502TMC3    C8 7469   3.303   2.566  15.438  0.1240  0.3434 -0.0233
  502TMC3    O1 7470   2.986   2.153  15.730  0.1159  0.1461  0.0925
  502TMC3    O2 7471   3.421   2.609  15.432 -0.0490 -0.6725 -0.1896
  503MPD2     C 7472   0.677   3.350  16.804 -0.3945  0.6695 -0.1286
  503MPD2    C1 7473   0.660   3.394  16.936 -0.1838  1.3285  0.5492
  503MPD2    C2 7474   0.702   3.311  17.035 -0.0906 -0.7785  0.3801
  503MPD2    C3 7475   0.743   3.178  17.015  0.4168  1.0450  0.0506
  503MPD2    C4 7476   0.757   3.136  16.888  0.6611 -0.7657 -0.4358
  503MPD2    C5 7477   0.722   3.220  16.776 -0.1165  0.5337 -0.3548
  503MPD2     H 7478   0.689   3.347  17.137  0.1678  1.0401 -0.2325
  503MPD2    H1 7479   0.787   3.035  16.864  2.7977 -0.4246  0.7838
  503MPD2    H2 7480   0.671   3.416  16.718  0.8472  0.8785 -0.0494
  503MPD2    H3 7481   0.739   3.195  16.672  1.2447 -0.1554  0.0351
  503MPD2     N 7482   0.794   3.111  17.132 -0.3804  0.1548  0.2082
  503MPD2    H5 7483   0.772   3.156  17.220 -0.1127 -1.3935  1.0688
  503MPD2    N1 7484   0.619   3.524  16.974  0.3938 -0.2029  0.4097
  503MPD2    H7 7485   0.601   3.544  17.071 -0.5315 -0.2094  0.2405
  504TMC3    C1 7486   0.928   2.962  17.265 -0.4162  0.1582  0.2368
  504TMC3    C2 7487   0.842   2.972  17.367  0.2006  0.0472 -0.4730
  504TMC3    C3 7488   0.889   2.945  17.494  0.5762 -0.2855 -0.2108
  504TMC3    C4 7489   1.062   2.934  17.282  0.1169  0.4862 -0.1101
  504TMC3    C5 7490   1.105   2.910  17.411 -0.8084  0.4022 -0.3698
  504TMC3    C6 7491   1.021   2.911  17.522  0.4161  0.2751 -0.3013
  504TMC3     C 7492   0.891   3.010  17.132  0.4050  0.2098  0.2053
  504TMC3     O 7493   0.948   2.960  17.038 -0.2929  0.8857  0.0319
  504TMC3     H 7494   0.737   2.996  17.356 -0.4118 -1.9136  1.0130
  504TMC3    H1 7495   1.131   2.918  17.200 -0.3652  1.2330 -0.6672
  504TMC3    H2 7496   1.057   2.896  17.624  3.0831  1.7674 -1.0116
  504TMC3    C7 7497   1.230   2.836  17.415 -0.2786 -0.1754  0.1973
  504TMC3    C8 7498   0.797   2.983  17.605 -0.1822  0.2628  0.4982
  504TMC3    O1 7499   1.320   2.866  17.337  0.2480  0.0083 -0.0123
  504TMC3    O2 7500   0.694   3.045  17.583  0.5497 -0.5855 -0.3226
  505MPD2     C 7501   1.897   1.864   9.885 -0.1059  0.1856  0.4641
  505MPD2    C1 7502   1.906   1.806  10.008  0.0882 -0.4974  0.5443
  505MPD2    C2 7503   1.915   1.889  10.116  0.3225 -0.0632  1.1551
  505MPD2    C3 7504   1.900   2.025  10.098 -0.8814  0.1653 -0.1801
  505MPD2    C4 7505   1.891   2.084   9.976 -0.5707  0.2667 -0.7903
  505MPD2    C5 7506   1.885   1.999   9.871  0.6685 -0.1078 -0.1831
  505MPD2     H 7507   1.926   1.850  10.217 -0.5367  1.6247  1.8942
  505MPD2    H1 7508   1.887   2.191   9.961  0.2683  0.5361  0.8349
  505MPD2    H2 7509   1.911   1.804   9.796 -1.4189  2.5819 -1.3748
  505MPD2    H3 7510   1.881   2.030   9.768  1.5704  0.1052 -0.1561
  505MPD2     N 7511   1.917   2.100  10.219 -0.3639 -0.2253  0.4208
  505MPD2    H5 7512   1.915   2.049  10.307 -1.1224 -1.5036 -0.3399
  505MPD2    N1 7513   1.915   1.663  10.014 -0.2345  0.3033  0.3691
  505MPD2    H7 7514   1.909   1.608   9.929  1.9695  0.6898 -0.0521
  506TMC3    C1 7515   1.939   1.451  10.113  0.2868 -0.6772 -0.0331
  506TMC3    C2 7516   2.027   1.415  10.013 -0.2500  0.2669 -0.4522
  506TMC3    C3 7517   2.139   1.339  10.029  0.0318  0.7252  0.0349
  506TMC3    C4 7518   1.976   1.395  10.237 -0.8889  0.5519  0.1568
  506TMC3    C5 7519   2.101   1.330  10.255 -0.4627  0.0851  0.2036
  506TMC3    C6 7520   2.194   1.303  10.155  0.4892 -0.2019 -0.7026
  506TMC3     C 7521   1.913   1.596  10.129  0.4592 -0.3317 -0.5519
  506TMC3     O 7522   1.894   1.629  10.242  0.6428  0.2141  0.6294
  506TMC3     H 7523   2.010   1.440   9.908 -0.8567  1.8844  0.0220
  506TMC3    H1 7524   1.913   1.409  10.324 -0.4253 -2.5576  1.0092
  506TMC3    H2 7525   2.283   1.244  10.172 -0.9229 -2.1128 -0.0540
  506TMC3    C7 7526   2.164   1.370  10.388 -0.5728 -0.3377  0.2771
  506TMC3    C8 7527   2.225   1.313   9.914  0.1875  0.5566 -0.3427
  506TMC3    O1 7528   2.259   1.306  10.428  0.1225 -0.1625  0.3403
  506TMC3    O2 7529   2.175   1.270   9.813 -0.1065 -0.5501  0.0767
  507TMC3    C1 7530   2.026   2.879  14.819  0.4066  0.3821  0.3790
  507TMC3    C2 7531   1.911   2.813  14.801  0.5971  0.0361 -0.3252
  507TMC3    C3 7532   1.906   2.756  14.673  0.2006  0.2894 -0.3100
  507TMC3    C4 7533   2.123   2.899  14.727  0.7276 -0.1669  0.2022
  507TMC3    C5 7534   2.110   2.853  14.599  0.1232 -0.1572  0.4418
  507TMC3    C6 7535   2.006   2.763  14.577 -0.0997 -0.0407 -0.7871
  507TMC3     C 7536   2.038   2.946  14.944 -0.4417  0.2307 -0.3819
  507TMC3     O 7537   2.141   3.010  14.953 -0.1582  0.4337  0.4218
  507TMC3     H 7538   1.818   2.823  14.856  0.5465  0.6576 -0.5326
  507TMC3    H1 7539   2.220   2.938  14.755  1.1091 -0.3089 -0.9133
  507TMC3    H2 7540   1.989   2.730  14.476  0.6161  0.2316 -0.9971
  507TMC3    C7 7541   2.093   2.972  14.518 -0.1244 -0.7013 -0.0193
  507TMC3    C8 7542   1.772   2.751  14.621 -0.1582 -0.5850  0.0227
  507TMC3    O1 7543   1.992   2.968  14.452 -0.3994  0.7412 -0.7016
  507TMC3    O2 7544   1.689   2.702  14.693  0.0138 -0.2606 -0.0050
  508MPD2     C 7545   2.869   0.082  15.321  0.4723 -0.2198 -0.3637
  508MPD2    C1 7546   2.777   0.168  15.372  0.1275  0.2492 -0.1974
  508MPD2    C2 7547   2.741   0.286  15.309  0.3200 -0.1891 -0.0267
  508MPD2    C3 7548   2.816   0.330  15.201  0.5373  0.0798 -0.2054
  508MPD2    C4 7549   2.907   0.238  15.154  0.6112  0.9113 -0.5405
  508MPD2    C5 7550   2.926   0.113  15.202 -0.2425 -0.6787  0.3496
  508MPD2     H 7551   2.669   0.349  15.359 -0.5823 -1.8846  0.7992
  508MPD2    H1 7552   2.955   0.256  15.058 -0.6268  1.2936 -1.0868
  508MPD2    H2 7553   2.897   4.711  15.369 -1.6484 -1.5715 -1.6917
  508MPD2    H3 7554   3.000   0.042  15.167  0.2768 -0.3950  0.8719
  508MPD2     N 7555   2.775   0.452  15.135  0.3956 -0.6575 -0.0485
  508MPD2    H5 7556   2.701   0.502  15.184 -0.5317 -0.3597 -1.7532
  508MPD2    N1 7557   2.733   0.130  15.506 -0.0436  0.3492  0.0845
  508MPD2    H7 7558   2.762   0.039  15.542 -2.2196 -0.5531 -0.3827
  509TMC3    C1 7559   2.668   0.830  15.010 -0.0086 -0.5430  0.3541
  509TMC3    C2 7560   2.747   0.909  14.926  0.4131 -0.0251  0.4159
  509TMC3    C3 7561   2.856   0.846  14.880  0.1023 -0.6502 -0.3766
  509TMC3    C4 7562   2.683   0.701  15.039  0.1339  0.2058  0.3401
  509TMC3    C5 7563   2.794   0.643  14.981  0.6178 -0.2402 -0.1849
  509TMC3    C6 7564   2.883   0.718  14.909  0.2003 -0.3146  0.4299
  509TMC3     C 7565   2.542   0.895  15.055 -0.0352 -0.4840 -0.4616
  509TMC3     O 7566   2.461   0.838  15.128 -0.4142 -0.6833 -0.5681
  509TMC3     H 7567   2.733   1.012  14.895  1.5040  0.5401  1.8153
  509TMC3    H1 7568   2.612   0.649  15.102 -1.4780 -0.9681 -2.4050
  509TMC3    H2 7569   2.985   0.682  14.898 -0.3721 -1.5514 -0.8959
  509TMC3    C7 7570   2.837   0.510  15.027 -0.4227  0.7701 -0.3012
  509TMC3    C8 7571   2.971   0.932  14.861 -0.6735 -0.2281 -0.3686
  509TMC3    O1 7572   2.937   0.465  14.975 -0.3723  0.4356  0.0663
  509TMC3    O2 7573   3.062   0.897  14.789 -0.5662  0.7011 -0.5179
  510MPD2     C 7574   0.636   2.435  14.552 -0.5558 -0.0346  0.3348
  510MPD2    C1 7575   0.667   2.319  14.619 -0.7275 -0.0034  0.2580
  510MPD2    C2 7576   0.793   2.266  14.597  0.9263 -0.2647 -0.4992
  510MPD2    C3 7577   0.875   2.301  14.499  0.1138  0.6295 -0.2670
  510MPD2    C4 7578   0.837   2.408  14.419 -0.2257 -1.1800 -0.1961
  510MPD2    C5 7579   0.715   2.470  14.447  0.0724  0.4319  0.1083
  510MPD2     H 7580   0.822   2.183  14.661 -1.8558 -1.4096 -0.6884
  510MPD2    H1 7581   0.892   2.434  14.329  1.8872 -1.6974  0.9798
  510MPD2    H2 7582   0.542   2.478  14.582 -0.7985 -1.5465  1.7442
  510MPD2    H3 7583   0.686   2.541  14.370 -3.3356 -1.5563 -0.4664
  510MPD2     N 7584   1.002   2.237  14.489  0.1345  0.2913  0.2277
  510MPD2    H5 7585   1.015   2.162  14.556  2.1402 -1.3573 -1.9754
  510MPD2    N1 7586   0.565   2.267  14.705 -0.0528 -0.0425 -0.0075
  510MPD2    H7 7587   0.479   2.322  14.708 -0.7807 -1.3355  2.5497
  511TMC3    C1 7588   0.453   2.107  14.837 -0.4202 -0.5074 -0.0592
  511TMC3    C2 7589   0.391   2.158  14.949 -0.9152 -0.2318 -0.0004
  511TMC3    C3 7590   0.319   2.059  15.019 -0.6795 -0.6385  0.0221
  511TMC3    C4 7591   0.435   1.988  14.783  0.2038 -0.1514  0.3640
  511TMC3    C5 7592   0.362   1.896  14.855  0.1319  0.1522  0.4725
  511TMC3    C6 7593   0.309   1.932  14.979  0.0547  0.3211 -0.2073
  511TMC3     C 7594   0.578   2.166  14.790  0.5134  0.0528 -1.0362
  511TMC3     O 7595   0.668   2.084  14.795 -0.3377  0.0902 -0.3169
  511TMC3     H 7596   0.385   2.264  14.970  0.9454  0.2527 -1.9442
  511TMC3    H1 7597   0.474   1.959  14.686  0.3172 -0.5296  0.5197
  511TMC3    H2 7598   0.236   1.864  15.021  0.6247  0.4009  0.8928
  511TMC3    C7 7599   0.339   1.774  14.793  0.6072  0.6587 -0.4035
  511TMC3    C8 7600   0.216   2.119  15.105 -1.2872 -0.3229  0.0417
  511TMC3    O1 7601   0.329   1.773  14.671  0.0558  0.0755 -0.0712
  511TMC3    O2 7602   0.196   2.238  15.086  0.0661  0.6544  0.2314
  512TMC3    C1 7603   0.256   1.370  12.397  0.6760 -0.1069  0.1234
  512TMC3    C2 7604   0.267   1.330  12.524  0.1225 -0.3103  0.6425
  512TMC3    C3 7605   0.321   1.205  12.555  0.2687 -0.1944  0.0848
  512TMC3    C4 7606   0.302   1.289  12.305 -0.2091 -0.1628 -0.4090
  512TMC3    C5 7607   0.362   1.172  12.329 -0.7635  0.0368  0.3056
  512TMC3    C6 7608   0.375   1.129  12.460  0.4636  0.0090 -0.1198
  512TMC3     C 7609   0.215   1.498  12.359  0.4237 -0.9272 -0.3361
  512TMC3     O 7610   0.169   1.505  12.244 -0.4104 -0.0661 -0.1721
  512TMC3     H 7611   0.234   1.395  12.605  0.9578  0.3369  0.4617
  512TMC3    H1 7612   0.285   1.324  12.204 -3.0927 -0.8030 -0.1328
  512TMC3    H2 7613   0.409   1.031  12.489  1.6960  1.1376  2.2589
  512TMC3    C7 7614   0.346   1.058  12.236 -0.3185  0.4594 -0.3753
  512TMC3    C8 7615   0.290   1.150  12.687 -0.7793  0.2824 -0.5441
  512TMC3    O1 7616   0.360   1.080  12.116  0.0815 -0.1419 -0.7088
  512TMC3    O2 7617   0.285   1.028  12.699  0.0812  0.1441  0.5804
  513MPD2     C 7618   1.323   1.272  13.226  0.0713 -0.2250 -0.7359
  513MPD2    C1 7619   1.411   1.360  13.280  0.2504 -0.7923  0.4872
  513MPD2    C2 7620   1.373   1.413  13.400 -0.5064 -0.3491 -0.2758
  513MPD2    C3 7621   1.262   1.372  13.471  0.7155 -0.3196  0.4706
  513MPD2    C4 7622   1.192   1.263  13.424 -0.0982  0.3506  0.3114
  513MPD2    C5 7623   1.227   1.209  13.305  0.4151 -0.2615 -0.0832
  513MPD2     H 7624   1.429   1.498  13.438 -1.0776 -0.0227 -0.1551
  513MPD2    H1 7625   1.099   1.235  13.473  0.1747 -1.2394 -0.0867
  513MPD2    H2 7626   1.333   1.235  13.124 -1.0004 -5.8476  1.1674
  513MPD2    H3 7627   1.167   1.137  13.252  0.6939 -0.4548 -0.1382
  513MPD2     N 7628   1.242   1.433  13.599  0.2357 -0.2986 -0.1512
  513MPD2    H5 7629   1.298   1.516  13.616 -0.3823  0.2832 -0.9291
  513MPD2    N1 7630   1.526   1.407  13.225 -0.1757  0.0121  0.2816
  513MPD2    H7 7631   1.577   1.479  13.275  0.1116  0.3036 -0.4290
  514TMC3    C1 7632   1.685   1.467  13.062 -0.4456  0.0612  0.0811
  514TMC3    C2 7633   1.664   1.517  12.935  0.1011  0.0652  0.9283
  514TMC3    C3 7634   1.641   1.650  12.918 -0.7431 -0.4262  0.2048
  514TMC3    C4 7635   1.707   1.556  13.169  0.0174 -0.2121 -0.0413
  514TMC3    C5 7636   1.675   1.684  13.151 -0.3140 -0.2329 -0.1585
  514TMC3    C6 7637   1.633   1.729  13.028 -0.0119  0.5312  0.3708
  514TMC3     C 7638   1.577   1.380  13.100 -0.1899 -0.2743 -0.1082
  514TMC3     O 7639   1.541   1.289  13.025  0.3295 -0.1597 -0.3585
  514TMC3     H 7640   1.660   1.449  12.851 -0.0233  0.5792  0.5247
  514TMC3    H1 7641   1.751   1.513  13.258 -1.6609 -0.2251  0.7725
  514TMC3    H2 7642   1.594   1.829  13.015  0.1179  0.5545  0.1659
  514TMC3    C7 7643   1.607   1.731  13.271 -0.1769 -0.2206  0.3605
  514TMC3    C8 7644   1.584   1.693  12.794  0.4964 -0.3434  0.3677
  514TMC3    O1 7645   1.615   1.654  13.364 -0.1048  0.4864 -0.0923
  514TMC3    O2 7646   1.480   1.746  12.811 -0.1064 -0.3924 -0.2880
  515MPD2     C 7647   4.376   3.243  15.063 -0.6688 -0.0713 -0.0484
  515MPD2    C1 7648   4.460   3.267  14.957  0.3782 -0.0304  0.3071
  515MPD2    C2 7649   4.514   3.396  14.942  0.4979  0.7692 -0.6854
  515MPD2    C3 7650   4.472   3.497  15.021 -0.2697 -0.2817  0.4970
  515MPD2    C4 7651   4.387   3.465  15.131  0.7743  0.3389 -0.1525
  515MPD2    C5 7652   4.329   3.342  15.152  0.0683 -0.2853  0.2110
  515MPD2     H 7653   4.585   3.415  14.863  1.0056 -1.0807 -0.6614
  515MPD2    H1 7654   4.366   3.547  15.199 -0.3299 -0.8594  0.9355
  515MPD2    H2 7655   4.332   3.145  15.081 -1.4550  0.4016  0.6067
  515MPD2    H3 7656   4.250   3.328  15.225 -1.3482 -0.6058 -1.3698
  515MPD2     N 7657   4.521   3.631  15.011 -0.1955 -0.2602  0.3959
  515MPD2    H5 7658   4.484   3.699  15.077 -2.2792  0.0458 -1.1214
  515MPD2    N1 7659   4.504   3.157  14.875  0.1867  0.8412 -0.2055
  515MPD2    H7 7660   4.555   3.187  14.792  0.1875  0.4435 -0.3479
  516TMC3    C1 7661   4.548   2.926  14.810  1.0824  0.5210 -0.4064
  516TMC3    C2 7662   4.514   2.954  14.678  0.2382  0.0164  0.2619
  516TMC3    C3 7663   4.449   2.852  14.608  0.4425  0.3700  0.4016
  516TMC3    C4 7664   4.534   2.797  14.858 -0.2583 -0.4719  0.5969
  516TMC3    C5 7665   4.471   2.702  14.779 -0.2732  0.1495 -0.4587
  516TMC3    C6 7666   4.436   2.722  14.648 -0.1208  0.0182 -0.6229
  516TMC3     C 7667   4.516   3.025  14.914  0.3626 -0.1192 -0.3897
  516TMC3     O 7668   4.513   2.986  15.033  0.3343  0.2307 -0.2020
  516TMC3     H 7669   4.528   3.053  14.637 -0.9078  0.7666  1.6941
  516TMC3    H1 7670   4.574   2.770  14.955 -0.9806 -0.3562  0.9263
  516TMC3    H2 7671   4.401   2.643  14.583 -0.9230  0.3781 -0.6271
  516TMC3    C7 7672   4.403   2.596  14.857  0.2558 -0.7794 -0.5841
  516TMC3    C8 7673   4.400   2.875  14.472  0.4163 -0.4255  0.2060
  516TMC3    O1 7674   4.445   2.581  14.968  0.1725  0.0518 -0.3909
  516TMC3    O2 7675   4.305   2.807  14.443 -0.5901  0.0599  0.5076
  517MPD2     C 7676   3.388   0.264  17.365 -0.8580 -0.4452 -0.2138
  517MPD2    C1 7677   3.489   0.242  17.453 -0.0214  0.6177 -0.2777
  517MPD2    C2 7678   3.519   0.350  17.531  0.0993 -0.5051  0.2354
  517MPD2    C3 7679   3.452   0.470  17.532 -0.1240 -0.3278 -0.5274
  517MPD2    C4 7680   3.347   0.487  17.445  0.5380  0.2087 -0.8151
  517MPD2    C5 7681   3.318   0.384  17.357  0.7978  0.5110  0.0965
  517MPD2     H 7682   3.603   0.349  17.599  0.3644 -1.9981 -0.1272
  517MPD2    H1 7683   3.290   0.579  17.443 -0.7804 -0.6126 -0.4401
  517MPD2    H2 7684   3.359   0.190  17.291  1.7894 -3.5901  1.8808
  517MPD2    H3 7685   3.242   0.393  17.280 -0.1885 -2.8420  0.6956
  517MPD2     N 7686   3.485   0.570  17.618  0.1486 -0.0672 -0.4298
  517MPD2    H5 7687   3.437   0.660  17.613 -0.7461 -0.4809  0.5838
  517MPD2    N1 7688   3.562   0.127  17.476  0.4928  0.2190 -0.3757
  517MPD2    H7 7689   3.635   0.127  17.546  0.9356 -1.2470 -0.8362
  518TMC3    C1 7690   3.665   4.646  17.424 -0.0466  0.6553  0.4709
  518TMC3    C2 7691   3.660   4.519  17.372  0.0926  0.0700  0.1104
  518TMC3    C3 7692   3.764   4.437  17.393 -0.2349  0.3223 -0.3616
  518TMC3    C4 7693   3.785   4.699  17.464  0.4787 -0.2885 -1.4598
  518TMC3    C5 7694   3.894   4.622  17.457 -0.4294 -0.3193  0.0334
  518TMC3    C6 7695   3.883   4.483  17.447 -0.4825 -0.4050  0.1254
  518TMC3     C 7696   3.546   0.013  17.403 -0.1317  0.7853 -0.6732
  518TMC3     O 7697   3.454   4.698  17.327 -0.4064 -0.2072 -0.1446
  518TMC3     H 7698   3.562   4.479  17.349  0.8669 -1.0059 -1.3909
  518TMC3    H1 7699   3.800   0.083  17.486  0.5955 -0.7847  0.9218
  518TMC3    H2 7700   3.964   4.411  17.452 -0.5378 -0.4813 -0.0651
  518TMC3    C7 7701   4.020   4.690  17.462 -0.1489 -0.0522 -0.4650
  518TMC3    C8 7702   3.772   4.311  17.325  0.3773 -0.1498 -0.2072
  518TMC3    O1 7703   4.031   0.077  17.528  0.2143 -0.2218 -0.1453
  518TMC3    O2 7704   3.850   4.234  17.375  0.5574  0.3691 -0.4096
  519MPD2     C 7705   0.828   3.380  14.347  0.2020 -0.0582 -1.0103
  519MPD2    C1 7706   0.810   3.383  14.204  0.2192 -0.0973  0.4097
  519MPD2    C2 7707   0.868   3.287  14.128  0.3977  0.5546  0.7215
  519MPD2    C3 7708   0.937   3.186  14.186 -0.4024 -0.2446 -0.4039
  519MPD2    C4 7709   0.949   3.183  14.326 -0.5884 -0.2597  0.3214
  519MPD2    C5 7710   0.904   3.284  14.404  0.1704  0.3238 -0.3757
  519MPD2     H 7711   0.857   3.286  14.020 -0.9575  0.4867  0.8615
  519MPD2    H1 7712   1.013   3.107  14.370 -0.8583 -1.3817 -1.2449
  519MPD2    H2 7713   0.777   3.446  14.416  1.6947 -0.1722  0.1963
  519MPD2    H3 7714   0.931   3.278  14.509 -0.0586  0.2392 -0.3211
  519MPD2     N 7715   0.976   3.069  14.104  0.4080 -0.6136  0.6205
  519MPD2    H5 7716   1.019   2.995  14.160  0.6168 -0.5052  0.6004
  519MPD2    N1 7717   0.734   3.482  14.138  0.1952  0.7574  0.5344
  519MPD2    H7 7718   0.715   3.471  14.039  1.7615 -0.3793  0.3491
  520TMC3    C1 7719   0.954   2.905  13.948  1.2153 -0.0551 -0.3299
  520TMC3    C2 7720   0.861   2.838  13.875  0.1466 -0.2780  0.3259
  520TMC3    C3 7721   0.892   2.711  13.833 -0.0848 -0.3792  0.2563
  520TMC3    C4 7722   1.082   2.850  13.971 -0.0953 -0.7538  0.8896
  520TMC3    C5 7723   1.103   2.718  13.930 -0.0861 -0.2904  0.1548
  520TMC3    C6 7724   1.008   2.651  13.858 -0.2081  0.3661 -0.2081
  520TMC3     C 7725   0.932   3.040  13.981  0.1308 -1.0292  0.8256
  520TMC3     O 7726   0.838   3.089  13.922  0.4368  0.1539  0.1225
  520TMC3     H 7727   0.760   2.879  13.871 -0.2140 -1.0435  1.4478
  520TMC3    H1 7728   1.155   2.917  14.015 -0.3575  0.1857 -0.1197
  520TMC3    H2 7729   1.026   2.553  13.814  1.8789  1.1717 -1.1510
  520TMC3    C7 7730   1.233   2.670  13.941 -0.0028  0.8514  0.0691
  520TMC3    C8 7731   0.782   2.637  13.778  0.8889  0.0214 -0.5943
  520TMC3    O1 7732   1.243   2.563  14.001 -0.1628 -0.5898  0.2844
  520TMC3    O2 7733   0.784   2.518  13.814 -0.3669  0.3222 -0.1405
  521MPD2     C 7734   1.770   0.920  17.319  0.1200 -0.5293  0.1198
  521MPD2    C1 7735   1.682   0.835  17.258 -0.4542 -0.8074 -0.4280
  521MPD2    C2 7736   1.725   0.737  17.174 -0.4223 -0.8270 -0.6016
  521MPD2    C3 7737   1.856   0.744  17.126  1.2536 -0.2530  0.2787
  521MPD2    C4 7738   1.943   0.826  17.192 -0.7471  0.4555  0.5663
  521MPD2    C5 7739   1.904   0.909  17.293 -0.5992  0.2843 -0.8273
  521MPD2     H 7740   1.657   0.665  17.132 -2.3343  1.1053 -0.7630
  521MPD2    H1 7741   2.048   0.832  17.166 -1.3778  0.9969 -1.8789
  521MPD2    H2 7742   1.732   1.001  17.380 -0.4577 -0.1147 -0.7828
  521MPD2    H3 7743   1.979   0.969  17.342  1.6838 -3.9240  0.8632
  521MPD2     N 7744   1.886   0.665  17.014  0.3334 -0.4771 -0.1679
  521MPD2    H5 7745   1.812   0.609  16.973  0.6168 -0.7242 -0.3392
  521MPD2    N1 7746   1.544   0.864  17.293  0.3152  0.5764  0.4836
  521MPD2    H7 7747   1.526   0.935  17.365 -1.1626 -1.7353  2.4039
  522TMC3    C1 7748   1.977   0.627  16.795 -0.0168  0.4508 -0.6309
  522TMC3    C2 7749   2.082   0.587  16.722 -1.0320  0.4156  0.0347
  522TMC3    C3 7750   2.074   0.529  16.597 -0.4291 -0.2348  0.2134
  522TMC3    C4 7751   1.852   0.587  16.756 -0.0085 -0.4670  0.5963
  522TMC3    C5 7752   1.842   0.524  16.629 -0.0425  0.0791 -0.7081
  522TMC3    C6 7753   1.953   0.491  16.549  0.4353 -0.2828 -0.5193
  522TMC3     C 7754   1.993   0.688  16.932  0.3105 -0.9023 -0.3423
  522TMC3     O 7755   2.093   0.749  16.949  0.2573  0.2337 -0.0492
  522TMC3     H 7756   2.184   0.606  16.756 -1.4239  1.0903  0.8330
  522TMC3    H1 7757   1.760   0.608  16.809 -1.1522 -2.4997 -0.6255
  522TMC3    H2 7758   1.939   0.465  16.444  1.7192 -2.1853 -0.2256
  522TMC3    C7 7759   1.714   0.474  16.573 -0.2157  0.1820  0.1739
  522TMC3    C8 7760   2.174   0.578  16.504 -0.9623  0.3007  0.1134
  522TMC3    O1 7761   1.699   0.377  16.494  0.1227 -0.0223 -0.0107
  522TMC3    O2 7762   2.259   0.656  16.542  0.1338 -0.0939 -0.9001
  523MPD2     C 7763   0.188   0.939  10.369  0.0479 -0.3589  0.8692
  523MPD2    C1 7764   0.169   0.901  10.242 -0.0657 -0.6701  0.3660
  523MPD2    C2 7765   0.161   0.994  10.138  0.5262 -0.2902  0.4895
  523MPD2    C3 7766   0.182   1.130  10.161  0.4220  0.2766 -0.1876
  523MPD2    C4 7767   0.218   1.163  10.292  0.7953 -0.2986 -0.2162
  523MPD2    C5 7768   0.219   1.071  10.391 -0.1380 -1.0068  0.1136
  523MPD2     H 7769   0.122   0.965  10.041  0.7070 -0.7738  0.5646
  523MPD2    H1 7770   0.239   1.268  10.306  2.8517 -0.5652 -1.3007
  523MPD2    H2 7771   0.181   0.874  10.456  2.7419  0.9119  2.0458
  523MPD2    H3 7772   0.243   1.110  10.489 -0.3437  1.8787 -1.0004
  523MPD2     N 7773   0.177   1.230  10.055  0.0365  0.1325 -0.4396
  523MPD2    H5 7774   0.202   1.324  10.086  0.8300 -0.4033  0.5373
  523MPD2    N1 7775   0.167   0.762  10.215 -0.3542 -0.0555 -0.7330
  523MPD2    H7 7776   0.186   0.701  10.293  1.4991 -1.1160 -2.0277
  524TMC3    C1 7777   0.149   1.344   9.849  0.1145  0.0719 -0.2220
  524TMC3    C2 7778   0.173   1.343   9.713 -0.8582  0.2662 -0.2486
  524TMC3    C3 7779   0.151   1.455   9.648  0.4744 -0.2897  0.7864
  524TMC3    C4 7780   0.127   1.458   9.920  1.1765  0.5913  0.0671
  524TMC3    C5 7781   0.141   1.574   9.851 -0.5871  0.5684  0.3552
  524TMC3    C6 7782   0.151   1.574   9.714 -0.4083 -0.0744 -0.5265
  524TMC3     C 7783   0.154   1.215   9.922 -0.4791  1.1792 -0.2315
  524TMC3     O 7784   0.128   1.111   9.861 -0.0862 -0.4408  0.1252
  524TMC3     H 7785   0.163   1.244   9.670 -2.1546  0.0914  0.4551
  524TMC3    H1 7786   0.092   1.460  10.022  2.4062  0.7732  0.4822
  524TMC3    H2 7787   0.141   1.668   9.662 -1.9326 -0.2119 -0.4599
  524TMC3    C7 7788   0.149   1.692   9.932  0.1047 -0.1327 -0.0859
  524TMC3    C8 7789   0.134   1.450   9.505  1.4904 -0.4564  0.5601
  524TMC3    O1 7790   0.094   1.690  10.040 -0.3048 -0.0042  0.0975
  524TMC3    O2 7791   0.075   1.550   9.466  0.4900 -0.0404 -0.3151
  525MPD2     C 7792   2.210   2.589  14.338  0.1331 -0.1905  0.7243
  525MPD2    C1 7793   2.329   2.587  14.408  0.0175 -0.6350 -0.2937
  525MPD2    C2 7794   2.408   2.695  14.393  0.3460 -0.5992  0.1367
  525MPD2    C3 7795   2.378   2.807  14.312  0.6175  0.3020  0.3327
  525MPD2    C4 7796   2.254   2.809  14.250  0.2516  0.1929 -0.5635
  525MPD2    C5 7797   2.170   2.699  14.257 -0.1684  0.0312 -0.0522
  525MPD2     H 7798   2.497   2.695  14.454 -0.6016  0.2622  1.5138
  525MPD2    H1 7799   2.224   2.899  14.197 -0.8304  0.8398  1.1608
  525MPD2    H2 7800   2.149   2.500  14.336 -0.7980  0.4823 -0.5818
  525MPD2    H3 7801   2.078   2.693  14.199 -0.4740 -1.5675  0.5879
  525MPD2     N 7802   2.458   2.929  14.301  0.4158  0.4827 -0.7422
  525MPD2    H5 7803   2.415   3.014  14.266 -0.9298  0.1703  0.1698
  525MPD2    N1 7804   2.363   2.486  14.498  0.6778 -0.1816 -0.2551
  525MPD2    H7 7805   2.458   2.488  14.533  0.8090 -0.4484 -0.6065
  526TMC3    C1 7806   2.329   2.322  14.652  0.0474 -0.1441 -0.1840
  526TMC3    C2 7807   2.262   2.290  14.767  0.7064  0.4313  0.3190
  526TMC3    C3 7808   2.337   2.245  14.874 -0.3769 -0.2490  0.0038
  526TMC3    C4 7809   2.461   2.284  14.635 -0.0034 -0.3579 -0.0459
  526TMC3    C5 7810   2.537   2.243  14.743  0.8105 -0.7661 -0.3151
  526TMC3    C6 7811   2.475   2.236  14.869  0.9138  0.5984  0.4961
  526TMC3     C 7812   2.265   2.406  14.555  0.3625 -0.4680  0.8379
  526TMC3     O 7813   2.144   2.413  14.555  0.4435 -0.9581 -0.0031
  526TMC3     H 7814   2.158   2.317  14.778  0.4189 -0.2195 -0.7180
  526TMC3    H1 7815   2.479   2.286  14.528 -1.0651 -0.2188 -0.2294
  526TMC3    H2 7816   2.535   2.213  14.956  1.8518 -1.5619 -0.7227
  526TMC3    C7 7817   2.679   2.212  14.738 -0.5500  0.4682  0.1770
  526TMC3    C8 7818   2.279   2.244  15.011  0.3609  0.0321 -0.5601
  526TMC3    O1 7819   2.722   2.203  14.853  0.1871 -0.3812 -0.3679
  526TMC3    O2 7820   2.350   2.267  15.110  0.5469  0.5019  0.0680
  527MPD2     C 7821   4.475   0.581   0.541  0.0969 -0.1519  0.1262
  527MPD2    C1 7822   4.505   0.681   0.632 -0.9212  0.3011  0.1628
  527MPD2    C2 7823   4.638   0.706   0.654 -0.3989 -0.2763  0.0962
  527MPD2    C3 7824   0.021   0.640   0.587 -0.0208 -0.2356 -0.1609
  527MPD2    C4 7825   4.700   0.551   0.492 -0.1062 -0.1687  0.5338
  527MPD2    C5 7826   4.568   0.520   0.468  0.3744  0.1034  0.6814
  527MPD2     H 7827   4.660   0.787   0.723  1.5404  0.1416 -1.0047
  527MPD2    H1 7828   0.058   0.489   0.454  0.5977  1.3728 -0.5266
  527MPD2    H2 7829   4.373   0.550   0.520 -0.3281  0.3633  1.4076
  527MPD2    H3 7830   4.535   0.450   0.393 -0.2695  1.0898  0.0394
  527MPD2     N 7831   0.155   0.667   0.621 -0.5100 -0.1905  0.2632
  527MPD2    H5 7832   0.176   0.734   0.694 -1.8333  0.1390  0.3377
  527MPD2    N1 7833   4.421   0.767   0.707 -0.3392  0.6875  0.0188
  527MPD2    H7 7834   4.463   0.844   0.759 -0.0646  0.2785  0.3967
  528TMC3    C1 7835   4.219   0.859   0.789 -0.0920 -0.3102  0.7605
  528TMC3    C2 7836   4.123   0.818   0.880 -0.0201  0.1806 -0.9264
  528TMC3    C3 7837   4.094   0.906   0.989 -0.4401  0.1228 -0.1611
  528TMC3    C4 7838   4.283   0.980   0.797 -0.1806 -0.3108 -0.5034
  528TMC3    C5 7839   4.258   1.059   0.910  0.6818  0.5204 -0.1289
  528TMC3    C6 7840   4.171   1.022   1.007 -0.1070  0.1218 -0.1886
  528TMC3     C 7841   4.289   0.749   0.723  0.4301  0.1984 -0.0477
  528TMC3     O 7842   4.217   0.657   0.694  0.4565 -0.2077 -0.4792
  528TMC3     H 7843   4.097   0.714   0.897  0.8007 -0.4656 -3.6248
  528TMC3    H1 7844   4.350   1.008   0.716  0.0352  0.4821 -0.0526
  528TMC3    H2 7845   4.149   1.092   1.087  1.7641  0.1447  0.2917
  528TMC3    C7 7846   4.323   1.190   0.922  0.2340  0.0792 -0.4221
  528TMC3    C8 7847   4.058   0.852   1.122  0.3502 -0.2096  0.0652
  528TMC3    O1 7848   4.321   1.247   0.815  0.4072 -0.4827 -0.3315
  528TMC3    O2 7849   4.105   0.919   1.216 -0.2107  0.3841 -0.1180
  529MPD2     C 7850   2.894   3.375   1.188 -0.3566 -0.7685 -0.5367
  529MPD2    C1 7851   2.774   3.398   1.250 -1.0565 -0.0744 -0.2990
  529MPD2    C2 7852   2.678   3.460   1.179 -0.1338 -0.6997  0.2852
  529MPD2    C3 7853   2.695   3.504   1.052  0.3322 -1.0026 -0.0198
  529MPD2    C4 7854   2.818   3.490   0.992 -0.2098  0.0839  0.8596
  529MPD2    C5 7855   2.914   3.421   1.062 -0.7670 -0.5641  0.0848
  529MPD2     H 7856   2.583   3.469   1.231  1.7233 -0.7025  3.6234
  529MPD2    H1 7857   2.835   3.513   0.887  2.0522  0.0269  1.2196
  529MPD2    H2 7858   2.975   3.318   1.233 -0.9909 -0.8800  0.4563
  529MPD2    H3 7859   3.006   3.395   1.011 -0.5766 -0.0082  0.1504
  529MPD2     N 7860   2.607   3.580   0.978  0.3075  0.7342  0.5428
  529MPD2    H5 7861   2.628   3.607   0.882  1.9101 -0.2467  0.6257
  529MPD2    N1 7862   2.736   3.347   1.379 -0.3955  0.2248  0.0316
  529MPD2    H7 7863   2.647   3.376   1.417 -0.1837 -1.0529  1.5363
  530TMC3    C1 7864   2.759   3.224   1.590 -0.6437  0.5055  0.1616
  530TMC3    C2 7865   2.840   3.174   1.690  0.4175 -0.0315 -0.1258
  530TMC3    C3 7866   2.793   3.133   1.816 -0.3083  0.3880 -0.7026
  530TMC3    C4 7867   2.625   3.223   1.610 -0.3023  0.6400 -0.6447
  530TMC3    C5 7868   2.581   3.173   1.728  0.3320  0.0790  0.3962
  530TMC3    C6 7869   2.654   3.133   1.833 -0.1661  0.2188  0.1041
  530TMC3     C 7870   2.821   3.275   1.464  0.3733  0.0942  0.2855
  530TMC3     O 7871   2.943   3.261   1.449 -0.0484  0.5862 -0.0242
  530TMC3     H 7872   2.944   3.154   1.667  0.5493 -0.6757  1.0365
  530TMC3    H1 7873   2.562   3.226   1.521  0.1086  0.3259 -0.9424
  530TMC3    H2 7874   2.613   3.112   1.931  0.3616 -1.4356 -0.0403
  530TMC3    C7 7875   2.436   3.160   1.756  0.0612  0.4967  0.1592
  530TMC3    C8 7876   2.874   3.135   1.939 -0.1651  0.1586 -1.5955
  530TMC3    O1 7877   2.404   3.097   1.852 -0.1147  0.1619 -0.1033
  530TMC3    O2 7878   2.816   3.175   2.042  0.3536  0.2716 -0.0059
  531MPD2     C 7879   1.229   1.985  13.495  0.1437  0.1287  0.2914
  531MPD2    C1 7880   1.297   1.871  13.546 -0.3914 -0.0422  0.7054
  531MPD2    C2 7881   1.386   1.819  13.458 -0.4142 -0.4448  0.0539
  531MPD2    C3 7882   1.425   1.881  13.338  0.2208  0.2684  0.2010
  531MPD2    C4 7883   1.346   1.981  13.293 -0.1529 -0.4526 -0.2400
  531MPD2    C5 7884   1.242   2.029  13.367  0.0732  0.6407 -0.2440
  531MPD2     H 7885   1.450   1.737  13.485  0.7486  0.5164  0.2107
  531MPD2    H1 7886   1.371   2.026  13.198  0.2017 -0.9589 -0.3854
  531MPD2    H2 7887   1.150   2.025  13.558  0.1478  0.2752  0.2019
  531MPD2    H3 7888   1.176   2.109  13.335 -1.1039 -0.0021  0.5803
  531MPD2     N 7889   1.521   1.835  13.247  0.1298  0.1573 -0.2189
  531MPD2    H5 7890   1.522   1.875  13.154 -1.4738  1.4754  0.3302
  531MPD2    N1 7891   1.276   1.821  13.676 -0.2709  0.5010 -0.4211
  531MPD2    H7 7892   1.200   1.861  13.730 -0.1257 -0.7280  0.6847
  532TMC3    C1 7893   1.279   1.668  13.842  0.0260  0.0906 -0.6128
  532TMC3    C2 7894   1.180   1.602  13.780  0.2358  0.6616  0.4706
  532TMC3    C3 7895   1.161   1.472  13.817  0.1351  0.0041  0.8473
  532TMC3    C4 7896   1.361   1.606  13.932 -0.2983  0.1485  0.1217
  532TMC3    C5 7897   1.326   1.478  13.975  0.2965  0.4098 -0.2722
  532TMC3    C6 7898   1.224   1.413  13.921 -0.6695  0.5873  0.6917
  532TMC3     C 7899   1.355   1.734  13.743  0.1372  0.2207  0.6245
  532TMC3     O 7900   1.455   1.673  13.712  0.2633 -0.3281  0.1431
  532TMC3     H 7901   1.132   1.645  13.693  0.3375 -1.1306 -0.4800
  532TMC3    H1 7902   1.439   1.664  13.980 -0.2896  0.3750 -0.1683
  532TMC3    H2 7903   1.219   1.308  13.947  0.5306 -0.2324 -2.3554
  532TMC3    C7 7904   1.415   1.409  14.071  0.1950  0.3759  0.3721
  532TMC3    C8 7905   1.162   1.382  13.695 -0.2655  0.2344 -0.1640
  532TMC3    O1 7906   1.358   1.361  14.167  0.7540  0.1972 -0.7773
  532TMC3    O2 7907   1.087   1.287  13.694 -0.3100  0.3938 -1.0975
  533TMC3    C1 7908   2.610   3.080  14.384 -0.5013  0.2084  0.0278
  533TMC3    C2 7909   2.745   3.107  14.391  0.7960 -0.0635 -0.0341
  533TMC3    C3 7910   2.797   3.173  14.496 -0.3342  0.5512  0.2833
  533TMC3    C4 7911   2.526   3.133  14.475  0.3881  0.4083 -0.3394
  533TMC3    C5 7912   2.579   3.199  14.587  0.2538  0.9701  0.2846
  533TMC3    C6 7913   2.716   3.216  14.596  0.5602  0.7949 -0.1471
  533TMC3     C 7914   2.580   2.946  14.357  1.2334  0.0351  0.1537
  533TMC3     O 7915   2.652   2.864  14.416  0.0062  0.3237  0.0251
  533TMC3     H 7916   2.807   3.060  14.316 -0.3774 -0.4433 -0.7586
  533TMC3    H1 7917   2.419   3.119  14.462  0.2861 -1.2074  2.2364
  533TMC3    H2 7918   2.765   3.252  14.686  0.6133 -2.0103  0.9444
  533TMC3    C7 7919   2.512   3.150  14.711  0.1741 -0.8534 -0.0152
  533TMC3    C8 7920   2.937   3.170  14.510  0.4206  1.2321  0.7459
  533TMC3    O1 7921   2.444   3.048  14.700  0.9143 -0.7116 -0.1531
  533TMC3    O2 7922   2.977   3.172  14.625 -0.5720  0.3167  0.0766
  534MPD2     C 7923   4.709   4.545   2.040 -0.3075  0.4734 -0.3923
  534MPD2    C1 7924   4.613   4.576   1.944 -0.5230  0.2946  0.6557
  534MPD2    C2 7925   4.505   4.490   1.926  0.5981  0.0139  0.4110
  534MPD2    C3 7926   4.499   4.375   1.997 -0.3450 -0.4051  0.0619
  534MPD2    C4 7927   4.596   4.346   2.090 -0.7450 -0.3093  0.2317
  534MPD2    C5 7928   4.701   4.430   2.115  0.0319 -0.0499  0.0015
  534MPD2     H 7929   4.426   4.516   1.858  1.0789 -1.4739 -0.7159
  534MPD2    H1 7930   4.594   4.257   2.153  0.1935 -2.4814 -2.8359
  534MPD2    H2 7931   0.073   4.612   2.035 -1.1876  1.3651 -3.1833
  534MPD2    H3 7932   0.043   4.390   2.193  4.0681  0.3025 -3.1549
  534MPD2     N 7933   4.394   4.290   1.966 -0.5704  0.4273  0.4200
  534MPD2    H5 7934   4.342   4.326   1.886 -2.5996 -1.3688  0.9214
  534MPD2    N1 7935   4.626   4.687   1.853  0.2671  0.0418 -0.7921
  534MPD2    H7 7936   4.559   4.689   1.778 -1.2196  0.3586  0.5539
  535TMC3    C1 7937   4.256   4.093   1.979 -0.1851  0.0468 -0.0830
  535TMC3    C2 7938   4.196   4.007   2.063 -0.8485 -0.2352  0.6270
  535TMC3    C3 7939   4.113   3.908   2.015  0.7165  0.7730 -0.5592
  535TMC3    C4 7940   4.252   4.078   1.840 -0.2261  0.1851  0.0347
  535TMC3    C5 7941   4.184   3.970   1.796  0.0354 -0.6591 -0.0118
  535TMC3    C6 7942   4.104   3.888   1.879  0.2435  0.0088  0.4442
  535TMC3     C 7943   4.365   4.173   2.033 -0.3535  0.0253  0.1408
  535TMC3     O 7944   4.402   4.139   2.145 -0.0393 -0.1716 -0.2910
  535TMC3     H 7945   4.206   4.023   2.170  0.6327 -1.6460  0.6999
  535TMC3    H1 7946   4.320   4.127   1.773  2.2180 -1.9565  0.9384
  535TMC3    H2 7947   4.036   3.810   1.848 -0.3000  1.5971 -2.3423
  535TMC3    C7 7948   4.190   3.946   1.652  0.0288  0.7329  0.4628
  535TMC3    C8 7949   4.051   3.808   2.094  0.0948 -0.4028 -0.1129
  535TMC3    O1 7950   4.293   3.977   1.591  0.6185 -0.0022 -0.1242
  535TMC3    O2 7951   4.026   3.699   2.046 -0.0286  0.4655  0.4300
  536MPD2     C 7952   2.489   2.215  17.207 -0.5657 -0.2738 -0.4742
  536MPD2    C1 7953   2.504   2.350  17.180 -0.1950  0.3824  0.4607
  536MPD2    C2 7954   2.516   2.385  17.047  0.5132 -0.3788  0.8605
  536MPD2    C3 7955   2.517   2.298  16.936 -0.3269 -0.4990 -0.0725
  536MPD2    C4 7956   2.512   2.162  16.970 -0.8640  0.1211 -0.5150
  536MPD2    C5 7957   2.485   2.125  17.097  0.0774 -0.0191  1.1942
  536MPD2     H 7958   2.524   2.489  17.019  1.0333 -0.6343  0.0496
  536MPD2    H1 7959   2.524   2.077  16.903  0.0223  0.7970 -1.2228
  536MPD2    H2 7960   2.468   2.169  17.303 -2.2328  0.7824 -0.3305
  536MPD2    H3 7961   2.475   2.019  17.117  1.6741 -0.6057 -1.1004
  536MPD2     N 7962   2.532   2.347  16.801 -0.2480  0.1006 -0.8505
  536MPD2    H5 7963   2.517   2.447  16.798 -0.1292  0.1370 -0.3017
  536MPD2    N1 7964   2.528   2.435  17.292 -0.0761  0.1674  0.9691
  536MPD2    H7 7965   2.544   2.389  17.380  3.5710  0.9459  0.6925
  537TMC3    C1 7966   2.582   2.636  17.408 -0.7108 -0.2332  0.4605
  537TMC3    C2 7967   2.675   2.735  17.407  0.5985 -0.2729  0.7667
  537TMC3    C3 7968   2.770   2.750  17.507 -0.7553  0.2243 -0.3769
  537TMC3    C4 7969   2.565   2.577  17.535  0.7029  0.3997  0.3998
  537TMC3    C5 7970   2.648   2.607  17.633  0.3074 -0.0969  0.1248
  537TMC3    C6 7971   2.752   2.692  17.623 -0.6289 -0.4612  0.1593
  537TMC3     C 7972   2.542   2.575  17.277  0.2546  0.7103 -0.0133
  537TMC3     O 7973   2.537   2.652  17.183 -0.0090 -0.1880 -0.2037
  537TMC3     H 7974   2.705   2.759  17.306 -1.5827  0.3124  0.2521
  537TMC3    H1 7975   2.493   2.497  17.546  2.4604 -0.8124  2.7982
  537TMC3    H2 7976   2.812   2.723   0.019 -0.2169  0.4377 -0.4737
  537TMC3    C7 7977   2.638   2.539   0.079 -0.8434 -0.6372 -0.3518
  537TMC3    C8 7978   2.907   2.776  17.470 -0.8256 -0.1789 -0.3496
  537TMC3    O1 7979   2.665   2.605   0.180 -0.0238  0.5067  0.2516
  537TMC3    O2 7980   2.988   2.724  17.539  0.4885  0.0752  0.4721
  538TMC3    C1 7981   0.688   0.790  11.225  1.0643 -0.6090 -0.2649
  538TMC3    C2 7982   0.755   0.737  11.118 -0.6146 -0.5776  0.8769
  538TMC3    C3 7983   0.716   0.773  10.991 -0.0437  0.1663 -0.4803
  538TMC3    C4 7984   0.594   0.882  11.213 -0.8588 -0.3928 -0.2125
  538TMC3    C5 7985   0.560   0.926  11.088 -0.3501 -0.4427 -0.0663
  538TMC3    C6 7986   0.625   0.878  10.974  0.2597 -0.5995 -0.4570
  538TMC3     C 7987   0.755   0.810  11.354  0.0265  0.3516  0.0455
  538TMC3     O 7988   0.692   0.840  11.450  0.4426 -0.1874  0.6149
  538TMC3     H 7989   0.837   0.666  11.129  0.6150  0.6838 -0.1144
  538TMC3    H1 7990   0.544   0.922  11.300 -1.3021 -2.4995  0.5094
  538TMC3    H2 7991   0.604   0.917  10.875  0.0194  1.9047  0.5850
  538TMC3    C7 7992   0.511   1.068  11.090  0.2332 -0.1733  1.3549
  538TMC3    C8 7993   0.805   0.730  10.883 -0.6984  0.1299  0.1744
  538TMC3    O1 7994   0.404   1.097  11.040 -0.5018  0.2312  0.4021
  538TMC3    O2 7995   0.884   0.641  10.911 -0.0414  0.4441 -0.1402
  539MPD2     C 7996   0.319   0.250  11.845 -0.1018  0.3347 -0.1768
  539MPD2    C1 7997   0.416   0.297  11.758 -0.0183 -0.3125  0.3683
  539MPD2    C2 7998   0.397   0.414  11.696 -0.0683 -0.2045 -0.3326
  539MPD2    C3 7999   0.284   0.490  11.721 -0.1617  0.0172 -0.1302
  539MPD2    C4 8000   0.187   0.436  11.797  0.2685  0.5362  0.2348
  539MPD2    C5 8001   0.200   0.313  11.856  0.4569  0.0252 -0.1650
  539MPD2     H 8002   0.472   0.448  11.626  0.8192  2.4404  1.8960
  539MPD2    H1 8003   0.091   0.483  11.816  1.0194  1.8430  0.8557
  539MPD2    H2 8004   0.327   0.164  11.911 -1.4494  1.3224  1.2762
  539MPD2    H3 8005   0.115   0.272  11.909 -0.8178  1.7613 -0.8640
  539MPD2     N 8006   0.267   0.617  11.679 -0.2633 -0.0738  0.0693
  539MPD2    H5 8007   0.190   0.660  11.729  0.4056 -0.1573  1.1807
  539MPD2    N1 8008   0.527   0.219  11.730  0.8295  0.1878 -0.0030
  539MPD2    H7 8009   0.602   0.257  11.673 -0.7279 -0.2537 -2.3750
  540TMC3    C1 8010   0.291   0.825  11.578 -0.1968  0.2746 -0.2655
  540TMC3    C2 8011   0.285   0.881  11.450 -0.4795 -0.0944 -0.4220
  540TMC3    C3 8012   0.196   0.988  11.438  0.4055 -0.0442  0.2357
  540TMC3    C4 8013   0.230   0.890  11.683  0.0043 -0.6512  0.0016
  540TMC3    C5 8014   0.142   0.996  11.662  0.2677 -0.2226 -0.4163
  540TMC3    C6 8015   0.125   1.046  11.538 -0.7539  0.1980  0.1650
  540TMC3     C 8016   0.347   0.695  11.599  0.1110 -0.8703 -1.1981
  540TMC3     O 8017   0.427   0.655  11.515  0.3007 -0.0781  0.0602
  540TMC3     H 8018   0.334   0.823  11.373  0.0576 -1.1850  0.7352
  540TMC3    H1 8019   0.240   0.846  11.782 -0.3026  1.6300  1.0477
  540TMC3    H2 8020   0.053   1.123  11.514 -0.4903  0.5303  0.4451
  540TMC3    C7 8021   0.024   0.974  11.744 -0.7661 -0.3342 -0.1790
  540TMC3    C8 8022   0.145   1.015  11.307 -0.1759 -0.2435 -0.1516
  540TMC3    O1 8023   4.696   0.866  11.744 -0.1230 -0.1896  0.3956
  540TMC3    O2 8024   0.097   1.125  11.280 -0.8900 -0.4270  0.0437
  541MPD2     C 8025   2.985   1.488  13.260  0.1175 -0.1957  0.2979
  541MPD2    C1 8026   2.850   1.510  13.248 -0.0727  0.4629 -0.2924
  541MPD2    C2 8027   2.806   1.599  13.143  0.1998  0.5309 -0.7472
  541MPD2    C3 8028   2.899   1.653  13.059  0.1251 -0.4008 -0.2561
  541MPD2    C4 8029   3.032   1.621  13.073 -0.0446 -0.1643 -0.4855
  541MPD2    C5 8030   3.076   1.547  13.177 -0.2694 -0.3645 -0.2949
  541MPD2     H 8031   2.699   1.610  13.137  0.1233  1.1601  1.8438
  541MPD2    H1 8032   3.103   1.671  13.008 -1.7913  0.9303 -1.5381
  541MPD2    H2 8033   3.023   1.422  13.337 -1.1181 -2.2722 -0.8623
  541MPD2    H3 8034   3.183   1.536  13.190 -0.7029 -3.7812  0.2616
  541MPD2     N 8035   2.861   1.743  12.953  0.6569  0.2505  0.0413
  541MPD2    H5 8036   2.933   1.787  12.897  1.3772 -2.3095 -1.0215
  541MPD2    N1 8037   2.773   1.437  13.340 -0.0630 -0.0754  0.9217
  541MPD2    H7 8038   2.829   1.375  13.398  0.0413  0.0315  0.9339
  542TMC3    C1 8039   2.725   1.867  12.817 -0.1680 -1.0840  0.4390
  542TMC3    C2 8040   2.810   1.840  12.718  0.2362 -0.1829 -0.0424
  542TMC3    C3 8041   2.830   1.936  12.618 -0.0345  1.5466 -0.2384
  542TMC3    C4 8042   2.635   1.975  12.816 -0.4045 -0.3083 -0.3400
  542TMC3    C5 8043   2.654   2.063  12.712  0.3223  0.6559  1.0169
  542TMC3    C6 8044   2.752   2.051  12.620 -0.4663  0.3187  0.0707
  542TMC3     C 8045   2.731   1.788  12.937 -0.1819 -0.8943 -0.2794
  542TMC3     O 8046   2.637   1.778  13.013  0.3582 -0.4941  0.4075
  542TMC3     H 8047   2.863   1.745  12.717  0.9247  0.1533  2.9341
  542TMC3    H1 8048   2.567   1.997  12.898  0.8419 -0.0213  0.6161
  542TMC3    H2 8049   2.760   2.136  12.552 -4.0853 -0.2929 -1.1086
  542TMC3    C7 8050   2.568   2.184  12.724 -0.0235 -0.3115 -0.6519
  542TMC3    C8 8051   2.920   1.928  12.504  0.1232 -0.2431 -0.1490
  542TMC3    O1 8052   2.529   2.202  12.841  0.2213 -0.2105 -0.0265
  542TMC3    O2 8053   2.915   2.009  12.414 -0.1698  0.5383 -0.2045
  543TMC3    C1 8054   1.838   2.811  17.579 -0.4674 -0.3785 -0.5432
  543TMC3    C2 8055   1.878   2.680  17.588 -0.2674  0.1907  0.3866
  543TMC3    C3 8056   1.816   2.601  17.684  0.7583  0.2243  0.4788
  543TMC3    C4 8057   1.749   2.865  17.673  0.2894  0.3320  0.2123
  543TMC3    C5 8058   1.711   2.787   0.091 -0.2051  0.3912 -0.3908
  543TMC3    C6 8059   1.745   2.655   0.097  0.7071 -0.5842 -0.4402
  543TMC3     C 8060   1.897   2.902  17.470 -0.3497  0.6232 -0.9260
  543TMC3     O 8061   2.004   2.872  17.420  0.3394 -0.0726 -0.1029
  543TMC3     H 8062   1.954   2.646  17.519 -0.1640 -0.3882  0.7817
  543TMC3    H1 8063   1.734   2.972  17.668  0.8078  0.4799  1.5834
  543TMC3    H2 8064   1.688   2.588   0.161  1.2087  0.3526  1.0033
  543TMC3    C7 8065   1.600   2.822   0.167 -0.4924 -0.2353 -0.4076
  543TMC3    C8 8066   1.876   2.463  17.687 -0.2319 -0.5279 -0.8989
  543TMC3    O1 8067   1.560   2.744   0.255  0.9981  0.4242 -0.3118
  543TMC3    O2 8068   1.931   2.414  17.587 -0.4841 -0.3392 -0.7145
  544MPD2     C 8069   1.959   2.025   0.234  0.2375 -0.0051  0.2140
  544MPD2    C1 8070   1.971   2.049   0.108  1.3385  0.0600  0.0487
  544MPD2    C2 8071   1.922   2.169   0.066 -0.4071 -0.2469 -0.1679
  544MPD2    C3 8072   1.892   2.275   0.161  0.0769  0.2756  0.1582
  544MPD2    C4 8073   1.900   2.245   0.294  0.3806 -0.3025 -0.6200
  544MPD2    C5 8074   1.931   2.114   0.325  0.2595  0.1144 -0.3612
  544MPD2     H 8075   1.932   2.193  17.648  1.5345  0.8896  0.2722
  544MPD2    H1 8076   1.896   2.312   0.379 -0.9325 -1.8581  0.5487
  544MPD2    H2 8077   1.978   1.926   0.274  1.1491 -0.0167 -0.2275
  544MPD2    H3 8078   1.946   2.092   0.430  0.3433  1.2857 -0.1198
  544MPD2     N 8079   1.860   2.410   0.123  0.2555  0.0979 -0.1845
  544MPD2    H5 8080   1.807   2.464   0.190  1.4481  2.2427 -0.9918
  544MPD2    N1 8081   2.020   1.941   0.030 -0.6828  0.3563 -0.1642
  544MPD2    H7 8082   2.055   1.861   0.082 -3.5933 -0.5195  0.4256
  545TMC3    C1 8083   2.072   1.793  17.547  0.0023  0.4563 -0.3062
  545TMC3    C2 8084   2.045   1.768  17.415 -0.2864 -0.1663  0.1868
  545TMC3    C3 8085   2.136   1.690  17.352 -0.1759  0.2284 -0.8175
  545TMC3    C4 8086   2.175   1.731  17.623 -0.1192 -0.0916  0.2965
  545TMC3    C5 8087   2.259   1.652  17.555  0.1256  0.0313  0.1094
  545TMC3    C6 8088   2.234   1.628  17.420  0.2447 -0.5221  0.1335
  545TMC3     C 8089   2.029   1.928  17.585 -0.0190 -0.0138 -0.3579
  545TMC3     O 8090   1.988   2.012  17.508 -0.1343 -0.6290  0.1638
  545TMC3     H 8091   1.965   1.827  17.372  0.4361  0.2412 -0.6001
  545TMC3    H1 8092   2.167   1.737   0.043  0.2240 -0.0753  0.3224
  545TMC3    H2 8093   2.307   1.564  17.371 -2.9434 -0.9666 -4.0581
  545TMC3    C7 8094   2.334   1.550  17.617 -0.0426 -0.2972 -0.1173
  545TMC3    C8 8095   2.069   1.623  17.239  0.0931 -0.3230  0.4697
  545TMC3    O1 8096   2.400   1.477  17.539 -0.3745 -0.5801 -0.1532
  545TMC3    O2 8097   1.987   1.683  17.166  0.2570 -0.0240 -0.7877
  546MPD2     C 8098   3.747   3.117  17.682 -0.2500 -0.4707 -0.0314
  546MPD2    C1 8099   3.680   3.148  17.565 -0.8292 -0.7355  0.3529
  546MPD2    C2 8100   3.740   3.220  17.472  0.1927 -0.1557  0.1805
  546MPD2    C3 8101   3.869   3.256  17.484 -0.1344 -0.4128  0.3534
  546MPD2    C4 8102   3.941   3.223  17.598 -0.0577 -0.2959  0.7336
  546MPD2    C5 8103   3.874   3.163   0.012 -0.1582  0.0765  0.1462
  546MPD2     H 8104   3.685   3.243  17.381 -0.5705 -2.6432  0.0376
  546MPD2    H1 8105   4.043   3.256  17.613  0.1313 -0.4067 -0.2907
  546MPD2    H2 8106   3.707   3.064   0.080  1.2563 -1.7020 -0.0977
  546MPD2    H3 8107   3.917   3.138   0.109  1.3060  1.5547 -0.1279
  546MPD2     N 8108   3.932   3.347  17.391  0.6756 -0.7792  0.0879
  546MPD2    H5 8109   4.020   3.389  17.418  0.9393 -0.9987 -0.4374
  546MPD2    N1 8110   3.537   3.117  17.564  0.6169 -0.1535  0.4935
  546MPD2    H7 8111   3.498   3.078  17.649  0.7866  0.2323  0.7497
  547TMC3    C1 8112   3.313   3.104  17.502  0.2991  0.4101 -0.2501
  547TMC3    C2 8113   3.203   3.168  17.437 -0.1933  0.1069  0.0046
  547TMC3    C3 8114   3.080   3.150  17.495  0.0280 -0.0492  0.4635
  547TMC3    C4 8115   3.296   3.012  17.599 -0.3568 -0.3575  0.1387
  547TMC3    C5 8116   3.168   2.994  17.641 -0.1431 -0.3722  0.4822
  547TMC3    C6 8117   3.056   3.059  17.599  0.1935 -0.5773  0.4307
  547TMC3     C 8118   3.447   3.141  17.464 -1.0375 -0.1502 -0.3936
  547TMC3     O 8119   3.464   3.183  17.351 -0.5942  0.5309 -0.4311
  547TMC3     H 8120   3.221   3.231  17.351 -0.1512  1.7309  1.2005
  547TMC3    H1 8121   3.382   2.952  17.628  0.5468  0.3610 -1.0550
  547TMC3    H2 8122   2.960   3.043  17.647  0.1387  0.4802  0.6755
  547TMC3    C7 8123   3.139   2.896   0.058  0.1806  0.2177 -0.2093
  547TMC3    C8 8124   2.979   3.212  17.426 -0.9690 -0.3870 -0.8757
  547TMC3    O1 8125   3.033   2.901   0.114  0.2463  1.2248  0.2539
  547TMC3    O2 8126   2.992   3.252  17.312  0.2303  0.2876 -0.7580
  548MPD2     C 8127   4.090   3.592  12.212 -0.4259  0.4671  0.3299
  548MPD2    C1 8128   4.072   3.458  12.239  1.0705  0.2020  0.0883
  548MPD2    C2 8129   4.158   3.362  12.188  0.5302 -0.4361 -0.2141
  548MPD2    C3 8130   4.263   3.399  12.103  0.0727  0.6439 -0.7064
  548MPD2    C4 8131   4.283   3.535  12.075  0.0817 -0.4805 -0.0492
  548MPD2    C5 8132   4.197   3.629  12.134 -0.2818 -0.0493  0.1355
  548MPD2     H 8133   4.150   3.259  12.220  0.3713  0.1459  1.6427
  548MPD2    H1 8134   4.353   3.574  12.002 -1.0821  0.6212 -0.5804
  548MPD2    H2 8135   4.026   3.673  12.245 -2.1313 -0.1659 -1.4316
  548MPD2    H3 8136   4.207   3.732  12.103 -1.3980  0.3070  0.9468
  548MPD2     N 8137   4.348   3.304  12.052 -0.5770  0.3025 -0.5831
  548MPD2    H5 8138   4.322   3.213  12.090 -0.7431  1.1979  1.4247
  548MPD2    N1 8139   3.965   3.424  12.328  0.6279  0.4178  0.0803
  548MPD2    H7 8140   3.902   3.497  12.359 -1.4660 -1.1858 -0.4038
  549TMC3    C1 8141   3.798   3.305  12.452  0.1509  0.1856 -0.0558
  549TMC3    C2 8142   3.781   3.412  12.538 -0.7984 -0.2077  0.4898
  549TMC3    C3 8143   3.680   3.411  12.624  0.4017 -0.1747  0.2852
  549TMC3    C4 8144   3.711   3.198  12.453 -0.9939 -0.5008  0.0676
  549TMC3    C5 8145   3.606   3.208  12.545  0.2941  0.4683 -1.2098
  549TMC3    C6 8146   3.597   3.305  12.640  0.1450 -0.7478 -0.5106
  549TMC3     C 8147   3.911   3.298  12.357  0.6150 -0.0696 -0.0715
  549TMC3     O 8148   3.938   3.186  12.310 -0.5341  0.0495  0.2667
  549TMC3     H 8149   3.857   3.489  12.536 -1.2577  0.2213 -0.4420
  549TMC3    H1 8150   3.717   3.122  12.375 -0.7081  0.3036 -0.6920
  549TMC3    H2 8151   3.524   3.303  12.719  0.5358  0.4248 -0.1213
  549TMC3    C7 8152   3.488   3.144  12.505  0.3105 -0.2758 -0.8887
  549TMC3    C8 8153   3.623   3.538  12.665 -0.3162  0.2598 -0.2751
  549TMC3    O1 8154   3.383   3.199  12.540 -0.7705  0.3418  0.0858
  549TMC3    O2 8155   3.499   3.545  12.673 -0.4415 -0.5288  0.4961
  550TMC3    C1 8156   2.504   0.960  12.358 -0.0624  0.1028 -0.0482
  550TMC3    C2 8157   2.499   1.026  12.474  0.5582  0.0232  0.5719
  550TMC3    C3 8158   2.594   1.119  12.501  0.0736  0.1175 -0.5054
  550TMC3    C4 8159   2.611   0.988  12.273 -0.1703  0.5477  0.5699
  550TMC3    C5 8160   2.708   1.085  12.294  0.2427  0.7864  0.1547
  550TMC3    C6 8161   2.698   1.148  12.410  0.3015 -0.0371  1.0351
  550TMC3     C 8162   2.376   0.941  12.294  0.3136 -0.2422  0.9379
  550TMC3     O 8163   2.283   0.945  12.374 -0.1198  0.0454 -0.0719
  550TMC3     H 8164   2.415   1.028  12.542 -0.8542  2.2906 -1.2605
  550TMC3    H1 8165   2.606   0.945  12.174  2.3776 -1.0119  1.1035
  550TMC3    H2 8166   2.768   1.227  12.436  0.4576 -0.2530  1.2641
  550TMC3    C7 8167   2.705   1.189  12.187 -0.3463 -0.3367 -0.0664
  550TMC3    C8 8168   2.524   1.246  12.517 -0.2144 -0.7492 -0.6987
  550TMC3    O1 8169   2.608   1.183  12.115 -0.5615 -0.1103  0.0921
  550TMC3    O2 8170   2.586   1.351  12.525 -0.1370 -0.4072 -0.7604
  551TMC3    C1 8171   0.137   3.860  13.247  0.4940  0.1198 -0.3511
  551TMC3    C2 8172   0.252   3.896  13.186 -0.5814 -0.1375  0.0869
  551TMC3    C3 8173   0.323   3.998  13.232 -0.7022 -0.5629  0.4830
  551TMC3    C4 8174   0.096   3.923  13.359 -0.3274 -0.7857 -0.4414
  551TMC3    C5 8175   0.175   4.037  13.404  0.2922 -0.1292  0.3679
  551TMC3    C6 8176   0.298   4.070  13.348 -0.7062  0.2003 -1.4265
  551TMC3     C 8177   0.069   3.748  13.185  0.1185  0.0339 -0.0780
  551TMC3     O 8178   0.080   3.738  13.068  0.2171  0.0077  0.0089
  551TMC3     H 8179   0.291   3.830  13.110  0.3418  1.6447 -0.9938
  551TMC3    H1 8180   0.001   3.901  13.405 -1.1131  2.6840 -0.4038
  551TMC3    H2 8181   0.352   4.157  13.385 -0.2552 -0.5549 -0.3151
  551TMC3    C7 8182   0.158   4.094  13.541 -1.0876 -0.1332  0.2077
  551TMC3    C8 8183   0.458   4.014  13.189 -0.5494  0.8950  0.3165
  551TMC3    O1 8184   0.257   4.117  13.612  0.1886 -0.0136 -0.1047
  551TMC3    O2 8185   0.524   3.910  13.186 -0.1165  0.2090 -0.2839
  552MPD2     C 8186   1.759   1.053  14.621  0.9115 -0.8824 -0.3867
  552MPD2    C1 8187   1.792   0.951  14.534 -0.0128  0.2980  0.1731
  552MPD2    C2 8188   1.922   0.892  14.535  0.3944  0.2542  0.2851
  552MPD2    C3 8189   2.021   0.953  14.610 -0.0800  0.7886  0.1640
  552MPD2    C4 8190   1.997   1.076  14.670 -0.2192 -0.2642 -0.7711
  552MPD2    C5 8191   1.865   1.117  14.681  0.3551 -0.3851  0.7223
  552MPD2     H 8192   1.950   0.808  14.471 -0.5761  2.8707 -3.5373
  552MPD2    H1 8193   2.065   1.139  14.727 -0.3614 -0.6470 -0.1733
  552MPD2    H2 8194   1.658   1.088  14.639  1.5282  0.1732  0.9362
  552MPD2    H3 8195   1.834   1.200  14.745 -0.1151 -1.1304  1.4551
  552MPD2     N 8196   2.162   0.915  14.603  0.7553 -0.1018  0.0736
  552MPD2    H5 8197   2.227   0.975  14.652  1.1743  0.4785 -1.2220
  552MPD2    N1 8198   1.697   0.889  14.445  0.3414 -0.3787 -0.3735
  552MPD2    H7 8199   1.733   0.810  14.392  0.9787 -0.5737  0.3425
  553TMC3    C1 8200   1.516   0.855  14.302  0.6817  0.2292 -0.9298
  553TMC3    C2 8201   1.443   0.935  14.217  0.1600 -0.3057 -0.9203
  553TMC3    C3 8202   1.437   0.894  14.087 -1.0800  1.0604  0.0381
  553TMC3    C4 8203   1.571   0.735  14.266 -0.3740  0.4303  0.0234
  553TMC3    C5 8204   1.569   0.705  14.127  0.3533  0.2794 -0.3671
  553TMC3    C6 8205   1.503   0.787  14.039 -0.3342  0.6408  0.9263
  553TMC3     C 8206   1.573   0.937  14.398  0.1385 -0.2178 -1.0479
  553TMC3     O 8207   1.519   1.038  14.435  0.2921  0.1650  0.0756
  553TMC3     H 8208   1.392   1.024  14.251  0.6478 -1.4719  2.8466
  553TMC3    H1 8209   1.619   0.674  14.342 -0.8846  1.1670  0.9370
  553TMC3    H2 8210   1.501   0.763  13.933  1.1135 -1.2552  1.3266
  553TMC3    C7 8211   1.698   0.691  14.074  0.3229 -0.6538  0.0643
  553TMC3    C8 8212   1.437   1.002  13.986  0.2141 -0.2258 -0.2852
  553TMC3    O1 8213   1.713   0.768  13.979  0.2947  0.4213 -0.6536
  553TMC3    O2 8214   1.345   1.082  13.983  0.8301 -0.3620  0.1025
  554TMC3    C1 8215   4.108   0.273  11.494  0.0589 -0.0396  0.3245
  554TMC3    C2 8216   4.089   0.283  11.358 -0.1473  0.0098  0.3955
  554TMC3    C3 8217   4.159   0.381  11.287 -0.1565 -0.2246  0.2129
  554TMC3    C4 8218   4.179   0.356  11.568  0.1370  0.1559 -0.8962
  554TMC3    C5 8219   4.250   0.450  11.497 -0.1412  0.2687 -0.8966
  554TMC3    C6 8220   4.244   0.462  11.360  0.2077  0.8022 -0.0337
  554TMC3     C 8221   4.058   0.149  11.555  0.3211 -0.3632  0.0033
  554TMC3     O 8222   3.976   0.083  11.493 -0.5597  0.1998 -0.1118
  554TMC3     H 8223   4.033   0.206  11.308  2.4716 -0.7438 -1.4058
  554TMC3    H1 8224   4.168   0.360  11.676  1.8851  1.6290 -0.7848
  554TMC3    H2 8225   4.290   0.544  11.306  0.7822 -0.3904 -1.3459
  554TMC3    C7 8226   4.297   0.558  11.576 -0.3410 -0.4776  0.1746
  554TMC3    C8 8227   4.121   0.430  11.152  0.4646 -0.1261  0.2269
  554TMC3    O1 8228   4.318   0.535  11.695  0.6627 -0.2598 -0.1233
  554TMC3    O2 8229   4.173   0.529  11.105  0.2571  0.3240  0.3219
  555TMC3    C1 8230   2.887   4.174  15.140  0.5995  0.0631 -0.9182
  555TMC3    C2 8231   2.883   4.259  15.249  0.9059 -0.5418  0.3052
  555TMC3    C3 8232   2.907   4.211  15.373  0.0199  0.2073  0.7666
  555TMC3    C4 8233   2.905   4.042  15.162  0.5932  0.1286  0.0749
  555TMC3    C5 8234   2.916   3.999  15.287 -0.0211 -1.3174  0.1743
  555TMC3    C6 8235   2.932   4.079  15.395 -0.1514 -0.6069 -0.2563
  555TMC3     C 8236   2.888   4.228  15.003 -0.0222  0.0919  0.1265
  555TMC3     O 8237   2.956   4.176  14.916 -0.0354  0.2779 -0.4653
  555TMC3     H 8238   2.869   4.365  15.232 -0.4376 -0.9327 -0.9246
  555TMC3    H1 8239   2.903   3.974  15.078  0.1622 -2.5027  2.2171
  555TMC3    H2 8240   2.953   4.031  15.491 -1.4681  0.0864  0.3728
  555TMC3    C7 8241   2.869   3.872  15.329  0.7147 -0.3353 -0.0087
  555TMC3    C8 8242   2.955   4.314  15.468 -0.1730 -0.0628 -0.3647
  555TMC3    O1 8243   2.836   3.849  15.444 -0.0747 -0.1920 -0.1186
  555TMC3    O2 8244   2.969   4.430  15.431  0.5561  0.0260  0.3883
  556MPD2     C 8245   1.147   1.729  10.116  0.1048 -0.3537 -0.2823
  556MPD2    C1 8246   1.168   1.625  10.194  0.2040  0.5145  0.4004
  556MPD2    C2 8247   1.108   1.508  10.160  0.1886  0.0143 -0.0127
  556MPD2    C3 8248   1.045   1.491  10.041 -0.6430  0.4416 -0.7026
  556MPD2    C4 8249   1.020   1.598   9.958 -0.3228  0.1098  0.3830
  556MPD2    C5 8250   1.084   1.714   9.993 -0.0599  0.3125 -0.6141
  556MPD2     H 8251   1.112   1.435  10.240 -0.1885 -2.0397 -1.8425
  556MPD2    H1 8252   0.973   1.587   9.861  0.8835  0.0097 -0.1934
  556MPD2    H2 8253   1.189   1.827  10.136  0.5121 -1.0291  2.1136
  556MPD2    H3 8254   1.072   1.797   9.924  1.8089  1.1548  0.0534
  556MPD2     N 8255   0.988   1.360  10.028  0.3281  0.2699 -0.4196
  556MPD2    H5 8256   1.003   1.298  10.107  0.6012  0.9644  0.0651
  556MPD2    N1 8257   1.216   1.633  10.326  0.5089  0.5111  0.0785
  556MPD2    H7 8258   1.225   1.548  10.380 -4.7913  0.8070  1.4895
  557TMC3    C1 8259   0.841   1.195   9.970 -0.1094 -0.2349  0.3601
  557TMC3    C2 8260   0.843   1.098   9.874  0.0891 -0.4922 -0.2408
  557TMC3    C3 8261   0.844   0.963   9.909  0.4715  0.5179 -0.5495
  557TMC3    C4 8262   0.838   1.165  10.104  0.0529 -0.1839  0.2923
  557TMC3    C5 8263   0.848   1.031  10.134 -0.4963 -0.0800  0.1239
  557TMC3    C6 8264   0.855   0.930  10.041 -0.3715  0.3248  0.3881
  557TMC3     C 8265   0.895   1.320   9.932 -0.5784 -0.0462  0.2951
  557TMC3     O 8266   0.867   1.369   9.823 -0.3038 -0.0991 -0.4303
  557TMC3     H 8267   0.856   1.126   9.771  1.7142  3.9543  1.1830
  557TMC3    H1 8268   0.851   1.236  10.185  1.2557  0.1276 -0.1783
  557TMC3    H2 8269   0.854   0.826  10.071 -0.9196  0.1932 -0.0973
  557TMC3    C7 8270   0.855   1.002  10.280  0.0695 -0.0999 -0.1660
  557TMC3    C8 8271   0.808   0.865   9.814 -0.8914 -0.1628 -0.4981
  557TMC3    O1 8272   0.810   1.079  10.364  0.6998 -0.8046 -0.5902
  557TMC3    O2 8273   0.716   0.876   9.732 -0.4591 -0.4278 -0.3498
  558TMC3    C1 8274   4.137   3.901   9.977  0.4094 -0.5951  0.6031
  558TMC3    C2 8275   4.065   3.886  10.093  0.2652  0.1196  0.1846
  558TMC3    C3 8276   3.922   3.888  10.082  0.0212  0.0660  1.1033
  558TMC3    C4 8277   4.079   3.919   9.853 -0.2629 -0.6949 -0.0492
  558TMC3    C5 8278   3.943   3.926   9.846  0.5536  0.7688 -0.3446
  558TMC3    C6 8279   3.861   3.902   9.958 -0.8280 -0.0087  0.7338
  558TMC3     C 8280   4.280   3.917   9.988 -0.3378  0.2725 -0.0610
  558TMC3     O 8281   4.332   3.964  10.093  0.2166 -0.3612 -0.1141
  558TMC3     H 8282   4.117   3.893  10.188  1.2568  0.5342 -0.3813
  558TMC3    H1 8283   4.146   3.939   9.769  0.2452  2.4771  1.1000
  558TMC3    H2 8284   3.753   3.905   9.951 -0.6865  1.1928 -1.0461
  558TMC3    C7 8285   3.887   3.950   9.714  0.7772  0.2624 -0.4094
  558TMC3    C8 8286   3.838   3.840  10.191 -0.5955  0.1390 -0.0732
  558TMC3    O1 8287   3.957   3.992   9.626  0.0316 -0.3677 -0.2346
  558TMC3    O2 8288   3.719   3.822  10.171 -0.1362 -0.4213  0.2503
  559MPD2     C 8289   3.996   0.201  10.296  0.1598 -0.4255 -0.4402
  559MPD2    C1 8290   3.928   0.136  10.404 -0.3115 -0.0127  0.7061
  559MPD2    C2 8291   3.992   0.105  10.524  0.6313 -0.4817 -0.0671
  559MPD2    C3 8292   4.111   0.167  10.545 -0.3384 -0.3553  0.0790
  559MPD2    C4 8293   4.177   0.236  10.450 -0.2764  0.0133 -0.4500
  559MPD2    C5 8294   4.122   0.250  10.321  0.2196  0.3079 -0.3852
  559MPD2     H 8295   3.945   0.055  10.608 -1.1045  2.3226  0.6265
  559MPD2    H1 8296   4.273   0.281  10.471 -0.2749 -0.3260  0.2948
  559MPD2    H2 8297   3.949   0.219  10.199  1.3136 -0.5750 -1.0190
  559MPD2    H3 8298   4.182   0.305  10.250 -0.1752  2.4652  0.9498
  559MPD2     N 8299   4.177   0.150  10.671  0.1920  0.1186 -0.2015
  559MPD2    H5 8300   4.126   0.093  10.738 -0.0316  1.7520  1.0162
  559MPD2    N1 8301   3.795   0.102  10.386  0.3063  0.7322  0.5151
  559MPD2    H7 8302   3.750   0.155  10.312 -0.9201 -2.5260 -1.0532
  560TMC3    C1 8303   4.323   0.169  10.846  0.0170 -0.5995  0.3795
  560TMC3    C2 8304   4.327   0.028  10.872 -1.2040 -0.5712 -0.1393
  560TMC3    C3 8305   4.372   4.709  10.990 -0.8207 -0.3982  0.1817
  560TMC3    C4 8306   4.367   0.253  10.936  0.8908 -0.6846 -0.1497
  560TMC3    C5 8307   4.405   0.209  11.059  0.5416 -1.0766 -0.2617
  560TMC3    C6 8308   4.404   0.075  11.097  0.1694  0.6582  0.4410
  560TMC3     C 8309   4.289   0.219  10.715 -0.2215  1.0778 -0.1092
  560TMC3     O 8310   4.342   0.319  10.671  0.0428  0.1563  0.5520
  560TMC3     H 8311   4.296   4.676  10.797 -1.8212  1.0312 -1.4488
  560TMC3    H1 8312   4.369   0.361  10.922 -0.9998 -1.0088 -2.7130
  560TMC3    H2 8313   4.440   0.033  11.191  3.2384  1.5320 -0.3208
  560TMC3    C7 8314   4.517   0.284  11.112  1.4663 -0.4389  1.2099
  560TMC3    C8 8315   4.389   4.567  11.004 -0.5406 -0.3476  0.1709
  560TMC3    O1 8316   4.577   0.367  11.043 -0.6707  0.5226  0.0141
  560TMC3    O2 8317   4.322   4.492  10.936  0.6717 -0.3461 -0.0252
  561TMC3    C1 8318   2.079   3.644  11.386 -0.4808  0.3826  0.8432
  561TMC3    C2 8319   2.029   3.580  11.496 -0.2878  0.4200  0.3223
  561TMC3    C3 8320   1.937   3.647  11.577  0.0159 -0.2328 -0.6067
  561TMC3    C4 8321   2.048   3.780  11.357 -0.6510  0.0645  0.1671
  561TMC3    C5 8322   1.966   3.841  11.445 -0.3509 -0.0932 -0.0408
  561TMC3    C6 8323   1.908   3.776  11.555 -0.2754 -0.7203  0.6467
  561TMC3     C 8324   2.139   3.563  11.282 -0.1164 -0.1259  0.0579
  561TMC3     O 8325   2.125   3.613  11.169  0.1901 -0.1855  0.7776
  561TMC3     H 8326   2.050   3.475  11.512 -0.0913  0.1847 -1.4024
  561TMC3    H1 8327   2.091   3.831  11.271  0.8411 -0.8725  0.3452
  561TMC3    H2 8328   1.831   3.832  11.606 -1.9856 -1.9900 -0.5456
  561TMC3    C7 8329   1.941   3.979  11.434  0.1834  0.4272  0.2691
  561TMC3    C8 8330   1.849   3.567  11.669 -0.3292 -0.2032  0.1410
  561TMC3    O1 8331   1.916   4.037  11.543 -0.6235 -0.1566  0.5440
  561TMC3    O2 8332   1.877   3.449  11.679 -0.6445  0.3174  0.0360
  562TMC3    C1 8333   2.173   4.430  16.492 -0.4095 -0.1020  0.1720
  562TMC3    C2 8334   2.113   4.542  16.431  0.0675  0.5410  0.0924
  562TMC3    C3 8335   2.150   4.554  16.298 -0.3208  0.1498 -0.6505
  562TMC3    C4 8336   2.254   4.335  16.432 -0.2753  0.2584 -0.9706
  562TMC3    C5 8337   2.284   4.354  16.302 -0.3192 -0.0378  0.2373
  562TMC3    C6 8338   2.225   4.457  16.233  0.1254  0.1994  0.5309
  562TMC3     C 8339   2.145   4.395  16.635  0.3305 -0.0851 -0.0666
  562TMC3     O 8340   2.169   4.281  16.675 -0.3454  0.0738 -0.3009
  562TMC3     H 8341   2.042   4.612  16.474  0.0305  1.2207 -1.0752
  562TMC3    H1 8342   2.296   4.253  16.490 -0.6458  1.3894  0.9053
  562TMC3    H2 8343   2.234   4.438  16.127 -1.2661 -1.9257  0.7959
  562TMC3    C7 8344   2.380   4.279  16.230  0.4073 -0.1032  0.7161
  562TMC3    C8 8345   2.120   4.681  16.227 -0.9833  0.1726 -0.1698
  562TMC3    O1 8346   2.435   4.341  16.142  0.3275 -0.1776  0.3951
  562TMC3    O2 8347   2.069   0.048  16.290 -0.0681 -0.1773 -0.3792
  563MPD2     C 8348   4.400   1.579  15.511  0.1394 -0.2539 -0.0464
  563MPD2    C1 8349   4.414   1.590  15.647 -0.7531 -0.6814 -0.9678
  563MPD2    C2 8350   4.534   1.612  15.706  0.1060  0.1836  0.2260
  563MPD2    C3 8351   4.648   1.578  15.631 -0.2544 -0.2108  0.7003
  563MPD2    C4 8352   4.638   1.556  15.495  0.0256  0.0884 -0.1689
  563MPD2    C5 8353   4.516   1.568  15.438 -1.0277 -0.3189  0.3000
  563MPD2     H 8354   4.540   1.609  15.814  0.3221 -3.3339  0.1138
  563MPD2    H1 8355   0.000   1.545  15.428  1.1756  0.2112  1.2343
  563MPD2    H2 8356   4.304   1.570  15.461 -0.0570  1.5118  0.0126
  563MPD2    H3 8357   4.506   1.542  15.334  0.7371  0.5606 -0.1015
  563MPD2     N 8358   0.050   1.568  15.697  0.2666 -0.3833 -0.2258
  563MPD2    H5 8359   0.068   1.603  15.791  0.3020 -0.6726 -0.1236
  563MPD2    N1 8360   4.301   1.587  15.726  0.2522 -0.0882 -0.2280
  563MPD2    H7 8361   4.316   1.592  15.827 -0.6552 -2.2860  0.0169
  564TMC3    C1 8362   4.128   1.450  15.805  0.1602 -0.3112 -0.0991
  564TMC3    C2 8363   4.011   1.388  15.788 -0.0453 -1.0046 -0.0974
  564TMC3    C3 8364   3.981   1.296  15.889  0.0159 -0.5330  0.3701
  564TMC3    C4 8365   4.217   1.420  15.905  0.9101  0.6339 -0.5093
  564TMC3    C5 8366   4.188   1.320  15.994  0.8146  0.0688  0.5543
  564TMC3    C6 8367   4.066   1.267  15.997  0.7193 -0.0039  0.0988
  564TMC3     C 8368   4.182   1.526  15.693  0.1550  0.2109 -0.4493
  564TMC3     O 8369   4.105   1.553  15.600 -0.6804  0.0404 -0.4124
  564TMC3     H 8370   3.943   1.400  15.705 -0.7081 -0.7575  0.4786
  564TMC3    H1 8371   4.318   1.459  15.906  1.0139  0.3241  1.3018
  564TMC3    H2 8372   4.046   1.184  16.065  0.7618  1.6916  2.1887
  564TMC3    C7 8373   4.295   1.223  15.998  0.0754 -0.0186 -0.1698
  564TMC3    C8 8374   3.913   1.180  15.837  0.2263  0.1587  0.2837
  564TMC3    O1 8375   4.288   1.123  16.069  0.3656 -0.3947  0.7887
  564TMC3    O2 8376   3.874   1.105  15.926  0.0807 -0.4925 -0.6226
  565TMC3    C1 8377   1.346   2.667  10.229  0.3019 -0.9409  0.2932
  565TMC3    C2 8378   1.378   2.582  10.336  0.1358 -0.8238 -0.1004
  565TMC3    C3 8379   1.349   2.450  10.321  0.8586 -0.4210  0.0638
  565TMC3    C4 8380   1.301   2.612  10.113  0.4871  0.0447 -0.1083
  565TMC3    C5 8381   1.293   2.477  10.092  0.5499 -0.0310 -0.5044
  565TMC3    C6 8382   1.305   2.394  10.201 -0.3297 -0.4318  0.9442
  565TMC3     C 8383   1.384   2.803  10.242  0.4987 -0.0143 -0.6838
  565TMC3     O 8384   1.424   2.849  10.135 -0.5543 -0.2582 -0.0167
  565TMC3     H 8385   1.420   2.629  10.424  0.5797 -0.5995 -0.4285
  565TMC3    H1 8386   1.273   2.680  10.033  1.0175 -0.1363 -0.4456
  565TMC3    H2 8387   1.318   2.287  10.191 -0.1969 -0.5874  2.9001
  565TMC3    C7 8388   1.224   2.442   9.976  0.6096  1.0132 -0.0251
  565TMC3    C8 8389   1.349   2.369  10.441  0.2185 -0.0254 -0.4019
  565TMC3    O1 8390   1.247   2.506   9.874 -0.4521  0.3785 -0.7357
  565TMC3    O2 8391   1.439   2.404  10.519  0.1768  0.2168 -0.4654
  566MPD2     C 8392   2.335   4.607  14.180  0.1511  0.1422  0.2884
  566MPD2    C1 8393   2.367   4.479  14.204  0.1287 -0.5175  0.1352
  566MPD2    C2 8394   2.316   4.384  14.116 -0.6693  0.2254  0.1456
  566MPD2    C3 8395   2.221   4.420  14.020 -0.4139 -0.3876 -0.0327
  566MPD2    C4 8396   2.181   4.552  14.005 -0.1911  0.5160 -0.3583
  566MPD2    C5 8397   2.238   4.646  14.087 -0.1592 -0.7583  0.2671
  566MPD2     H 8398   2.342   4.281  14.137  1.9952  0.6371 -1.0677
  566MPD2    H1 8399   2.117   4.584  13.923 -0.9159  2.8699  1.1491
  566MPD2    H2 8400   2.366   4.690  14.243 -0.0345  1.1232 -0.9162
  566MPD2    H3 8401   2.215   0.030  14.074  0.8946 -0.3619  1.6693
  566MPD2     N 8402   2.171   4.329  13.920  0.5767 -0.7590  0.1957
  566MPD2    H5 8403   2.110   4.369  13.850  1.2368  0.8843  0.5513
  566MPD2    N1 8404   2.468   4.453  14.291  0.4974 -0.2609 -0.4874
  566MPD2    H7 8405   2.527   4.531  14.318  0.7392 -0.6516  0.1157
  567TMC3    C1 8406   2.615   4.327  14.417 -0.0531 -1.1618 -0.2117
  567TMC3    C2 8407   2.728   4.386  14.355  0.2922  1.3866 -0.5705
  567TMC3    C3 8408   2.853   4.344  14.391  0.2301 -0.0594  0.4508
  567TMC3    C4 8409   2.630   4.224  14.502  0.4448  0.3009  0.0657
  567TMC3    C5 8410   2.755   4.187  14.540 -0.0309 -0.3366 -0.0665
  567TMC3    C6 8411   2.866   4.247  14.485 -0.2913 -0.0531  0.0343
  567TMC3     C 8412   2.492   4.330  14.341  0.4360  0.2871  0.0798
  567TMC3     O 8413   2.422   4.229  14.346 -0.1334  0.4129  0.0309
  567TMC3     H 8414   2.715   4.441  14.263  0.1591  1.7371 -0.3388
  567TMC3    H1 8415   2.543   4.164  14.528 -0.1560  1.4739  0.7849
  567TMC3    H2 8416   2.966   4.215  14.515 -0.1018  2.0084  1.6050
  567TMC3    C7 8417   2.779   4.071  14.621 -0.3513 -0.0718  0.3763
  567TMC3    C8 8418   2.971   4.388  14.326  0.6332  0.9646  0.2306
  567TMC3    O1 8419   2.887   4.011  14.607 -0.3254  0.0056 -0.3207
  567TMC3    O2 8420   3.080   4.376  14.379 -0.2556 -0.2065 -0.3012
  568MPD2     C 8421   0.027   0.081  16.551  0.1793  0.0406 -0.4523
  568MPD2    C1 8422   4.627   0.132  16.606  0.4836  0.3596  0.3527
  568MPD2    C2 8423   4.573   0.246  16.552 -0.2302  0.9328  0.0640
  568MPD2    C3 8424   4.618   0.296  16.431  0.2917  0.3162 -0.3164
  568MPD2    C4 8425   0.014   0.239  16.382  0.2659 -0.2894  0.5129
  568MPD2    C5 8426   0.081   0.135  16.443  0.0302  0.2783  0.1605
  568MPD2     H 8427   4.490   0.296  16.600 -1.3895 -1.9052  0.9921
  568MPD2    H1 8428   0.053   0.280  16.290 -1.0915  0.0503  0.0872
  568MPD2    H2 8429   0.067   4.712  16.596 -0.0346  0.1294 -0.0851
  568MPD2    H3 8430   0.169   0.094  16.396  0.9043  2.3095 -0.0020
  568MPD2     N 8431   4.545   0.412  16.381  0.0120  0.1171 -0.5328
  568MPD2    H5 8432   4.467   0.445  16.437 -0.3651  0.4538 -1.2536
  568MPD2    N1 8433   4.581   0.058  16.712 -0.1662 -0.8080 -0.4129
  568MPD2    H7 8434   4.634   4.697  16.739 -0.2793 -0.6052  0.4175
  569TMC3    C1 8435   4.504   0.598  16.232 -0.0878  0.4975 -0.6312
  569TMC3    C2 8436   4.444   0.668  16.335 -0.3774 -0.8663 -0.1343
  569TMC3    C3 8437   4.387   0.790  16.302 -0.1047 -0.2746  0.0319
  569TMC3    C4 8438   4.489   0.630  16.095  0.4051 -0.2459 -0.0380
  569TMC3    C5 8439   4.418   0.743  16.069 -0.0156 -0.5820 -0.1718
  569TMC3    C6 8440   4.361   0.821  16.170 -0.0684 -0.0342  0.3737
  569TMC3     C 8441   4.565   0.470  16.254 -0.2777  0.1350  0.1216
  569TMC3     O 8442   4.640   0.433  16.167  0.1465 -0.9779 -0.1450
  569TMC3     H 8443   4.443   0.627  16.435  2.5785 -0.1201  0.2208
  569TMC3    H1 8444   4.532   0.573  16.014 -1.1662 -1.9163  0.3022
  569TMC3    H2 8445   4.316   0.915  16.141 -0.4213 -0.0745  0.7872
  569TMC3    C7 8446   4.375   0.747  15.926 -0.2303  1.0127 -0.7045
  569TMC3    C8 8447   4.362   0.886  16.408 -0.0410  0.2309  0.4846
  569TMC3    O1 8448   4.440   0.682  15.843 -0.0359  0.3307 -0.0834
  569TMC3    O2 8449   4.402   0.865  16.521 -0.3189 -0.3016  0.4821
  570TMC3    C1 8450   3.718   3.625  16.342 -0.3541  0.2070 -0.1052
  570TMC3    C2 8451   3.811   3.593  16.245  0.3654 -0.8807 -0.0650
  570TMC3    C3 8452   3.822   3.677  16.138  0.1217 -0.2547  0.3215
  570TMC3    C4 8453   3.629   3.735  16.329  0.3139  0.1518 -0.2532
  570TMC3    C5 8454   3.636   3.801  16.214  0.3079  0.0920 -0.4814
  570TMC3    C6 8455   3.730   3.775  16.121 -0.1354 -0.3468 -0.7445
  570TMC3     C 8456   3.744   3.570  16.472  0.1429 -0.2195 -0.1427
  570TMC3     O 8457   3.801   3.465  16.474 -0.3297  0.8121 -0.3015
  570TMC3     H 8458   3.891   3.523  16.266  1.0591 -0.2273 -0.5094
  570TMC3    H1 8459   3.561   3.765  16.407  1.5303  2.2830 -0.0090
  570TMC3    H2 8460   3.742   3.839  16.034  0.9914 -0.1752 -0.4622
  570TMC3    C7 8461   3.582   3.936  16.212 -0.7375  0.5000  0.3068
  570TMC3    C8 8462   3.952   3.702  16.076 -0.3024  1.1780 -0.0195
  570TMC3    O1 8463   3.552   3.987  16.318  0.2264  0.3517  0.1870
  570TMC3    O2 8464   3.989   3.822  16.079  0.0850  0.8807  0.1760
  571MPD2     C 8465   2.353   4.688  17.607 -0.1175  0.2016  0.0780
  571MPD2    C1 8466   2.311   4.688  17.474  0.7811  0.2912 -0.6949
  571MPD2    C2 8467   2.188   0.029  17.443 -0.3029  0.1218 -0.9657
  571MPD2    C3 8468   2.126   0.102  17.548  0.4878  0.7534  0.2406
  571MPD2    C4 8469   2.180   0.098  17.673 -0.2748  0.6652 -0.1878
  571MPD2    C5 8470   2.296   0.045   0.019  0.2804 -0.3110  0.7493
  571MPD2     H 8471   2.149   0.032  17.342  0.6546  1.3706 -1.2988
  571MPD2    H1 8472   2.129   0.143   0.070 -2.1538 -0.9753 -0.4750
  571MPD2    H2 8473   2.444   4.638  17.639 -1.3237 -0.3470  2.6247
  571MPD2    H3 8474   2.336   0.040   0.120  2.3082  0.7213 -0.0166
  571MPD2     N 8475   2.013   0.183  17.540  0.3850 -0.1467 -0.4122
  571MPD2    H5 8476   1.993   0.244  17.619  3.2364 -1.3494  1.2576
  571MPD2    N1 8477   2.370   4.600  17.381  0.2279  0.0624  0.0202
  571MPD2    H7 8478   2.430   4.534  17.430  0.7080 -0.3274 -1.1148
  572TMC3    C1 8479   1.845   0.303  17.455  0.6929 -0.9748 -0.7732
  572TMC3    C2 8480   1.724   0.300  17.392 -0.8644 -0.0966  0.5087
  572TMC3    C3 8481   1.646   0.408  17.412  0.0348  0.8594  0.4895
  572TMC3    C4 8482   1.902   0.417  17.506  0.3152 -0.2677 -0.6991
  572TMC3    C5 8483   1.831   0.535  17.475  0.0454 -1.2253  0.0077
  572TMC3    C6 8484   1.696   0.527  17.450 -0.3396  0.7710  0.4182
  572TMC3     C 8485   1.935   0.194  17.429 -0.1979  0.2214 -0.2320
  572TMC3     O 8486   1.920   0.117  17.337  0.2790  0.0088  0.5158
  572TMC3     H 8487   1.684   0.201  17.372  1.9895 -1.2580  0.4765
  572TMC3    H1 8488   2.003   0.419  17.545 -0.1906 -0.0437  0.5824
  572TMC3    H2 8489   1.638   0.618  17.461 -0.2841  0.6033  2.1452
  572TMC3    C7 8490   1.880   0.653  17.552  0.3521  0.2768  0.1221
  572TMC3    C8 8491   1.513   0.401  17.360 -0.0106  0.4310 -0.2721
  572TMC3    O1 8492   1.786   0.720  17.597 -0.0793  0.8046 -0.6361
  572TMC3    O2 8493   1.483   0.322  17.274 -0.3823  0.0194  0.2075
  573MPD2     C 8494   2.971   1.316   1.485 -0.1042 -0.1839 -0.1694
  573MPD2    C1 8495   2.981   1.212   1.401 -0.5502 -0.7358 -0.7736
  573MPD2    C2 8496   2.921   1.216   1.278  0.5329  0.1110 -0.0421
  573MPD2    C3 8497   2.860   1.342   1.239  0.0060 -0.5324 -0.2600
  573MPD2    C4 8498   2.851   1.441   1.327 -0.6796 -0.3383  0.5186
  573MPD2    C5 8499   2.912   1.434   1.450 -0.4109 -0.4082 -0.6841
  573MPD2     H 8500   2.913   1.141   1.200  1.5283 -1.4107  1.3222
  573MPD2    H1 8501   2.801   1.536   1.312 -0.6817 -0.4840 -0.3731
  573MPD2    H2 8502   3.010   1.314   1.586 -2.6618 -1.5500  0.7744
  573MPD2    H3 8503   2.913   1.521   1.514 -0.8989  0.3911 -1.7660
  573MPD2     N 8504   2.799   1.366   1.124  0.1218 -0.0312 -0.0213
  573MPD2    H5 8505   2.756   1.458   1.132  0.1366 -0.1126  1.0419
  573MPD2    N1 8506   3.038   1.097   1.458 -0.1358  0.4290 -0.7681
  573MPD2    H7 8507   3.062   1.106   1.556  0.2630  1.1312 -0.9272
  574TMC3    C1 8508   2.788   1.399   0.898 -0.6869  0.6545  0.0825
  574TMC3    C2 8509   2.736   1.339   0.788 -0.6265 -0.1589 -0.0068
  574TMC3    C3 8510   2.700   1.423   0.680 -0.3655  0.4402 -0.4134
  574TMC3    C4 8511   2.780   1.534   0.914  0.2358  0.5878 -0.0451
  574TMC3    C5 8512   2.743   1.610   0.809 -0.2559  0.8634  0.0221
  574TMC3    C6 8513   2.707   1.563   0.689 -0.3891 -0.5207 -0.2351
  574TMC3     C 8514   2.834   1.323   1.005 -0.9765  0.1181 -0.1303
  574TMC3     O 8515   2.920   1.235   0.987 -0.3984 -0.3542 -0.5828
  574TMC3     H 8516   2.748   1.231   0.791 -0.5346 -0.1635 -0.6274
  574TMC3    H1 8517   2.826   1.582   1.000  1.7781 -0.2820 -0.3744
  574TMC3    H2 8518   2.689   1.629   0.604 -1.2434 -0.4591 -0.0054
  574TMC3    C7 8519   2.782   1.753   0.814  0.8673 -0.7396 -0.6909
  574TMC3    C8 8520   2.660   1.366   0.555 -0.8394 -0.1411 -0.3709
  574TMC3    O1 8521   2.713   1.827   0.739 -0.0801  0.1695 -0.4522
  574TMC3    O2 8522   2.642   1.245   0.560  0.2738  0.2377  0.2773
  575TMC3    C1 8523   1.538   2.429  11.276 -0.3545  0.7785  0.0272
  575TMC3    C2 8524   1.453   2.385  11.375 -0.3107 -0.6297  0.4021
  575TMC3    C3 8525   1.357   2.298  11.340  0.5907 -0.1342  0.1025
  575TMC3    C4 8526   1.506   2.426  11.146  0.3583 -0.1486 -0.0479
  575TMC3    C5 8527   1.395   2.356  11.111 -0.7103  0.7281 -0.0844
  575TMC3    C6 8528   1.323   2.284  11.206 -0.9635 -0.4777 -0.1158
  575TMC3     C 8529   1.624   2.546  11.303  0.0752  0.3239 -0.1262
  575TMC3     O 8530   1.722   2.558  11.229  0.5399  0.4748  0.5224
  575TMC3     H 8531   1.499   2.379  11.473  0.0695 -1.0657  0.1966
  575TMC3    H1 8532   1.565   2.484  11.076  0.4349 -0.3843 -0.1775
  575TMC3    H2 8533   1.241   2.219  11.177 -1.5111  1.5261 -3.0510
  575TMC3    C7 8534   1.369   2.346  10.961  0.1429 -0.1731 -0.6911
  575TMC3    C8 8535   1.307   2.208  11.447 -0.7624 -0.7651 -0.0743
  575TMC3    O1 8536   1.414   2.436  10.891 -0.1655  0.2445  0.0491
  575TMC3    O2 8537   1.251   2.110  11.406  0.1537  0.5530 -0.8192
  576MPD2     C 8538   0.622   3.662  12.497 -0.0599  0.3784 -0.0811
  576MPD2    C1 8539   0.660   3.787  12.470 -0.1451 -0.1408 -0.1662
  576MPD2    C2 8540   0.604   3.895  12.535 -0.0080 -0.4704 -0.5308
  576MPD2    C3 8541   0.502   3.873  12.624 -0.3559 -0.0006 -0.6659
  576MPD2    C4 8542   0.465   3.750  12.651  0.4229  0.4384 -0.2565
  576MPD2    C5 8543   0.531   3.648  12.597  0.4366  0.3229  0.0183
  576MPD2     H 8544   0.637   3.995  12.509  2.4658 -1.5280 -1.4639
  576MPD2    H1 8545   0.404   3.716  12.734  1.1232  0.0058  0.0786
  576MPD2    H2 8546   0.672   3.576  12.454 -0.0263  0.1040  0.4997
  576MPD2    H3 8547   0.493   3.549  12.620  3.2050 -0.2872  2.0407
  576MPD2     N 8548   0.438   3.992  12.664 -0.5718 -0.6483 -0.4129
  576MPD2    H5 8549   0.457   4.081  12.621  0.4467 -0.8726 -0.4145
  576MPD2    N1 8550   0.772   3.822  12.384 -1.2180  0.1757 -0.1008
  576MPD2    H7 8551   0.786   3.919  12.357 -0.7749  0.2559  0.4215
  577TMC3    C1 8552   0.981   3.798  12.276  0.0923 -0.4705 -0.1157
  577TMC3    C2 8553   1.097   3.719  12.264  0.4234 -0.5325  0.1283
  577TMC3    C3 8554   1.205   3.773  12.206 -0.8702  0.2072 -0.2268
  577TMC3    C4 8555   0.981   3.937  12.244  0.1995 -0.0316 -0.5213
  577TMC3    C5 8556   1.106   3.977  12.190 -0.1835  0.2967 -0.9701
  577TMC3    C6 8557   1.218   3.900  12.167 -0.3464 -0.3283 -1.2873
  577TMC3     C 8558   0.863   3.735  12.331  0.6841 -0.0016  0.4621
  577TMC3     O 8559   0.875   3.620  12.366 -0.3150 -0.6473  0.2196
  577TMC3     H 8560   1.095   3.621  12.311 -2.7979  0.1842  1.4426
  577TMC3    H1 8561   0.892   3.999  12.248  0.8155  0.8054  0.2338
  577TMC3    H2 8562   1.313   3.941  12.133  0.1199  0.1532  0.5398
  577TMC3    C7 8563   1.107   4.121  12.149  0.0701  0.2690  0.5447
  577TMC3    C8 8564   1.288   3.674  12.157 -0.4774  0.2703 -0.0583
  577TMC3    O1 8565   1.000   4.186  12.154 -0.2936 -0.3531  0.1066
  577TMC3    O2 8566   1.285   3.571  12.222  0.2916 -0.0971 -0.1555
  578MPD2     C 8567   2.673   3.625   1.647 -0.7398 -0.8240 -0.0331
  578MPD2    C1 8568   2.783   3.640   1.562  0.1991  0.5175  0.2147
  578MPD2    C2 8569   2.905   3.597   1.606 -0.4324 -0.2731 -0.3508
  578MPD2    C3 8570   2.925   3.551   1.737  0.4919  0.6103  0.8154
  578MPD2    C4 8571   2.814   3.541   1.820  0.0235  0.0480 -0.2205
  578MPD2    C5 8572   2.693   3.569   1.772 -0.9670 -0.1897  0.5434
  578MPD2     H 8573   2.995   3.609   1.546  1.5401 -1.4725  2.3995
  578MPD2    H1 8574   2.820   3.515   1.926 -0.4769 -0.8003 -0.3987
  578MPD2    H2 8575   2.569   3.646   1.628 -0.7316 -0.3921  0.3992
  578MPD2    H3 8576   2.606   3.552   1.833  0.3034 -2.5547  1.6879
  578MPD2     N 8577   3.057   3.511   1.786 -0.0401  0.6609 -0.1841
  578MPD2    H5 8578   3.128   3.508   1.713 -0.8214  2.3509 -1.0118
  578MPD2    N1 8579   2.758   3.707   1.444 -0.6517 -0.0806  0.3132
  578MPD2    H7 8580   2.662   3.732   1.423 -0.7687 -1.1299 -0.3600
  579TMC3    C1 8581   3.224   3.446   1.938  0.8374  0.6222  0.3432
  579TMC3    C2 8582   3.279   3.474   2.061  0.1810  0.1705  0.3758
  579TMC3    C3 8583   3.412   3.445   2.087 -0.2331  0.6177 -0.1661
  579TMC3    C4 8584   3.305   3.378   1.849 -0.9861 -0.3929 -0.2883
  579TMC3    C5 8585   3.436   3.346   1.884  0.7560  0.2600 -0.0892
  579TMC3    C6 8586   3.493   3.390   2.003 -0.7964  0.1053  0.4038
  579TMC3     C 8587   3.091   3.487   1.918 -0.1087  0.1135 -0.5457
  579TMC3     O 8588   3.024   3.511   2.013  0.2883  0.2783 -0.3004
  579TMC3     H 8589   3.226   3.537   2.132 -0.1602 -0.2627  0.5084
  579TMC3    H1 8590   3.256   3.339   1.760 -2.7279  0.7970  0.1344
  579TMC3    H2 8591   3.595   3.369   2.030 -0.9615 -0.1521  0.8227
  579TMC3    C7 8592   3.518   3.273   1.792 -0.2711  0.2169  0.4861
  579TMC3    C8 8593   3.468   3.520   2.195  0.1748  0.2885 -0.1795
  579TMC3    O1 8594   3.637   3.277   1.820 -0.2011  0.3116  0.0422
  579TMC3    O2 8595   3.395   3.554   2.286  0.4122 -0.2327  0.4507
  580TMC3    C1 8596   3.239   2.791  11.602  0.1146 -0.1294 -0.1234
  580TMC3    C2 8597   3.337   2.802  11.505  0.7336  0.7646 -0.0041
  580TMC3    C3 8598   3.347   2.700  11.411 -0.3841 -0.5665 -0.0929
  580TMC3    C4 8599   3.154   2.687  11.610 -0.1903  0.4050 -0.4033
  580TMC3    C5 8600   3.174   2.575  11.532 -0.5922  0.0457  0.4399
  580TMC3    C6 8601   3.261   2.589  11.422  0.0244 -0.0756  0.2922
  580TMC3     C 8602   3.279   2.849  11.740 -0.1957  0.4858  0.6091
  580TMC3     O 8603   3.260   2.771  11.832  0.1014  0.9720  0.0165
  580TMC3     H 8604   3.391   2.895  11.503  0.0916  1.1315 -0.5134
  580TMC3    H1 8605   3.102   2.678  11.705 -0.1005 -1.0979 -0.4848
  580TMC3    H2 8606   3.270   2.512  11.346 -4.1661  2.5625 -2.8404
  580TMC3    C7 8607   3.179   2.459  11.613 -0.3647  0.3355  0.2851
  580TMC3    C8 8608   3.438   2.714  11.291  0.2537  0.1479 -0.7374
  580TMC3    O1 8609   3.129   2.468  11.723  0.0947  0.1005 -0.5055
  580TMC3    O2 8610   3.393   2.668  11.186  0.0331  0.5166 -0.2835
  581MPD2     C 8611   1.184   2.526  14.712  0.5874  0.1930 -0.1636
  581MPD2    C1 8612   1.071   2.494  14.783 -0.8653  0.4450  0.1408
  581MPD2    C2 8613   0.957   2.567  14.766 -0.5668  0.7512 -0.3687
  581MPD2    C3 8614   0.955   2.667  14.669 -0.4829  0.0906  0.2445
  581MPD2    C4 8615   1.076   2.688  14.592  0.3633  0.0017  0.4070
  581MPD2    C5 8616   1.182   2.616  14.615  0.8412 -0.3330 -0.0274
  581MPD2     H 8617   0.866   2.558  14.825 -0.2546  0.3784  0.0563
  581MPD2    H1 8618   1.080   2.765  14.517 -0.5609 -1.4543 -1.1474
  581MPD2    H2 8619   1.274   2.467  14.727  0.3381 -0.3797 -0.9168
  581MPD2    H3 8620   1.264   2.640  14.548  1.2649  1.0866  1.0044
  581MPD2     N 8621   0.836   2.745  14.657 -0.6278 -0.0693 -0.0814
  581MPD2    H5 8622   0.756   2.728  14.717 -0.8656 -0.6686 -0.5689
  581MPD2    N1 8623   1.084   2.401  14.885 -0.0621  0.6633 -0.4960
  581MPD2    H7 8624   1.173   2.359  14.906  0.5518  1.3433 -1.7549
  582TMC3    C1 8625   1.009   2.246  15.038 -0.2495  1.1890 -0.2425
  582TMC3    C2 8626   1.105   2.273  15.131  0.0189 -0.2948  0.5525
  582TMC3    C3 8627   1.072   2.242  15.263  0.1951  0.3317  0.1832
  582TMC3    C4 8628   0.896   2.178  15.065 -0.1033  0.0904  0.1345
  582TMC3    C5 8629   0.874   2.132  15.187  0.1193  0.0404 -0.1666
  582TMC3    C6 8630   0.964   2.162  15.290 -0.2487  0.0780  0.0294
  582TMC3     C 8631   0.975   2.353  14.954  0.2614  0.5199  0.5013
  582TMC3     O 8632   0.857   2.378  14.945 -0.1889 -0.2131  0.1998
  582TMC3     H 8633   1.184   2.343  15.106  0.3356 -1.4600 -1.7661
  582TMC3    H1 8634   0.826   2.152  14.986 -1.1986  0.8078  0.8761
  582TMC3    H2 8635   0.932   2.130  15.389  0.0938 -2.2013 -0.5773
  582TMC3    C7 8636   0.740   2.145  15.232  0.1052 -0.8738  0.3409
  582TMC3    C8 8637   1.169   2.291  15.359  0.1733  0.3401 -0.1120
  582TMC3    O1 8638   0.667   2.051  15.203 -0.4809 -0.1326 -0.8534
  582TMC3    O2 8639   1.283   2.314  15.317 -0.3254 -0.4591  0.6119
  583MPD2     C 8640   0.859   4.271  16.873  0.0122  0.0918  0.3524
  583MPD2    C1 8641   0.850   4.374  16.782 -0.2838  0.0396 -0.8042
  583MPD2    C2 8642   0.772   4.482  16.805 -0.0919  0.1181 -0.2612
  583MPD2    C3 8643   0.728   4.500  16.943  0.7356  0.2472 -0.7718
  583MPD2    C4 8644   0.751   4.400  17.038 -0.0443 -0.4802 -0.0619
  583MPD2    C5 8645   0.810   4.280  17.000  0.0312 -0.3172  0.1315
  583MPD2     H 8646   0.757   4.559  16.729  0.0731 -0.0795 -0.4907
  583MPD2    H1 8647   0.712   4.393  17.139 -0.3329  0.9726 -0.0769
  583MPD2    H2 8648   0.910   4.182  16.840  0.4377  0.5150 -0.1212
  583MPD2    H3 8649   0.814   4.194  17.066  1.1436 -1.0418 -0.8776
  583MPD2     N 8650   0.655   4.617  16.989  0.1358 -0.3082  0.2113
  583MPD2    H5 8651   0.611   4.680  16.922  1.8477  0.4025 -0.2340
  583MPD2    N1 8652   0.908   4.359  16.651  0.5098 -0.1828  0.2882
  583MPD2    H7 8653   0.866   4.423  16.584  2.1967  0.9582  0.3243
  584TMC3    C1 8654   0.539   0.040  17.150 -0.3674  0.3676  0.2174
  584TMC3    C2 8655   0.539   0.136  17.056  0.0246  0.2494  0.1889
  584TMC3    C3 8656   0.506   0.260  17.081 -0.1794  0.2703  0.3188
  584TMC3    C4 8657   0.500   0.069  17.273  0.1937  0.4476  0.5170
  584TMC3    C5 8658   0.468   0.202  17.304  0.1666  0.3758  0.1178
  584TMC3    C6 8659   0.463   0.297  17.206 -0.1166 -0.3160  0.8353
  584TMC3     C 8660   0.622   4.640  17.122  0.4263  0.0163  0.2798
  584TMC3     O 8661   0.665   4.583  17.222 -0.1829 -0.0062 -0.2873
  584TMC3     H 8662   0.577   0.122  16.955 -0.8660 -1.1345  0.0399
  584TMC3    H1 8663   0.496   4.710  17.345 -2.7642  1.2401  1.2197
  584TMC3    H2 8664   0.430   0.398  17.226  0.5025 -0.0346  0.4227
  584TMC3    C7 8665   0.442   0.241  17.435  0.3109  0.1333 -0.2598
  584TMC3    C8 8666   0.543   0.360  16.983 -0.1233  0.1248 -0.3259
  584TMC3    O1 8667   0.420   0.141  17.505 -0.3804 -0.1430  0.0825
  584TMC3    O2 8668   0.508   0.333  16.870  0.5788  0.1280  0.1349
  585MPD2     C 8669   4.384   3.220   0.775 -0.2864  0.7850  0.1776
  585MPD2    C1 8670   4.466   3.312   0.716  0.1190 -0.3762 -0.0055
  585MPD2    C2 8671   4.531   3.293   0.597  0.9399 -0.2305 -0.2222
  585MPD2    C3 8672   4.509   3.169   0.535  1.4120  0.2415 -0.3809
  585MPD2    C4 8673   4.434   3.073   0.587 -0.0716  0.1736 -0.0510
  585MPD2    C5 8674   4.369   3.101   0.708 -0.1004  0.4869 -0.1033
  585MPD2     H 8675   4.591   3.366   0.543 -0.8835  1.1482 -0.4111
  585MPD2    H1 8676   4.425   2.978   0.536 -1.6330  1.9675 -3.1893
  585MPD2    H2 8677   4.340   3.235   0.873  0.5275  1.3315  0.4637
  585MPD2    H3 8678   4.295   3.032   0.747 -1.1015  1.3953 -0.3964
  585MPD2     N 8679   4.582   3.133   0.415  0.8931 -0.3725  0.3788
  585MPD2    H5 8680   4.560   3.046   0.367 -2.3601  0.8883 -0.4080
  585MPD2    N1 8681   4.476   3.438   0.787  0.1691 -0.3878 -0.1969
  585MPD2    H7 8682   4.437   3.447   0.880 -0.2864 -1.9850 -0.2172
  586TMC3    C1 8683   4.693   3.166   0.213 -0.0581  0.7160 -0.3124
  586TMC3    C2 8684   0.084   3.196   0.142  0.2784 -0.1833 -0.3596
  586TMC3    C3 8685   0.073   3.203   0.004 -0.1899 -0.6575 -0.5213
  586TMC3    C4 8686   4.572   3.137   0.154 -0.3043  0.3323 -0.1666
  586TMC3    C5 8687   4.568   3.127   0.016 -0.3169  0.4671  0.0054
  586TMC3    C6 8688   4.681   3.161  17.631  0.7962 -0.5358  0.1334
  586TMC3     C 8689   4.667   3.215   0.348  0.1958  0.4844 -0.7086
  586TMC3     O 8690   0.007   3.319   0.386 -0.0267 -0.1070  0.1689
  586TMC3     H 8691   0.169   3.237   0.195 -0.0917 -0.3431  0.3454
  586TMC3    H1 8692   4.481   3.113   0.208 -0.4900 -1.7868 -1.4499
  586TMC3    H2 8693   4.671   3.157  17.523  0.8484  0.9355  0.0682
  586TMC3    C7 8694   4.450   3.076  17.639 -0.4356 -0.5433  0.2948
  586TMC3    C8 8695   0.194   3.167  17.627  0.1864 -0.1491  0.7418
  586TMC3    O1 8696   4.373   3.008   0.020  0.4685  0.2318  0.3601
  586TMC3    O2 8697   0.276   3.100   0.004 -0.1099  0.2193 -0.1286
  587TMC3    C1 8698   2.163   1.799  16.280  0.0643 -0.0375  0.6263
  587TMC3    C2 8699   2.177   1.837  16.411 -0.4977 -0.1154 -0.0230
  587TMC3    C3 8700   2.254   1.752  16.494  0.7948 -0.7010  0.2070
  587TMC3    C4 8701   2.211   1.678  16.230 -0.8371  0.4644  0.2642
  587TMC3    C5 8702   2.283   1.602  16.314  0.0011  0.2225  0.2321
  587TMC3    C6 8703   2.304   1.631  16.445 -0.1632 -0.2403 -0.2575
  587TMC3     C 8704   2.059   1.859  16.196  0.0430  0.0303  0.0803
  587TMC3     O 8705   2.081   1.854  16.075 -0.9525 -0.3177  0.8146
  587TMC3     H 8706   2.149   1.940  16.430 -0.8004 -0.1049 -0.5115
  587TMC3    H1 8707   2.196   1.652  16.126  1.5344 -1.2925  0.3526
  587TMC3    H2 8708   2.339   1.559  16.517 -1.5204  1.8976  2.5356
  587TMC3    C7 8709   2.334   1.472  16.265 -0.0398 -1.1056 -0.0902
  587TMC3    C8 8710   2.283   1.785  16.633  0.1091 -1.0165  0.6899
  587TMC3    O1 8711   2.314   1.437  16.148  0.1183  0.6051 -0.0006
  587TMC3    O2 8712   2.376   1.731  16.688  0.1652  0.3929  0.7916
  588TMC3    C1 8713   0.617   0.276   9.495 -0.0926  1.0168  0.9022
  588TMC3    C2 8714   0.588   0.142   9.477  0.5797  0.1429 -0.7351
  588TMC3    C3 8715   0.615   0.056   9.579 -0.3517 -0.4609  0.9770
  588TMC3    C4 8716   0.675   0.316   9.613  0.6316 -0.2122  0.1720
  588TMC3    C5 8717   0.698   0.224   9.711  0.1736  0.2488  0.3651
  588TMC3    C6 8718   0.682   0.089   9.699  0.4048 -0.4080  0.5968
  588TMC3     C 8719   0.551   0.368   9.413 -0.2361 -0.5187  0.1899
  588TMC3     O 8720   0.462   0.324   9.337  0.3639  0.2058 -0.1457
  588TMC3     H 8721   0.532   0.111   9.390 -1.0536  2.0943 -0.3989
  588TMC3    H1 8722   0.701   0.419   9.636  2.7292 -0.3841 -1.4650
  588TMC3    H2 8723   0.679   0.021   9.783  0.7680  0.1121  1.0224
  588TMC3    C7 8724   0.728   0.271   9.848  0.1687 -0.3969 -0.6657
  588TMC3    C8 8725   0.612   4.639   9.538 -0.6052  0.1588 -0.0233
  588TMC3    O1 8726   0.803   0.209   9.921 -0.5793 -0.4321  0.4375
  588TMC3    O2 8727   0.536   4.600   9.451  0.3320 -0.1441 -0.8489
  589TMC3    C1 8728   3.446   2.552   2.038  0.5711  0.3715 -0.1135
  589TMC3    C2 8729   3.579   2.575   2.070 -0.3490  0.4666  0.0000
  589TMC3    C3 8730   3.678   2.524   1.999  0.1131  0.6369  0.7984
  589TMC3    C4 8731   3.416   2.503   1.914 -0.4195  0.3098  0.1206
  589TMC3    C5 8732   3.526   2.463   1.833  0.0218  0.3250  0.0898
  589TMC3    C6 8733   3.651   2.470   1.871  0.0773 -0.1415  0.1925
  589TMC3     C 8734   3.335   2.623   2.106 -0.2065 -0.4981  0.5635
  589TMC3     O 8735   3.243   2.659   2.037  0.5299  0.0032  0.1583
  589TMC3     H 8736   3.604   2.635   2.157  0.5357 -2.8191  1.9986
  589TMC3    H1 8737   3.313   2.497   1.882 -0.5354  1.5777  0.2486
  589TMC3    H2 8738   3.728   2.426   1.808 -0.5913 -0.7028 -0.2332
  589TMC3    C7 8739   3.491   2.394   1.705  0.4233  0.3807 -0.1399
  589TMC3    C8 8740   3.816   2.560   2.040  0.4016  0.0247 -0.6059
  589TMC3    O1 8741   3.586   2.334   1.656  0.2957 -0.1007 -0.0238
  589TMC3    O2 8742   3.832   2.646   2.129  0.4261  0.2096  0.0639
  590MPD2     C 8743   2.953   0.141  16.331  0.0653  0.1155  0.2016
  590MPD2    C1 8744   2.956   0.171  16.195 -1.2284 -1.0080 -0.3152
  590MPD2    C2 8745   3.015   0.289  16.154  0.5916 -0.4613  0.4164
  590MPD2    C3 8746   3.062   0.379  16.248  0.0165  0.5874 -0.2495
  590MPD2    C4 8747   3.068   0.345  16.384 -0.2903  0.4699 -0.4501
  590MPD2    C5 8748   3.015   0.225  16.419 -0.1278  0.5141  0.1282
  590MPD2     H 8749   3.008   0.321  16.051  1.0831 -0.0921  0.4967
  590MPD2    H1 8750   3.121   0.404  16.458  0.6811 -1.3793  0.3113
  590MPD2    H2 8751   2.913   0.048  16.372  1.8893  0.1920  2.1616
  590MPD2    H3 8752   3.030   0.198  16.523  1.1651 -0.8509 -0.4131
  590MPD2     N 8753   3.120   0.497  16.197 -0.7387  0.1108  0.0745
  590MPD2    H5 8754   3.120   0.500  16.095 -2.0984  0.8126  0.0946
  590MPD2    N1 8755   2.888   0.078  16.107 -0.0525  0.3664 -0.0132
  590MPD2    H7 8756   2.828   0.009  16.153 -0.1406 -0.5913 -1.5429
  591TMC3    C1 8757   3.281   0.665  16.180 -0.0818 -0.2841 -0.3519
  591TMC3    C2 8758   3.363   0.593  16.098 -0.5429 -0.1820  0.3190
  591TMC3    C3 8759   3.423   0.671  16.002 -1.0743  0.6739 -0.5842
  591TMC3    C4 8760   3.268   0.800  16.172 -0.4369 -0.4021  0.3880
  591TMC3    C5 8761   3.333   0.870  16.074  0.0776  0.2813  0.2330
  591TMC3    C6 8762   3.416   0.808  15.990  0.3299  0.1419 -0.0940
  591TMC3     C 8763   3.182   0.600  16.267  0.2510  0.7246 -0.8217
  591TMC3     O 8764   3.205   0.606  16.387  0.1605 -0.2448 -0.2311
  591TMC3     H 8765   3.364   0.485  16.092 -1.8185 -0.0655 -1.9894
  591TMC3    H1 8766   3.194   0.838  16.241  0.5096 -2.7899  2.7422
  591TMC3    H2 8767   3.461   0.852  15.901 -0.2026 -0.8685 -0.8534
  591TMC3    C7 8768   3.297   1.008  16.059 -0.1659  0.5285 -0.2020
  591TMC3    C8 8769   3.517   0.600  15.918 -0.1416  0.6161  0.4379
  591TMC3    O1 8770   3.196   1.041  16.120 -0.0571 -0.1990  0.1568
  591TMC3    O2 8771   3.511   0.479  15.913  0.9985 -0.4111 -0.4824
  592MPD2     C 8772   4.264   2.657  11.244  0.3039  0.7227 -0.0298
  592MPD2    C1 8773   4.344   2.660  11.356  0.5076 -0.0593 -1.0517
  592MPD2    C2 8774   4.326   2.572  11.463  0.2041 -0.4483  0.5974
  592MPD2    C3 8775   4.239   2.465  11.454 -1.0113  0.1623  0.1030
  592MPD2    C4 8776   4.152   2.464  11.344  0.4133 -0.1495  0.2356
  592MPD2    C5 8777   4.165   2.564  11.249 -0.8190  0.3339  0.5950
  592MPD2     H 8778   4.392   2.563  11.548  2.4424  1.3447 -0.9750
  592MPD2    H1 8779   4.074   2.390  11.333 -0.3058  0.6878 -0.3434
  592MPD2    H2 8780   4.261   2.730  11.164 -1.3823  0.8481  0.1582
  592MPD2    H3 8781   4.101   2.560  11.161 -1.7798 -1.5814  1.3710
  592MPD2     N 8782   4.256   2.361  11.541 -0.0796  0.6173 -0.3999
  592MPD2    H5 8783   4.328   2.371  11.612  0.3602  1.0053 -0.8956
  592MPD2    N1 8784   4.452   2.754  11.360  0.0543 -0.0525  0.2446
  592MPD2    H7 8785   4.483   2.789  11.270 -1.4667  0.6806  0.0075
  593TMC3    C1 8786   4.631   2.868  11.457 -0.4900  0.2757  0.0824
  593TMC3    C2 8787   4.644   2.951  11.559  0.4156  0.0253 -0.1524
  593TMC3    C3 8788   0.038   3.023  11.566 -0.1912  0.4658 -0.2350
  593TMC3    C4 8789   4.717   2.866  11.347 -0.2174 -0.1428  0.2101
  593TMC3    C5 8790   0.105   2.949  11.350  0.6345  0.2276 -0.0899
  593TMC3    C6 8791   0.130   3.030  11.460  0.7611 -0.6929  0.1044
  593TMC3     C 8792   4.516   2.789  11.475  0.0586 -0.0458 -0.4678
  593TMC3     O 8793   4.477   2.778  11.592 -0.2577  0.3639 -0.5942
  593TMC3     H 8794   4.582   2.948  11.648  1.1803 -0.0039  0.3819
  593TMC3    H1 8795   4.692   2.810  11.257 -3.5052  3.9097 -1.4199
  593TMC3    H2 8796   0.219   3.092  11.457  1.7723 -2.3682 -3.8995
  593TMC3    C7 8797   0.182   2.982  11.234 -0.0749  0.9269 -0.3427
  593TMC3    C8 8798   0.037   3.143  11.650 -0.5418  0.1811  0.6449
  593TMC3    O1 8799   0.289   3.035  11.265  0.0628  0.2447 -0.3226
  593TMC3    O2 8800   4.667   3.222  11.639 -0.1525 -0.1011  0.8258
  594MPD2     C 8801   2.606   1.058  14.163  0.8821 -0.2192 -0.4881
  594MPD2    C1 8802   2.653   1.093  14.282  0.4679  0.4072  0.5687
  594MPD2    C2 8803   2.757   1.192  14.292 -0.2058 -0.6577  0.4365
  594MPD2    C3 8804   2.822   1.242  14.178 -0.5663  0.6152 -0.7228
  594MPD2    C4 8805   2.773   1.200  14.057 -0.5771 -0.3518 -0.7657
  594MPD2    C5 8806   2.667   1.115  14.053  0.1857  0.9830  0.0959
  594MPD2     H 8807   2.780   1.234  14.389  0.7919 -1.8113  0.7014
  594MPD2    H1 8808   2.812   1.225  13.959 -0.6360  2.3527 -0.1139
  594MPD2    H2 8809   2.530   0.982  14.149 -1.2283  1.3343  2.3892
  594MPD2    H3 8810   2.631   1.080  13.957  1.3502  3.9111 -1.4100
  594MPD2     N 8811   2.912   1.348  14.186  0.4021 -0.0136 -0.1571
  594MPD2    H5 8812   2.915   1.390  14.278 -0.7647 -1.5230  0.5737
  594MPD2    N1 8813   2.578   1.033  14.382  0.1644 -0.3462  0.1457
  594MPD2    H7 8814   2.500   0.979  14.346  0.1445  0.4978 -1.1140
  595TMC3    C1 8815   3.224   1.680  14.084  0.2247  0.1875  0.4687
  595TMC3    C2 8816   3.174   1.555  14.065  0.2603  0.5858 -0.3512
  595TMC3    C3 8817   3.051   1.522  14.115  0.3590 -0.3546 -0.4870
  595TMC3    C4 8818   3.153   1.774  14.147 -0.3924 -0.1090  0.0059
  595TMC3    C5 8819   3.022   1.742  14.182 -0.4102  0.1219  0.5630
  595TMC3    C6 8820   2.978   1.617  14.183 -0.4792  0.5730 -0.8784
  595TMC3     C 8821   3.359   1.696  14.118  0.1752 -0.1197  0.3049
  595TMC3     O 8822   3.379   1.739  14.231 -0.0522 -0.1274 -0.0260
  595TMC3     H 8823   3.225   1.472  14.018 -0.1793  0.0285  0.1570
  595TMC3    H1 8824   3.195   1.872  14.162 -1.0383  0.2077 -0.2325
  595TMC3    H2 8825   2.884   1.590  14.229 -0.5841  2.2987 -0.0848
  595TMC3    C7 8826   2.955   1.835  14.276 -0.5070 -0.5398 -0.2399
  595TMC3    C8 8827   2.991   1.396  14.084  0.0567 -0.9588  0.0978
  595TMC3    O1 8828   2.840   1.810  14.313  0.0510  0.0078 -0.4028
  595TMC3    O2 8829   3.019   1.343  13.976  0.1388 -0.3336  0.0752
  596MPD2     C 8830   1.778   4.116  16.706 -0.4167 -0.1047  0.1514
  596MPD2    C1 8831   1.799   4.231  16.642  0.2576 -0.2118 -0.0470
  596MPD2    C2 8832   1.837   4.231  16.511  0.0520  0.8852  0.1736
  596MPD2    C3 8833   1.877   4.113  16.452 -0.2207 -0.1659 -0.5007
  596MPD2    C4 8834   1.856   3.998  16.518 -0.6247  0.1280  0.1842
  596MPD2    C5 8835   1.796   4.001  16.636 -0.4388 -0.6045  0.1746
  596MPD2     H 8836   1.841   4.328  16.462  0.3785  0.3899 -0.7763
  596MPD2    H1 8837   1.888   3.904  16.474 -0.4713  0.2245  0.0910
  596MPD2    H2 8838   1.733   4.112  16.805 -0.8365  0.2464 -0.0228
  596MPD2    H3 8839   1.782   3.911  16.695 -2.1889 -0.2170  0.3562
  596MPD2     N 8840   1.910   4.113  16.314 -0.0565  0.2173  0.5038
  596MPD2    H5 8841   1.898   4.022  16.270  3.0398 -0.8057  1.7274
  596MPD2    N1 8842   1.776   4.360  16.692  0.3837 -0.1919 -0.0379
  596MPD2    H7 8843   1.802   4.436  16.631 -0.7517 -1.0591 -1.6029
  597TMC3    C1 8844   1.684   4.536  16.822 -0.5616  0.0020  0.3574
  597TMC3    C2 8845   1.760   4.625  16.753  0.6113  0.0987  0.2384
  597TMC3    C3 8846   1.735   0.037  16.775  0.0828 -0.3886 -0.0308
  597TMC3    C4 8847   1.583   4.587  16.900 -0.4305 -0.0157 -0.0034
  597TMC3    C5 8848   1.550   4.717  16.898 -0.2579 -0.8176 -0.4800
  597TMC3    C6 8849   1.635   0.087  16.843 -0.7692 -0.3394  0.1069
  597TMC3     C 8850   1.706   4.394  16.811 -0.3741  0.1178 -0.4003
  597TMC3     O 8851   1.639   4.317  16.879  0.4985 -0.0435  0.0247
  597TMC3     H 8852   1.853   4.591  16.708  0.8985  1.9954 -0.6045
  597TMC3    H1 8853   1.504   4.519  16.932  0.5054 -1.1405 -0.0708
  597TMC3    H2 8854   1.611   0.192  16.839 -1.2026 -0.5141 -1.8274
  597TMC3    C7 8855   1.435   0.040  16.969  0.1081  0.2853  1.1064
  597TMC3    C8 8856   1.843   0.128  16.756 -0.1704  0.2094  0.0689
  597TMC3    O1 8857   1.415   4.704  17.073 -0.3751 -0.2073  0.8964
  597TMC3    O2 8858   1.909   0.128  16.652  0.5728  0.0695 -0.0445
  598TMC3    C1 8859   0.251   1.035  15.426 -0.6200  0.2908  0.1897
  598TMC3    C2 8860   0.155   0.938  15.450  0.2532  0.6170  0.1915
  598TMC3    C3 8861   0.065   0.909  15.350  0.6209 -0.3597 -0.2095
  598TMC3    C4 8862   0.251   1.101  15.307 -0.3349  0.7829  0.1160
  598TMC3    C5 8863   0.168   1.057  15.205 -0.3943 -0.0516 -0.5807
  598TMC3    C6 8864   0.073   0.960  15.223 -0.5002 -0.0103  0.1148
  598TMC3     C 8865   0.353   1.040  15.530 -0.4368  0.0999  0.3486
  598TMC3     O 8866   0.329   0.985  15.637 -0.0920  0.0930 -0.0802
  598TMC3     H 8867   0.144   0.898  15.550  2.3481  0.1641  0.2595
  598TMC3    H1 8868   0.322   1.182  15.300  0.3225  0.3935  2.1599
  598TMC3    H2 8869   0.002   0.938  15.145 -0.3308 -3.7404  1.0139
  598TMC3    C7 8870   0.175   1.113  15.070  0.3401  0.3145 -0.3654
  598TMC3    C8 8871   4.683   0.814  15.390 -0.2588  0.4518  0.5044
  598TMC3    O1 8872   0.115   1.050  14.987 -0.2189 -0.1712  0.3025
  598TMC3    O2 8873   4.648   0.810  15.504  0.1068 -0.7926 -0.5930
  599MPD2     C 8874   0.195   3.590  16.247 -0.5672  0.7066 -0.3142
  599MPD2    C1 8875   0.126   3.480  16.202 -0.2523 -0.4992 -0.0703
  599MPD2    C2 8876   4.706   3.473  16.219  0.1654  0.4118  0.6615
  599MPD2    C3 8877   4.641   3.577  16.284 -0.5207  0.2162  0.9488
  599MPD2    C4 8878   4.712   3.688  16.323  0.8502  0.2378  0.4767
  599MPD2    C5 8879   0.125   3.690  16.305  0.5452  0.6081 -0.0012
  599MPD2     H 8880   4.651   3.393  16.171  0.5577 -0.4981  1.7403
  599MPD2    H1 8881   4.663   3.776  16.362 -0.2326 -0.6162  1.0526
  599MPD2    H2 8882   0.303   3.594  16.242 -0.5488 -1.8864 -2.3604
  599MPD2    H3 8883   0.179   3.774  16.349  0.9502 -0.5970  1.8110
  599MPD2     N 8884   4.501   3.582  16.317 -0.1387  0.1176 -0.4589
  599MPD2    H5 8885   4.466   3.667  16.362  0.9416  0.0684  0.4766
  599MPD2    N1 8886   0.207   3.374  16.153 -0.0734  0.6287  0.8107
  599MPD2    H7 8887   0.306   3.394  16.141  0.7734 -2.5879  2.2624
  600TMC3    C1 8888   4.280   3.518  16.370 -0.5391  0.3087 -0.0628
  600TMC3    C2 8889   4.215   3.434  16.456 -1.0330  0.1520  0.0190
  600TMC3    C3 8890   4.110   3.477  16.532 -0.3524  0.3927 -0.5671
  600TMC3    C4 8891   4.234   3.643  16.348 -0.0494 -0.0690  0.0743
  600TMC3    C5 8892   4.137   3.692  16.428  0.3994  0.3691  0.3350
  600TMC3    C6 8893   4.076   3.611  16.526  0.0388 -0.2697 -0.4352
  600TMC3     C 8894   4.411   3.481  16.308 -0.0390  0.8620  0.3378
  600TMC3     O 8895   4.420   3.363  16.274  0.0800  0.1675 -0.0502
  600TMC3     H 8896   4.240   3.328  16.453 -1.2913  0.0574  1.2183
  600TMC3    H1 8897   4.278   3.712  16.276 -2.6478  1.9727  0.4245
  600TMC3    H2 8898   4.002   3.653  16.594  0.2419  0.1785 -0.4924
  600TMC3    C7 8899   4.072   3.823  16.394  0.6854  0.4397  0.4133
  600TMC3    C8 8900   4.101   3.412  16.659 -0.1960 -0.5653 -0.6716
  600TMC3    O1 8901   3.960   3.841  16.434 -0.1288  0.1275 -0.5020
  600TMC3    O2 8902   4.192   3.429  16.736 -0.9991 -0.0833  0.4596
  601MPD2     C 8903   2.192   1.056  17.582 -0.2774  0.3769 -0.0425
  601MPD2    C1 8904   2.052   1.043  17.599  0.3048  0.5407 -0.3703
  601MPD2    C2 8905   2.003   0.913  17.607 -0.5994 -0.5815 -0.5152
  601MPD2    C3 8906   2.075   0.809  17.560  0.0309 -0.3600  0.1232
  601MPD2    C4 8907   2.204   0.826  17.532  0.1503  0.2273 -1.1700
  601MPD2    C5 8908   2.264   0.948  17.541 -0.2420 -0.2752 -0.5253
  601MPD2     H 8909   1.896   0.909  17.624 -0.2877  0.5193  1.6331
  601MPD2    H1 8910   2.266   0.748  17.488 -0.3850  0.0294 -1.5631
  601MPD2    H2 8911   2.240   1.152  17.568 -0.8272  0.2517 -2.7791
  601MPD2    H3 8912   2.369   0.955  17.518 -0.4723  3.0052 -0.6577
  601MPD2     N 8913   2.014   0.682  17.527  0.6015  0.0524  0.0108
  601MPD2    H5 8914   2.073   0.614  17.480  1.7573  1.7426 -1.0112
  601MPD2    N1 8915   1.959   1.141  17.604 -0.0811  0.3137 -0.3292
  601MPD2    H7 8916   1.859   1.120  17.607  0.1149 -0.5610  0.0093
  602TMC3    C1 8917   1.883   1.352  17.535 -0.0288 -0.1972  0.4477
  602TMC3    C2 8918   1.876   1.477  17.592  0.2749  0.1924  0.9090
  602TMC3    C3 8919   1.785   1.557  17.548  0.1320  0.0366  0.0168
  602TMC3    C4 8920   1.795   1.297  17.448 -0.0722  0.0563  0.5161
  602TMC3    C5 8921   1.711   1.390  17.403 -0.3102  0.3210  0.0099
  602TMC3    C6 8922   1.699   1.520  17.447  0.4364  0.1666  0.2337
  602TMC3     C 8923   1.994   1.273  17.577 -0.6594  0.3607  0.1617
  602TMC3     O 8924   2.099   1.331  17.587 -0.3717 -0.4657  0.2150
  602TMC3     H 8925   1.951   1.510  17.663  1.0496 -1.1537  0.7098
  602TMC3    H1 8926   1.801   1.198  17.403  1.1008 -0.3569  1.5698
  602TMC3    H2 8927   1.613   1.579  17.418  0.5384  0.5594  0.7373
  602TMC3    C7 8928   1.622   1.355  17.298  0.0512  0.8054  0.0411
  602TMC3    C8 8929   1.769   1.691  17.608  0.3206  0.1044  1.2742
  602TMC3    O1 8930   1.601   1.236  17.291  0.1373 -0.1695 -0.3167
  602TMC3    O2 8931   1.791   1.689   0.041  0.5625 -0.4056 -0.1319
  603TMC3    C1 8932   0.818   2.105  10.449  0.0857  0.5219  0.3055
  603TMC3    C2 8933   0.813   2.117  10.587  0.1028  0.5174  0.2749
  603TMC3    C3 8934   0.861   2.231  10.640 -0.5672  0.4394  0.2286
  603TMC3    C4 8935   0.844   2.209  10.364  0.4354 -0.3827 -0.2973
  603TMC3    C5 8936   0.897   2.323  10.425 -0.5476 -0.0048  0.4787
  603TMC3    C6 8937   0.920   2.322  10.559 -0.4895  0.2302  0.1439
  603TMC3     C 8938   0.831   1.974  10.389 -0.6653 -0.2060 -0.5462
  603TMC3     O 8939   0.893   1.968  10.283 -0.0361 -0.4149 -0.0507
  603TMC3     H 8940   0.772   2.040  10.652  1.0094  0.6027  0.9485
  603TMC3    H1 8941   0.843   2.189  10.257 -2.2907  0.9597 -0.5194
  603TMC3    H2 8942   0.960   2.416  10.598  1.0819 -0.0149 -0.8850
  603TMC3    C7 8943   0.936   2.438  10.339  0.1624  0.2411 -0.2594
  603TMC3    C8 8944   0.873   2.248  10.780  0.3027  0.4048 -0.4771
  603TMC3    O1 8945   1.028   2.504  10.383  0.4582  0.6114 -0.0048
  603TMC3    O2 8946   0.855   2.145  10.846  0.0585  0.2236 -0.2125
  604MPD2     C 8947   0.659   0.708  16.040  0.3008  0.1089 -0.0186
  604MPD2    C1 8948   0.570   0.605  16.011 -0.4629 -0.6325 -0.0375
  604MPD2    C2 8949   0.593   0.520  15.899  0.0869  0.2676  0.0380
  604MPD2    C3 8950   0.705   0.533  15.833 -0.2197 -1.0934  0.8336
  604MPD2    C4 8951   0.796   0.630  15.864  0.0134 -0.5528 -0.2216
  604MPD2    C5 8952   0.775   0.719  15.966  0.3642  0.2588 -0.0786
  604MPD2     H 8953   0.529   0.436  15.876 -0.1088  0.6878 -0.9400
  604MPD2    H1 8954   0.889   0.641  15.810 -0.6143  3.2409 -0.5608
  604MPD2    H2 8955   0.639   0.779  16.119  1.0844 -0.0211  0.3042
  604MPD2    H3 8956   0.842   0.803  15.981  0.0550  0.8419 -1.9087
  604MPD2     N 8957   0.742   0.427  15.744 -0.1035 -0.5639 -0.1551
  604MPD2    H5 8958   0.661   0.366  15.739 -0.2951 -0.5651  2.8132
  604MPD2    N1 8959   0.447   0.595  16.091  0.3970 -0.5078  0.2308
  604MPD2    H7 8960   0.452   0.636  16.184  0.8734  1.4264 -0.6399
  605TMC3    C1 8961   0.221   0.602  16.126  0.3208  0.0529 -0.1805
  605TMC3    C2 8962   0.259   0.599  16.259  1.0193 -0.3907 -0.0278
  605TMC3    C3 8963   0.196   0.679  16.345  0.7329  0.0288  0.3265
  605TMC3    C4 8964   0.135   0.687  16.077 -0.6277 -0.0595 -0.1619
  605TMC3    C5 8965   0.078   0.775  16.169  0.4602 -0.1002 -0.2040
  605TMC3    C6 8966   0.096   0.769  16.305 -0.0869  0.8399 -1.2800
  605TMC3     C 8967   0.323   0.553  16.044 -0.3195  0.1886 -0.2389
  605TMC3     O 8968   0.294   0.517  15.933 -0.5017 -0.1752  0.4644
  605TMC3     H 8969   0.333   0.529  16.295  0.3374 -0.7008  0.7714
  605TMC3    H1 8970   0.111   0.694  15.972  0.9024  3.1521 -0.2842
  605TMC3    H2 8971   0.055   0.851  16.364  1.5574  1.1272 -0.5473
  605TMC3    C7 8972   0.001   0.888  16.122 -0.6384  0.2612  0.4183
  605TMC3    C8 8973   0.299   0.739  16.432 -0.1405  0.0376  0.2647
  605TMC3    O1 8974   4.650   0.947  16.194 -0.3106 -0.5580 -0.0695
  605TMC3    O2 8975   0.413   0.715  16.396 -0.2102  0.0834 -0.1538
  606TMC3    C1 8976   1.245   3.866   0.604 -0.3867  0.9049  0.5057
  606TMC3    C2 8977   1.351   3.834   0.679  0.2304  0.3353  0.1236
  606TMC3    C3 8978   1.380   3.696   0.702 -0.3357 -0.8178 -0.6465
  606TMC3    C4 8979   1.151   3.771   0.571  0.8167  0.3448  1.1524
  606TMC3    C5 8980   1.187   3.638   0.585 -0.3414  0.0959 -0.6421
  606TMC3    C6 8981   1.298   3.600   0.645  1.1411  0.1926 -0.5099
  606TMC3     C 8982   1.190   4.005   0.588 -0.3367  0.3753 -0.1597
  606TMC3     O 8983   1.072   4.017   0.560  0.7703 -0.1976 -0.3796
  606TMC3     H 8984   1.412   3.914   0.721 -1.0619  1.3208  0.1129
  606TMC3    H1 8985   1.063   3.799   0.513 -0.2318 -1.3976  1.9048
  606TMC3    H2 8986   1.314   3.493   0.655  2.3989  0.6047  2.0466
  606TMC3    C7 8987   1.093   3.541   0.529  0.0104  0.1123 -0.2733
  606TMC3    C8 8988   1.512   3.659   0.744  0.1520  0.4359  0.2167
  606TMC3    O1 8989   1.082   3.442   0.597  0.4224 -0.3512  0.5575
  606TMC3    O2 8990   1.582   3.759   0.753 -0.2489 -0.2138 -0.0113
  607MPD2     C 8991   0.027   2.517  11.216  0.0713 -0.3773 -0.3966
  607MPD2    C1 8992   0.133   2.528  11.297 -0.3979  0.5812 -0.2397
  607MPD2    C2 8993   0.130   2.493  11.426 -0.8497  0.6252  0.5499
  607MPD2    C3 8994   0.014   2.448  11.484  0.3955 -0.4029  0.0883
  607MPD2    C4 8995   4.625   2.439  11.406 -0.1984  0.2391 -0.8815
  607MPD2    C5 8996   4.630   2.477  11.270 -0.2942 -0.2874 -0.2683
  607MPD2     H 8997   0.216   2.502  11.491 -0.1561 -3.4467  0.2247
  607MPD2    H1 8998   4.527   2.410  11.441 -0.4419  1.3169 -0.6917
  607MPD2    H2 8999   0.039   2.546  11.112 -0.2839  1.3372  0.0516
  607MPD2    H3 9000   4.533   2.477  11.221 -0.4247 -0.5938 -0.0099
  607MPD2     N 9001   0.011   2.435  11.627  0.3984 -0.4910  0.6229
  607MPD2    H5 9002   0.105   2.455  11.660 -0.2664 -0.9167  2.7640
  607MPD2    N1 9003   0.257   2.572  11.255 -0.3515 -0.6999  0.1999
  607MPD2    H7 9004   0.324   2.577  11.332  0.2606  0.3493 -0.4040
  608TMC3    C1 9005   0.401   2.722  11.152  0.3222 -0.3030  0.3552
  608TMC3    C2 9006   0.422   2.764  11.281 -0.1881  0.1722  0.2088
  608TMC3    C3 9007   0.533   2.844  11.296 -0.0498  0.0533  0.6407
  608TMC3    C4 9008   0.485   2.752  11.045 -0.5807 -0.4235 -0.1392
  608TMC3    C5 9009   0.599   2.831  11.073  0.6880  0.3189 -0.1683
  608TMC3    C6 9010   0.620   2.882  11.196  0.1279 -0.1560  0.2783
  608TMC3     C 9011   0.291   2.627  11.131  0.0365  0.7811  0.3377
  608TMC3     O 9012   0.243   2.615  11.021 -0.1780  0.1539 -0.1446
  608TMC3     H 9013   0.351   2.759  11.363 -2.2932  0.7909 -1.5644
  608TMC3    H1 9014   0.477   2.720  10.942  0.8198 -2.2865  0.3464
  608TMC3    H2 9015   0.703   2.949  11.215  0.3442 -0.5694  0.7825
  608TMC3    C7 9016   0.709   2.818  10.982  0.2678  0.4404 -0.3934
  608TMC3    C8 9017   0.562   2.903  11.431  0.0997  0.9208  0.2020
  608TMC3    O1 9018   0.694   2.751  10.880 -0.4190 -0.4123 -0.3763
  608TMC3    O2 9019   0.667   2.965  11.440  0.5480  0.0068  0.3736
  609TMC3    C1 9020   3.388   1.263   9.154 -0.0232  0.2069 -0.2378
  609TMC3    C2 9021   3.357   1.165   9.066  1.3319  0.0725 -0.3753
  609TMC3    C3 9022   3.446   1.122   8.972  0.6519  0.2361  0.5384
  609TMC3    C4 9023   3.506   1.333   9.134  0.3438  0.1768  0.0164
  609TMC3    C5 9024   3.590   1.300   9.031 -0.0780 -0.5256  0.3358
  609TMC3    C6 9025   3.563   1.190   8.954  0.5977 -0.4406 -0.2202
  609TMC3     C 9026   3.310   1.302   9.275 -0.2835  0.4562  0.3591
  609TMC3     O 9027   3.215   1.234   9.301 -0.1889  0.3609  0.4270
  609TMC3     H 9028   3.258   1.122   9.077  1.3070  0.6740  1.7462
  609TMC3    H1 9029   3.546   1.389   9.218 -0.9951  0.9028  0.1639
  609TMC3    H2 9030   3.623   1.165   8.867 -0.0829 -1.1689 -0.4833
  609TMC3    C7 9031   3.711   1.375   9.016 -0.6754 -1.0860 -0.0290
  609TMC3    C8 9032   3.420   0.991   8.912  0.0081 -1.0261  0.0328
  609TMC3    O1 9033   3.805   1.320   8.961 -0.1034 -0.2092  0.0969
  609TMC3    O2 9034   3.516   0.916   8.920 -0.0113  0.7766  0.4416
  610TMC3    C1 9035   0.355   2.264  12.349 -0.7138 -0.7484 -0.3864
  610TMC3    C2 9036   0.439   2.307  12.254  0.3703  0.1657  0.8607
  610TMC3    C3 9037   0.536   2.220  12.210 -0.1008  0.8560  0.3956
  610TMC3    C4 9038   0.368   2.143  12.418 -0.2971  0.0590 -0.7572
  610TMC3    C5 9039   0.474   2.071  12.376 -0.0650  0.7911  0.1266
  610TMC3    C6 9040   0.562   2.105  12.277 -0.5701  0.1872 -0.2202
  610TMC3     C 9041   0.257   2.356  12.394 -0.0885  0.1992 -0.0981
  610TMC3     O 9042   0.235   2.453  12.323 -0.3440 -0.1252  0.4777
  610TMC3     H 9043   0.413   2.399  12.202  3.8861 -0.1352 -1.4393
  610TMC3    H1 9044   0.290   2.097  12.478 -0.3691  0.2567 -0.6972
  610TMC3    H2 9045   0.653   2.054  12.249 -0.1200  0.1952  1.2281
  610TMC3    C7 9046   0.515   1.964  12.472 -0.3678 -0.2035 -0.2757
  610TMC3    C8 9047   0.646   2.271  12.128  0.3203 -0.5097 -0.2480
  610TMC3    O1 9048   0.585   1.873  12.436  0.3100  0.0268 -0.2188
  610TMC3    O2 9049   0.765   2.242  12.152 -0.5519  0.2665  0.0268
  611MPD2     C 9050   4.675   2.089   9.923 -0.2977 -0.2219 -0.0273
  611MPD2    C1 9051   4.668   2.196  10.010  0.4704  0.3166 -0.1500
  611MPD2    C2 9052   4.715   2.319   9.967 -0.6969  0.0726 -0.4806
  611MPD2    C3 9053   0.040   2.339   9.837 -0.0223  0.1673  0.1965
  611MPD2    C4 9054   0.038   2.235   9.750  0.4329  0.2445 -0.4898
  611MPD2    C5 9055   4.714   2.111   9.792  0.3094  0.7730 -0.6217
  611MPD2     H 9056   4.714   2.403  10.036  0.3464  0.2058 -0.6263
  611MPD2    H1 9057   0.064   2.248   9.646  0.8519 -0.1834 -0.4378
  611MPD2    H2 9058   4.646   1.993   9.964  0.4405 -0.7288 -0.6877
  611MPD2    H3 9059   4.710   2.037   9.713 -2.0811 -1.6210  1.7705
  611MPD2     N 9060   0.096   2.459   9.801 -0.1166  0.2265  0.6943
  611MPD2    H5 9061   0.114   2.467   9.701  2.2377 -0.5135  1.0740
  611MPD2    N1 9062   4.618   2.175  10.145  0.6719  0.0641 -0.1455
  611MPD2    H7 9063   4.590   2.079  10.163 -1.6205  0.6254 -0.6843
  612TMC3    C1 9064   0.205   2.668   9.821 -0.0595  0.1577  0.7612
  612TMC3    C2 9065   0.324   2.709   9.881  0.1122  0.1728 -0.6938
  612TMC3    C3 9066   0.411   2.784   9.815 -0.3522 -0.2711  1.0279
  612TMC3    C4 9067   0.179   2.702   9.691 -0.4751  0.0672 -0.1921
  612TMC3    C5 9068   0.266   2.792   9.634  0.3926  0.1144  0.0090
  612TMC3    C6 9069   0.378   2.835   9.690 -0.4454  0.5373  0.8318
  612TMC3     C 9070   0.136   2.562   9.887 -0.1633 -0.0152  0.5378
  612TMC3     O 9071   0.162   2.545  10.007  0.7408  0.4929  0.1428
  612TMC3     H 9072   0.356   2.663   9.973 -0.5888  0.5726 -0.2499
  612TMC3    H1 9073   0.093   2.669   9.635  0.8352 -1.7194 -1.1285
  612TMC3    H2 9074   0.455   2.888   9.634 -1.2392  1.9052  1.0380
  612TMC3    C7 9075   0.231   2.856   9.514  0.5531 -0.4465  0.8249
  612TMC3    C8 9076   0.543   2.814   9.861  0.1923 -0.3868  0.0309
  612TMC3    O1 9077   0.110   2.864   9.498  0.0303 -0.4929  0.8030
  612TMC3    O2 9078   0.599   2.916   9.822 -0.0044  0.3193  0.1128
  613MPD2     C 9079   2.622   4.059  16.567  0.6424  1.0247 -0.2273
  613MPD2    C1 9080   2.720   3.965  16.529 -1.3445 -0.5285 -0.9041
  613MPD2    C2 9081   2.688   3.828  16.530 -0.2017 -0.1226  0.2156
  613MPD2    C3 9082   2.555   3.791  16.550 -0.1326 -0.1483  0.4471
  613MPD2    C4 9083   2.461   3.889  16.585 -0.3380  1.0150 -0.0815
  613MPD2    C5 9084   2.499   4.018  16.603  0.3987  0.3521 -0.4403
  613MPD2     H 9085   2.766   3.755  16.514 -0.3677  0.0352 -1.2626
  613MPD2    H1 9086   2.358   3.859  16.601 -0.8029  4.1477  2.8617
  613MPD2    H2 9087   2.645   4.164  16.578  2.1054  0.3560  2.9624
  613MPD2    H3 9088   2.428   4.091  16.642  0.8476 -0.4172  1.8156
  613MPD2     N 9089   2.513   3.658  16.535  0.1042 -0.4757 -1.0516
  613MPD2    H5 9090   2.413   3.640  16.533  0.1000 -0.5710  0.2238
  613MPD2    N1 9091   2.851   4.017  16.489  0.0085  0.1573 -0.0236
  613MPD2    H7 9092   2.865   4.118  16.490 -0.7888  0.2493  2.9599
  614TMC3    C1 9093   3.081   3.990  16.424 -0.5493 -0.2034 -0.7663
  614TMC3    C2 9094   3.172   3.897  16.380  0.0398 -0.2548 -0.4049
  614TMC3    C3 9095   3.221   3.915  16.252 -0.4156 -0.1666 -0.4422
  614TMC3    C4 9096   3.066   4.112  16.373 -0.1647 -0.0511  0.0564
  614TMC3    C5 9097   3.143   4.134  16.262 -0.1413 -0.0787  0.0677
  614TMC3    C6 9098   3.208   4.035  16.195  0.0823 -0.0310 -0.3467
  614TMC3     C 9099   2.952   3.930  16.443  0.0546 -0.1839  0.3060
  614TMC3     O 9100   2.949   3.813  16.406  0.4859 -0.1903  0.0309
  614TMC3     H 9101   3.181   3.803  16.432  0.6716 -0.6872 -1.2980
  614TMC3    H1 9102   2.994   4.187  16.404  0.5521  0.0815  1.4339
  614TMC3    H2 9103   3.262   4.051  16.103  0.3515 -2.0722 -0.5365
  614TMC3    C7 9104   3.115   4.242  16.183  0.3076 -0.3416  0.0500
  614TMC3    C8 9105   3.237   3.795  16.170  0.7374 -0.5785 -0.3314
  614TMC3    O1 9106   3.110   4.346  16.251  0.3553 -0.4723 -0.1975
  614TMC3    O2 9107   3.300   3.797  16.064 -0.2115  0.2356  0.9560
  615MPD2     C 9108   2.388   0.668  15.652 -0.0826  0.5927  0.1666
  615MPD2    C1 9109   2.270   0.712  15.720  0.2645  0.8197  0.4957
  615MPD2    C2 9110   2.147   0.654  15.698 -0.5488 -0.2039  0.2439
  615MPD2    C3 9111   2.141   0.548  15.609  0.0471  0.1711 -0.1380
  615MPD2    C4 9112   2.251   0.509  15.543 -0.1964 -0.1130 -0.5615
  615MPD2    C5 9113   2.376   0.566  15.564  0.2336 -0.0922 -0.2939
  615MPD2     H 9114   2.060   0.687  15.754 -2.1201 -0.8950 -1.7864
  615MPD2    H1 9115   2.242   0.422  15.479 -3.4789  0.5400 -1.0106
  615MPD2    H2 9116   2.489   0.705  15.668 -0.5346  2.1282 -0.5855
  615MPD2    H3 9117   2.466   0.532  15.515  0.3617 -2.4436  1.5414
  615MPD2     N 9118   2.025   0.477  15.581 -0.3765  0.0838 -0.0694
  615MPD2    H5 9119   2.040   0.400  15.517  0.9253  1.1975 -1.1067
  615MPD2    N1 9120   2.272   0.826  15.798  0.3241 -0.2995 -0.3180
  615MPD2    H7 9121   2.188   0.859  15.844  0.2511  0.1933 -0.8086
  616TMC3    C1 9122   2.373   1.027  15.885 -0.0964  0.2300  0.6654
  616TMC3    C2 9123   2.484   1.106  15.899  0.0741  0.6131  0.6748
  616TMC3    C3 9124   2.467   1.244  15.911 -0.4544  0.2335  0.5550
  616TMC3    C4 9125   2.243   1.077  15.890  0.2444 -0.5104 -0.1779
  616TMC3    C5 9126   2.236   1.211  15.899  0.3519 -1.2807  0.3217
  616TMC3    C6 9127   2.342   1.299  15.921  0.7779 -0.0411 -0.2102
  616TMC3     C 9128   2.388   0.889  15.841  0.5596 -0.0972 -0.1994
  616TMC3     O 9129   2.498   0.837  15.850 -0.0364 -0.4660 -0.1851
  616TMC3     H 9130   2.582   1.060  15.898 -0.3285 -0.2414  0.4170
  616TMC3    H1 9131   2.158   1.011  15.888 -0.7511  0.7249  1.4947
  616TMC3    H2 9132   2.326   1.406  15.911 -2.5623 -0.4557  0.6102
  616TMC3    C7 9133   2.111   1.277  15.882 -0.7183  0.5972  0.0571
  616TMC3    C8 9134   2.584   1.325  15.893  0.2179 -0.5135 -1.0930
  616TMC3    O1 9135   2.032   1.224  15.806  0.5923  0.8392 -0.3143
  616TMC3    O2 9136   2.680   1.275  15.840  0.0171 -0.5091 -0.0589
  617MPD2     C 9137   0.795   4.230  13.667 -0.5972 -0.2188  0.0230
  617MPD2    C1 9138   0.821   4.172  13.791 -0.0331  0.0421 -0.6228
  617MPD2    C2 9139   0.705   4.133  13.863 -0.2357 -0.1258  0.0130
  617MPD2    C3 9140   0.577   4.137  13.810 -0.0101 -0.0544  0.3305
  617MPD2    C4 9141   0.559   4.196  13.687 -0.3670  0.7845  0.3534
  617MPD2    C5 9142   0.670   4.244  13.617  0.1079  0.1735 -0.1489
  617MPD2     H 9143   0.722   4.068  13.948  3.0898  1.1244  0.3128
  617MPD2    H1 9144   0.459   4.211  13.650 -0.1605 -0.6188 -0.7572
  617MPD2    H2 9145   0.875   4.258  13.599  0.7112 -1.9290  0.8537
  617MPD2    H3 9146   0.661   4.295  13.522 -0.6345  0.3676  0.0253
  617MPD2     N 9147   0.463   4.078  13.864 -0.7082 -0.2026  0.8325
  617MPD2    H5 9148   0.384   4.079  13.801 -0.4811  3.4844  0.6124
  617MPD2    N1 9149   0.945   4.144  13.837  0.4174  0.2060 -0.4201
  617MPD2    H7 9150   1.019   4.143  13.768  2.2607  1.5757  1.5152
  618TMC3    C1 9151   1.113   4.096  13.984 -0.3250 -0.4888  0.2479
  618TMC3    C2 9152   1.175   4.013  13.889  0.2816  0.4069  0.0830
  618TMC3    C3 9153   1.293   3.967  13.916 -0.7309  0.7347  0.2597
  618TMC3    C4 9154   1.179   4.140  14.091 -0.2055  0.4355 -0.0783
  618TMC3    C5 9155   1.304   4.095  14.108 -0.3381 -0.6608  0.2026
  618TMC3    C6 9156   1.353   3.991  14.033  0.4452 -0.3620 -0.1743
  618TMC3     C 9157   0.973   4.134  13.973 -0.7223 -1.0200  0.5065
  618TMC3     O 9158   0.902   4.164  14.070 -0.3950  0.0663 -0.1203
  618TMC3     H 9159   1.119   3.985  13.800 -2.8836  0.5555  2.0341
  618TMC3    H1 9160   1.136   4.209  14.163  0.0654  1.5025 -0.9331
  618TMC3    H2 9161   1.450   3.947  14.054  0.5143  0.9473  2.3030
  618TMC3    C7 9162   1.394   4.208  14.111  0.3672  0.2188 -0.6009
  618TMC3    C8 9163   1.341   3.872  13.814  0.0929  0.1142  0.1937
  618TMC3    O1 9164   1.351   4.310  14.054 -0.2941 -0.0091 -0.3824
  618TMC3    O2 9165   1.264   3.850  13.718 -0.2354  0.0163  0.2215
  619MPD2     C 9166   2.279   0.621  13.894  0.0602 -1.0504  0.1042
  619MPD2    C1 9167   2.180   0.710  13.868  0.4004  0.1117 -0.0480
  619MPD2    C2 9168   2.051   0.672  13.843  0.0605  0.0002 -0.6762
  619MPD2    C3 9169   2.017   0.544  13.847 -0.4193  0.7987 -0.1390
  619MPD2    C4 9170   2.110   0.451  13.884 -0.2962  0.9527 -0.2182
  619MPD2    C5 9171   2.242   0.494  13.911 -0.8268 -0.4564 -0.1292
  619MPD2     H 9172   1.976   0.747  13.819 -0.8069 -0.5029  0.4361
  619MPD2    H1 9173   2.089   0.344  13.889  0.3667  0.8819  1.0292
  619MPD2    H2 9174   2.383   0.647  13.910  0.0625 -1.2688  0.4303
  619MPD2    H3 9175   2.324   0.429  13.938  0.5265  0.3701 -2.2246
  619MPD2     N 9176   1.884   0.496  13.809 -0.2941 -0.1790  0.1211
  619MPD2    H5 9177   1.820   0.565  13.771 -0.9281 -0.4334  0.7091
  619MPD2    N1 9178   2.201   0.850  13.864  0.3500 -0.7218 -0.5162
  619MPD2    H7 9179   2.130   0.918  13.836 -0.5019 -0.6200  1.9068
  620TMC3    C1 9180   2.298   1.061  13.862 -0.6386  0.3682  0.2038
  620TMC3    C2 9181   2.224   1.088  13.748  0.1070  0.4896  0.1097
  620TMC3    C3 9182   2.156   1.199  13.733 -1.0280  0.0395 -0.4537
  620TMC3    C4 9183   2.285   1.142  13.964 -0.3299 -0.4373  1.1032
  620TMC3    C5 9184   2.216   1.264  13.951 -0.4210  0.3947 -0.1554
  620TMC3    C6 9185   2.160   1.301  13.831 -0.4895 -0.6432 -0.0179
  620TMC3     C 9186   2.315   0.918  13.895 -0.3494  0.1941  0.9275
  620TMC3     O 9187   2.414   0.879  13.963 -0.8264 -0.1974  0.0181
  620TMC3     H 9188   2.221   1.008  13.675 -2.4738  2.0323 -1.4874
  620TMC3    H1 9189   2.324   1.109  14.060  0.9771 -1.3882  0.2498
  620TMC3    H2 9190   2.119   1.398  13.806 -1.2762 -1.3750 -1.5398
  620TMC3    C7 9191   2.134   1.299  14.066  0.2904  0.3537  0.3552
  620TMC3    C8 9192   2.023   1.154  13.750 -1.1309  0.0435  0.0281
  620TMC3    O1 9193   2.159   1.247  14.175  0.3875  0.4317  0.2477
  620TMC3    O2 9194   2.009   1.036  13.784  0.0090 -0.2621 -0.4308
  621MPD2     C 9195   3.297   0.608  10.210  0.9721  0.1406 -0.2521
  621MPD2    C1 9196   3.348   0.562  10.093 -0.3520 -0.2843  0.2506
  621MPD2    C2 9197   3.391   0.654   9.997 -0.5854  1.1891 -1.0201
  621MPD2    C3 9198   3.367   0.785  10.011 -0.3952 -0.2082  0.5253
  621MPD2    C4 9199   3.331   0.825  10.137 -0.2646 -0.2248 -0.0400
  621MPD2    C5 9200   3.301   0.742  10.236  0.1386  0.0275 -0.3772
  621MPD2     H 9201   3.428   0.606   9.908 -0.8669  0.7032 -0.8745
  621MPD2    H1 9202   3.337   0.928  10.171 -0.3011 -0.2804  0.1352
  621MPD2    H2 9203   3.277   0.550  10.299  1.4753 -0.5674 -0.5998
  621MPD2    H3 9204   3.270   0.776  10.334  1.7193  0.1927  0.0802
  621MPD2     N 9205   3.401   0.889   9.920  0.0812  0.0117  0.0044
  621MPD2    H5 9206   3.392   0.984   9.953  2.3850 -0.3360  1.6612
  621MPD2    N1 9207   3.354   0.419  10.074  0.2204  0.4262  1.0051
  621MPD2    H7 9208   3.391   0.400   9.982  0.0085 -0.1511  1.0333
  622TMC3    C1 9209   3.305   0.193  10.086 -0.1694 -0.2648 -0.8042
  622TMC3    C2 9210   3.227   0.100  10.142 -0.1723  0.3074  0.0539
  622TMC3    C3 9211   3.209   4.696  10.087 -0.1937  0.2558  0.6856
  622TMC3    C4 9212   3.367   0.168   9.972  1.0487 -0.0760  0.1178
  622TMC3    C5 9213   3.346   0.043   9.914 -0.1988 -0.0568  0.1845
  622TMC3    C6 9214   3.272   4.666   9.966  0.0761  0.6301 -0.0385
  622TMC3     C 9215   3.292   0.324  10.148  0.4448 -0.6273  0.0869
  622TMC3     O 9216   3.224   0.334  10.253 -0.2604  0.3871 -0.1445
  622TMC3     H 9217   3.198   0.120  10.245  1.1417  1.1832  0.2590
  622TMC3    H1 9218   3.428   0.243   9.922  0.4590  0.1057 -0.3246
  622TMC3    H2 9219   3.261   4.570   9.917  1.5093  0.5821 -0.2675
  622TMC3    C7 9220   3.411   0.023   9.790 -0.2298 -0.4303  0.6676
  622TMC3    C8 9221   3.105   4.606  10.127 -1.3339 -0.3279 -0.0786
  622TMC3    O1 9222   3.521   0.078   9.790  0.5843  0.0617 -0.5297
  622TMC3    O2 9223   3.122   4.490  10.100 -0.3316  0.3432  0.2070
  623MPD2     C 9224   0.808   1.397  15.791  0.1163 -0.3168 -0.6460
  623MPD2    C1 9225   0.716   1.351  15.876 -0.5992  0.2688  0.9412
  623MPD2    C2 9226   0.751   1.306  16.001  0.1457  0.3782  0.2603
  623MPD2    C3 9227   0.883   1.314  16.045 -0.2467  0.0888  0.0379
  623MPD2    C4 9228   0.978   1.371  15.961  0.5502  0.0162 -0.4841
  623MPD2    C5 9229   0.939   1.405  15.837  0.6089 -0.6063 -1.4761
  623MPD2     H 9230   0.675   1.275  16.072  0.5615  1.1848  1.0479
  623MPD2    H1 9231   1.084   1.372  15.984  0.1688 -0.1680  1.2782
  623MPD2    H2 9232   0.787   1.419  15.687 -1.6394 -0.5475 -0.3449
  623MPD2    H3 9233   1.016   1.446  15.772  2.7072  0.0571  1.3881
  623MPD2     N 9234   0.903   1.257  16.172  0.6689 -0.8105 -0.2682
  623MPD2    H5 9235   0.821   1.220  16.218 -1.4076  1.2841 -2.3440
  623MPD2    N1 9236   0.583   1.334  15.823  0.6634 -0.4934 -0.5789
  623MPD2    H7 9237   0.568   1.393  15.742 -1.4055  0.9115  0.8498
  624TMC3    C1 9238   1.108   0.971  16.470 -0.9933 -0.4917  0.3987
  624TMC3    C2 9239   0.980   0.932  16.508  0.3518 -0.8354 -1.3982
  624TMC3    C3 9240   0.882   1.031  16.497 -0.0484 -0.0180 -0.7305
  624TMC3    C4 9241   1.123   1.077  16.382 -0.8659  0.2493 -0.2550
  624TMC3    C5 9242   1.015   1.152  16.354  0.5417  0.4116 -0.5761
  624TMC3    C6 9243   0.893   1.148  16.416 -0.4643 -0.3267 -1.2370
  624TMC3     C 9244   1.220   0.887  16.503  0.2482  0.2126  0.2702
  624TMC3     O 9245   1.328   0.943  16.503 -0.0737 -0.0386 -0.1762
  624TMC3     H 9246   0.980   0.871  16.598  1.8149  1.5757  0.2372
  624TMC3    H1 9247   1.218   1.113  16.347 -0.3559 -0.6510  0.1894
  624TMC3    H2 9248   0.812   1.215  16.390  1.2957  1.6928 -1.4705
  624TMC3    C7 9249   1.023   1.233  16.233 -0.0266  0.9228  0.2023
  624TMC3    C8 9250   0.745   0.983  16.524 -0.5465  0.9671 -0.6663
  624TMC3    O1 9251   1.131   1.281  16.207  0.4962  0.7341 -0.3756
  624TMC3    O2 9252   0.732   0.863  16.524  0.1751 -0.4365 -0.8037
  625MPD2     C 9253   0.928   2.065   0.681  0.1218  0.6063 -0.0322
  625MPD2    C1 9254   1.002   2.168   0.736 -0.0259 -0.4763 -0.9359
  625MPD2    C2 9255   1.130   2.138   0.791 -0.3298 -0.2542  0.0356
  625MPD2    C3 9256   1.184   2.008   0.788  0.1060 -0.0571  0.2968
  625MPD2    C4 9257   1.100   1.909   0.738  0.2382 -0.3891 -0.4389
  625MPD2    C5 9258   0.983   1.939   0.685  0.7136 -1.0348 -0.1491
  625MPD2     H 9259   1.180   2.224   0.834  0.1363 -0.2729 -0.4660
  625MPD2    H1 9260   1.126   1.805   0.755 -2.8971 -1.3302 -1.4278
  625MPD2    H2 9261   0.835   2.085   0.630 -1.6117  1.1038  3.3376
  625MPD2    H3 9262   0.926   1.858   0.641 -0.9771  0.3122 -0.4573
  625MPD2     N 9263   1.319   1.987   0.829 -0.5380 -0.2622 -0.1060
  625MPD2    H5 9264   1.376   2.065   0.859  2.2268 -1.8496 -1.1625
  625MPD2    N1 9265   0.955   2.300   0.746 -0.6728 -0.8920 -0.0078
  625MPD2    H7 9266   1.021   2.364   0.791 -0.9968  0.3982 -1.3715
  626TMC3    C1 9267   0.820   2.483   0.766  0.6364 -0.6872  0.4524
  626TMC3    C2 9268   0.757   2.578   0.687 -0.2826  0.8634 -0.2065
  626TMC3    C3 9269   0.744   2.707   0.737  0.0001  0.8285 -0.2149
  626TMC3    C4 9270   0.861   2.521   0.891 -0.6519  0.0807  0.3219
  626TMC3    C5 9271   0.835   2.645   0.942 -0.0156 -0.4037  0.4716
  626TMC3    C6 9272   0.784   2.746   0.860 -0.1498 -0.3542  0.5231
  626TMC3     C 9273   0.840   2.355   0.701  0.0827 -0.3077 -0.1330
  626TMC3     O 9274   0.749   2.305   0.635 -0.2811 -0.0397  0.2050
  626TMC3     H 9275   0.722   2.547   0.589 -0.7553 -3.4162  1.3239
  626TMC3    H1 9276   0.907   2.449   0.957  0.2814  1.7158  1.4549
  626TMC3    H2 9277   0.787   2.851   0.886  2.0556 -0.3908  0.3523
  626TMC3    C7 9278   0.858   2.663   1.079  0.4424  0.1111 -0.9193
  626TMC3    C8 9279   0.708   2.810   0.638  0.4443  0.2092 -0.0722
  626TMC3    O1 9280   0.895   2.572   1.153  0.0481  0.2631  0.2418
  626TMC3    O2 9281   0.688   2.927   0.671 -0.0482 -0.1902 -0.2278
  627MPD2     C 9282   0.133   2.817  14.339 -0.4578 -0.8183  0.1553
  627MPD2    C1 9283   0.207   2.757  14.441  0.0016 -0.0517 -0.1321
  627MPD2    C2 9284   0.154   2.650  14.512  1.1902  0.2482 -0.2929
  627MPD2    C3 9285   0.029   2.603  14.482  0.0658 -0.1764 -0.0573
  627MPD2    C4 9286   4.680   2.658  14.380  0.4149 -0.0314 -0.0557
  627MPD2    C5 9287   0.013   2.759  14.310  0.4482  0.1593 -0.4695
  627MPD2     H 9288   0.207   2.603  14.594 -1.9161 -0.0935  1.5183
  627MPD2    H1 9289   4.579   2.631  14.351  0.8504  0.4969 -2.0831
  627MPD2    H2 9290   0.160   2.900  14.276  0.7226 -1.7654 -0.5861
  627MPD2    H3 9291   4.669   2.810  14.240 -1.3099 -2.3281 -0.6581
  627MPD2     N 9292   4.700   2.498  14.566 -0.2435  0.3296  0.0156
  627MPD2    H5 9293   0.039   2.472  14.644 -0.6547  1.2130  0.6204
  627MPD2    N1 9294   0.336   2.809  14.483 -0.0526  0.1835  0.6647
  627MPD2    H7 9295   0.387   2.766  14.560  0.8587 -0.8483 -0.5140
  628TMC3    C1 9296   0.498   2.972  14.516 -0.5561 -0.0806 -0.3031
  628TMC3    C2 9297   0.593   2.888  14.566 -0.3402  0.2788  0.2175
  628TMC3    C3 9298   0.702   2.946  14.624 -0.4886 -0.3715  0.5874
  628TMC3    C4 9299   0.500   3.105  14.534  0.4253  0.4202  0.0541
  628TMC3    C5 9300   0.611   3.155  14.593 -0.3992  0.3292 -0.0606
  628TMC3    C6 9301   0.711   3.077  14.645  0.3873  0.4272 -0.2303
  628TMC3     C 9302   0.383   2.934  14.449 -0.8344 -0.1084 -0.2158
  628TMC3     O 9303   0.336   3.012  14.371 -0.0511 -0.4028 -0.1714
  628TMC3     H 9304   0.592   2.782  14.543 -1.1777  0.6265 -1.3629
  628TMC3    H1 9305   0.417   3.169  14.508  1.1904  0.3502 -2.5772
  628TMC3    H2 9306   0.809   3.123  14.643  0.3223  0.5647 -0.2701
  628TMC3    C7 9307   0.618   3.300  14.597  0.2405 -0.4181  0.2881
  628TMC3    C8 9308   0.831   2.875  14.611 -0.2814 -0.6902 -0.0768
  628TMC3    O1 9309   0.693   3.347  14.678  0.2420  0.5850 -0.1240
  628TMC3    O2 9310   0.925   2.942  14.569  0.0006 -0.6114 -0.3016
  629MPD2     C 9311   2.902   1.673  16.090 -0.7485 -0.3423 -0.3879
  629MPD2    C1 9312   2.798   1.657  16.179  0.0508 -0.0493 -0.3484
  629MPD2    C2 9313   2.693   1.588  16.135 -0.2142  0.3738  0.1558
  629MPD2    C3 9314   2.700   1.517  16.017 -0.1084 -0.0999  1.0243
  629MPD2    C4 9315   2.802   1.529  15.928 -0.3555  0.7300  0.1862
  629MPD2    C5 9316   2.899   1.616  15.966  0.0266 -0.0327 -0.0113
  629MPD2     H 9317   2.617   1.562  16.208 -1.6519  1.6030 -0.9127
  629MPD2    H1 9318   2.806   1.474  15.835  1.8506  1.2122  0.0050
  629MPD2    H2 9319   2.998   1.713  16.121 -1.5797  1.5229 -0.2542
  629MPD2    H3 9320   2.980   1.635  15.896 -0.1689  0.1939 -0.1758
  629MPD2     N 9321   2.587   1.428  15.989 -0.2013  0.2978  0.3557
  629MPD2    H5 9322   2.507   1.433  16.052 -2.6794 -0.8203 -2.7406
  629MPD2    N1 9323   2.813   1.709  16.310  0.6666  0.7729  0.6624
  629MPD2    H7 9324   2.902   1.752  16.333  1.2277  0.5955 -1.2233
  630TMC3    C1 9325   2.751   1.784  16.522 -0.1765 -0.6892 -0.1720
  630TMC3    C2 9326   2.840   1.888  16.517 -0.0276 -0.8829 -0.5429
  630TMC3    C3 9327   2.871   1.956  16.628 -0.2352  0.0247  0.4426
  630TMC3    C4 9328   2.695   1.746  16.646 -0.2397 -0.0754  0.3788
  630TMC3    C5 9329   2.717   1.831  16.750  0.8408 -0.8684 -0.6330
  630TMC3    C6 9330   2.797   1.935  16.745 -0.0731 -0.2712  0.3558
  630TMC3     C 9331   2.718   1.709  16.407  1.3962  0.4250 -0.0098
  630TMC3     O 9332   2.608   1.654  16.408 -0.0114 -0.5438  0.1531
  630TMC3     H 9333   2.891   1.911  16.424 -0.6741 -3.6605 -1.6043
  630TMC3    H1 9334   2.624   1.664  16.641 -0.8904  0.5442 -0.3711
  630TMC3    H2 9335   2.818   1.985  16.839 -2.1081  1.0199  0.1174
  630TMC3    C7 9336   2.679   1.776  16.879 -0.2282  0.2539 -0.2969
  630TMC3    C8 9337   2.976   2.053  16.623 -0.3156  0.4012  0.2019
  630TMC3    O1 9338   2.722   1.835  16.975 -0.9681  0.2514 -0.5686
  630TMC3    O2 9339   3.079   2.029  16.565 -0.3236 -0.4241 -0.1797
  631MPD2     C 9340   1.175   0.902  15.524 -0.1023 -0.2072  0.2451
  631MPD2    C1 9341   1.295   0.923  15.455  0.3501 -0.4255  0.1035
  631MPD2    C2 9342   1.381   0.819  15.448  0.4334  0.0907 -0.1230
  631MPD2    C3 9343   1.352   0.694  15.488 -0.2145 -0.1018 -0.0281
  631MPD2    C4 9344   1.231   0.669  15.542 -0.2621 -0.2343 -1.1288
  631MPD2    C5 9345   1.144   0.778  15.573  0.0306  0.3092  0.0387
  631MPD2     H 9346   1.472   0.824  15.390  0.4017 -2.1128 -0.3627
  631MPD2    H1 9347   1.203   0.565  15.557  0.8514 -0.3579  0.1206
  631MPD2    H2 9348   1.098   0.979  15.522 -1.0811 -1.2617 -2.7762
  631MPD2    H3 9349   1.047   0.762  15.619  0.0786  1.9819  0.6929
  631MPD2     N 9350   1.451   0.602  15.472 -0.1463  0.8086  0.6524
  631MPD2    H5 9351   1.534   0.636  15.423 -0.6410  0.6541 -0.2761
  631MPD2    N1 9352   1.315   1.050  15.404  0.0040 -0.1283  0.8042
  631MPD2    H7 9353   1.257   1.125  15.441  0.5628  1.1599 -0.9764
  632TMC3    C1 9354   1.428   1.230  15.304 -0.5170  0.4308 -0.3163
  632TMC3    C2 9355   1.323   1.313  15.345  0.4368  0.6368  0.3712
  632TMC3    C3 9356   1.328   1.441  15.296  0.4417  0.5310 -0.6510
  632TMC3    C4 9357   1.526   1.272  15.223  0.1182 -0.1926  0.2046
  632TMC3    C5 9358   1.519   1.405  15.183 -0.4333  0.0984  0.3573
  632TMC3    C6 9359   1.414   1.494  15.216 -0.2090 -0.5255  0.6178
  632TMC3     C 9360   1.423   1.084  15.327 -0.3084  0.3707  0.7216
  632TMC3     O 9361   1.496   1.008  15.269 -0.4362  0.0444  0.1128
  632TMC3     H 9362   1.234   1.277  15.394  0.4920 -0.8067 -0.5914
  632TMC3    H1 9363   1.612   1.209  15.203 -1.7970 -2.2937 -1.2445
  632TMC3    H2 9364   1.395   1.590  15.169  1.1468 -0.0279  1.0700
  632TMC3    C7 9365   1.617   1.447  15.082  0.2138  0.3352  0.2063
  632TMC3    C8 9366   1.231   1.529  15.352 -0.5112 -0.4767  0.4581
  632TMC3    O1 9367   1.580   1.528  14.996  0.2773 -0.2460 -0.3662
  632TMC3    O2 9368   1.113   1.490  15.377 -0.1942  0.4877  0.4723
  633MPD2     C 9369   1.089   4.264  17.352 -0.3088 -0.0392 -0.4415
  633MPD2    C1 9370   1.092   4.195  17.237  0.6329  0.4907 -0.2497
  633MPD2    C2 9371   1.046   4.066  17.223 -0.4348  0.4551 -0.1679
  633MPD2    C3 9372   1.003   3.997  17.333 -0.4479 -0.0088 -0.0111
  633MPD2    C4 9373   1.017   4.060  17.460 -0.7082 -0.2850  0.5641
  633MPD2    C5 9374   1.056   4.193  17.467  0.1835 -0.1327 -0.4391
  633MPD2     H 9375   1.032   4.031  17.121  0.2593  0.1195 -0.1465
  633MPD2    H1 9376   1.004   4.014  17.557  1.1831 -0.7095  0.6039
  633MPD2    H2 9377   1.122   4.367  17.355 -1.5594  0.3195  1.4839
  633MPD2    H3 9378   1.048   4.241  17.564  0.6889 -0.4615 -0.2338
  633MPD2     N 9379   0.956   3.867  17.336  0.0177  0.4084 -0.4240
  633MPD2    H5 9380   0.959   3.820  17.426  1.4266 -0.2190 -0.8046
  633MPD2    N1 9381   1.140   4.251  17.118  0.4384 -0.6785  0.9661
  633MPD2    H7 9382   1.162   4.190  17.040 -0.5295 -1.2236  1.1154
  634TMC3    C1 9383   1.212   4.391  16.957 -0.1103  0.5112 -0.6064
  634TMC3    C2 9384   1.293   4.293  16.899 -0.9300 -0.0653 -0.4736
  634TMC3    C3 9385   1.353   4.321  16.778  0.2731  0.3972 -1.1684
  634TMC3    C4 9386   1.194   4.509  16.894 -0.1029 -0.1862 -0.2481
  634TMC3    C5 9387   1.250   4.532  16.773  0.0599 -0.0552 -0.0664
  634TMC3    C6 9388   1.326   4.435  16.709  0.6979 -0.0761 -0.0986
  634TMC3     C 9389   1.163   4.380  17.088  0.4294 -0.7601 -0.1677
  634TMC3     O 9390   1.165   4.483  17.154 -0.2196 -0.1688  0.2845
  634TMC3     H 9391   1.335   4.208  16.952  2.4149  2.0289  0.2192
  634TMC3    H1 9392   1.139   4.583  16.951 -0.7343 -0.2542 -0.7632
  634TMC3    H2 9393   1.361   4.459  16.609 -0.1789 -0.5509 -0.5238
  634TMC3    C7 9394   1.176   4.620  16.684 -0.5069 -0.3200  0.1716
  634TMC3    C8 9395   1.411   4.203  16.706 -0.7093  0.4417 -0.3190
  634TMC3    O1 9396   1.206   4.615  16.568  0.0887 -0.2161  0.0156
  634TMC3    O2 9397   1.383   4.096  16.751  0.2446 -0.2513  0.4539
  635TMC3    C1 9398   2.451   4.522  17.179  0.0917 -0.0603 -0.7357
  635TMC3    C2 9399   2.543   4.451  17.245  0.2929  0.2387 -0.2016
  635TMC3    C3 9400   2.607   4.349  17.170 -0.1264 -0.2854 -0.6367
  635TMC3    C4 9401   2.419   4.498  17.044 -0.6274  0.8145 -0.1553
  635TMC3    C5 9402   2.488   4.403  16.976 -0.0798  0.2690 -1.0384
  635TMC3    C6 9403   2.579   4.324  17.037  0.4677  0.1134 -0.7026
  635TMC3     C 9404   2.370   4.619  17.247 -0.1885 -0.1063  0.1890
  635TMC3     O 9405   2.323   4.710  17.177 -0.0263 -0.5897  0.4778
  635TMC3     H 9406   2.579   4.482  17.342  0.3815  0.3908 -0.2831
  635TMC3    H1 9407   2.339   4.560  17.006 -2.1982 -3.0747 -3.1923
  635TMC3    H2 9408   2.635   4.259  16.972  2.6262 -0.0096  1.3078
  635TMC3    C7 9409   2.501   4.416  16.829  0.6901  0.4418 -0.4299
  635TMC3    C8 9410   2.724   4.280  17.234 -0.3204  0.4604  0.1838
  635TMC3    O1 9411   2.568   4.330  16.774  0.0178 -0.8386 -0.2929
  635TMC3    O2 9412   2.764   4.325  17.339 -0.1118 -0.4606  0.5656
  636MPD2     C 9413   2.521   4.070  16.070  0.2584 -0.2303 -0.1589
  636MPD2    C1 9414   2.438   4.049  16.178  0.2343  0.1595  0.0079
  636MPD2    C2 9415   2.401   3.920  16.198 -0.5375 -0.0107 -0.3852
  636MPD2    C3 9416   2.440   3.818  16.122  0.6145  0.2194 -0.6249
  636MPD2    C4 9417   2.528   3.846  16.022 -0.2452 -0.4239  0.0878
  636MPD2    C5 9418   2.565   3.969  15.998 -0.8798  0.1576 -0.3745
  636MPD2     H 9419   2.326   3.904  16.275  0.4544  0.0102  0.5858
  636MPD2    H1 9420   2.574   3.766  15.965 -2.9166  0.2824 -3.0227
  636MPD2    H2 9421   2.546   4.170  16.037  0.2522 -0.5500 -1.1209
  636MPD2    H3 9422   2.620   3.985  15.906  0.8260  0.0396  0.6310
  636MPD2     N 9423   2.400   3.686  16.167  0.9356  0.1676  0.4037
  636MPD2    H5 9424   2.345   3.682  16.252  0.4745 -1.2510  0.0211
  636MPD2    N1 9425   2.375   4.146  16.258  0.1686  0.2738 -0.4258
  636MPD2    H7 9426   2.315   4.115  16.334 -1.1488  0.7305 -1.2840
  637TMC3    C1 9427   2.425   3.459  16.206 -0.0486  0.2256 -0.0276
  637TMC3    C2 9428   2.419   3.499  16.338 -0.1062 -0.7821  0.0046
  637TMC3    C3 9429   2.513   3.448  16.420 -0.2217  0.3222 -0.6449
  637TMC3    C4 9430   2.495   3.350  16.161  0.2075  0.1442 -0.2631
  637TMC3    C5 9431   2.590   3.303  16.244 -0.1872 -0.3553 -1.0155
  637TMC3    C6 9432   2.596   3.347  16.375  0.0275 -0.5405  0.1671
  637TMC3     C 9433   2.454   3.568  16.116 -0.0411 -0.0266  0.3274
  637TMC3     O 9434   2.531   3.546  16.028 -0.6184 -0.5935  0.1454
  637TMC3     H 9435   2.351   3.579  16.363  1.0371 -0.4783  2.1361
  637TMC3    H1 9436   2.501   3.323  16.056  1.0751  1.0632 -0.4417
  637TMC3    H2 9437   2.665   3.297  16.442  0.3577 -0.9849 -0.4977
  637TMC3    C7 9438   2.720   3.292  16.173  0.3709  0.4852  0.2110
  637TMC3    C8 9439   2.587   3.553  16.491  0.4700  0.3346  0.5413
  637TMC3    O1 9440   2.719   3.239  16.061  0.8724  0.4993  0.0414
  637TMC3    O2 9441   2.706   3.531  16.504  0.4011 -0.7637  0.0982
  638MPD2     C 9442   2.578   3.293  15.044 -0.3099 -0.5750  0.5432
  638MPD2    C1 9443   2.531   3.199  14.958 -0.1218 -0.0584 -0.5981
  638MPD2    C2 9444   2.470   3.083  15.003  0.2559 -0.1727 -0.0132
  638MPD2    C3 9445   2.452   3.057  15.135  0.3498 -0.3974  0.5174
  638MPD2    C4 9446   2.477   3.161  15.223 -0.2047  0.0755  0.0683
  638MPD2    C5 9447   2.543   3.274  15.175 -0.8551  0.1631 -0.7407
  638MPD2     H 9448   2.435   3.009  14.932 -2.0792  1.9072 -1.0786
  638MPD2    H1 9449   2.452   3.148  15.327  1.5405 -0.4653  0.4147
  638MPD2    H2 9450   2.635   3.380  15.014 -0.5994 -0.1953  1.0975
  638MPD2    H3 9451   2.579   3.350  15.243 -0.9490  1.4213 -2.0989
  638MPD2     N 9452   2.393   2.935  15.175 -0.5688  0.7141 -0.3967
  638MPD2    H5 9453   2.359   2.874  15.101 -0.2055 -1.0141  0.8543
  638MPD2    N1 9454   2.564   3.214  14.822  0.3649 -0.1278 -0.2408
  638MPD2    H7 9455   2.608   3.302  14.797 -2.4154  0.6588 -2.4130
  639TMC3    C1 9456   2.315   2.759  15.307 -0.1851 -0.0168 -0.2401
  639TMC3    C2 9457   2.214   2.739  15.218 -0.1224 -0.3328  0.1483
  639TMC3    C3 9458   2.148   2.622  15.213 -0.0243  0.4426 -0.0642
  639TMC3    C4 9459   2.352   2.666  15.392  0.0980  0.6579 -0.2030
  639TMC3    C5 9460   2.277   2.548  15.393  0.2058  0.0987  0.2357
  639TMC3    C6 9461   2.177   2.528  15.300 -0.6853  0.1056 -0.5513
  639TMC3     C 9462   2.390   2.879  15.303  0.3809  0.4308  0.7903
  639TMC3     O 9463   2.416   2.939  15.408 -0.4915 -0.1716  0.2630
  639TMC3     H 9464   2.193   2.804  15.135  0.6713  2.8653  2.4430
  639TMC3    H1 9465   2.436   2.680  15.459  0.0996  0.7809 -0.2303
  639TMC3    H2 9466   2.119   2.437  15.304 -3.2646  1.8020  0.1211
  639TMC3    C7 9467   2.332   2.427  15.442 -0.3898  0.1674 -0.1859
  639TMC3    C8 9468   2.098   2.569  15.083  0.5336 -0.2404 -0.2601
  639TMC3    O1 9469   2.252   2.346  15.479 -0.3999  0.2723 -0.4808
  639TMC3    O2 9470   2.147   2.614  14.983  0.1883  0.1224  0.0552
  640MPD2     C 9471   4.024   1.974  10.214  0.8215 -0.1353 -0.2739
  640MPD2    C1 9472   4.037   2.093  10.137  0.8287  0.0240  0.0619
  640MPD2    C2 9473   3.926   2.166  10.112  1.2355 -0.6074 -0.4787
  640MPD2    C3 9474   3.797   2.129  10.148  0.7367  0.3064  0.1686
  640MPD2    C4 9475   3.789   2.014  10.222  0.1451 -0.2059 -0.3599
  640MPD2    C5 9476   3.900   1.938  10.251 -0.1514  0.4101  0.6166
  640MPD2     H 9477   3.937   2.258  10.054  0.9195 -0.0737  0.3155
  640MPD2    H1 9478   3.687   1.987  10.248  0.1172  0.3751  0.1455
  640MPD2    H2 9479   4.110   1.909  10.224 -0.0830 -1.0974  1.0757
  640MPD2    H3 9480   3.880   1.839  10.291  1.3072 -0.1266  0.0098
  640MPD2     N 9481   3.679   2.203  10.128 -0.6715 -0.2793  0.0313
  640MPD2    H5 9482   3.592   2.171  10.170  0.9275 -1.5122  2.3765
  640MPD2    N1 9483   4.162   2.129  10.075 -0.4555 -0.2232  0.5987
  640MPD2    H7 9484   4.227   2.051  10.071 -0.4931 -0.2834  1.1542
  641TMC3    C1 9485   4.299   2.225   9.910 -0.5769 -0.2466 -0.5771
  641TMC3    C2 9486   4.313   2.105   9.850  0.4019  0.4986 -0.0233
  641TMC3    C3 9487   4.386   2.097   9.737  0.4607 -0.4604  0.4118
  641TMC3    C4 9488   4.351   2.335   9.850  0.4940 -0.8422 -0.4498
  641TMC3    C5 9489   4.426   2.324   9.738 -0.2032  0.2744 -0.1711
  641TMC3    C6 9490   4.440   2.207   9.671  0.0773  0.1595  0.1078
  641TMC3     C 9491   4.188   2.241   9.997  0.0064 -0.7619  0.0284
  641TMC3     O 9492   4.127   2.348   9.992 -0.2142  0.2560 -0.3534
  641TMC3     H 9493   4.252   2.021   9.879  1.4475 -0.4267 -0.5069
  641TMC3    H1 9494   4.339   2.429   9.903  1.6154 -1.3799  0.7404
  641TMC3    H2 9495   4.492   2.203   9.576 -1.3171  0.3096 -0.6539
  641TMC3    C7 9496   4.441   2.444   9.662  0.0456 -0.4430  0.1462
  641TMC3    C8 9497   4.421   1.960   9.694  0.0063  0.4541 -0.2085
  641TMC3    O1 9498   4.496   2.445   9.551 -0.5196  0.0507 -0.1709
  641TMC3    O2 9499   4.451   1.948   9.574 -0.1364 -0.3260 -0.1649
  642TMC3    C1 9500   4.548   3.201  11.999 -0.2541 -0.4003 -0.3431
  642TMC3    C2 9501   4.670   3.218  12.049  0.1455 -0.3194 -0.3882
  642TMC3    C3 9502   0.010   3.109  12.105  0.2590 -0.1392  0.1814
  642TMC3    C4 9503   4.489   3.077  11.984 -0.5806 -0.5158 -0.0302
  642TMC3    C5 9504   4.555   2.973  12.039  0.1761 -0.4745 -0.4086
  642TMC3    C6 9505   4.681   2.986  12.093 -0.1497  0.2333  0.1406
  642TMC3     C 9506   4.470   3.319  11.994 -0.5053 -0.1138 -0.2412
  642TMC3     O 9507   4.508   3.411  11.925 -0.5730  0.3610 -0.4716
  642TMC3     H 9508   0.004   3.311  12.053 -0.8219  0.2579 -0.5383
  642TMC3    H1 9509   4.389   3.062  11.945 -0.4408 -2.2566  0.3050
  642TMC3    H2 9510   0.012   2.905  12.143  0.0285 -0.4443 -1.1564
  642TMC3    C7 9511   4.484   2.852  12.046  0.5259 -0.4400  0.1537
  642TMC3    C8 9512   0.137   3.129  12.183  0.7252 -0.7281  0.2482
  642TMC3    O1 9513   4.397   2.838  11.961  0.3750 -0.2363 -0.0979
  642TMC3    O2 9514   0.223   3.041  12.174 -0.0046 -0.3841 -0.4047
  643TMC3    C1 9515   2.867   2.611   0.806 -0.0857 -0.2523  0.1219
  643TMC3    C2 9516   2.740   2.660   0.794  0.3170 -0.6052  0.4406
  643TMC3    C3 9517   2.688   2.678   0.669 -0.1770  0.0503  0.2168
  643TMC3    C4 9518   2.935   2.577   0.694  0.0905 -0.2323 -0.2825
  643TMC3    C5 9519   2.882   2.601   0.572 -1.4446 -0.6482  0.3209
  643TMC3    C6 9520   2.752   2.645   0.559  0.2999  0.9909  0.2352
  643TMC3     C 9521   2.935   2.602   0.940  0.3553  0.9947 -0.6265
  643TMC3     O 9522   2.885   2.667   1.030 -0.1248  0.0448  0.1650
  643TMC3     H 9523   2.690   2.693   0.884 -0.8045  1.1884 -0.8479
  643TMC3    H1 9524   3.026   2.520   0.710  0.3437 -0.6507 -3.2597
  643TMC3    H2 9525   2.712   2.680   0.464  4.7186  1.8859 -1.2941
  643TMC3    C7 9526   2.959   2.603   0.450 -0.2455  0.4845 -0.5637
  643TMC3    C8 9527   2.627   2.808   0.635  0.1660 -0.0617 -0.5946
  643TMC3    O1 9528   2.896   2.626   0.345 -0.1623  0.4851  0.3717
  643TMC3    O2 9529   2.505   2.816   0.622 -0.8823 -0.7894  0.0126
  644MPD2     C 9530   0.154   2.664   9.138 -0.2986 -0.7148  0.0553
  644MPD2    C1 9531   0.130   2.591   9.253  0.4750  0.2761  0.0586
  644MPD2    C2 9532   0.002   2.567   9.298 -0.2152 -0.8333 -0.1220
  644MPD2    C3 9533   4.615   2.602   9.213  0.5189  0.2210 -0.2865
  644MPD2    C4 9534   4.640   2.681   9.105  0.1714  0.4920 -0.1943
  644MPD2    C5 9535   0.047   2.711   9.065  0.2894 -0.6097  0.2574
  644MPD2     H 9536   4.697   2.526   9.395  3.1578  0.6722  1.4073
  644MPD2    H1 9537   4.576   2.724   9.029  0.8004 -1.1626 -1.6526
  644MPD2    H2 9538   0.257   2.681   9.107 -0.4044  0.0682  0.1162
  644MPD2    H3 9539   0.072   2.760   8.972  0.2717 -1.7677 -0.3528
  644MPD2     N 9540   4.486   2.577   9.265  0.1701 -0.4527 -0.5308
  644MPD2    H5 9541   4.489   2.532   9.356 -1.8098  0.0807 -0.1951
  644MPD2    N1 9542   0.247   2.564   9.330  0.1269  0.2646  0.5746
  644MPD2    H7 9543   0.334   2.575   9.279 -0.1438 -1.5528 -0.2819
  645TMC3    C1 9544   4.256   2.601   9.305 -0.0946 -0.0182 -0.2091
  645TMC3    C2 9545   4.155   2.691   9.319  0.2478  0.2587 -0.3001
  645TMC3    C3 9546   4.031   2.657   9.373 -0.1497 -0.3282  0.3330
  645TMC3    C4 9547   4.236   2.475   9.350  0.1071 -0.0612 -0.4062
  645TMC3    C5 9548   4.120   2.435   9.409  0.3988 -0.4257 -0.4221
  645TMC3    C6 9549   4.017   2.528   9.425 -0.2100  0.3748  0.4313
  645TMC3     C 9550   4.365   2.625   9.217 -0.2260 -0.1913 -0.4438
  645TMC3     O 9551   4.346   2.706   9.130 -0.1543 -0.1583  0.5603
  645TMC3     H 9552   4.169   2.792   9.281  2.6301  0.4634  1.1305
  645TMC3    H1 9553   4.320   2.408   9.336  1.4670  1.2023  1.7277
  645TMC3    H2 9554   3.923   2.494   9.467 -0.1868 -1.6367 -1.1090
  645TMC3    C7 9555   4.110   2.299   9.454 -0.0107  0.2610 -1.2989
  645TMC3    C8 9556   3.924   2.743   9.343  0.4151 -0.2861 -0.6885
  645TMC3    O1 9557   4.182   2.219   9.397 -0.5631 -0.2592 -0.3126
  645TMC3    O2 9558   3.949   2.859   9.305 -0.7865 -0.2206  0.1467
  646MPD2     C 9559   2.511   1.846  14.370 -0.4630  0.1447 -0.6924
  646MPD2    C1 9560   2.447   1.878  14.483  0.0712  0.2265  0.1388
  646MPD2    C2 9561   2.329   1.952  14.475  0.8850  0.0629  0.4830
  646MPD2    C3 9562   2.278   2.004  14.355  0.3206  0.3356 -0.5521
  646MPD2    C4 9563   2.357   1.978  14.241 -0.6611  0.0996 -0.1826
  646MPD2    C5 9564   2.463   1.887  14.250  0.0363 -0.0700  0.8758
  646MPD2     H 9565   2.264   1.972  14.560  2.5159  1.0022  1.5214
  646MPD2    H1 9566   2.345   2.031  14.147  0.2090  1.3751  0.4270
  646MPD2    H2 9567   2.604   1.791  14.369 -0.4840  0.1285 -1.8610
  646MPD2    H3 9568   2.515   1.856  14.161  1.2760 -1.4749  2.0841
  646MPD2     N 9569   2.164   2.095  14.364 -0.6161  0.9455  0.1285
  646MPD2    H5 9570   2.117   2.098  14.454 -2.1935  0.8034 -0.6824
  646MPD2    N1 9571   2.513   1.833  14.598 -0.0242  0.5354 -0.1455
  646MPD2    H7 9572   2.603   1.790  14.580  0.4435  0.9637  1.2270
  647TMC3    C1 9573   2.554   1.805  14.822 -1.2072 -0.4533  0.5384
  647TMC3    C2 9574   2.510   1.737  14.932  0.8138 -0.9649 -0.2001
  647TMC3    C3 9575   2.596   1.704  15.028  0.5314 -0.4624 -0.0115
  647TMC3    C4 9576   2.681   1.850  14.807  0.5623 -0.2703  0.6366
  647TMC3    C5 9577   2.764   1.818  14.914  0.5398  0.3330 -0.6619
  647TMC3    C6 9578   2.723   1.747  15.020 -0.9111 -0.6358  0.9240
  647TMC3     C 9579   2.460   1.843  14.724  0.4044  0.2190  0.8232
  647TMC3     O 9580   2.354   1.885  14.765  0.5828 -0.4463  0.7026
  647TMC3     H 9581   2.409   1.697  14.939  0.2206  0.9215  2.1219
  647TMC3    H1 9582   2.716   1.891  14.713  1.4939  1.3195  1.6800
  647TMC3    H2 9583   2.789   1.712  15.098  2.5967  2.3574 -0.6930
  647TMC3    C7 9584   2.906   1.819  14.897 -0.5430 -0.2712 -0.4904
  647TMC3    C8 9585   2.598   1.562  15.061 -0.9689 -0.9009  0.0188
  647TMC3    O1 9586   2.971   1.856  14.996 -0.7148  0.1588 -0.1452
  647TMC3    O2 9587   2.699   1.493  15.037  0.1278  0.1337  0.2494
  648TMC3    C1 9588   1.938   4.176  16.089  0.0847  0.4638  1.0185
  648TMC3    C2 9589   2.022   4.076  16.063 -0.5101  0.2561  0.2334
  648TMC3    C3 9590   2.020   4.029  15.938  0.1522 -0.3867 -0.4195
  648TMC3    C4 9591   1.847   4.225  16.006 -0.4537  0.7580  0.0704
  648TMC3    C5 9592   1.861   4.184  15.876 -0.5378 -0.4685 -0.1439
  648TMC3    C6 9593   1.948   4.086  15.833  0.1005 -0.0238 -0.0773
  648TMC3     C 9594   1.930   4.219  16.231  0.2420  0.3153 -0.8484
  648TMC3     O 9595   1.904   4.336  16.246 -0.3222 -0.5423 -0.4276
  648TMC3     H 9596   2.088   4.040  16.141  1.0526  2.1397 -0.2577
  648TMC3    H1 9597   1.773   4.296  16.041 -1.0861 -0.1144  0.4974
  648TMC3    H2 9598   1.942   4.047  15.732  2.6728 -1.8897  0.4698
  648TMC3    C7 9599   1.774   4.242  15.778 -0.1188 -0.2850  0.3602
  648TMC3    C8 9600   2.089   3.909  15.909 -0.5836 -0.9014  0.1281
  648TMC3    O1 9601   1.800   4.217  15.659 -0.0133 -0.0608  0.5382
  648TMC3    O2 9602   2.117   3.879  15.792 -0.4231  0.4850 -0.0956
  649TMC3    C1 9603   1.213   0.522  12.725 -0.3603 -0.1391  0.2302
  649TMC3    C2 9604   1.336   0.556  12.776  0.0657 -0.2303 -0.1267
  649TMC3    C3 9605   1.370   0.492  12.897 -0.6217 -0.0683 -0.4528
  649TMC3    C4 9606   1.124   0.440  12.792 -0.0109  0.7677  0.3259
  649TMC3    C5 9607   1.163   0.376  12.905  0.3653  0.3461 -0.4504
  649TMC3    C6 9608   1.278   0.417  12.964  1.0131 -0.0786 -0.5940
  649TMC3     C 9609   1.168   0.564  12.594  0.0145 -0.6383  0.2486
  649TMC3     O 9610   1.048   0.560  12.572 -0.3980  0.3137 -0.3458
  649TMC3     H 9611   1.414   0.620  12.737 -1.9716  0.0892 -3.6667
  649TMC3    H1 9612   1.026   0.428  12.748  0.5743 -2.2325 -0.1558
  649TMC3    H2 9613   1.310   0.366  13.054 -0.8390  2.8794  1.7635
  649TMC3    C7 9614   1.065   0.304  12.987  0.7366  0.0966 -0.6649
  649TMC3    C8 9615   1.503   0.456  12.926  0.0913 -0.2131  0.1973
  649TMC3    O1 9616   1.071   0.325  13.108 -0.5238  0.6769  0.2610
  649TMC3    O2 9617   1.529   0.338  12.947 -0.8807  0.0337 -0.3108
  650TMC3    C1 9618   3.480   2.135  12.462 -0.1766  0.4313 -0.1662
  650TMC3    C2 9619   3.494   2.267  12.482 -0.0562 -0.2717  0.0877
  650TMC3    C3 9620   3.458   2.348  12.379  0.4467  0.3090  0.4746
  650TMC3    C4 9621   3.452   2.083  12.338 -0.3068  0.1389  0.7281
  650TMC3    C5 9622   3.430   2.167  12.235  0.1004  0.2087 -0.7849
  650TMC3    C6 9623   3.424   2.301  12.256  0.1228  0.0046  0.6469
  650TMC3     C 9624   3.585   2.056  12.529 -0.0503 -0.4180  0.7387
  650TMC3     O 9625   3.695   2.110  12.534  0.2260 -0.0309 -0.0022
  650TMC3     H 9626   3.540   2.296  12.575  0.8669  1.4578 -0.9021
  650TMC3    H1 9627   3.473   1.979  12.316 -0.8386 -0.1058  1.3805
  650TMC3    H2 9628   3.424   2.372  12.175 -1.0040 -0.4891  0.2214
  650TMC3    C7 9629   3.442   2.104  12.096 -0.5373 -0.0063  0.5160
  650TMC3    C8 9630   3.468   2.491  12.411  0.7442  0.0337 -0.9508
  650TMC3    O1 9631   3.496   1.994  12.078  0.2057 -0.2480  0.0018
  650TMC3    O2 9632   3.555   2.535  12.487 -0.0558 -0.1859 -0.1795
  651MPD2     C 9633   2.822   4.328  10.517  0.0570  0.5308 -0.3680
  651MPD2    C1 9634   2.799   4.455  10.549  0.6063 -0.1984  0.3030
  651MPD2    C2 9635   2.905   4.552  10.544 -0.2375  0.7791  0.0671
  651MPD2    C3 9636   3.031   4.521  10.495  0.1700  0.2324 -0.2811
  651MPD2    C4 9637   3.042   4.398  10.441 -0.4119  0.6288  0.3822
  651MPD2    C5 9638   2.945   4.299  10.450  0.0297 -0.6104 -0.6417
  651MPD2     H 9639   2.893   4.654  10.579 -2.0548  1.2487 -1.9186
  651MPD2    H1 9640   3.129   4.373  10.381 -0.0183  0.1935  1.1410
  651MPD2    H2 9641   2.747   4.250  10.509  1.9618 -1.2851 -0.1991
  651MPD2    H3 9642   2.954   4.204  10.398 -0.7815 -0.5118 -0.9618
  651MPD2     N 9643   3.138   4.615  10.501 -0.5202  0.0307  0.1841
  651MPD2    H5 9644   3.112   4.708  10.531  0.7033 -0.2602  2.1453
  651MPD2    N1 9645   2.683   4.492  10.622 -0.7862 -0.7941  0.1002
  651MPD2    H7 9646   2.673   4.591  10.644 -0.4110 -0.5585 -0.7666
  652TMC3    C1 9647   3.578   0.044  10.444 -0.4834  0.4512 -0.6724
  652TMC3    C2 9648   3.494   4.660  10.463  0.2306  0.6128 -0.3802
  652TMC3    C3 9649   3.362   4.695  10.482  0.6053  0.7292  0.0192
  652TMC3    C4 9650   3.543   0.178  10.433 -1.1897  0.3135 -0.4503
  652TMC3    C5 9651   3.417   0.207  10.465 -0.2989  0.4209  0.1405
  652TMC3    C6 9652   3.323   0.107  10.496  0.1653  0.1601 -0.5519
  652TMC3     C 9653   3.720   0.018  10.460  0.0076  0.0461 -0.1524
  652TMC3     O 9654   3.744   4.642  10.527 -0.3949 -0.3168  0.7479
  652TMC3     H 9655   3.526   4.557  10.467  3.3104  1.6650  2.1675
  652TMC3    H1 9656   3.622   0.252  10.437 -0.5437 -0.4209  0.4136
  652TMC3    H2 9657   3.224   0.145  10.517  1.2071  2.7644 -0.3857
  652TMC3    C7 9658   3.393   0.341  10.513 -0.5270 -0.5096 -0.5872
  652TMC3    C8 9659   3.273   4.585  10.494  0.2282 -0.2604  0.1614
  652TMC3    O1 9660   3.296   0.363  10.583  0.0352 -0.2290  0.0764
  652TMC3    O2 9661   3.314   4.468  10.489 -0.8131 -0.3721  0.3490
  653MPD2     C 9662   0.724   4.275  17.617 -0.5399  0.4661  0.0611
  653MPD2    C1 9663   0.716   4.339  17.496  0.5195 -0.0915 -0.2040
  653MPD2    C2 9664   0.695   4.263  17.382 -0.4223 -0.6983 -0.8815
  653MPD2    C3 9665   0.663   4.131  17.397  0.4107  0.1707  0.1100
  653MPD2    C4 9666   0.675   4.070  17.516 -0.0197 -0.0375  1.2123
  653MPD2    C5 9667   0.718   4.139  17.628 -0.5035 -0.3851 -0.9396
  653MPD2     H 9668   0.666   4.322  17.295  1.7514 -2.8674 -3.0801
  653MPD2    H1 9669   0.650   3.966  17.530 -2.4357  0.4713  0.6590
  653MPD2    H2 9670   0.736   4.339   0.015 -2.2853  0.6742  0.1430
  653MPD2    H3 9671   0.743   4.084   0.030  1.2239  0.2845 -1.0049
  653MPD2     N 9672   0.606   4.064  17.282 -0.0085 -0.4165 -0.2650
  653MPD2    H5 9673   0.603   4.126  17.201  0.7788  0.8411  0.6658
  653MPD2    N1 9674   0.722   4.479  17.479  0.0540  0.4716 -0.2299
  653MPD2    H7 9675   0.710   4.519  17.386 -2.0673 -0.6792 -0.4597
  654TMC3    C1 9676   0.540   3.887  17.140 -0.0757  0.3356 -0.0122
  654TMC3    C2 9677   0.460   3.977  17.074 -0.5563  0.1763  0.5808
  654TMC3    C3 9678   0.421   3.945  16.950  0.1848 -0.0100 -0.6998
  654TMC3    C4 9679   0.577   3.774  17.080  0.3795  0.3599  0.4571
  654TMC3    C5 9680   0.543   3.751  16.945 -0.0633 -0.3311 -0.5227
  654TMC3    C6 9681   0.467   3.841  16.875  0.1922  0.2223  0.2270
  654TMC3     C 9682   0.594   3.926  17.268 -0.1791  0.3369 -0.3489
  654TMC3     O 9683   0.635   3.837  17.340  0.3687  0.0199  0.0546
  654TMC3     H 9684   0.406   4.049  17.135 -0.1281  0.6770  0.3606
  654TMC3    H1 9685   0.639   3.701  17.130 -0.3020  0.7038  1.8092
  654TMC3    H2 9686   0.446   3.823  16.770 -2.9327  2.3186  0.4720
  654TMC3    C7 9687   0.573   3.621  16.884  0.8304 -0.0181  0.3403
  654TMC3    C8 9688   0.303   4.023  16.907  0.0264  0.5197  0.6172
  654TMC3    O1 9689   0.590   3.624  16.762  0.1394  0.5873 -0.0242
  654TMC3    O2 9690   0.260   4.115  16.974  0.1976  0.1033  1.0513
  655MPD2     C 9691   2.283   4.279  15.787 -0.1225  0.0470 -0.6970
  655MPD2    C1 9692   2.172   4.285  15.708 -0.5129  0.5187  0.0415
  655MPD2    C2 9693   2.139   4.187  15.616 -0.0993 -0.3851  0.1899
  655MPD2    C3 9694   2.225   4.082  15.595  0.0446 -0.2540 -0.3952
  655MPD2    C4 9695   2.340   4.078  15.675  0.6331 -0.9742  0.0893
  655MPD2    C5 9696   2.363   4.173  15.767 -0.2535 -0.1417  0.2859
  655MPD2     H 9697   2.046   4.190  15.561  0.2264  0.8860 -0.3067
  655MPD2    H1 9698   2.413   3.998  15.676 -0.5080 -2.0332 -1.9815
  655MPD2    H2 9699   2.321   4.345  15.865  1.2643 -0.8538 -0.6141
  655MPD2    H3 9700   2.453   4.171  15.828 -0.1182 -1.1971  0.0417
  655MPD2     N 9701   2.199   3.971  15.501  0.0677 -0.0778 -0.2557
  655MPD2    H5 9702   2.267   3.896  15.511 -1.0616 -0.9465  0.7646
  655MPD2    N1 9703   2.088   4.397  15.711 -0.7990 -0.2869 -0.3678
  655MPD2    H7 9704   2.020   4.416  15.638 -1.0554  0.6864  0.1301
  656TMC3    C1 9705   1.980   4.582  15.816  0.1125  0.6181 -0.1029
  656TMC3    C2 9706   1.920   4.620  15.934  0.6915 -0.0801 -0.4311
  656TMC3    C3 9707   1.810   4.701  15.926 -0.0939  0.4309  0.3654
  656TMC3    C4 9708   1.937   4.632  15.698  0.6839  0.5652  0.2261
  656TMC3    C5 9709   1.834   0.012  15.704 -0.3769 -0.0970  0.0165
  656TMC3    C6 9710   1.764   0.050  15.814  0.6531  0.2131 -0.1076
  656TMC3     C 9711   2.073   4.467  15.826 -0.1716  0.0235 -0.2945
  656TMC3     O 9712   2.108   4.440  15.942 -0.6174  0.3946 -0.1326
  656TMC3     H 9713   1.942   4.583  16.033 -0.5246 -0.5495 -0.3320
  656TMC3    H1 9714   1.986   4.608  15.605  0.0784  1.9102 -0.4362
  656TMC3    H2 9715   1.687   0.126  15.810 -1.8717 -2.2153  1.8413
  656TMC3    C7 9716   1.780   0.041  15.576 -0.7144 -0.5548  0.0556
  656TMC3    C8 9717   1.705   4.662  16.013  0.7923 -0.5120 -0.1931
  656TMC3    O1 9718   1.856   0.032  15.481 -0.2128 -0.7042  0.1755
  656TMC3    O2 9719   1.703   4.546  16.045  0.6774  0.3738  0.0040
  657TMC3    C1 9720   1.922   3.382  14.765  0.0026  0.8222 -0.2040
  657TMC3    C2 9721   1.850   3.265  14.785  0.4752  0.0194 -0.2175
  657TMC3    C3 9722   1.762   3.238  14.682  0.0451 -0.1957 -0.0173
  657TMC3    C4 9723   1.912   3.452  14.645 -0.4063 -0.7164 -0.8442
  657TMC3    C5 9724   1.810   3.426  14.552 -0.8713  0.0304  0.6521
  657TMC3    C6 9725   1.729   3.317  14.574 -0.2082 -0.3132 -0.1839
  657TMC3     C 9726   2.025   3.410  14.854 -0.2195  0.8939  0.1596
  657TMC3     O 9727   2.115   3.483  14.810 -0.0113  0.4838  0.3963
  657TMC3     H 9728   1.858   3.198  14.869 -1.0327 -1.9241 -1.6096
  657TMC3    H1 9729   1.987   3.523  14.611  0.8617 -0.7289  1.8427
  657TMC3    H2 9730   1.664   3.286  14.493  0.8103  0.7482 -1.3908
  657TMC3    C7 9731   1.749   3.539  14.485  0.7714  0.2961  0.0265
  657TMC3    C8 9732   1.678   3.126  14.717  0.5327 -0.1801  0.6593
  657TMC3    O1 9733   1.632   3.523  14.461  0.0544 -0.0572 -0.1160
  657TMC3    O2 9734   1.721   3.031  14.780  0.2009 -0.0290 -0.5183
  658MPD2     C 9735   2.649   3.742  14.989 -0.1648  0.1776  0.0423
  658MPD2    C1 9736   2.543   3.827  14.968  0.0877  0.1875  0.2863
  658MPD2    C2 9737   2.540   3.924  14.867  0.2101  0.2273  0.0938
  658MPD2    C3 9738   2.662   3.941  14.798  0.6079  0.2562 -0.4514
  658MPD2    C4 9739   2.762   3.851  14.823 -0.0683 -0.9475 -0.1165
  658MPD2    C5 9740   2.758   3.751  14.917 -0.2967 -0.1233 -0.5406
  658MPD2     H 9741   2.451   3.984  14.855  0.2121  0.0967 -0.5687
  658MPD2    H1 9742   2.853   3.857  14.764 -1.1760 -2.2847 -1.9540
  658MPD2    H2 9743   2.645   3.676  15.075  1.8653  0.9131  0.7124
  658MPD2    H3 9744   2.844   3.694  14.951 -0.6955 -0.7330 -0.5659
  658MPD2     N 9745   2.677   4.048  14.707  0.6028 -0.3857 -0.1175
  658MPD2    H5 9746   2.604   4.119  14.707  0.1912 -0.8124 -0.1316
  658MPD2    N1 9747   2.430   3.800  15.052 -0.1342 -0.9580  0.8022
  658MPD2    H7 9748   2.444   3.743  15.135 -3.1831 -2.0673  0.5811
  659TMC3    C1 9749   2.190   3.806  15.111  0.2911 -0.3218  0.3364
  659TMC3    C2 9750   2.201   3.867  15.232 -0.6525 -0.4384  0.3743
  659TMC3    C3 9751   2.093   3.863  15.319 -0.0040  0.2631  0.3219
  659TMC3    C4 9752   2.080   3.746  15.072 -0.9042  0.1476 -0.4547
  659TMC3    C5 9753   1.971   3.735  15.161  0.6110  0.2536 -0.1515
  659TMC3    C6 9754   1.975   3.793  15.286  0.5824  0.2021  0.5815
  659TMC3     C 9755   2.297   3.828  15.015  0.1076  0.3130  0.1749
  659TMC3     O 9756   2.260   3.869  14.905  0.4506 -0.3798  0.9982
  659TMC3     H 9757   2.286   3.925  15.266 -0.7966 -0.2953  0.4938
  659TMC3    H1 9758   2.079   3.696  14.976  1.7973 -2.0870  0.6854
  659TMC3    H2 9759   1.891   3.780  15.353 -0.5936 -0.1579 -0.9758
  659TMC3    C7 9760   1.844   3.669  15.124  0.6207 -0.1723  0.2257
  659TMC3    C8 9761   2.092   3.962  15.425  0.4491 -0.5360 -1.2694
  659TMC3    O1 9762   1.773   3.635  15.218 -0.1769  0.2536 -0.3188
  659TMC3    O2 9763   1.984   4.017  15.435 -0.2752 -0.0578 -0.4968
  660MPD2     C 9764   1.008   2.852  12.559 -0.2185 -0.5362  0.1499
  660MPD2    C1 9765   0.877   2.876  12.522 -0.5533 -0.2301  0.0843
  660MPD2    C2 9766   0.773   2.810  12.586 -0.2539 -0.1816  0.6716
  660MPD2    C3 9767   0.803   2.723  12.691  0.8813  0.2617  0.4004
  660MPD2    C4 9768   0.935   2.691  12.727 -0.4785  0.5374 -0.2555
  660MPD2    C5 9769   1.033   2.757  12.654  0.2140 -0.5477 -0.3557
  660MPD2     H 9770   0.674   2.826  12.546 -0.6190 -1.9925  0.8394
  660MPD2    H1 9771   0.967   2.613  12.794  0.8106  1.4027  0.1412
  660MPD2    H2 9772   1.092   2.891  12.503 -0.5759 -0.6290 -0.4486
  660MPD2    H3 9773   1.137   2.738  12.679 -0.2575  0.6002  2.4026
  660MPD2     N 9774   0.700   2.666  12.771 -0.1220  0.0448 -0.2596
  660MPD2    H5 9775   0.739   2.602  12.840  1.1241  2.6805  1.4622
  660MPD2    N1 9776   0.852   2.978  12.427  0.0205 -0.2321 -0.1483
  660MPD2    H7 9777   0.931   3.032  12.393 -0.9051 -0.2512 -2.3282
  661TMC3    C1 9778   0.746   3.110  12.267 -0.1728  0.0076 -0.2073
  661TMC3    C2 9779   0.870   3.164  12.231 -0.0054  0.2830  0.0205
  661TMC3    C3 9780   0.869   3.291  12.177  0.0288 -0.0601  0.1674
  661TMC3    C4 9781   0.634   3.177  12.250 -0.2542 -0.0192 -0.4951
  661TMC3    C5 9782   0.637   3.306  12.213 -0.0046 -0.0125 -0.3107
  661TMC3    C6 9783   0.756   3.363  12.175  1.0983 -0.3178 -0.2263
  661TMC3     C 9784   0.733   3.004  12.365 -0.0764  0.4095  0.2054
  661TMC3     O 9785   0.615   2.965  12.384  0.3556  0.1985 -0.9421
  661TMC3     H 9786   0.966   3.115  12.240 -0.4570 -1.0725 -2.3747
  661TMC3    H1 9787   0.536   3.134  12.267  0.0320 -0.5406 -0.1752
  661TMC3    H2 9788   0.750   3.463  12.135 -1.3456 -0.7756 -1.0210
  661TMC3    C7 9789   0.519   3.367  12.155 -0.4163 -0.5887  0.4943
  661TMC3    C8 9790   0.985   3.327  12.087  0.2234 -0.6120  0.0959
  661TMC3    O1 9791   0.530   3.489  12.149 -0.3448 -0.1681 -0.3143
  661TMC3    O2 9792   1.082   3.250  12.088  0.0158 -0.2908 -0.3306
  662MPD2     C 9793   0.479   3.012  17.237  0.5261 -0.2942  0.0202
  662MPD2    C1 9794   0.453   2.956  17.357  0.3040 -0.2523  0.0309
  662MPD2    C2 9795   0.359   3.011  17.436 -0.1784 -0.1533 -0.3901
  662MPD2    C3 9796   0.292   3.129  17.403  0.0151  0.0187  0.6428
  662MPD2    C4 9797   0.315   3.187  17.284  0.1078  0.0412  0.2469
  662MPD2    C5 9798   0.404   3.119  17.194 -0.5409 -0.2452 -0.7660
  662MPD2     H 9799   0.334   2.959  17.528 -1.1607 -0.4325 -0.8138
  662MPD2    H1 9800   0.272   3.280  17.249 -0.9793 -0.2245  0.8690
  662MPD2    H2 9801   0.538   2.971  17.156 -0.1051 -2.2978  0.5754
  662MPD2    H3 9802   0.429   3.157  17.096  1.1434  0.7356  0.0489
  662MPD2     N 9803   0.208   3.195  17.495  0.4898 -0.0708  0.1239
  662MPD2    H5 9804   0.165   3.276  17.449 -1.6392 -0.9183  0.6019
  662MPD2    N1 9805   0.510   2.833  17.391  0.3644 -0.3533 -0.0252
  662MPD2    H7 9806   0.485   2.790  17.480  1.8101 -1.1213 -0.0076
  663TMC3    C1 9807   0.654   2.641  17.384  0.3280 -0.1629 -0.3109
  663TMC3    C2 9808   0.675   2.664  17.515 -0.1864  0.8989 -0.6440
  663TMC3    C3 9809   0.753   2.578  17.584  0.0029 -0.4264  0.1497
  663TMC3    C4 9810   0.703   2.536  17.317 -0.0434 -0.0887 -0.7354
  663TMC3    C5 9811   0.791   2.452  17.381 -0.4941  0.7858  0.1649
  663TMC3    C6 9812   0.811   2.476  17.513 -0.3641 -0.0505 -0.1602
  663TMC3     C 9813   0.575   2.737  17.310  0.8722  0.2124  0.8013
  663TMC3     O 9814   0.595   2.730  17.192  0.3749  0.1228 -0.4612
  663TMC3     H 9815   0.664   2.765  17.552 -0.8888  0.3172  0.7204
  663TMC3    H1 9816   0.685   2.517  17.212 -1.1397 -1.0179 -0.3905
  663TMC3    H2 9817   0.849   2.394  17.573  0.4091 -0.1412 -0.7634
  663TMC3    C7 9818   0.798   2.311  17.348 -0.2940  0.2273 -0.2042
  663TMC3    C8 9819   0.707   2.532   0.027 -0.4199 -0.2218 -0.0922
  663TMC3    O1 9820   0.896   2.248  17.397 -0.0993 -0.1440 -0.1504
  663TMC3    O2 9821   0.777   2.453   0.091 -0.9581 -0.5150  0.0506
  664MPD2     C 9822   2.902   1.196   0.281 -0.1005 -0.5683  0.3617
  664MPD2    C1 9823   2.942   1.331   0.304  0.6579 -0.3677 -0.7213
  664MPD2    C2 9824   3.025   1.359   0.409  0.0629 -0.2361 -0.1612
  664MPD2    C3 9825   3.063   1.257   0.493 -0.2690  0.2714  0.0610
  664MPD2    C4 9826   3.028   1.125   0.466 -0.0186 -0.3531 -0.1156
  664MPD2    C5 9827   2.939   1.095   0.369  0.1915 -0.2120 -0.3151
  664MPD2     H 9828   3.044   1.463   0.433 -0.1362 -0.2922  0.2466
  664MPD2    H1 9829   3.049   1.046   0.537 -0.9802 -1.5284 -1.1541
  664MPD2    H2 9830   2.852   1.156   0.194  2.6230 -0.7456 -1.1054
  664MPD2    H3 9831   2.893   0.998   0.380  2.6133 -1.1872  1.1579
  664MPD2     N 9832   3.124   1.295   0.614  0.3422  0.1028  0.2612
  664MPD2    H5 9833   3.111   1.394   0.629 -0.8363  0.0283 -0.2495
  664MPD2    N1 9834   2.909   1.436   0.202 -0.2061  0.2597 -0.4631
  664MPD2    H7 9835   2.942   1.529   0.223  2.8903 -1.5787  2.7593
  665TMC3    C1 9836   3.245   1.254   0.823 -0.0477  0.0211 -0.9676
  665TMC3    C2 9837   3.294   1.160   0.909 -0.5045 -0.6195 -0.1691
  665TMC3    C3 9838   3.303   1.187   1.044 -0.5783  1.0237  0.4114
  665TMC3    C4 9839   3.211   1.374   0.862  0.1333  0.4264 -0.4670
  665TMC3    C5 9840   3.229   1.405   0.993  0.3815  0.2567 -0.3008
  665TMC3    C6 9841   3.275   1.312   1.086 -0.1153  0.2384  0.0627
  665TMC3     C 9842   3.201   1.205   0.693 -0.1353  0.2843  0.2847
  665TMC3     O 9843   3.244   1.098   0.663 -0.0202 -0.1326  0.2266
  665TMC3     H 9844   3.331   1.066   0.871 -2.8241 -0.8548 -1.8817
  665TMC3    H1 9845   3.142   1.429   0.799  2.8201  2.7652 -1.3824
  665TMC3    H2 9846   3.265   1.325   1.193  0.4309  1.8732 -0.0990
  665TMC3    C7 9847   3.181   1.532   1.041  0.3827  0.3116 -0.0570
  665TMC3    C8 9848   3.323   1.080   1.138  0.6413 -0.3407 -0.0147
  665TMC3    O1 9849   3.110   1.594   0.962 -0.3100 -0.0486  0.0786
  665TMC3    O2 9850   3.372   1.123   1.245  0.3147 -0.5452  0.3296
  666TMC3    C1 9851   3.447   0.986   9.710  0.0864  1.0454 -1.0081
  666TMC3    C2 9852   3.509   0.981   9.586 -0.5345 -0.3011 -0.1368
  666TMC3    C3 9853   3.536   1.094   9.518 -0.0901  0.0238 -0.5001
  666TMC3    C4 9854   3.411   1.112   9.758  0.2083 -0.1756 -0.0516
  666TMC3    C5 9855   3.447   1.227   9.695 -0.6997  0.1453  1.0011
  666TMC3    C6 9856   3.513   1.220   9.572 -0.1752  0.2419  0.8797
  666TMC3     C 9857   3.432   0.866   9.785 -0.7433  0.5805  0.3767
  666TMC3     O 9858   3.436   0.758   9.731 -0.4166  0.0169  0.4466
  666TMC3     H 9859   3.541   0.887   9.543 -2.5459 -1.4806  0.8956
  666TMC3    H1 9860   3.364   1.124   9.855 -1.3452  1.1221 -0.9588
  666TMC3    H2 9861   3.545   1.303   9.511  0.9968  0.8012  2.2429
  666TMC3    C7 9862   3.455   1.354   9.772  0.3093 -0.6410  0.6751
  666TMC3    C8 9863   3.614   1.074   9.397  0.6287 -0.3755  0.2086
  666TMC3    O1 9864   3.409   1.351   9.885  0.0795  0.5287 -0.3904
  666TMC3    O2 9865   3.553   1.030   9.303 -0.1262  0.1348 -0.1807
  667MPD2     C 9866   4.293   1.260  14.480  0.1644  0.6774  0.0139
  667MPD2    C1 9867   4.340   1.245  14.604  0.0681 -0.0129  0.5249
  667MPD2    C2 9868   4.314   1.134  14.677  0.2175  0.7805  0.1447
  667MPD2    C3 9869   4.240   1.028  14.612  0.2917 -0.0165  0.2166
  667MPD2    C4 9870   4.202   1.043  14.481  0.2832  0.2903 -0.0753
  667MPD2    C5 9871   4.231   1.156  14.417  0.3498  0.3725 -0.7273
  667MPD2     H 9872   4.354   1.116  14.776 -1.7376 -1.8516  0.4440
  667MPD2    H1 9873   4.146   0.966  14.428  0.5944 -0.2526  0.3880
  667MPD2    H2 9874   4.312   1.339  14.408  0.9020  3.1697  2.9539
  667MPD2    H3 9875   4.208   1.149  14.311  0.8615 -1.9098 -0.6875
  667MPD2     N 9876   4.207   0.908  14.672  0.0283 -0.8518 -0.0938
  667MPD2    H5 9877   4.165   0.837  14.612 -1.0450  1.3603 -1.9721
  667MPD2    N1 9878   4.440   1.325  14.656 -0.3583 -0.1554 -0.7890
  667MPD2    H7 9879   4.499   1.294  14.733 -1.7174 -2.3379 -0.6066
  668TMC3    C1 9880   4.584   1.518  14.689  0.0885  0.3080 -0.3470
  668TMC3    C2 9881   4.609   1.651  14.664  1.0204  0.1644  0.5661
  668TMC3    C3 9882   4.657   1.720  14.770  0.0596 -0.1870  0.4988
  668TMC3    C4 9883   4.620   1.449  14.798  0.0336  0.7364  0.4354
  668TMC3    C5 9884   4.668   1.523  14.896 -0.4958 -0.3547 -0.0864
  668TMC3    C6 9885   4.680   1.656  14.889 -0.2149 -0.5812 -0.0711
  668TMC3     C 9886   4.479   1.456  14.611  0.3030  0.2374  0.6641
  668TMC3     O 9887   4.436   1.524  14.517 -0.6555  0.3985 -0.7376
  668TMC3     H 9888   4.585   1.703  14.573  1.2802  0.0220  0.4158
  668TMC3    H1 9889   4.640   1.342  14.801  0.7126  0.7527 -3.6470
  668TMC3    H2 9890   0.010   1.715  14.964 -1.0865 -2.9741  2.4128
  668TMC3    C7 9891   4.677   1.457  15.028 -0.2056  0.3187 -0.6795
  668TMC3    C8 9892   4.706   1.859  14.761  0.2086  0.0334  0.5679
  668TMC3    O1 9893   0.011   1.530  15.108  0.4883 -0.5090 -0.0701
  668TMC3    O2 9894   0.021   1.911  14.864  0.3230 -0.0334 -0.3633
  669TMC3    C1 9895   2.538   0.694  14.661  0.0793 -0.3333  0.5172
  669TMC3    C2 9896   2.407   0.679  14.645  0.1609  0.1390  0.9690
  669TMC3    C3 9897   2.350   0.795  14.595  0.1827 -0.1242 -0.2867
  669TMC3    C4 9898   2.608   0.795  14.608 -0.1617  0.2441  0.3998
  669TMC3    C5 9899   2.543   0.904  14.569 -0.5130  0.0828 -0.2151
  669TMC3    C6 9900   2.415   0.908  14.555 -0.6461 -0.1587 -0.4216
  669TMC3     C 9901   2.621   0.579  14.687 -0.2577  0.6317 -0.5749
  669TMC3     O 9902   2.731   0.576  14.633  0.2012  0.2975 -0.1833
  669TMC3     H 9903   2.353   0.589  14.674 -1.3818  0.5589 -0.5904
  669TMC3    H1 9904   2.716   0.803  14.613 -0.0834 -1.0340  0.8796
  669TMC3    H2 9905   2.361   0.983  14.498  2.8041  1.6176 -1.3193
  669TMC3    C7 9906   2.619   1.011  14.507 -0.2847 -1.1568  0.4896
  669TMC3    C8 9907   2.204   0.790  14.569 -0.2054 -0.7606 -0.0722
  669TMC3    O1 9908   2.727   1.044  14.555  0.4993 -0.0196  0.1906
  669TMC3    O2 9909   2.137   0.687  14.561 -0.4345 -0.6750  0.0684
  670MPD2     C 9910   0.887   3.959  13.371  0.2445 -0.4047 -0.0620
  670MPD2    C1 9911   0.968   3.916  13.471 -0.9535  0.2660  0.1737
  670MPD2    C2 9912   0.919   3.867  13.594  0.0767  0.1540  0.2466
  670MPD2    C3 9913   0.781   3.879  13.611 -0.7873  0.4407 -0.1069
  670MPD2    C4 9914   0.696   3.920  13.510 -0.3325  0.5957 -0.3544
  670MPD2    C5 9915   0.756   3.966  13.399  0.3344 -0.0335  0.4767
  670MPD2     H 9916   0.980   3.810  13.663  1.0275  0.0130 -0.7164
  670MPD2    H1 9917   0.588   3.921  13.511 -0.3373  1.5475 -1.9489
  670MPD2    H2 9918   0.927   4.002  13.280  0.9250  1.9765  1.3449
  670MPD2    H3 9919   0.692   4.014  13.326  0.1129  1.0146  1.3559
  670MPD2     N 9920   0.728   3.822  13.730  0.3197  0.6153 -0.6366
  670MPD2    H5 9921   0.794   3.787  13.799 -0.4774  0.4939  0.0613
  670MPD2    N1 9922   1.109   3.920  13.462  1.0881 -0.5345 -0.6772
  670MPD2    H7 9923   1.158   3.888  13.545 -1.4059  0.1189  1.0513
  671TMC3    C1 9924   0.574   3.689  13.861 -0.7571  0.3118 -0.0530
  671TMC3    C2 9925   0.633   3.709  13.986  0.2930  0.5539  0.2257
  671TMC3    C3 9926   0.576   3.634  14.089 -0.2422  0.5790  0.0305
  671TMC3    C4 9927   0.484   3.594  13.831 -0.0026 -0.2958 -0.3964
  671TMC3    C5 9928   0.439   3.517  13.930  0.3410 -0.2274 -0.8597
  671TMC3    C6 9929   0.488   3.535  14.060  0.3105  0.0345  0.5603
  671TMC3     C 9930   0.596   3.788  13.749 -0.1773  0.3894 -0.0956
  671TMC3     O 9931   0.494   3.811  13.688  0.1174  0.1855 -0.5056
  671TMC3     H 9932   0.687   3.799  14.011  0.5159  0.3131  0.6116
  671TMC3    H1 9933   0.427   3.592  13.738 -0.0282  0.2105 -0.3915
  671TMC3    H2 9934   0.449   3.483  14.147  0.2859  0.1158  0.5978
  671TMC3    C7 9935   0.351   3.410  13.896  0.2215  0.5703 -0.4269
  671TMC3    C8 9936   0.671   3.592  14.186  0.1781 -0.1237  0.0568
  671TMC3    O1 9937   0.337   3.400  13.775 -0.3735  0.0259  0.3788
  671TMC3    O2 9938   0.661   3.632  14.300 -0.2770  0.5685 -0.0769
  672MPD2     C 9939   0.347   4.558   1.933  0.8180 -0.4340 -0.6385
  672MPD2    C1 9940   0.333   4.595   1.800  0.1059 -0.3623 -0.1738
  672MPD2    C2 9941   0.407   4.699   1.744 -0.5360 -0.3586  0.4865
  672MPD2    C3 9942   0.502   0.037   1.823  0.2548 -0.0401 -0.5600
  672MPD2    C4 9943   0.527   4.717   1.951  0.1794 -0.7783 -0.6855
  672MPD2    C5 9944   0.441   4.619   2.008 -0.7247 -0.1655  0.6223
  672MPD2     H 9945   0.382   0.007   1.643  0.1758  0.4191  0.5405
  672MPD2    H1 9946   0.612   0.044   1.997  0.2279 -1.0870 -0.4464
  672MPD2    H2 9947   0.299   4.471   1.978 -0.6209  1.4603  1.5006
  672MPD2    H3 9948   0.469   4.585   2.107  1.8926 -0.1928 -0.1132
  672MPD2     N 9949   0.589   0.136   1.777  0.6266 -0.1013  0.4878
  672MPD2    H5 9950   0.664   0.164   1.839  1.6660  4.9382 -3.0008
  672MPD2    N1 9951   0.248   4.528   1.709 -0.0797  0.0361  0.1864
  672MPD2    H7 9952   0.249   4.571   1.617  2.1285  0.3248  0.3360
  673TMC3    C1 9953   0.090   4.403   1.629 -0.3234 -0.1831  0.0724
  673TMC3    C2 9954   0.109   4.290   1.566 -0.8684  0.2043 -0.0762
  673TMC3    C3 9955   0.109   4.293   1.430  0.4748 -0.0464  0.0469
  673TMC3    C4 9956   0.072   4.519   1.555  0.0748 -0.2600  0.3155
  673TMC3    C5 9957   0.065   4.529   1.416 -0.2565 -0.4222  0.0125
  673TMC3    C6 9958   0.079   4.408   1.355  0.0366  0.7374  0.1486
  673TMC3     C 9959   0.173   4.421   1.741 -0.0822 -0.5537 -0.1028
  673TMC3     O 9960   0.201   4.332   1.821 -0.0507 -0.2143 -0.0930
  673TMC3     H 9961   0.126   4.202   1.628 -0.9726  0.1567 -0.1161
  673TMC3    H1 9962   0.044   4.614   1.599  1.0961  0.4836 -0.6182
  673TMC3    H2 9963   0.085   4.390   1.248  1.5350 -1.0023  0.5277
  673TMC3    C7 9964   0.111   4.656   1.358 -0.0351 -0.1408 -0.4142
  673TMC3    C8 9965   0.168   4.186   1.360 -0.0836  0.1948 -0.3950
  673TMC3    O1 9966   0.154   0.012   1.446  0.2378  0.6719 -0.0486
  673TMC3    O2 9967   0.139   4.074   1.397  0.1024  0.6018 -0.6048
  674MPD2     C 9968   0.272   4.315   0.759 -0.2334  0.3759  0.7532
  674MPD2    C1 9969   0.266   4.200   0.675 -0.0039 -0.5329 -0.1133
  674MPD2    C2 9970   0.180   4.098   0.702  1.0140 -0.2854  0.3088
  674MPD2    C3 9971   0.105   4.102   0.822  0.0834 -0.6319  0.2872
  674MPD2    C4 9972   0.119   4.209   0.911  0.2828 -0.4788  0.0991
  674MPD2    C5 9973   0.201   4.311   0.871  0.6736  0.5676  0.7211
  674MPD2     H 9974   0.165   4.012   0.637  1.0997 -1.1836  1.4630
  674MPD2    H1 9975   0.068   4.222   1.006  0.5463  0.2500  0.1355
  674MPD2    H2 9976   0.348   4.392   0.753  0.3720 -0.0453  3.0920
  674MPD2    H3 9977   0.208   4.396   0.938  1.1006 -0.7069  2.3043
  674MPD2     N 9978   0.020   3.994   0.843 -0.0720 -0.3816  0.0164
  674MPD2    H5 9979   0.016   3.917   0.777  0.2613  1.4892 -2.1944
  674MPD2    N1 9980   0.364   4.181   0.568 -0.0063  0.1564  0.1022
  674MPD2    H7 9981   0.365   4.089   0.526 -1.1481 -0.0629  0.5495
  675TMC3    C1 9982   0.579   4.206   0.486  0.1366  0.2969  0.4627
  675TMC3    C2 9983   0.611   4.081   0.534  0.5285 -0.4524  0.1617
  675TMC3    C3 9984   0.724   4.021   0.490  0.3847  0.0652 -0.2042
  675TMC3    C4 9985   0.661   4.277   0.398 -0.3576 -0.2322  0.7129
  675TMC3    C5 9986   0.785   4.214   0.370  0.6706  0.1794 -0.3964
  675TMC3    C6 9987   0.809   4.081   0.403  0.2962 -0.0030 -0.5266
  675TMC3     C 9988   0.463   4.274   0.542  0.5319  0.3806  0.7592
  675TMC3     O 9989   0.449   4.397   0.542 -0.6948  0.6578  0.8665
  675TMC3     H 9990   0.547   4.032   0.606  0.6467 -1.6689 -0.5511
  675TMC3    H1 9991   0.639   4.380   0.371  2.1940  0.2128  0.3011
  675TMC3    H2 9992   0.896   4.030   0.364  0.1200  0.0449 -0.9858
  675TMC3    C7 9993   0.887   4.277   0.283  0.4755 -0.4415 -0.0650
  675TMC3    C8 9994   0.752   3.880   0.511  0.0802 -0.2325  0.7201
  675TMC3    O1 9995   0.950   4.208   0.205  0.2990 -0.1121  0.5572
  675TMC3    O2 9996   0.782   3.817   0.412 -0.3356 -0.2968 -0.3038
  676MPD2     C 9997   3.742   2.466  11.323  0.2356 -0.0155  0.2925
  676MPD2    C1 9998   3.701   2.368  11.416  0.3606  0.9247 -0.0022
  676MPD2    C2 9999   3.706   2.230  11.378 -0.0476  0.1713  0.3427
  676MPD2    C310000   3.747   2.188  11.252  0.0680 -0.6538  0.2577
  676MPD2    C410001   3.787   2.290  11.168 -0.4122  0.4275  0.2040
  676MPD2    C510002   3.771   2.428  11.195  0.0590 -0.3068 -0.3838
  676MPD2     H10003   3.676   2.161  11.455 -1.4864 -1.0982 -1.3587
  676MPD2    H110004   3.817   2.275  11.065  0.5421 -0.4768  0.6282
  676MPD2    H210005   3.752   2.571  11.348 -3.0279 -0.2028  2.4110
  676MPD2    H310006   3.781   2.503  11.117  1.2463  0.9709  1.0075
  676MPD2     N10007   3.741   2.054  11.199 -0.3460 -0.2515  0.3078
  676MPD2    H510008   3.775   2.048  11.104 -0.6605  0.0968  0.1704
  676MPD2    N110009   3.665   2.401  11.546  0.0022 -0.2268 -0.1376
  676MPD2    H710010   3.649   2.323  11.609 -0.3609  0.2963  0.4219
  677TMC3    C110011   3.628   2.521  11.745  0.1197 -0.3079  0.6307
  677TMC3    C210012   3.647   2.407  11.819 -0.5775 -0.0482  0.2750
  677TMC3    C310013   3.656   2.412  11.955  0.2440 -0.0644  0.0778
  677TMC3    C410014   3.612   2.635  11.810 -0.2849  0.7652  0.1699
  677TMC3    C510015   3.626   2.643  11.948  0.5243 -0.4650 -0.9515
  677TMC3    C610016   3.648   2.530  12.022 -0.0857  0.0413 -0.6564
  677TMC3     C10017   3.651   2.524  11.601 -0.2899 -0.0081 -0.1905
  677TMC3     O10018   3.647   2.633  11.553 -0.1202 -0.5555 -0.5561
  677TMC3     H10019   3.674   2.312  11.774  1.4677  1.7064 -2.2088
  677TMC3    H110020   3.595   2.727  11.756  0.5642 -0.2279 -1.7739
  677TMC3    H210021   3.667   2.537  12.128  0.0146 -1.1704 -0.5971
  677TMC3    C710022   3.716   2.755  11.989 -0.4446 -0.4492  0.0154
  677TMC3    C810023   3.708   2.306  12.040 -0.6589  0.1658  0.5227
  677TMC3    O110024   3.713   2.795  12.107 -0.3772 -0.3344  0.3090
  677TMC3    O210025   3.689   2.316  12.161  0.0538 -0.6177  0.7153
  678MPD2     C10026   4.294   2.604   1.852 -0.2680 -0.2330 -0.1403
  678MPD2    C110027   4.220   2.534   1.761 -0.4003  0.5038 -0.0566
  678MPD2    C210028   4.092   2.490   1.802 -0.4935 -0.3958  0.2936
  678MPD2    C310029   4.036   2.542   1.923  0.2351  0.2455 -0.0723
  678MPD2    C410030   4.111   2.616   2.006 -0.2880  1.0982 -0.4493
  678MPD2    C510031   4.235   2.650   1.967  0.5295 -0.2855  0.6783
  678MPD2     H10032   4.023   2.428   1.745 -0.2233 -1.0132  0.6364
  678MPD2    H110033   4.072   2.641   2.104 -0.4540  0.7751 -0.4318
  678MPD2    H210034   4.393   2.642   1.830 -0.5088  0.9706  0.8313
  678MPD2    H310035   4.291   2.719   2.029 -0.4028  0.6803  0.4498
  678MPD2     N10036   3.905   2.504   1.951  0.2493  0.6506  0.4753
  678MPD2    H510037   3.871   2.437   1.883 -0.7055  0.9061  0.6958
  678MPD2    N110038   4.276   2.477   1.647 -0.6228 -0.5645  0.1044
  678MPD2    H710039   4.224   2.416   1.585  0.5623  0.4529 -1.8541
  679TMC3    C110040   4.458   2.229   1.368  0.1374 -0.1838  0.3403
  679TMC3    C210041   4.418   2.305   1.473  0.1208 -0.1047 -0.1872
  679TMC3    C310042   4.421   2.440   1.475 -0.2867  0.5116 -0.5891
  679TMC3    C410043   4.478   2.294   1.245 -0.2910 -0.5643  0.2693
  679TMC3    C510044   4.493   2.433   1.252 -0.5070 -0.8797 -0.1956
  679TMC3    C610045   4.457   2.503   1.362  0.3669  0.1392 -0.1274
  679TMC3     C10046   4.525   2.102   1.380  0.0671 -0.6724  0.0709
  679TMC3     O10047   4.546   2.040   1.276  0.2969 -0.3482 -0.1117
  679TMC3     H10048   4.414   2.260   1.572  1.2514  1.6480  0.6562
  679TMC3    H110049   4.530   2.246   1.163  0.1775  1.2747 -0.5097
  679TMC3    H210050   4.462   2.611   1.371 -1.5740  0.3646 -1.8555
  679TMC3    C710051   4.521   2.512   1.128  0.0376 -0.1087  0.1707
  679TMC3    C810052   4.392   2.514   1.589 -0.8210 -0.0341 -0.3152
  679TMC3    O110053   4.540   2.633   1.143  0.1449 -0.1826 -0.4094
  679TMC3    O210054   4.457   2.615   1.611 -0.0142 -0.5151  0.1198
  680MPD2     C10055   0.429   0.894  13.335  0.5216  0.1422 -0.1855
  680MPD2    C110056   0.458   0.835  13.460 -0.6220  0.9469 -0.4395
  680MPD2    C210057   0.479   0.922  13.568 -0.0062 -0.5221  0.8546
  680MPD2    C310058   0.463   1.060  13.550  0.2893 -0.2822 -0.5543
  680MPD2    C410059   0.420   1.109  13.427  0.3338 -0.2158  0.8920
  680MPD2    C510060   0.406   1.030  13.315  0.1189 -0.0291  0.1357
  680MPD2     H10061   0.524   0.877  13.655 -1.0580  0.8096  2.0994
  680MPD2    H110062   0.395   1.213  13.411 -1.7508 -0.8920 -0.3466
  680MPD2    H210063   0.395   0.834  13.252 -1.5297  0.6471  0.2813
  680MPD2    H310064   0.388   1.070  13.216 -0.8596 -0.6951  0.0430
  680MPD2     N10065   0.480   1.148  13.656  0.1454 -0.0323 -0.4451
  680MPD2    H510066   0.476   1.245  13.629  1.3457  0.4733  1.2257
  680MPD2    N110067   0.460   0.695  13.484 -0.2077 -0.3756 -0.5395
  680MPD2    H710068   0.466   0.661  13.580  0.8522 -0.2234 -0.5498
  681TMC3    C110069   0.429   0.462  13.440  0.2098  0.4165 -0.0068
  681TMC3    C210070   0.374   0.439  13.565  0.5367  0.8576 -0.2100
  681TMC3    C310071   0.356   0.310  13.593 -0.0879 -0.2237  0.6315
  681TMC3    C410072   0.487   0.364  13.362 -0.2295 -0.6690 -1.1467
  681TMC3    C510073   0.481   0.233  13.407  0.1274 -0.2097  0.6346
  681TMC3    C610074   0.417   0.207  13.523  0.1188  0.3307 -0.2575
  681TMC3     C10075   0.437   0.596  13.390 -0.1333 -0.1628  0.0148
  681TMC3     O10076   0.414   0.610  13.269 -0.0500 -0.3148 -0.3285
  681TMC3     H10077   0.321   0.514  13.622 -0.7564  0.5034 -0.9295
  681TMC3    H110078   0.514   0.389  13.260 -0.6587 -1.2019 -1.3946
  681TMC3    H210079   0.420   0.108  13.567  1.5692  0.3411 -0.3611
  681TMC3    C710080   0.533   0.128  13.323 -0.1760  0.2578 -0.5326
  681TMC3    C810081   0.293   0.268  13.726  0.0912 -0.6153 -0.4850
  681TMC3    O110082   0.502   0.013  13.351 -0.0147  0.0375 -0.0214
  681TMC3    O210083   0.242   0.157  13.724  0.0500  0.0048  0.4029
  682MPD2     C10084   3.138   2.337  10.651  0.1200 -0.0570 -0.1295
  682MPD2    C110085   3.072   2.220  10.646  0.1004 -0.1127  0.7299
  682MPD2    C210086   2.951   2.218  10.706 -0.0153  0.4074  0.4675
  682MPD2    C310087   2.890   2.324  10.764  0.1749  0.0547  0.1434
  682MPD2    C410088   2.953   2.439  10.757 -0.7373  0.4234 -0.0122
  682MPD2    C510089   3.075   2.446  10.695  0.0200  0.4939  0.3101
  682MPD2     H10090   2.899   2.123  10.706  0.1019  0.3708 -2.6907
  682MPD2    H110091   2.911   2.525  10.806  0.3110  0.7843  0.2467
  682MPD2    H210092   3.239   2.341  10.613  0.2851  2.6842  0.6061
  682MPD2    H310093   3.123   2.543  10.691 -2.5497  1.7043 -0.7056
  682MPD2     N10094   2.753   2.337  10.795  0.2943  0.2303  0.0050
  682MPD2    H510095   2.724   2.423  10.841  0.2648 -1.7615  3.7091
  682MPD2    N110096   3.116   2.107  10.578 -0.2236 -0.2081  0.1763
  682MPD2    H710097   3.067   2.020  10.591  0.0489 -0.8486 -2.9995
  683TMC3    C110098   2.481   2.319  11.095  0.1426  0.2305  0.5555
  683TMC3    C210099   2.377   2.237  11.080  0.0926 -0.3206  0.1193
  683TMC3    C310100   2.351   2.168  10.965 -0.0511  0.1709  0.8034
  683TMC3    C410101   2.563   2.336  10.986  0.2860 -0.1337  0.2750
  683TMC3    C510102   2.545   2.263  10.871  0.7316 -0.3178 -0.0890
  683TMC3    C610103   2.440   2.178  10.860 -0.0900  0.8526 -0.0243
  683TMC3     C10104   2.522   2.357  11.230 -0.5871  0.1880  0.4100
  683TMC3     O10105   2.578   2.466  11.248  0.4527  0.4130 -0.3055
  683TMC3     H10106   2.301   2.236  11.157 -1.9730  1.6554 -1.8597
  683TMC3    H110107   2.658   2.378  11.020 -0.4199 -0.6397  2.8648
  683TMC3    H210108   2.436   2.119  10.769  0.3105 -0.7414  1.0029
  683TMC3    C710109   2.666   2.228  10.798  0.1396 -0.1914 -0.5037
  683TMC3    C810110   2.239   2.076  10.956  0.5128 -0.0060 -0.0512
  683TMC3    O110111   2.677   2.122  10.741  0.1845  0.4554  0.5244
  683TMC3    O210112   2.168   2.075  10.854  0.1362  0.1054 -0.0734
  684MPD2     C10113   0.192   1.468  16.383 -0.2861  0.6312  0.4355
  684MPD2    C110114   0.188   1.532  16.260 -0.1741 -0.7985 -0.0318
  684MPD2    C210115   0.223   1.664  16.259  0.4345 -0.4213 -0.2358
  684MPD2    C310116   0.278   1.726  16.369 -0.2357  0.2239  0.3635
  684MPD2    C410117   0.271   1.665  16.490 -0.2254 -0.3035  0.5995
  684MPD2    C510118   0.226   1.536  16.504 -0.1724  0.0204  0.0498
  684MPD2     H10119   0.232   1.702  16.158  1.7381 -1.8726 -0.6620
  684MPD2    H110120   0.305   1.721  16.577 -1.0698 -0.3678  0.9797
  684MPD2    H210121   0.156   1.367  16.395  2.6296 -0.0949  2.9300
  684MPD2    H310122   0.220   1.491  16.602 -1.4470  3.0488  1.3722
  684MPD2     N10123   0.359   1.833  16.344  0.2449 -0.1496  0.8909
  684MPD2    H510124   0.425   1.852  16.419  0.6919  0.6925  0.2843
  684MPD2    N110125   0.158   1.470  16.137 -0.5155  0.3320  0.4067
  684MPD2    H710126   0.147   1.535  16.060  1.7085 -2.1668 -2.0259
  685TMC3    C110127   0.162   1.309  15.971  0.1633  0.5496 -0.8781
  685TMC3    C210128   0.131   1.411  15.888  0.2147  0.9702 -0.3048
  685TMC3    C310129   0.213   1.434  15.777 -1.0032  0.2146 -0.3595
  685TMC3    C410130   0.268   1.227  15.948  0.8433  0.0040 -0.4931
  685TMC3    C510131   0.351   1.257  15.845  0.3713 -0.5127 -0.2046
  685TMC3    C610132   0.333   1.365  15.763 -0.2391  1.2391 -0.3827
  685TMC3     C10133   0.137   1.336  16.113  0.3505  0.0871 -0.0332
  685TMC3     O10134   0.162   1.246  16.187  0.5573  0.0851 -0.4238
  685TMC3     H10135   0.030   1.446  15.906  0.0659  0.1446  0.4869
  685TMC3    H110136   0.298   1.155  16.023 -0.8980  0.8434  1.0149
  685TMC3    H210137   0.385   1.380  15.669  1.6779 -3.4995 -0.0925
  685TMC3    C710138   0.495   1.241  15.876  0.1535  0.9233  0.2776
  685TMC3    C810139   0.154   1.487  15.656  0.2065 -0.2862  0.5636
  685TMC3    O110140   0.514   1.153  15.960  0.3342  0.4698 -0.3948
  685TMC3    O210141   0.183   1.431  15.557  0.2159 -0.0247  0.6645
  686MPD2     C10142   2.088   0.763  15.264  0.3078 -0.5654 -0.1698
  686MPD2    C110143   1.955   0.737  15.306 -0.0938  0.0258 -0.0140
  686MPD2    C210144   1.895   0.614  15.271  0.0187  0.3061 -0.0282
  686MPD2    C310145   1.974   0.510  15.224 -0.0694 -0.3355  1.1806
  686MPD2    C410146   2.106   0.535  15.192  0.2901 -0.4213 -0.1359
  686MPD2    C510147   2.157   0.661  15.210 -0.6259  0.1484 -0.1807
  686MPD2     H10148   1.790   0.600  15.293 -0.0300  1.0426  0.1864
  686MPD2    H110149   2.166   0.458  15.145 -1.8136 -3.6678  2.4785
  686MPD2    H210150   2.131   0.863  15.270 -0.0305 -0.4440  0.2498
  686MPD2    H310151   2.262   0.675  15.189 -0.0852 -0.1512  2.2942
  686MPD2     N10152   1.923   0.374  15.192 -0.1935  0.1346 -0.3805
  686MPD2    H510153   1.982   0.306  15.145  1.0221 -0.2517  1.7084
  686MPD2    N110154   1.894   0.842  15.379 -0.4091  0.0396  0.3637
  686MPD2    H710155   1.948   0.927  15.395 -0.9571  0.4122  0.2390
  687TMC3    C110156   1.745   0.361  15.352  0.7916  0.3694  0.3412
  687TMC3    C210157   1.613   0.381  15.381  0.1747  0.3135 -0.0303
  687TMC3    C310158   1.579   0.409  15.517 -0.6062  0.1827 -0.0335
  687TMC3    C410159   1.840   0.360  15.450 -0.0118  0.3529 -0.0366
  687TMC3    C510160   1.810   0.404  15.576 -0.1719 -0.0100 -0.1785
  687TMC3    C610161   1.683   0.431  15.605  0.0398 -0.1889  0.1909
  687TMC3     C10162   1.798   0.325  15.218 -0.2443 -0.1523  0.3410
  687TMC3     O10163   1.742   0.240  15.150 -0.1303  0.0604 -0.1858
  687TMC3     H10164   1.539   0.373  15.302 -1.4054  1.4102  1.3560
  687TMC3    H110165   1.938   0.320  15.425 -0.8149 -0.8479 -1.2200
  687TMC3    H210166   1.662   0.472  15.703  2.8618 -0.2954  0.8266
  687TMC3    C710167   1.907   0.491  15.642 -0.1473  0.1044 -0.4349
  687TMC3    C810168   1.455   0.479  15.535 -0.3552 -0.2693 -0.3103
  687TMC3    O110169   1.875   0.550  15.746  0.1963  0.2251 -0.1276
  687TMC3    O210170   1.395   0.441  15.631 -0.2285 -0.1237 -0.1637
  688MPD2     C10171   0.999   0.306  17.020 -0.5525 -0.3705  0.4752
  688MPD2    C110172   1.052   0.202  17.102  0.3806  1.4286 -1.2750
  688MPD2    C210173   1.172   0.145  17.065  0.1277 -0.1551  0.2995
  688MPD2    C310174   1.234   0.188  16.951 -0.1097  0.2853 -0.0631
  688MPD2    C410175   1.174   0.276  16.868 -0.4761  0.6196  0.0532
  688MPD2    C510176   1.057   0.338  16.898 -0.8727  0.5387 -0.4167
  688MPD2     H10177   1.204   0.060  17.125 -0.7588  1.2717  2.8009
  688MPD2    H110178   1.239   0.294  16.783  0.1309  0.4227  0.4803
  688MPD2    H210179   0.904   0.353  17.044 -0.0526 -0.9011  3.5289
  688MPD2    H310180   1.013   0.409  16.829  0.1884  0.2175 -1.4231
  688MPD2     N10181   1.357   0.128  16.899 -0.1331  0.1495  0.1618
  688MPD2    H510182   1.399   0.159  16.812 -0.4948 -2.1602 -0.8109
  688MPD2    N110183   0.991   0.152  17.223 -0.2935 -1.2470  0.3035
  688MPD2    H710184   1.045   0.078  17.267 -0.6459 -1.4803  0.3540
  689TMC3    C110185   0.850   0.158  17.425  0.8465 -0.5107 -0.5599
  689TMC3    C210186   0.805   0.253  17.515 -0.3989 -0.1415 -0.0197
  689TMC3    C310187   0.735   0.212  17.623 -0.0294 -0.2760 -0.2247
  689TMC3    C410188   0.815   0.025  17.439  0.4013  0.2471 -0.0812
  689TMC3    C510189   0.736   4.708  17.548 -0.7166 -0.4891  0.3507
  689TMC3    C610190   0.706   0.077  17.648  0.0409 -0.3249 -0.4664
  689TMC3     C10191   0.881   0.208  17.288 -0.6113 -0.1504 -0.1527
  689TMC3     O10192   0.806   0.297  17.253  0.1826  0.3295  0.0839
  689TMC3     H10193   0.804   0.359  17.494 -0.0291  0.1655  1.5465
  689TMC3    H110194   0.867   4.670  17.383 -0.5718  0.2958 -1.0424
  689TMC3    H210195   0.647   0.051   0.048 -0.7686 -1.7597 -1.4433
  689TMC3    C710196   0.722   4.572  17.586 -0.2152 -0.4450 -0.1165
  689TMC3    C810197   0.743   0.294   0.055 -0.1630  0.1666  0.1753
  689TMC3    O110198   0.682   4.543   0.012 -0.3732  0.1556  0.4743
  689TMC3    O210199   0.670   0.266   0.151 -0.2696  0.1398 -0.7977
  690MPD2     C10200   3.413   1.855  15.732 -0.0177 -0.2247  1.0167
  690MPD2    C110201   3.378   1.926  15.615 -0.0176  0.2119  0.4611
  690MPD2    C210202   3.469   2.017  15.573 -0.1748  0.0109  0.3360
  690MPD2    C310203   3.586   2.050  15.647 -0.0919 -0.0320  0.3606
  690MPD2    C410204   3.614   1.989  15.768  0.9256  1.1604 -0.4345
  690MPD2    C510205   3.527   1.891  15.805 -0.1668  0.0984 -0.6753
  690MPD2     H10206   3.454   2.067  15.478  4.4683 -0.1560 -0.4891
  690MPD2    H110207   3.698   2.018  15.830  1.7347 -1.3048 -0.3851
  690MPD2    H210208   3.357   1.785  15.792  0.6049 -1.0604  0.6338
  690MPD2    H310209   3.556   1.839  15.896 -2.8692 -1.9596 -1.0059
  690MPD2     N10210   3.678   2.139  15.588  0.1823  0.1311  0.2640
  690MPD2    H510211   3.659   2.167  15.492  0.3038  0.0159  0.2066
  690MPD2    N110212   3.259   1.892  15.541  0.0074  0.4057 -0.2662
  690MPD2    H710213   3.238   1.953  15.462  2.1321  1.4322 -0.0430
  691TMC3    C110214   3.058   1.782  15.462 -1.0446  0.4252  0.3477
  691TMC3    C210215   2.935   1.737  15.503  0.4826  0.2821  0.3620
  691TMC3    C310216   2.867   1.642  15.437 -0.3171 -0.1303  0.2911
  691TMC3    C410217   3.106   1.753  15.336 -0.1942  0.0085 -0.1529
  691TMC3    C510218   3.028   1.663  15.269  0.1013  0.4395  0.2885
  691TMC3    C610219   2.922   1.598  15.319 -0.5833 -0.0414  0.4372
  691TMC3     C10220   3.159   1.797  15.570  0.2696 -0.2655 -0.0407
  691TMC3     O10221   3.135   1.723  15.663  0.2079  0.0213  0.5085
  691TMC3     H10222   2.904   1.755  15.605 -2.0048 -2.1890  0.0390
  691TMC3    H110223   3.205   1.786  15.307 -0.0713 -0.8231 -0.6986
  691TMC3    H210224   2.861   1.540  15.250 -0.7880 -1.4022  1.7519
  691TMC3    C710225   3.102   1.589  15.162 -0.1046 -0.0842  0.9430
  691TMC3    C810226   2.741   1.585  15.482  0.0563  0.3712  0.1022
  691TMC3    O110227   3.211   1.639  15.133 -0.3348 -0.4793 -0.0816
  691TMC3    O210228   2.697   1.494  15.408 -0.1497 -0.1641  0.1222
  692TMC3    C110229   0.280   3.165  16.060 -0.3783 -0.2891 -0.0190
  692TMC3    C210230   0.394   3.168  16.135 -0.5467  0.6909 -0.0542
  692TMC3    C310231   0.497   3.072  16.114 -0.1350  0.2464  0.3239
  692TMC3    C410232   0.256   3.068  15.971 -0.1829 -0.0572 -0.3594
  692TMC3    C510233   0.360   2.977  15.948  0.1610  0.1183 -0.3904
  692TMC3    C610234   0.479   2.978  16.016  0.1193  0.2628  0.1196
  692TMC3     C10235   0.167   3.256  16.096  0.3133  0.5051 -0.2151
  692TMC3     O10236   0.054   3.222  16.061  0.1679 -0.1494  0.0447
  692TMC3     H10237   0.414   3.262  16.185 -2.5629  1.0705  0.0092
  692TMC3    H110238   0.168   3.057  15.908 -0.5891  0.4206  0.1268
  692TMC3    H210239   0.565   2.933  15.969  0.7903  0.6419  0.9713
  692TMC3    C710240   0.331   2.864  15.865 -0.0617 -0.1196 -0.3811
  692TMC3    C810241   0.518   2.995  16.236 -0.1699 -0.2577 -0.3972
  692TMC3    O110242   0.248   2.882  15.777 -0.4187  0.0674  0.4368
  692TMC3    O210243   0.546   2.878  16.227 -0.5205 -0.1842 -0.0712
  693MPD2     C10244   0.452   1.394  11.467 -0.3581 -0.4686  0.0061
  693MPD2    C110245   0.364   1.357  11.370  1.3654  0.7813  0.6792
  693MPD2    C210246   0.410   1.285  11.265 -0.1488  0.8957 -0.1675
  693MPD2    C310247   0.545   1.243  11.262  1.0599 -0.0819 -0.6365
  693MPD2    C410248   0.633   1.277  11.363 -0.1388 -0.6161  0.1126
  693MPD2    C510249   0.588   1.361  11.457  1.0486  0.0166  0.3479
  693MPD2     H10250   0.339   1.245  11.194 -1.0349  1.9586  0.1157
  693MPD2    H110251   0.737   1.246  11.351 -0.0264  0.4465 -1.6363
  693MPD2    H210252   0.421   1.459  11.548 -0.6073 -0.1558 -0.3404
  693MPD2    H310253   0.656   1.395  11.534  0.6029  4.5388 -1.2832
  693MPD2     N10254   0.589   1.142  11.170 -0.1495 -0.0132 -0.2135
  693MPD2    H510255   0.678   1.100  11.194 -0.3473 -0.3000  0.0158
  693MPD2    N110256   0.230   1.399  11.384 -0.1736  0.0605  0.5610
  693MPD2    H710257   0.200   1.438  11.473 -2.1222  0.1267 -0.1232
  694TMC3    C110258   0.022   1.447  11.288  0.5354  0.5669 -0.3650
  694TMC3    C210259   4.678   1.442  11.165  0.4739 -0.3420 -0.9352
  694TMC3    C310260   4.564   1.364  11.165 -0.0613  0.3982 -0.2269
  694TMC3    C410261   4.686   1.398  11.400  0.5880 -0.2365  0.4200
  694TMC3    C510262   4.565   1.326  11.399 -0.4332 -0.7493  0.0726
  694TMC3    C610263   4.508   1.309  11.277  0.5376 -0.0518 -0.0173
  694TMC3     C10264   0.161   1.426  11.271 -0.3206  0.0376 -0.0346
  694TMC3     O10265   0.206   1.450  11.157  0.4771  0.3633 -0.1730
  694TMC3     H10266   0.003   1.478  11.073 -1.2847 -2.5436 -2.6570
  694TMC3    H110267   0.001   1.424  11.498  0.3397 -0.0058  0.4486
  694TMC3    H210268   4.410   1.263  11.266  0.1215  0.6909  0.6212
  694TMC3    C710269   4.532   1.242  11.512 -0.8117 -0.6050 -0.5597
  694TMC3    C810270   4.521   1.299  11.036 -0.0621 -0.1734 -0.4579
  694TMC3    O110271   4.553   1.286  11.628  0.0791 -0.0756  0.0738
  694TMC3    O210272   4.406   1.259  11.038 -0.3304  0.3575  0.6085
  695MPD2     C10273   0.521   2.526  13.699 -0.3440 -0.5342  0.2071
  695MPD2    C110274   0.564   2.658  13.673 -0.3735 -0.6083 -0.3679
  695MPD2    C210275   0.471   2.735  13.604 -0.7126  0.3753  0.3749
  695MPD2    C310276   0.349   2.688  13.565 -0.0842 -0.0370  0.2634
  695MPD2    C410277   0.311   2.560  13.589 -0.3237 -0.9383  0.3553
  695MPD2    C510278   0.398   2.481  13.659  0.2558  0.4416  0.6800
  695MPD2     H10279   0.488   2.842  13.603 -1.9322  0.5582 -0.4907
  695MPD2    H110280   0.211   2.527  13.562  0.2354  0.0237 -2.9920
  695MPD2    H210281   0.581   2.447  13.743 -1.5786 -2.0428 -0.7855
  695MPD2    H310282   0.363   2.383  13.688 -0.4799 -0.0645 -1.9085
  695MPD2     N10283   0.260   2.789  13.505 -0.5566  0.2329  0.0755
  695MPD2    H510284   0.291   2.883  13.484 -0.7100  0.8739  2.6662
  695MPD2    N110285   0.688   2.713  13.712 -0.1458 -0.3086  0.8751
  695MPD2    H710286   0.700   2.808  13.679  1.7437 -1.1991 -1.0132
  696TMC3    C110287   0.071   2.904  13.460 -0.1064 -0.1892  0.5492
  696TMC3    C210288   4.691   2.941  13.544  1.0688 -0.3273 -0.5328
  696TMC3    C310289   4.639   3.070  13.523  0.4553 -0.7215 -0.2797
  696TMC3    C410290   0.125   2.987  13.356 -0.1601 -0.3749  0.0829
  696TMC3    C510291   0.066   3.109  13.340 -0.0232  0.1305 -0.5721
  696TMC3    C610292   4.678   3.149  13.416 -0.7990 -0.4544 -0.1479
  696TMC3     C10293   0.129   2.774  13.480  0.2802 -0.6434  0.2946
  696TMC3     O10294   0.055   2.682  13.509  0.6771 -0.5536 -0.7115
  696TMC3     H10295   4.668   2.874  13.626  0.2865  2.4399  1.5331
  696TMC3    H110296   0.200   2.953  13.286  0.6400  0.8268  0.3535
  696TMC3    H210297   4.631   3.246  13.405  0.0462 -0.0104  0.2267
  696TMC3    C710298   0.168   3.210  13.328  0.2088  0.0167 -1.2160
  696TMC3    C810299   4.652   3.149  13.641 -0.2538  0.1495 -0.1522
  696TMC3    O110300   0.247   3.194  13.240  0.0153  0.0414 -0.0350
  696TMC3    O210301   4.688   3.264  13.619  0.4312  0.0644  0.4940
  697MPD2     C10302   4.232   4.659  15.677  0.9069  0.2109  0.2748
  697MPD2    C110303   4.334   4.607  15.599  1.1244  0.4584 -1.1294
  697MPD2    C210304   4.401   4.695  15.510 -0.5062 -0.1057 -0.0835
  697MPD2    C310305   4.379   0.111  15.522 -0.2405 -0.6854 -0.1313
  697MPD2    C410306   4.286   0.161  15.605  0.3479  0.3121  0.2918
  697MPD2    C510307   4.212   0.073  15.677 -0.1876 -0.0961  0.7356
  697MPD2     H10308   4.488   4.652  15.461 -0.5699 -1.7331  1.2570
  697MPD2    H110309   4.262   0.265  15.622 -1.1177 -0.0028  0.1215
  697MPD2    H210310   4.163   4.603  15.739 -1.5168  1.9129 -0.8741
  697MPD2    H310311   4.129   0.114  15.734 -0.2993  1.1755 -0.3217
  697MPD2     N10312   4.467   0.197  15.443 -0.4720 -0.2214  0.0088
  697MPD2    H510313   4.514   0.152  15.365  0.2014 -2.1823  1.5643
  697MPD2    N110314   4.374   4.471  15.593  0.0522 -0.0597 -0.0019
  697MPD2    H710315   4.449   4.445  15.530 -1.9046  0.1060 -2.4012
  698TMC3    C110316   4.583   0.385  15.367  0.1761 -0.0502  0.2604
  698TMC3    C210317   4.690   0.453  15.415  0.3813  0.0226  0.3544
  698TMC3    C310318   0.073   0.481  15.330 -0.1651  0.1932 -0.4537
  698TMC3    C410319   4.580   0.333  15.239 -0.6760 -0.0410 -0.1548
  698TMC3    C510320   4.684   0.366  15.158 -0.3975 -0.1450  0.5378
  698TMC3    C610321   0.075   0.435  15.199  0.3928  0.5119 -0.1111
  698TMC3     C10322   4.490   0.330  15.467 -0.3748 -0.3711  0.4719
  698TMC3     O10323   4.476   0.394  15.571  0.0612  0.3134  0.1495
  698TMC3     H10324   4.688   0.495  15.515  0.4946  0.3969  0.1984
  698TMC3    H110325   4.495   0.277  15.203  1.3908 -2.7921 -0.7978
  698TMC3    H210326   0.158   0.458  15.133  0.4801  0.6823  0.0568
  698TMC3    C710327   4.699   0.292  15.031  0.6547 -0.0933  0.5731
  698TMC3    C810328   0.193   0.540  15.387 -0.0118  0.1121 -0.3829
  698TMC3    O110329   4.603   0.218  15.007 -0.7012  0.1115 -0.8327
  698TMC3    O210330   0.184   0.567  15.506  0.3193 -0.0800  0.6485
  699TMC3    C110331   0.492   2.634  12.876 -0.3694 -0.2309  0.5423
  699TMC3    C210332   0.550   2.539  12.951  0.5109  0.6839 -0.4254
  699TMC3    C310333   0.501   2.499  13.076 -0.0831 -0.8107  0.5453
  699TMC3    C410334   0.386   2.706  12.919  0.6420  0.3279  0.0241
  699TMC3    C510335   0.337   2.680  13.040 -0.3830  0.2080  0.3291
  699TMC3    C610336   0.387   2.571  13.112 -0.0351  0.4254  0.6507
  699TMC3     C10337   0.563   2.697  12.768 -0.2933  0.1402  0.0313
  699TMC3     O10338   0.509   2.787  12.706 -0.1898 -0.4710 -0.0864
  699TMC3     H10339   0.617   2.468  12.904 -1.0300 -1.2399  0.2402
  699TMC3    H110340   0.339   2.779  12.854 -2.5480 -2.7149 -1.1238
  699TMC3    H210341   0.332   2.532  13.197 -0.2388  0.4228  0.5193
  699TMC3    C710342   0.199   2.725  13.072  0.0807  0.0004 -0.6752
  699TMC3    C810343   0.477   2.356  13.094  0.4287 -0.0779 -0.5269
  699TMC3    O110344   0.140   2.659  13.154 -0.0935  0.2028  0.2861
  699TMC3    O210345   0.364   2.311  13.089 -0.3626 -0.2883  0.1113
  700TMC3    C110346   3.669   0.649  17.209 -0.5330 -0.1752  0.2865
  700TMC3    C210347   3.691   0.516  17.218 -0.7780  0.3400  0.3803
  700TMC3    C310348   3.762   0.457  17.317  0.8589  0.0359 -0.3657
  700TMC3    C410349   3.725   0.734  17.300 -0.5342 -0.2876  0.6215
  700TMC3    C510350   3.797   0.676  17.401  0.0118  1.0952 -0.2714
  700TMC3    C610351   3.812   0.540  17.414  0.2472  0.4656 -0.6730
  700TMC3     C10352   3.601   0.694  17.086  0.1211  0.4657 -0.6150
  700TMC3     O10353   3.568   0.612  17.004 -0.3491  0.5179 -0.0772
  700TMC3     H10354   3.692   0.467  17.122  0.1392 -0.6859  0.9022
  700TMC3    H110355   3.713   0.842  17.303  0.8564 -0.2300  3.6251
  700TMC3    H210356   3.863   0.491  17.496 -1.2031  0.9776  0.5222
  700TMC3    C710357   3.882   0.756  17.493 -0.3674 -0.6939 -0.3665
  700TMC3    C810358   3.831   0.335  17.281 -0.5453  0.4280  0.2320
  700TMC3    O110359   3.947   0.703  17.580  0.3768 -0.1191  0.3841
  700TMC3    O210360   3.944   0.321  17.327 -0.2924  0.4068 -0.1348
  701TMC3    C110361   3.935   3.624  15.640  0.7607 -0.5438  0.3203
  701TMC3    C210362   3.978   3.597  15.516 -0.6073 -0.1721 -0.2828
  701TMC3    C310363   4.074   3.681  15.460 -0.1840 -0.1450  1.3453
  701TMC3    C410364   3.972   3.737  15.710  0.3735 -0.2589  0.5667
  701TMC3    C510365   4.066   3.815  15.651  1.0634 -0.3270  0.3667
  701TMC3    C610366   4.126   3.787  15.524 -0.2842  0.1127  0.0803
  701TMC3     C10367   3.846   3.537  15.709 -0.2077  0.9634 -0.5537
  701TMC3     O10368   3.778   3.579  15.804  0.4534  0.4256 -0.6004
  701TMC3     H10369   3.933   3.518  15.457 -1.8502  1.2749 -1.2578
  701TMC3    H110370   3.928   3.765  15.806  0.9714  2.4888  0.0466
  701TMC3    H210371   4.194   3.852  15.469  1.8086 -0.9320  1.4004
  701TMC3    C710372   4.055   3.954  15.680 -0.1074 -0.2954 -0.0294
  701TMC3    C810373   4.106   3.670  15.323  0.8715  0.2460 -0.4258
  701TMC3    O110374   4.113   4.023  15.597 -0.0042  0.1545  0.1826
  701TMC3    O210375   4.154   3.772  15.275 -0.3358 -0.0246 -0.8546
  702MPD2     C10376   3.934   1.638  10.624  0.2184  0.2246  0.2571
  702MPD2    C110377   3.952   1.738  10.721  0.2994  0.2150  0.6338
  702MPD2    C210378   4.047   1.829  10.692 -0.0362  0.0725 -0.1619
  702MPD2    C310379   4.114   1.835  10.569  0.3565  0.3665  0.1131
  702MPD2    C410380   4.086   1.738  10.474  0.7607 -0.1080 -0.2972
  702MPD2    C510381   3.999   1.640  10.506  0.2938  0.3802  0.1409
  702MPD2     H10382   4.083   1.897  10.768  0.2109  0.3918 -0.5628
  702MPD2    H110383   4.142   1.734  10.381 -1.8309  0.2883 -1.8717
  702MPD2    H210384   3.863   1.558  10.644 -0.4397  1.1942  1.8136
  702MPD2    H310385   3.986   1.562  10.432 -2.5125  0.3288  0.6692
  702MPD2     N10386   4.224   1.926  10.556  0.3661  0.6951 -0.1483
  702MPD2    H510387   4.244   1.978  10.640 -3.8317  0.6927  0.8587
  702MPD2    N110388   3.896   1.740  10.853 -0.1157  0.4549  0.1513
  702MPD2    H710389   3.899   1.832  10.895  0.1522  0.4982  0.0381
  703TMC3    C110390   4.382   2.072  10.448  0.7930  0.7724  0.1473
  703TMC3    C210391   4.339   2.162  10.545  0.0244  0.0179 -0.1072
  703TMC3    C310392   4.398   2.283  10.541  0.7872  0.5682 -0.4687
  703TMC3    C410393   4.465   2.099  10.347 -0.5274  0.7868 -0.3499
  703TMC3    C510394   4.522   2.223  10.356 -0.1829  0.1188  0.1854
  703TMC3    C610395   4.484   2.325  10.441 -0.6872 -0.2266 -0.9167
  703TMC3     C10396   4.310   1.941  10.443 -0.1760  0.4889 -0.8472
  703TMC3     O10397   4.325   1.879  10.341  0.2322 -0.7005 -0.2654
  703TMC3     H10398   4.272   2.143  10.628 -0.9447  2.1333 -0.4213
  703TMC3    H110399   4.510   2.016  10.294 -0.4138 -0.1864  1.2498
  703TMC3    H210400   4.510   2.430  10.432  3.1006 -1.4546 -4.1022
  703TMC3    C710401   4.598   2.273  10.246 -0.3205  0.2175 -0.0138
  703TMC3    C810402   4.343   2.403  10.609  0.1034 -0.4184  0.4169
  703TMC3    O110403   4.655   2.380  10.243  0.0924 -0.0599  0.2904
  703TMC3    O210404   4.423   2.488  10.646 -0.3586 -0.2693 -0.0660
  704TMC3    C110405   1.420   4.565  12.342  0.0486 -0.3966 -0.1400
  704TMC3    C210406   1.551   4.597  12.373  0.5474  0.0544  0.3064
  704TMC3    C310407   1.608   4.545  12.481 -0.7361 -0.4595  0.3630
  704TMC3    C410408   1.345   4.478  12.416 -1.0305 -0.5912 -0.3129
  704TMC3    C510409   1.411   4.425  12.526  1.0194  0.0914  0.3983
  704TMC3    C610410   1.541   4.451  12.555  0.7918  0.0647 -0.1788
  704TMC3     C10411   1.347   4.638  12.234 -0.0108  0.8703 -0.5569
  704TMC3     O10412   1.227   4.630  12.231  0.0633 -0.2826  0.0311
  704TMC3     H10413   1.610   4.665  12.313 -0.2814  2.5552  2.3226
  704TMC3    H110414   1.242   4.451  12.395 -1.0807 -0.5832 -0.0833
  704TMC3    H210415   1.601   4.391  12.622 -1.2544 -0.3658  1.2817
  704TMC3    C710416   1.369   4.290  12.556 -0.8530  0.1808  0.2653
  704TMC3    C810417   1.748   4.525  12.459  0.6440 -0.2853 -0.1153
  704TMC3    O110418   1.455   4.223  12.611  0.0999 -0.0808 -0.0220
  704TMC3    O210419   1.795   4.501  12.345  0.2450 -0.8016  0.2033
  705MPD2     C10420   0.442   2.239  16.468 -0.1741  0.3511  0.4650
  705MPD2    C110421   0.465   2.372  16.457 -0.4842  0.0128 -0.1804
  705MPD2    C210422   0.364   2.458  16.494 -0.0194  0.6618  0.3885
  705MPD2    C310423   0.239   2.418  16.529  0.1937 -0.5062  0.3682
  705MPD2    C410424   0.213   2.282  16.519 -0.3132  0.7901  0.2501
  705MPD2    C510425   0.317   2.196  16.509  0.4874  0.3420 -0.2167
  705MPD2     H10426   0.391   2.563  16.493 -0.1281  0.6988  1.6744
  705MPD2    H110427   0.115   2.235  16.525 -0.1916  0.5607  0.4939
  705MPD2    H210428   0.527   2.178  16.441  0.3661  0.0866  2.7830
  705MPD2    H310429   0.301   2.090  16.494  2.9669  0.4444 -3.5648
  705MPD2     N10430   0.131   2.512  16.554  0.3371 -0.0943  0.1538
  705MPD2    H510431   0.042   2.463  16.555  0.2273  0.1514  2.4574
  705MPD2    N110432   0.592   2.427  16.415 -0.3335  0.3934 -0.2707
  705MPD2    H710433   0.599   2.528  16.410  0.7360  0.1977 -2.9508
  706TMC3    C110434   0.962   2.444  16.153  0.4146 -0.1986 -0.3220
  706TMC3    C210435   0.916   2.566  16.114  0.2811 -0.2449 -0.2341
  706TMC3    C310436   0.839   2.638  16.200 -0.0458  0.8664  0.2844
  706TMC3    C410437   0.921   2.391  16.271 -0.6366 -0.3315  0.3926
  706TMC3    C510438   0.823   2.453  16.342  0.3148 -0.3006  0.4817
  706TMC3    C610439   0.789   2.589  16.317  0.7483  0.4446 -0.2036
  706TMC3     C10440   1.057   2.379  16.080 -0.3816  0.6895 -0.1318
  706TMC3     O10441   1.143   2.316  16.137 -0.2383  0.0254  0.3032
  706TMC3     H10442   0.962   2.617  16.030  2.4890  0.0139  1.1414
  706TMC3    H110443   0.957   2.294  16.302 -0.9198  0.0708  1.9787
  706TMC3    H210444   0.713   2.639  16.376  2.9422  1.7737  1.5451
  706TMC3    C710445   0.721   2.366  16.400  0.3393  0.9160  0.7069
  706TMC3    C810446   0.849   2.783  16.179 -0.1958  0.6703 -0.5841
  706TMC3    O110447   0.759   2.256  16.435 -0.0476 -0.1227 -0.3557
  706TMC3    O210448   0.860   2.828  16.068  0.0079  0.3651 -0.0417
  707TMC3    C110449   3.319   4.614   1.585  0.5491  0.0951 -0.5951
  707TMC3    C210450   3.402   4.611   1.699  0.3276 -0.7515 -0.4263
  707TMC3    C310451   3.493   4.511   1.702 -0.1780 -0.4473  0.0466
  707TMC3    C410452   3.325   4.520   1.484 -0.3066  0.2773 -0.1329
  707TMC3    C510453   3.426   4.427   1.496 -0.1020 -0.5136 -0.3284
  707TMC3    C610454   3.514   4.433   1.596  0.5766 -0.3644  0.2799
  707TMC3     C10455   3.235   0.013   1.575  0.1890 -0.3487 -0.5126
  707TMC3     O10456   3.266   0.111   1.637  0.1334  0.3604  1.2051
  707TMC3     H10457   3.363   4.667   1.784  0.2238  0.3814 -1.2239
  707TMC3    H110458   3.255   4.525   1.401 -0.7615 -2.6232  0.0887
  707TMC3    H210459   3.578   4.349   1.621  1.8691  0.4963 -0.1447
  707TMC3    C710460   3.455   4.325   1.394 -0.0900  0.3862 -0.6158
  707TMC3    C810461   3.599   4.537   1.799  0.2755 -0.4040  0.1661
  707TMC3    O110462   3.526   4.226   1.416 -0.0257 -0.0243 -0.1054
  707TMC3    O210463   3.676   4.450   1.837  0.1531  0.4920  0.1484
  708MPD2     C10464   4.182   0.546  14.050  0.2243  0.4406 -0.2529
  708MPD2    C110465   4.142   0.676  14.019  0.8890 -0.3156  0.6725
  708MPD2    C210466   4.063   0.749  14.103 -0.5132 -0.3937 -0.0317
  708MPD2    C310467   4.046   0.697  14.228  0.8098 -0.6730 -0.4356
  708MPD2    C410468   4.095   0.577  14.261  0.2225 -0.0260 -0.6610
  708MPD2    C510469   4.164   0.503  14.173  0.2688  0.1797 -0.0657
  708MPD2     H10470   4.014   0.843  14.082 -0.2515  0.0250  1.2105
  708MPD2    H110471   4.091   0.541  14.364 -2.4736 -0.8715 -1.0673
  708MPD2    H210472   4.256   0.496  13.989  2.0678  2.8506 -0.0272
  708MPD2    H310473   4.223   0.418  14.204  1.3813  0.1086 -2.4394
  708MPD2     N10474   3.974   0.777  14.314  0.5929  0.3601 -0.3961
  708MPD2    H510475   3.926   0.856  14.272 -1.2932 -0.8050 -0.4425
  708MPD2    N110476   4.169   0.730  13.891 -0.0360 -0.5829 -0.1397
  708MPD2    H710477   4.134   0.824  13.879  1.3778 -0.0991 -0.4356
  709TMC3    C110478   4.190   0.744  13.668  0.1033 -0.3237  0.5080
  709TMC3    C210479   4.105   0.685  13.579 -0.7305 -0.2440  0.2563
  709TMC3    C310480   4.000   0.762  13.539 -0.0209  0.4060  0.0217
  709TMC3    C410481   4.188   0.877  13.708  0.2318  0.9849 -0.2479
  709TMC3    C510482   4.077   0.951  13.661 -0.0649  1.2083  0.0779
  709TMC3    C610483   3.978   0.883  13.591  0.4985  0.3406 -0.5681
  709TMC3     C10484   4.218   0.664  13.788 -0.4964 -0.5095  0.2528
  709TMC3     O10485   4.214   0.541  13.772 -0.1234  0.3019  0.1478
  709TMC3     H10486   4.114   0.578  13.560  0.1663  0.2878 -2.2671
  709TMC3    H110487   4.269   0.928  13.759  0.1683  0.1464  0.6916
  709TMC3    H210488   3.883   0.932  13.573  0.7233  0.6207 -1.0064
  709TMC3    C710489   4.024   1.035  13.765 -0.1485  0.8585 -0.3320
  709TMC3    C810490   3.913   0.702  13.441  0.1862 -0.1445 -0.7107
  709TMC3    O110491   4.060   1.020  13.879 -0.1220 -0.3035  0.2675
  709TMC3    O210492   3.923   0.582  13.440  0.5371  0.5824  0.8176
  710TMC3    C110493   0.165   3.137   0.629  0.4607 -0.0556 -0.4642
  710TMC3    C210494   0.220   3.091   0.515 -0.2703  0.4753  0.7481
  710TMC3    C310495   0.192   2.960   0.476  0.0469  0.2951 -0.0589
  710TMC3    C410496   0.075   3.055   0.691 -0.4122 -0.3236 -0.6948
  710TMC3    C510497   0.039   2.938   0.638 -0.3272  0.1615  0.1476
  710TMC3    C610498   0.112   2.878   0.546 -0.3305 -0.3436 -0.2513
  710TMC3     C10499   0.216   3.259   0.677 -0.3267 -0.5696  0.0664
  710TMC3     O10500   0.314   3.313   0.628 -0.2941  0.1879  0.1748
  710TMC3     H10501   0.298   3.145   0.462 -2.4276  3.0953  0.1984
  710TMC3    H110502   0.010   3.102   0.763  2.1585  1.4888  0.4428
  710TMC3    H210503   0.102   2.777   0.509 -0.3021 -0.3317 -0.2917
  710TMC3    C710504   4.681   2.851   0.722 -1.5259  0.5563 -0.0019
  710TMC3    C810505   0.276   2.896   0.376  0.1364 -0.2197 -0.2631
  710TMC3    O110506   4.694   2.851   0.841 -0.5919  0.0036  0.3265
  710TMC3    O210507   0.310   2.958   0.278  0.0915 -0.5730  0.5577
  711TMC3    C110508   4.706   3.779  14.994  1.1178 -0.3351  0.0855
  711TMC3    C210509   4.687   3.804  15.130 -0.2451 -0.7448  0.3575
  711TMC3    C310510   0.069   3.788  15.217  0.6956  0.5053  0.0292
  711TMC3    C410511   0.120   3.769  14.948  0.1760  0.7376  0.3608
  711TMC3    C510512   0.213   3.742  15.039 -0.3949  0.3204  0.0700
  711TMC3    C610513   0.196   3.757  15.174 -1.2061  0.5814  0.5040
  711TMC3     C10514   4.617   3.681  14.930 -0.0796  0.0688  0.2054
  711TMC3     O10515   4.677   3.621  14.843  0.6141  0.4848  0.0731
  711TMC3     H10516   4.590   3.818  15.176 -0.1816 -1.5492  0.7313
  711TMC3    H110517   0.140   3.770  14.841  1.0356  0.9180  0.5195
  711TMC3    H210518   0.272   3.726  15.245 -0.7143 -1.4522 -0.9284
  711TMC3    C710519   0.281   3.615  15.026 -0.2443  0.1732 -0.5783
  711TMC3    C810520   0.040   3.728  15.353  0.0551 -0.2456 -0.0205
  711TMC3    O110521   0.358   3.581  15.109 -0.0878  0.2315  0.0724
  711TMC3    O210522   4.649   3.673  15.363  0.1864  0.5250 -0.9154
  712MPD2     C10523   1.577   4.388  13.325  0.0486  0.1345  0.4593
  712MPD2    C110524   1.459   4.444  13.373 -0.2537 -0.4566  0.4612
  712MPD2    C210525   1.471   4.561  13.454  0.3152 -0.1069 -0.0353
  712MPD2    C310526   1.594   4.618  13.484  0.2152 -0.1115  0.1842
  712MPD2    C410527   1.709   4.564  13.431  0.8032 -0.6365  0.1420
  712MPD2    C510528   1.698   4.447  13.359  0.3486 -0.2514  0.1091
  712MPD2     H10529   1.376   4.601  13.488  0.7975  0.0935  1.1032
  712MPD2    H110530   1.804   4.615  13.442  1.2484 -1.8209  1.7973
  712MPD2    H210531   1.582   4.294  13.270 -0.4065  1.2505 -1.4943
  712MPD2    H310532   1.791   4.394  13.339 -0.9226 -2.2008 -0.7008
  712MPD2     N10533   1.605   0.024  13.552  0.2088 -0.5179  0.6796
  712MPD2    H510534   1.702   0.055  13.554 -0.8013  2.5839  1.0081
  712MPD2    N110535   1.330   4.404  13.326  0.4034 -0.0125  0.1180
  712MPD2    H710536   1.255   4.465  13.357 -0.7507 -1.5312  0.2688
  713TMC3    C110537   1.541   0.240  13.647  0.3428  0.1096 -0.2973
  713TMC3    C210538   1.661   0.249  13.710  0.1946  0.4688 -0.1300
  713TMC3    C310539   1.699   0.368  13.762  0.3055  0.0579 -0.0164
  713TMC3    C410540   1.451   0.343  13.646 -0.6248  0.2867 -0.0351
  713TMC3    C510541   1.496   0.459  13.700  0.3632  0.0803  0.6971
  713TMC3    C610542   1.622   0.476  13.753  0.1367 -0.1186 -0.0872
  713TMC3     C10543   1.504   0.108  13.595  0.3833  0.0475  0.1745
  713TMC3     O10544   1.382   0.078  13.578  0.2932  0.1278 -0.5137
  713TMC3     H10545   1.733   0.168  13.713  2.0957  2.0988 -1.5438
  713TMC3    H110546   1.370   0.335  13.575 -1.3350 -0.5825  0.8794
  713TMC3    H210547   1.641   0.569  13.805 -1.3539 -0.4488  1.0417
  713TMC3    C710548   1.430   0.586  13.670 -0.4016 -0.3517  0.1369
  713TMC3    C810549   1.825   0.380  13.834 -0.3380  0.9200 -0.4260
  713TMC3    O110550   1.500   0.687  13.673  0.1428  0.2584 -0.1798
  713TMC3    O210551   1.876   0.277  13.877 -0.4170 -0.0422  0.7672
  714MPD2     C10552   3.311   3.101   2.196  0.0355 -0.0136 -0.5609
  714MPD2    C110553   3.338   3.046   2.074  0.1569  0.3494 -0.0584
  714MPD2    C210554   3.231   3.043   1.986 -0.1712 -0.0628 -0.4352
  714MPD2    C310555   3.109   3.103   2.016 -0.2536  0.3350 -0.2532
  714MPD2    C410556   3.085   3.151   2.145  0.5089  0.3783  1.0965
  714MPD2    C510557   3.188   3.148   2.232 -0.3250  0.2630  0.1153
  714MPD2     H10558   3.240   2.988   1.893 -0.6579 -0.1829 -0.4121
  714MPD2    H110559   2.991   3.200   2.167  0.9295  2.3586 -1.5241
  714MPD2    H210560   3.389   3.100   2.271 -1.4133  1.6721  0.9870
  714MPD2    H310561   3.179   3.195   2.329  0.9172  0.0024  0.3548
  714MPD2     N10562   3.004   3.097   1.919 -0.1995 -0.7752 -0.1790
  714MPD2    H510563   3.032   3.070   1.825 -0.2577 -1.5966  0.0353
  714MPD2    N110564   3.463   2.991   2.047  0.3705 -0.1385 -0.6873
  714MPD2    H710565   3.530   2.996   2.123  1.4898 -2.8306 -1.5083
  715TMC3    C110566   3.635   2.897   1.920  0.0364  0.3281 -0.2235
  715TMC3    C210567   3.675   2.845   1.798  0.6691 -0.1408 -0.2393
  715TMC3    C310568   3.812   2.832   1.774  0.1756 -0.3448 -0.4993
  715TMC3    C410569   3.729   2.939   2.012 -0.8021 -0.3915 -0.1697
  715TMC3    C510570   3.859   2.947   1.971  0.2437  0.3507 -0.2937
  715TMC3    C610571   3.909   2.884   1.861  0.0954  0.0641 -0.4120
  715TMC3     C10572   3.499   2.943   1.922 -0.6106  0.8283 -0.1527
  715TMC3     O10573   3.441   2.927   1.814 -0.4492 -0.3026 -0.2028
  715TMC3     H10574   3.602   2.801   1.731 -0.4949  1.8349 -0.2582
  715TMC3    H110575   3.698   2.993   2.101 -1.9965 -0.3731 -0.5995
  715TMC3    H210576   4.016   2.885   1.846  0.2654  1.5568  0.9363
  715TMC3    C710577   3.953   2.998   2.061  0.1073  0.5862  0.0303
  715TMC3    C810578   3.847   2.731   1.679  0.0856  0.1362 -0.0798
  715TMC3    O110579   4.044   3.063   2.022 -0.2004  0.7704 -0.3310
  715TMC3    O210580   3.765   2.643   1.649  0.0702 -0.3684 -0.1752
  716MPD2     C10581   4.484   1.671   9.906 -0.5490  0.0287 -0.0979
  716MPD2    C110582   4.461   1.737   9.785  0.2149  0.7691 -0.0153
  716MPD2    C210583   4.479   1.673   9.664  0.8492  0.6842  0.0234
  716MPD2    C310584   4.511   1.540   9.671 -0.4610 -0.7874  0.0893
  716MPD2    C410585   4.528   1.479   9.797  0.4930 -0.0403 -0.0162
  716MPD2    C510586   4.516   1.542   9.911 -0.7920  0.1367 -0.1915
  716MPD2     H10587   4.477   1.719   9.566  0.0633  0.2551 -0.1633
  716MPD2    H110588   4.541   1.372   9.800  0.9558 -0.0490 -2.4475
  716MPD2    H210589   4.487   1.721  10.002  0.8997  1.4391 -0.8828
  716MPD2    H310590   4.540   1.489  10.002  0.5816  1.4298  0.2089
  716MPD2     N10591   4.519   1.463   9.551  0.3362 -0.6463  0.3556
  716MPD2    H510592   4.495   1.515   9.468  1.3460  0.2234  0.6009
  716MPD2    N110593   4.427   1.869   9.802  0.2927  0.3098  0.7588
  716MPD2    H710594   4.402   1.901   9.895  0.0352  1.6000  0.2420
  717TMC3    C110595   4.488   1.286   9.410 -0.7663 -0.3833 -0.6020
  717TMC3    C210596   4.410   1.360   9.328 -0.0431 -0.3577 -0.2566
  717TMC3    C310597   4.378   1.319   9.205  0.3790  0.4784 -0.5431
  717TMC3    C410598   4.553   1.175   9.362 -0.5289  0.3220 -0.2290
  717TMC3    C510599   4.517   1.130   9.241  0.9490  0.0252 -0.4854
  717TMC3    C610600   4.428   1.202   9.161 -0.4516  0.4502 -0.2608
  717TMC3     C10601   4.529   1.327   9.546  0.1951 -0.1992 -0.1919
  717TMC3     O10602   4.591   1.247   9.619 -0.2962 -0.3232  0.0876
  717TMC3     H10603   4.347   1.437   9.371  1.9240  2.4779 -2.4872
  717TMC3    H110604   4.624   1.125   9.426 -1.9750  0.7992  1.7449
  717TMC3    H210605   4.397   1.156   9.068 -0.7386  0.9171 -0.3959
  717TMC3    C710606   4.576   0.999   9.186 -0.1736 -0.4024  0.6341
  717TMC3    C810607   4.242   1.356   9.149 -0.5698 -0.5200 -0.2457
  717TMC3    O110608   4.564   0.972   9.069  0.0097 -0.1263 -0.8299
  717TMC3    O210609   4.177   1.272   9.090  0.3158 -0.0919 -0.3201
  718MPD2     C10610   2.926   0.846  12.905 -0.2444 -0.4048  0.5897
  718MPD2    C110611   2.880   0.771  12.795 -0.2024 -0.6423 -0.1596
  718MPD2    C210612   2.822   0.650  12.833  0.3855  0.1383 -0.7725
  718MPD2    C310613   2.809   0.605  12.963  0.3168  0.1359  0.6831
  718MPD2    C410614   2.843   0.687  13.072  0.1863 -0.4319 -0.3408
  718MPD2    C510615   2.904   0.806  13.035  0.7103  0.5779 -0.4206
  718MPD2     H10616   2.788   0.588  12.751 -2.9075  1.3133 -0.2733
  718MPD2    H110617   2.848   0.662  13.177  2.4088 -0.0280 -0.3589
  718MPD2    H210618   2.977   0.941  12.893 -0.3014 -0.1910  2.0673
  718MPD2    H310619   2.929   0.872  13.117 -0.3075  0.5422 -0.0815
  718MPD2     N10620   2.746   0.481  12.976 -0.6077 -0.9821  0.1000
  718MPD2    H510621   2.707   0.452  12.887  0.4770  0.5213 -0.8536
  718MPD2    N110622   2.902   0.814  12.664  0.2261  0.4379 -0.6227
  718MPD2    H710623   2.958   0.898  12.662  3.2291 -1.4753  2.7643
  719TMC3    C110624   2.933   0.786  12.428 -0.5799 -0.3751 -0.4641
  719TMC3    C210625   2.880   0.723  12.319 -0.5185  0.2378  0.3716
  719TMC3    C310626   2.962   0.658  12.228  0.4541 -0.0209 -0.4725
  719TMC3    C410627   3.066   0.804  12.441 -0.2294  0.7347 -0.2867
  719TMC3    C510628   3.141   0.758  12.337 -0.0664 -0.5701 -0.5529
  719TMC3    C610629   3.095   0.683  12.234  0.9088 -0.4117 -0.1436
  719TMC3     C10630   2.872   0.744  12.551  0.3538 -0.2220 -0.6337
  719TMC3     O10631   2.787   0.662  12.532 -0.6287 -0.0128  0.3467
  719TMC3     H10632   2.772   0.717  12.312 -0.2507 -0.8360 -2.8810
  719TMC3    H110633   3.109   0.844  12.532 -1.9518  0.1394  0.7746
  719TMC3    H210634   3.162   0.636  12.163  2.0645  1.5302 -0.3321
  719TMC3    C710635   3.283   0.732  12.356  0.5529 -0.3956  0.6002
  719TMC3    C810636   2.938   0.515  12.232 -0.6629  0.2218 -0.6060
  719TMC3    O110637   3.340   0.717  12.249 -0.3088 -0.6437  0.1066
  719TMC3    O210638   2.974   0.456  12.130  0.1387 -0.4203 -0.5039
  720MPD2     C10639   1.257   1.973  14.120 -0.0806 -0.2208 -0.5600
  720MPD2    C110640   1.359   1.976  14.028 -0.4728 -0.3450 -0.1626
  720MPD2    C210641   1.482   1.918  14.053 -0.1628 -0.0529 -0.4692
  720MPD2    C310642   1.499   1.838  14.167  0.4841  0.0132  0.7083
  720MPD2    C410643   1.404   1.851  14.267  0.6009  0.0036 -0.3475
  720MPD2    C510644   1.280   1.906  14.237 -0.2167  0.6235 -0.4520
  720MPD2     H10645   1.567   1.915  13.985  0.4350 -0.9083  0.2979
  720MPD2    H110646   1.410   1.810  14.367  1.3444  1.6009  0.2537
  720MPD2    H210647   1.158   2.016  14.111 -0.0686 -0.1753 -0.4730
  720MPD2    H310648   1.201   1.900  14.311 -1.8274 -1.9316 -2.3578
  720MPD2     N10649   1.619   1.775  14.194 -0.0970 -0.5471 -0.0922
  720MPD2    H510650   1.683   1.784  14.116  0.9129 -1.2429  0.6644
  720MPD2    N110651   1.348   2.059  13.912 -0.5080  0.3202  0.8802
  720MPD2    H710652   1.426   2.054  13.848  0.5311  2.1539  1.9970
  721TMC3    C110653   1.799   1.678  14.318  0.1982  0.7034  0.3473
  721TMC3    C210654   1.838   1.626  14.436 -0.1096 -0.0268 -0.2401
  721TMC3    C310655   1.970   1.629  14.467  0.3508  0.5022 -0.2759
  721TMC3    C410656   1.889   1.719  14.221 -0.2646 -0.0378 -0.3808
  721TMC3    C510657   2.022   1.704  14.253 -0.3171  0.8684  0.3517
  721TMC3    C610658   2.063   1.656  14.374  0.0833  0.6079 -0.5261
  721TMC3     C10659   1.653   1.695  14.300  0.5719 -0.2709  0.3056
  721TMC3     O10660   1.583   1.640  14.384 -1.0863  0.6736 -1.4205
  721TMC3     H10661   1.768   1.606  14.517  1.0895 -0.1648  0.7786
  721TMC3    H110662   1.863   1.736  14.117  1.2451 -0.3797 -0.8072
  721TMC3    H210663   2.161   1.679  14.414 -0.6780  3.6821 -0.4606
  721TMC3    C710664   2.119   1.699  14.147  0.5780 -0.5586  0.2858
  721TMC3    C810665   2.024   1.581  14.590 -0.5812  0.6616 -0.0653
  721TMC3    O110666   2.106   1.771  14.048  0.2038 -0.1957 -0.7569
  721TMC3    O210667   2.144   1.558  14.589 -0.8351  0.0970 -0.1914
  722MPD2     C10668   0.472   0.334  12.985  0.2873  0.4125 -0.4831
  722MPD2    C110669   0.448   0.466  12.934  0.4777 -0.4947  0.0264
  722MPD2    C210670   0.335   0.475  12.852  0.3320  0.3538  0.2579
  722MPD2    C310671   0.241   0.377  12.839 -0.6993  0.2193 -0.3608
  722MPD2    C410672   0.259   0.253  12.902  0.3219 -0.3054  0.1511
  722MPD2    C510673   0.377   0.237  12.969  0.4677  0.1864  0.2684
  722MPD2     H10674   0.330   0.576  12.812 -0.0164  1.0302  1.9903
  722MPD2    H110675   0.185   0.173  12.903 -1.0667  0.9881  0.8758
  722MPD2    H210676   0.564   0.307  13.034  0.5729 -0.3407 -1.4460
  722MPD2    H310677   0.391   0.142  13.018 -0.2557  0.2385  0.5854
  722MPD2     N10678   0.121   0.404  12.766  0.4779 -0.5469  0.0475
  722MPD2    H510679   0.105   0.491  12.718 -0.2699 -1.8316 -2.0283
  722MPD2    N110680   0.541   0.571  12.951 -0.6224 -0.0631  0.2123
  722MPD2    H710681   0.523   0.659  12.903  3.0668  0.1541 -0.7941
  723TMC3    C110682   4.639   0.356  12.666 -0.2325 -0.9142  0.0696
  723TMC3    C210683   4.521   0.291  12.680  0.2613 -0.1413  0.4535
  723TMC3    C310684   4.425   0.309  12.582  0.0145 -0.6536  0.4977
  723TMC3    C410685   4.674   0.421  12.547 -0.8708 -0.0504  0.4303
  723TMC3    C510686   4.582   0.430  12.449  0.2937 -0.4275  0.0457
  723TMC3    C610687   4.456   0.378  12.468 -0.1421 -0.5114 -0.1409
  723TMC3     C10688   0.020   0.314  12.766 -0.3040 -0.3353 -0.1770
  723TMC3     O10689   4.711   0.209  12.828 -0.3970 -0.5026 -0.4428
  723TMC3     H10690   4.485   0.251  12.774 -0.5534  1.1902  0.7120
  723TMC3    H110691   0.056   0.452  12.531 -0.1506 -2.2699  0.7536
  723TMC3    H210692   4.390   0.380  12.382  1.0704  0.2827 -1.0531
  723TMC3    C710693   4.617   0.494  12.328  0.4648  0.0800  0.4408
  723TMC3    C810694   4.320   0.207  12.548  0.3238 -0.0609  0.1065
  723TMC3    O110695   4.561   0.462  12.225  0.3881 -0.0055  0.4193
  723TMC3    O210696   4.237   0.236  12.457 -0.0510 -0.1249  0.0700
  724TMC3    C110697   1.712   4.200  10.378 -0.0930 -0.7159 -0.1629
  724TMC3    C210698   1.713   4.076  10.427  0.0957 -0.8199  0.2499
  724TMC3    C310699   1.767   3.985  10.345  0.1519 -0.5565 -0.7899
  724TMC3    C410700   1.781   4.245  10.269 -0.2363 -0.1280  0.2893
  724TMC3    C510701   1.841   4.150  10.197  0.0764  0.1896  0.8418
  724TMC3    C610702   1.836   4.015  10.232 -0.4386 -0.1626  0.2607
  724TMC3     C10703   1.637   4.296  10.453  0.3643 -0.5023 -0.2221
  724TMC3     O10704   1.531   4.257  10.500  0.4541 -0.6241  0.8067
  724TMC3     H10705   1.627   4.054  10.489 -0.8769  2.4035  0.0338
  724TMC3    H110706   1.760   4.341  10.224 -1.0125  0.8248  2.6580
  724TMC3    H210707   1.888   3.938  10.177 -1.2860 -0.1865 -0.5030
  724TMC3    C710708   1.857   4.175  10.049 -0.9157 -0.5130  0.2970
  724TMC3    C810709   1.683   3.871  10.324  0.5495 -0.7294 -0.1513
  724TMC3    O110710   1.873   4.069   9.984 -0.0038 -0.4361 -0.4463
  724TMC3    O210711   1.624   3.821  10.418 -0.0554 -0.3841  0.1827
  725TMC3    C110712   2.251   2.025  12.812  1.2026  0.2393 -0.0640
  725TMC3    C210713   2.208   2.128  12.724  0.6278  0.0020 -0.5395
  725TMC3    C310714   2.215   2.101  12.591  0.2988  0.1578  0.2491
  725TMC3    C410715   2.290   1.900  12.767  0.2262  0.4892  0.0952
  725TMC3    C510716   2.286   1.885  12.631  0.4926  0.3011 -0.7473
  725TMC3    C610717   2.256   1.980  12.543  0.0934 -0.6552 -0.2363
  725TMC3     C10718   2.245   2.050  12.952 -0.6293  0.9568 -0.0027
  725TMC3     O10719   2.230   1.955  13.033 -0.5980  0.0699  0.4990
  725TMC3     H10720   2.175   2.227  12.754  0.1632 -0.1548 -0.5416
  725TMC3    H110721   2.354   1.833  12.824 -0.3895 -0.2798 -0.1331
  725TMC3    H210722   2.269   1.965  12.436 -0.9882  1.0518 -0.5924
  725TMC3    C710723   2.325   1.747  12.586 -1.1358 -0.1113  0.2374
  725TMC3    C810724   2.135   2.183  12.497  0.1192  0.2969 -0.2962
  725TMC3    O110725   2.385   1.681  12.668  0.1525  0.3857 -0.1981
  725TMC3    O210726   2.043   2.250  12.535  0.5099 -0.2930  0.3916
  726MPD2     C10727   0.564   3.516   9.989  0.6344 -0.3776 -0.7939
  726MPD2    C110728   0.543   3.626  10.072 -0.3157 -1.1110 -0.8051
  726MPD2    C210729   0.463   3.619  10.184 -0.0600 -0.1999 -0.2619
  726MPD2    C310730   0.387   3.504  10.204  0.6304 -0.0861 -0.0064
  726MPD2    C410731   0.414   3.397  10.124 -0.2297  0.7271  0.3490
  726MPD2    C510732   0.499   3.400  10.016  0.3202 -0.3692 -0.3821
  726MPD2     H10733   0.458   3.710  10.243  1.1250 -0.7979  0.7630
  726MPD2    H110734   0.369   3.306  10.161  1.7576  0.0075  0.9932
  726MPD2    H210735   0.628   3.509   9.902 -2.7735 -1.1611 -3.2228
  726MPD2    H310736   0.523   3.316   9.952 -0.1471 -2.1624  1.7775
  726MPD2     N10737   0.290   3.491  10.304  0.7402 -0.5510 -0.0180
  726MPD2    H510738   0.230   3.409  10.302 -0.6813  0.5211 -1.9321
  726MPD2    N110739   0.604   3.749  10.042 -0.2107  0.3015  0.1876
  726MPD2    H710740   0.613   3.817  10.117 -0.9947  2.0251 -1.3118
  727TMC3    C110741   0.712   3.904   9.931  0.3820  0.9811 -0.3100
  727TMC3    C210742   0.791   3.943  10.031  0.2153 -0.0443  0.2246
  727TMC3    C310743   0.818   4.077  10.045 -0.6750 -0.7135  0.1574
  727TMC3    C410744   0.633   3.993   9.863 -0.2229  0.4222  0.2846
  727TMC3    C510745   0.672   4.125   9.871 -0.5130 -0.2486 -0.1546
  727TMC3    C610746   0.767   4.168   9.954 -0.1425 -0.4572  0.1749
  727TMC3     C10747   0.665   3.772   9.925  0.0807 -0.3591  0.2705
  727TMC3     O10748   0.629   3.725   9.816 -0.3902  0.3703  0.1641
  727TMC3     H10749   0.856   3.878  10.088 -1.0128 -0.1799  1.4507
  727TMC3    H110750   0.554   3.951   9.802 -0.1639  0.9030 -0.1309
  727TMC3    H210751   0.806   4.269   9.956 -2.4672  0.4359  0.5595
  727TMC3    C710752   0.571   4.227   9.825  0.0160 -0.1491 -0.1403
  727TMC3    C810753   0.905   4.122  10.150  0.4956  0.8595 -0.1453
  727TMC3    O110754   0.485   4.178   9.747  0.0942 -0.1889  0.2414
  727TMC3    O210755   0.965   4.225  10.119  0.6315 -0.2394  0.0337
  728TMC3    C110756   3.860   2.289  15.561  0.7086 -0.1471 -0.8397
  728TMC3    C210757   3.962   2.352  15.622  0.5818  0.0111  0.2339
  728TMC3    C310758   4.062   2.404  15.539  0.0180  0.0685  0.3241
  728TMC3    C410759   3.864   2.250  15.427 -0.0612  0.0357  0.0640
  728TMC3    C510760   3.965   2.301  15.354  0.3420  0.0285  0.0522
  728TMC3    C610761   4.062   2.382  15.408 -0.0091  0.0496 -0.0059
  728TMC3     C10762   3.783   2.201  15.648  0.0935 -0.0785  0.4643
  728TMC3     O10763   3.809   2.209  15.765 -0.3563  0.2018  0.0595
  728TMC3     H10764   3.954   2.384  15.725 -2.2387 -1.4824  0.4516
  728TMC3    H110765   3.796   2.186  15.372 -0.5968  1.4608 -0.9265
  728TMC3    H210766   4.143   2.421  15.348 -1.2730  2.6409 -0.0639
  728TMC3    C710767   3.975   2.255  15.216  0.3790  0.0677  0.1111
  728TMC3    C810768   4.155   2.507  15.586  0.9854 -0.3396  0.7872
  728TMC3    O110769   3.888   2.184  15.173  0.7735  0.0450 -0.1064
  728TMC3    O210770   4.200   2.582  15.500  0.0675  0.1255 -0.8226
  729MPD2     C10771   1.501   3.146  16.918 -0.1010  0.5659  0.1533
  729MPD2    C110772   1.450   3.268  16.872 -0.0923 -0.3779 -0.1116
  729MPD2    C210773   1.336   3.319  16.938 -0.4595 -0.0047 -0.0625
  729MPD2    C310774   1.274   3.257  17.049 -0.3852  0.6930 -0.7304
  729MPD2    C410775   1.340   3.149  17.099  0.1418  0.0882  0.4164
  729MPD2    C510776   1.449   3.094  17.027  1.1825  0.8844 -0.0870
  729MPD2     H10777   1.304   3.419  16.909 -1.7175 -1.3017 -3.1654
  729MPD2    H110778   1.301   3.104  17.190 -1.4071 -1.6504 -1.1088
  729MPD2    H210779   1.590   3.098  16.880 -0.3855  2.1660 -2.5410
  729MPD2    H310780   1.504   3.011  17.068 -4.0090 -1.8043  1.3419
  729MPD2     N10781   1.163   3.305  17.119 -0.0015 -0.0646  0.8169
  729MPD2    H510782   1.151   3.269  17.214  1.3498 -1.1038  0.5976
  729MPD2    N110783   1.518   3.336  16.765 -0.2048 -0.1205  0.5734
  729MPD2    H710784   1.601   3.295  16.722  0.2997  0.5850  0.8715
  730TMC3    C110785   0.983   3.452  17.162 -0.9043 -0.3309 -0.3376
  730TMC3    C210786   0.978   3.393  17.284 -0.1807  0.6856 -0.6748
  730TMC3    C310787   0.943   3.472  17.387  0.4278 -0.3700 -0.2903
  730TMC3    C410788   0.943   3.575  17.136 -0.1104 -0.2322  0.1775
  730TMC3    C510789   0.906   3.652  17.244  0.0006 -0.6596  0.4478
  730TMC3    C610790   0.915   3.605  17.373  0.3670  0.3998 -0.8548
  730TMC3     C10791   1.086   3.402  17.067  0.0727 -0.5009 -0.0997
  730TMC3     O10792   1.057   3.422  16.946 -0.1719 -0.0101  0.1302
  730TMC3     H10793   0.984   3.286  17.296  0.2406  0.8786  0.7553
  730TMC3    H110794   0.950   3.610  17.033  0.9532  1.6835  0.9036
  730TMC3    H210795   0.871   3.667  17.451 -1.1398 -0.6495 -0.8723
  730TMC3    C710796   0.922   3.795  17.223  0.2250  0.1097  0.2293
  730TMC3    C810797   0.931   3.401  17.511 -0.1251  0.0015  0.5159
  730TMC3    O110798   0.908   3.834  17.104  0.0192  0.2631 -0.3027
  730TMC3    O210799   0.939   3.280  17.521  0.1197  0.3690  0.3093
  731MPD2     C10800   1.604   1.828  12.302 -0.2163  0.5674 -0.1174
  731MPD2    C110801   1.728   1.825  12.353 -0.8382 -0.5528 -0.1607
  731MPD2    C210802   1.743   1.756  12.476  0.2175  0.3375 -0.3532
  731MPD2    C310803   1.645   1.724  12.559  0.2662  0.5758  0.4367
  731MPD2    C410804   1.518   1.743  12.512 -0.4909 -0.2360 -0.0640
  731MPD2    C510805   1.499   1.790  12.386  0.0137  0.0037 -0.0961
  731MPD2     H10806   1.839   1.728  12.518 -1.0575 -2.6794  0.5647
  731MPD2    H110807   1.427   1.716  12.564 -1.3105 -1.7902 -2.3030
  731MPD2    H210808   1.569   1.861  12.204 -0.8919  1.3135  0.3722
  731MPD2    H310809   1.395   1.797  12.356 -0.6797 -1.4033  1.9985
  731MPD2     N10810   1.665   1.665  12.685 -0.5568 -0.2161 -0.1064
  731MPD2    H510811   1.760   1.647  12.716 -0.7688 -1.0226  0.0735
  731MPD2    N110812   1.830   1.860  12.264  0.4804 -0.4945 -0.2210
  731MPD2    H710813   1.810   1.881  12.167 -1.8290 -2.7731 -0.2439
  732TMC3    C110814   2.044   1.826  12.174  0.2690  0.1744 -0.3722
  732TMC3    C210815   1.992   1.720  12.097 -0.2711  0.3831 -0.6100
  732TMC3    C310816   2.080   1.647  12.029  0.1832 -0.1030 -0.1190
  732TMC3    C410817   2.173   1.857  12.187 -0.2403  0.0774 -0.0983
  732TMC3    C510818   2.261   1.767  12.130 -0.3196 -0.2404  0.4493
  732TMC3    C610819   2.219   1.665  12.045 -0.4018 -0.1879 -0.8443
  732TMC3     C10820   1.964   1.855  12.288  0.6369  0.1898  0.0185
  732TMC3     O10821   2.010   1.875  12.403 -0.0856  0.3907  1.2038
  732TMC3     H10822   1.886   1.714  12.075 -0.2897  0.6966 -0.6072
  732TMC3    H110823   2.216   1.925  12.259 -1.6089  0.7506  0.0922
  732TMC3    H210824   2.283   1.595  11.991  1.2541  0.5619  0.1403
  732TMC3    C710825   2.405   1.761  12.173  0.1653 -0.1255 -0.0404
  732TMC3    C810826   2.034   1.555  11.927 -0.1907 -0.5018 -0.4730
  732TMC3    O110827   2.447   1.857  12.239 -0.0795  0.3130  0.2558
  732TMC3    O210828   2.112   1.528  11.838 -0.0344  0.5761 -0.2764
  733TMC3    C110829   2.544   0.101  13.082 -0.1914 -0.5493  0.2303
  733TMC3    C210830   2.595   0.221  13.134  0.1868 -0.3319  0.5281
  733TMC3    C310831   2.709   0.268  13.068  0.1568 -0.6372 -0.1043
  733TMC3    C410832   2.593   0.028  12.972 -0.2011  1.2717  0.4497
  733TMC3    C510833   2.709   0.082  12.915 -0.3691 -0.6396 -0.6090
  733TMC3    C610834   2.771   0.195  12.970 -0.0212  0.0355 -0.3239
  733TMC3     C10835   2.400   0.090  13.102  0.1382  0.5449 -0.7347
  733TMC3     O10836   2.346   0.193  13.138 -0.3362  0.0395  0.0319
  733TMC3     H10837   2.547   0.262  13.221  3.5045  0.7107  1.8843
  733TMC3    H110838   2.552   4.651  12.950 -0.4811  1.2647  1.0034
  733TMC3    H210839   2.857   0.242  12.923 -0.2936  1.6659  0.8301
  733TMC3    C710840   2.755   0.049  12.784 -0.0733 -0.6912  0.3530
  733TMC3    C810841   2.743   0.407  13.094  0.3250 -0.1886  0.4379
  733TMC3    O110842   2.763   4.653  12.741 -0.4043  0.3279 -0.0565
  733TMC3    O210843   2.758   0.437  13.210  0.1658 -0.6323 -0.1734
  734MPD2     C10844   0.486   2.875  11.935  0.0263 -0.5116  0.4274
  734MPD2    C110845   0.374   2.824  11.872  0.2793 -0.8650  0.3137
  734MPD2    C210846   0.370   2.825  11.733 -0.1139 -0.5349 -0.2437
  734MPD2    C310847   0.476   2.885  11.667  0.2404  0.0618 -0.1938
  734MPD2    C410848   0.581   2.954  11.732 -0.1695  0.5508  0.8560
  734MPD2    C510849   0.589   2.939  11.866  0.3345  0.1819  0.6654
  734MPD2     H10850   0.301   2.772  11.669 -0.6985  1.2733 -1.1201
  734MPD2    H110851   0.663   3.002  11.680 -2.7273  2.5409 -1.3020
  734MPD2    H210852   0.487   2.877  12.043 -1.2466  0.0726  0.4167
  734MPD2    H310853   0.675   2.981  11.917  0.5425  1.2339 -0.5803
  734MPD2     N10854   0.467   2.877  11.526 -0.0902  0.2231  0.1943
  734MPD2    H510855   0.401   2.805  11.497 -1.2640  1.0234  0.8797
  734MPD2    N110856   0.263   2.749  11.947  0.5970 -0.1992  0.0823
  734MPD2    H710857   0.271   2.737  12.047 -0.2686 -1.1321  0.0351
  735TMC3    C110858   0.069   2.599  11.936  0.0846 -0.2133  0.4905
  735TMC3    C210859   4.681   2.568  11.859  0.2109  0.8419  0.8977
  735TMC3    C310860   4.652   2.437  11.844  0.4907 -0.1371 -0.2262
  735TMC3    C410861   0.147   2.510  12.006  0.7578 -0.7424 -0.3925
  735TMC3    C510862   0.111   2.381  11.982 -0.1517 -0.3427  0.0224
  735TMC3    C610863   0.009   2.340  11.906 -0.9514  0.2159  0.3603
  735TMC3     C10864   0.152   2.706  11.884  0.5746 -0.3889  0.7391
  735TMC3     O10865   0.106   2.760  11.782  0.2664  0.1238  0.1325
  735TMC3     H10866   4.627   2.642  11.802  1.0940  1.1653  0.4814
  735TMC3    H110867   0.233   2.539  12.066  1.9754 -0.5205 -2.2710
  735TMC3    H210868   4.711   2.237  11.880 -0.6405 -0.5104  3.0477
  735TMC3    C710869   0.228   2.290  11.982  0.2972  0.1857 -0.0616
  735TMC3    C810870   4.618   2.416  11.707  0.1398  0.7381  0.1107
  735TMC3    O110871   0.336   2.336  11.952 -0.4700 -0.4942  0.6527
  735TMC3    O210872   4.502   2.389  11.682  0.0316  0.3993 -0.6837
  736MPD2     C10873   0.274   1.959  12.087 -0.9909 -0.2890 -0.3588
  736MPD2    C110874   0.295   2.063  11.994  0.6247  0.6267  0.4381
  736MPD2    C210875   0.402   2.069  11.913  0.4511 -0.0057 -0.4130
  736MPD2    C310876   0.497   1.973  11.914 -0.3147 -0.0979 -0.5839
  736MPD2    C410877   0.477   1.879  12.010  0.6537  0.0941  0.2613
  736MPD2    C510878   0.371   1.863  12.088 -0.1311 -0.0187  0.0527
  736MPD2     H10879   0.406   2.157  11.850 -2.4916  0.3722 -0.0819
  736MPD2    H110880   0.543   1.793  12.017  0.2072 -0.1422  1.5980
  736MPD2    H210881   0.182   1.970  12.144 -0.6769  1.8422 -0.2329
  736MPD2    H310882   0.361   1.770  12.141  1.8003 -1.4923 -2.1509
  736MPD2     N10883   0.609   1.976  11.828  0.4604  0.1599 -0.3496
  736MPD2    H510884   0.684   1.909  11.839 -0.6859 -0.7409  1.9834
  736MPD2    N110885   0.192   2.155  11.993 -0.3431  0.1303 -0.6080
  736MPD2    H710886   0.099   2.135  12.029  0.2119 -3.3980 -1.1630
  737TMC3    C110887   0.766   2.064  11.672 -0.5483  1.0262  0.8072
  737TMC3    C210888   0.816   2.169  11.599  0.4598  0.6082  0.2025
  737TMC3    C310889   0.908   2.158  11.497 -0.1134 -0.0665 -0.1986
  737TMC3    C410890   0.788   1.936  11.617 -1.0125  0.7907 -0.6391
  737TMC3    C510891   0.870   1.927  11.501 -0.3487 -0.2572 -0.3938
  737TMC3    C610892   0.937   2.031  11.437 -0.1426  0.3434  0.0518
  737TMC3     C10893   0.641   2.076  11.740  0.0476 -0.1962  0.2510
  737TMC3     O10894   0.581   2.178  11.709 -1.2789 -0.3017 -0.2285
  737TMC3     H10895   0.784   2.266  11.634 -0.2779  0.0113  1.1823
  737TMC3    H110896   0.737   1.849  11.657 -0.5570  1.7101  1.9999
  737TMC3    H210897   1.003   2.013  11.354 -0.6949  1.5533 -0.6592
  737TMC3    C710898   0.840   1.807  11.426  0.0497  0.0660  0.5511
  737TMC3    C810899   0.945   2.281  11.424  0.0833 -0.3447  0.0808
  737TMC3    O110900   0.728   1.754  11.434  0.4946  0.6189 -0.3775
  737TMC3    O210901   0.906   2.386  11.472 -0.2359 -0.0548  0.6302
  738MPD2     C10902   0.445   0.670  15.458  0.1206  0.0179 -0.7659
  738MPD2    C110903   0.392   0.667  15.330 -0.2214  0.4318 -0.2962
  738MPD2    C210904   0.478   0.716  15.227  0.5018 -0.1183 -0.2427
  738MPD2    C310905   0.601   0.780  15.254  0.2967 -0.3505  0.2970
  738MPD2    C410906   0.637   0.794  15.388 -0.9589  0.2321  0.5139
  738MPD2    C510907   0.559   0.738  15.483 -0.3090 -0.5595  0.0981
  738MPD2     H10908   0.446   0.706  15.124 -2.8133  0.4570  0.7227
  738MPD2    H110909   0.728   0.844  15.421  0.2620 -0.1573 -2.2083
  738MPD2    H210910   0.395   0.615  15.537 -0.7577 -1.5595 -2.4412
  738MPD2    H310911   0.595   0.745  15.585 -0.5071  3.2308 -0.0629
  738MPD2     N10912   0.692   0.833  15.156  0.1966 -0.3801 -0.7167
  738MPD2    H510913   0.781   0.870  15.188 -0.3448  0.1785  0.1502
  738MPD2    N110914   0.274   0.594  15.299  0.7805 -0.3361 -0.1259
  738MPD2    H710915   0.259   0.570  15.201  0.1242 -1.5681  0.2831
  739TMC3    C110916   0.773   0.843  14.931 -0.4050  0.5294  0.2205
  739TMC3    C210917   0.747   0.875  14.801  0.8290  0.2543 -0.2420
  739TMC3    C310918   0.840   0.856  14.705 -0.3262  0.6535  0.2181
  739TMC3    C410919   0.892   0.784  14.971  0.4042 -0.4796  0.4486
  739TMC3    C510920   0.986   0.764  14.870  0.0893  0.4022  0.3447
  739TMC3    C610921   0.960   0.799  14.741  0.3096 -0.2034 -0.1811
  739TMC3     C10922   0.657   0.841  15.025  0.1989  0.2908  0.2774
  739TMC3     O10923   0.551   0.866  14.971  0.0757  0.0256 -0.1277
  739TMC3     H10924   0.661   0.939  14.785 -0.8771 -2.1671 -0.9070
  739TMC3    H110925   0.912   0.742  15.069  0.2739 -0.2457  0.5769
  739TMC3    H210926   1.040   0.773  14.674  1.5841  1.1736  0.8048
  739TMC3    C710927   1.102   0.678  14.901 -0.0110  0.2791 -0.8940
  739TMC3    C810928   0.837   0.941  14.598  0.8717 -0.5016  0.1968
  739TMC3    O110929   1.106   0.574  14.835 -0.4796 -0.3197 -0.1687
  739TMC3    O210930   0.726   0.982  14.562  0.0866 -0.1547 -0.5040
  740TMC3    C110931   1.230   2.219  14.448 -0.5473  0.6846  0.2338
  740TMC3    C210932   1.251   2.224  14.583 -0.5908 -0.5475  0.3763
  740TMC3    C310933   1.378   2.206  14.634 -0.4150 -0.1710  0.2451
  740TMC3    C410934   1.335   2.210  14.365  0.0238  0.1045  0.5167
  740TMC3    C510935   1.462   2.198  14.424 -0.0908 -0.2723 -0.0276
  740TMC3    C610936   1.485   2.195  14.555 -0.1758 -0.1822 -0.7320
  740TMC3     C10937   1.104   2.261  14.397 -0.9129  0.4708 -0.3359
  740TMC3     O10938   1.101   2.325  14.294 -0.1385 -0.0182  0.2165
  740TMC3     H10939   1.167   2.226  14.652 -1.2350  0.3488 -0.4362
  740TMC3    H110940   1.322   2.187  14.260 -1.3427  0.3507  0.6310
  740TMC3    H210941   1.586   2.190  14.592 -0.9699  0.9318  1.6402
  740TMC3    C710942   1.576   2.149  14.343  0.2185 -1.1761  0.5009
  740TMC3    C810943   1.385   2.177  14.780  0.1215  0.3765  0.4264
  740TMC3    O110944   1.642   2.056  14.399  0.1750  0.6213  0.4941
  740TMC3    O210945   1.333   2.259  14.853 -0.1804  0.0765 -0.5695
  741TMC3    C110946   0.794   1.483  14.485  0.7161 -0.4338  0.1984
  741TMC3    C210947   0.663   1.442  14.465 -0.6313 -0.2390  0.0876
  741TMC3    C310948   0.615   1.327  14.531  0.4821  0.0318  0.1013
  741TMC3    C410949   0.868   1.416  14.577 -0.1940 -0.3742  0.3048
  741TMC3    C510950   0.811   1.313  14.652  0.7680 -1.1576  0.7668
  741TMC3    C610951   0.681   1.268  14.636  0.2052  0.5258  0.6381
  741TMC3     C10952   0.827   1.621  14.450 -0.0488  0.5201 -0.0564
  741TMC3     O10953   0.948   1.640  14.464  0.4996  0.2499 -0.3732
  741TMC3     H10954   0.612   1.476  14.375  0.2967 -0.5667 -0.5558
  741TMC3    H110955   0.956   1.472  14.607  0.8455 -0.5173 -2.5731
  741TMC3    H210956   0.636   1.190  14.696  0.9835 -1.5687 -1.5076
  741TMC3    C710957   0.875   1.258  14.772 -0.1022 -0.5807 -0.0770
  741TMC3    C810958   0.488   1.268  14.486  0.4666  0.1563 -0.1319
  741TMC3    O110959   0.796   1.222  14.864 -0.0172 -0.1171  0.0057
  741TMC3    O210960   0.423   1.336  14.411 -0.2896  0.0446  0.8125
  742TMC3    C110961   0.165   4.455  15.463  0.4695  0.5985 -0.4208
  742TMC3    C210962   0.097   4.490  15.348  0.1990 -0.0293  0.5207
  742TMC3    C310963   0.179   4.528  15.236 -0.7443 -0.3986 -0.9968
  742TMC3    C410964   0.304   4.456  15.476 -0.4086 -0.1929 -0.0409
  742TMC3    C510965   0.375   4.482  15.360 -0.1413 -0.3283  0.0673
  742TMC3    C610966   0.312   4.521  15.244 -0.2761 -0.9666 -0.1039
  742TMC3     C10967   0.076   4.453  15.579  0.0179 -0.3109 -0.6080
  742TMC3     O10968   4.680   4.472  15.549  0.3808 -0.2088 -0.8237
  742TMC3     H10969   4.713   4.514  15.341  0.3017  0.4323  0.6116
  742TMC3    H110970   0.356   4.445  15.571 -0.9569  1.6876  0.4822
  742TMC3    H210971   0.363   4.522  15.148  0.9672 -1.8736  0.5507
  742TMC3    C710972   0.511   4.428  15.362  0.4323  0.1261  0.0376
  742TMC3    C810973   0.128   4.554  15.102  0.1206  0.3535  0.0955
  742TMC3    O110974   0.531   4.345  15.448 -0.1037  0.1903 -0.0343
  742TMC3    O210975   0.209   4.586  15.016 -0.0694 -0.6266 -0.0999
  743MPD2     C10976   4.000   0.919   2.200 -0.8359  0.0404 -1.0133
  743MPD2    C110977   4.004   0.959   2.069  0.2900 -0.0637 -0.4234
  743MPD2    C210978   4.038   1.092   2.052  0.2157 -1.1610  1.9201
  743MPD2    C310979   4.095   1.169   2.156  0.4931  0.3310  0.5218
  743MPD2    C410980   4.093   1.122   2.289 -0.5575 -0.1378 -0.2639
  743MPD2    C510981   4.043   0.993   2.310 -0.2297 -0.4984  0.5460
  743MPD2     H10982   4.033   1.137   1.953 -1.2119 -0.2107  2.4224
  743MPD2    H110983   4.133   1.176   2.374  0.1073 -2.2186  0.7497
  743MPD2    H210984   3.959   0.821   2.220 -1.9706  0.7451  0.1057
  743MPD2    H310985   4.028   0.961   2.412  1.3902  0.0264  0.9425
  743MPD2     N10986   4.129   1.306   2.126  0.3563 -0.0392  0.5312
  743MPD2    H510987   4.075   1.341   2.047  0.2307  1.1972  1.1648
  743MPD2    N110988   3.941   0.873   1.974  0.0273 -0.1664  0.2930
  743MPD2    H710989   3.902   0.785   2.009 -2.3336  1.8582  2.7506
  744TMC3    C110990   3.854   0.790   1.769 -0.3077 -0.0182 -0.4126
  744TMC3    C210991   3.823   0.673   1.832 -0.6075 -0.2383 -0.1185
  744TMC3    C310992   3.728   0.600   1.767 -0.0870  0.3281  0.1269
  744TMC3    C410993   3.808   0.824   1.641  0.3274  0.3096 -0.7788
  744TMC3    C510994   3.722   0.748   1.580  0.4039  0.0023  0.6391
  744TMC3    C610995   3.681   0.631   1.646  0.0575 -0.4630  0.2293
  744TMC3     C10996   3.924   0.897   1.840  0.1838 -0.6206  0.2332
  744TMC3     O10997   3.959   0.992   1.771 -0.2176  0.4616  0.4036
  744TMC3     H10998   3.870   0.647   1.926 -2.1163  0.3996  0.7969
  744TMC3    H110999   3.829   0.922   1.600 -3.3965  1.3742 -0.1149
  744TMC3    H211000   3.598   0.571   1.610 -1.3524  0.8847  1.2536
  744TMC3    C711001   3.648   0.792   1.459 -0.3693  0.3369  0.2660
  744TMC3    C811002   3.696   0.470   1.816  0.1424 -0.4672  0.2780
  744TMC3    O111003   3.665   0.902   1.411  0.2080 -1.0062 -0.0962
  744TMC3    O211004   3.577   0.435   1.806  0.3872  0.2869 -0.2496
  745TMC3    C111005   1.157   4.284  13.226 -0.1979 -0.0872 -0.4162
  745TMC3    C211006   1.082   4.343  13.323 -0.4180  1.0094 -0.3753
  745TMC3    C311007   0.948   4.366  13.283  0.2513 -0.0845 -0.1757
  745TMC3    C411008   1.102   4.232  13.113 -0.0351 -0.0834 -0.2354
  745TMC3    C511009   0.981   4.279  13.059 -0.3777 -0.4280  0.0005
  745TMC3    C611010   0.904   4.347  13.149 -0.4927 -0.0472 -0.5865
  745TMC3     C11011   1.300   4.311  13.230  0.1249 -0.4970 -0.2296
  745TMC3     O11012   1.373   4.243  13.162 -0.0091 -0.6511 -0.2955
  745TMC3     H11013   1.111   4.347  13.428  0.2826 -1.0090 -0.4884
  745TMC3    H111014   1.178   4.190  13.048  1.2674 -2.1538  2.6130
  745TMC3    H211015   0.823   4.410  13.114  0.7473  1.3039 -1.0713
  745TMC3    C711016   1.014   4.359  12.943 -0.5474 -0.5231 -0.2958
  745TMC3    C811017   0.861   4.433  13.377 -0.9227 -0.1191  0.0646
  745TMC3    O111018   1.071   4.302  12.848 -0.4985  0.1740 -0.8443
  745TMC3    O211019   0.744   4.453  13.344  0.1583  0.4204 -0.1789
  746TMC3    C111020   3.690   1.821  11.207  0.3068  0.0202 -0.1735
  746TMC3    C211021   3.766   1.794  11.096  0.3629  0.7185 -0.4882
  746TMC3    C311022   3.730   1.685  11.024 -0.5187 -0.4047  0.8207
  746TMC3    C411023   3.578   1.747  11.235  0.3275 -0.5214 -0.2687
  746TMC3    C511024   3.553   1.632  11.160 -0.5693  0.5442 -0.2181
  746TMC3    C611025   3.633   1.594  11.057 -0.3319 -0.0472  0.1996
  746TMC3     C11026   3.689   1.953  11.266  0.3890 -0.5741  0.2020
  746TMC3     O11027   3.634   1.956  11.376  0.2998  0.1326 -0.2775
  746TMC3     H11028   3.857   1.848  11.071  0.2898  1.9092  1.8661
  746TMC3    H111029   3.525   1.779  11.323  2.4249  1.2754  0.3464
  746TMC3    H211030   3.600   1.512  10.994 -0.6087  0.7991 -0.7588
  746TMC3    C711031   3.420   1.572  11.165  0.2483  0.4687  0.1790
  746TMC3    C811032   3.817   1.641  10.913  0.4983  0.0379 -0.3005
  746TMC3    O111033   3.409   1.457  11.122 -0.3305  0.2417 -1.1081
  746TMC3    O211034   3.790   1.530  10.858 -0.4478  0.2759  0.0632
  747TMC3    C111035   1.271   1.728  10.533 -0.0624  0.3542 -0.8067
  747TMC3    C211036   1.218   1.620  10.594 -0.2746 -0.6317  0.0379
  747TMC3    C311037   1.243   1.607  10.726  0.0338 -0.8724  0.0673
  747TMC3    C411038   1.353   1.818  10.594 -0.2473  0.8140 -0.1941
  747TMC3    C511039   1.386   1.787  10.721  0.7011 -0.0966  0.3475
  747TMC3    C611040   1.333   1.683  10.791 -0.6228  0.2777 -0.5349
  747TMC3     C11041   1.254   1.749  10.391 -0.1388  0.8352  0.3834
  747TMC3     O11042   1.250   1.865  10.350  0.0478  0.1570  0.1579
  747TMC3     H11043   1.127   1.575  10.554 -0.1972  0.1839 -1.0498
  747TMC3    H111044   1.381   1.904  10.533  1.9126  0.4910  0.3176
  747TMC3    H211045   1.358   1.663  10.895 -1.5367 -0.5129 -0.4677
  747TMC3    C711046   1.461   1.885  10.801  0.0723 -0.5339  0.0105
  747TMC3    C811047   1.146   1.540  10.812 -0.4502 -0.3928 -0.5623
  747TMC3    O111048   1.467   1.861  10.923  0.3145 -0.0342 -0.1462
  747TMC3    O211049   1.077   1.452  10.760  0.0287 -0.4314  0.0926
  748MPD2     C11050   1.699   2.508   1.855  0.8248  0.6191 -0.1682
  748MPD2    C111051   1.747   2.564   1.736  0.0036  0.0620  0.3995
  748MPD2    C211052   1.882   2.598   1.729  1.2276  0.1684  0.4299
  748MPD2    C311053   1.964   2.581   1.843  0.0747  0.3591 -0.4778
  748MPD2    C411054   1.904   2.545   1.965 -0.5121 -0.5395 -0.1991
  748MPD2    C511055   1.778   2.493   1.966  0.6629  0.3351 -0.1056
  748MPD2     H11056   1.934   2.621   1.637  1.9495 -1.2805  0.4791
  748MPD2    H111057   1.956   2.531   2.059 -0.5591 -2.7515 -0.4881
  748MPD2    H211058   1.601   2.463   1.861  0.3712  1.6263  0.0956
  748MPD2    H311059   1.749   2.435   2.053  0.1579 -0.9358 -1.1230
  748MPD2     N11060   2.103   2.605   1.842  0.4267  0.3149 -0.2429
  748MPD2    H511061   2.139   2.654   1.759 -1.0990 -0.0262 -1.0996
  748MPD2    N111062   1.664   2.555   1.623  0.2584 -0.5988 -0.5611
  748MPD2    H711063   1.569   2.531   1.649 -0.2450  1.7374 -0.2821
  749TMC3    C111064   2.323   2.621   1.920 -0.3425  0.4136  0.5473
  749TMC3    C211065   2.421   2.570   2.006  0.2705  0.3246  0.1784
  749TMC3    C311066   2.548   2.584   1.975  0.1500 -0.1212  0.3785
  749TMC3    C411067   2.352   2.712   1.822  0.5049 -0.5376 -0.0076
  749TMC3    C511068   2.487   2.737   1.801  0.3495  0.3467 -0.2843
  749TMC3    C611069   2.582   2.675   1.876  0.2355  0.3743 -0.0022
  749TMC3     C11070   2.189   2.559   1.941  0.1999  0.1223 -0.6378
  749TMC3     O11071   2.169   2.494   2.040  0.1929  0.2055  0.4300
  749TMC3     H11072   2.398   2.496   2.082 -0.6554 -0.2445 -0.6488
  749TMC3    H111073   2.274   2.752   1.758  0.6075 -1.8867 -0.9713
  749TMC3    H211074   2.687   2.690   1.852  0.2801  1.2037  0.6880
  749TMC3    C711075   2.536   2.818   1.692 -0.2451 -0.1866 -0.8092
  749TMC3    C811076   2.639   2.557   2.080  0.7990 -0.0653 -0.1809
  749TMC3    O111077   2.658   2.827   1.677 -0.7711  0.6055 -0.2515
  749TMC3    O211078   2.603   2.577   2.194 -0.0744  0.4388  0.1253
  750MPD2     C11079   4.300   3.496  11.352  0.0147  0.7606 -0.3714
  750MPD2    C111080   4.168   3.454  11.359  0.6100  0.2723  0.4463
  750MPD2    C211081   4.105   3.391  11.253  0.4347  0.7137  0.0204
  750MPD2    C311082   4.173   3.370  11.131 -0.0888  0.1983  0.0100
  750MPD2    C411083   4.306   3.388  11.128 -0.3353 -0.8760  0.9387
  750MPD2    C511084   4.366   3.455  11.235  0.4773  0.0172  0.8260
  750MPD2     H11085   4.002   3.356  11.258  0.7189 -0.0037  0.8051
  750MPD2    H111086   4.365   3.349  11.046  0.0558 -0.0889  0.8493
  750MPD2    H211087   4.355   3.530  11.439 -1.0253 -0.0763  0.6050
  750MPD2    H311088   4.474   3.468  11.228  0.1230  3.3257  1.3913
  750MPD2     N11089   4.110   3.320  11.016 -0.2292 -0.6995 -0.0264
  750MPD2    H511090   4.170   3.327  10.935 -1.0546  3.7409 -0.2571
  750MPD2    N111091   4.109   3.463  11.484  0.1308 -0.1191  0.5318
  750MPD2    H711092   4.158   3.515  11.556  0.4140  2.1884 -1.3275
  751TMC3    C111093   3.955   3.212  10.868  0.2352  0.4217  0.8049
  751TMC3    C211094   3.825   3.221  10.817  0.7909  1.0930 -0.5240
  751TMC3    C311095   3.802   3.169  10.688 -0.0583  0.3101 -0.4284
  751TMC3    C411096   4.060   3.146  10.802 -0.0539 -0.1361  1.2234
  751TMC3    C511097   4.031   3.094  10.680  0.7584 -0.4062  1.3295
  751TMC3    C611098   3.908   3.110  10.618  0.2446 -0.1906  0.3984
  751TMC3     C11099   3.983   3.267  11.006  0.6626 -1.0167  0.2623
  751TMC3     O11100   3.899   3.266  11.091 -0.1037 -0.3591  0.5695
  751TMC3     H11101   3.751   3.267  10.882  0.3498 -0.4714  0.0938
  751TMC3    H111102   4.152   3.124  10.855  0.6044 -0.5523 -0.0995
  751TMC3    H211103   3.893   3.058  10.524  2.3006 -0.5348  0.2653
  751TMC3    C711104   4.134   2.997  10.629  0.1274  0.4771 -0.1346
  751TMC3    C811105   3.662   3.156  10.642 -0.1644 -0.7510 -0.4187
  751TMC3    O111106   4.248   2.995  10.675  0.4649  0.1152 -0.1303
  751TMC3    O211107   3.641   3.070  10.556 -0.8875 -0.0535 -0.2262
  752TMC3    C111108   2.215   3.749  17.360 -0.2334  0.1751 -0.2482
  752TMC3    C211109   2.125   3.853  17.367 -0.1227 -1.2808  0.1233
  752TMC3    C311110   2.069   3.872  17.488 -0.0997 -0.2598 -0.9745
  752TMC3    C411111   2.261   3.681  17.464  0.6746 -0.2417 -0.1737
  752TMC3    C511112   2.205   3.703  17.588 -0.9688  0.0385  0.3594
  752TMC3    C611113   2.112   3.806  17.599 -0.2369  0.0176 -0.2001
  752TMC3     C11114   2.238   3.694  17.222 -0.9696  0.0533  0.7290
  752TMC3     O11115   2.334   3.624  17.201  0.4386  0.0234 -0.1300
  752TMC3     H11116   2.087   3.911  17.284  0.0107  2.3355  2.5848
  752TMC3    H111117   2.328   3.597  17.447 -2.7738 -2.9320 -0.4373
  752TMC3    H211118   2.057   3.813   0.004 -0.9291 -0.5956 -0.5583
  752TMC3    C711119   2.264   3.646   0.017 -0.1936 -1.1103 -1.1982
  752TMC3    C811120   1.965   3.972  17.498  0.3648 -0.2032 -0.6049
  752TMC3    O111121   2.198   3.616   0.112  0.3840  0.0735 -0.1854
  752TMC3    O211122   1.909   3.989  17.391  0.1835 -0.6243 -0.3437
  753TMC3    C111123   3.899   4.157  13.605  0.1362 -0.6629 -0.7033
  753TMC3    C211124   3.965   4.159  13.719 -0.0881 -0.6094 -0.3879
  753TMC3    C311125   4.039   4.043  13.746  0.1706 -0.1902  0.3935
  753TMC3    C411126   3.898   4.055  13.517  0.0678  0.0683  0.0645
  753TMC3    C511127   3.954   3.941  13.555 -0.2550  0.0808  0.8906
  753TMC3    C611128   4.030   3.933  13.666 -0.6781  0.0404 -0.0602
  753TMC3     C11129   3.837   4.280  13.563 -0.8792 -0.0560 -1.0172
  753TMC3     O11130   3.748   4.271  13.477 -0.0390  0.1703  0.0683
  753TMC3     H11131   3.934   4.231  13.794  1.6271 -1.0941  0.7745
  753TMC3    H111132   3.833   4.055  13.430 -2.2330  0.5211  1.7692
  753TMC3    H211133   4.070   3.838  13.699  0.2406  0.5960  0.4430
  753TMC3    C711134   3.992   3.850  13.455 -0.2073 -0.2784 -0.1634
  753TMC3    C811135   4.091   4.029  13.881 -0.6192  0.1331 -0.1743
  753TMC3    O111136   4.002   3.893  13.337  0.3420 -0.6924  0.1922
  753TMC3    O211137   4.117   3.914  13.905 -0.2654 -0.1269 -0.7925
  754MPD2     C11138   3.396   2.735  13.368  0.0738  0.2687 -0.2595
  754MPD2    C111139   3.312   2.631  13.350 -0.1533  0.4186  0.3432
  754MPD2    C211140   3.192   2.645  13.287 -0.4593 -0.9061  0.4346
  754MPD2    C311141   3.148   2.771  13.254  0.1214  0.1195  0.1362
  754MPD2    C411142   3.236   2.876  13.263  0.5009  0.3691  0.1278
  754MPD2    C511143   3.363   2.855  13.314  0.2072  0.4835  0.3632
  754MPD2     H11144   3.126   2.559  13.283 -0.5456 -0.9463  2.7886
  754MPD2    H111145   3.209   2.976  13.232 -0.6902  0.0146  0.0339
  754MPD2    H211146   3.487   2.719  13.426 -1.3850  0.3725  2.0678
  754MPD2    H311147   3.441   2.928  13.334 -0.8061  2.3291 -2.5184
  754MPD2     N11148   3.019   2.805  13.218 -0.5573  0.3063 -0.4152
  754MPD2    H511149   2.992   2.902  13.205 -0.2520  0.4050 -0.3185
  754MPD2    N111150   3.342   2.520  13.431  0.3295  0.2553  0.0981
  754MPD2    H711151   3.419   2.533  13.496 -1.6799  4.2863  1.6233
  755MPD2     C11152   2.528   3.545  13.345  0.1796 -0.9110  0.0446
  755MPD2    C111153   2.505   3.452  13.447  0.3559  0.3960 -0.0621
  755MPD2    C211154   2.552   3.329  13.439  0.4661 -0.0940  0.5487
  755MPD2    C311155   2.618   3.284  13.329 -0.0603 -0.0860  0.0501
  755MPD2    C411156   2.653   3.376  13.232  0.5107  0.0826 -0.5064
  755MPD2    C511157   2.615   3.504  13.242 -0.1816 -0.1554  0.7622
  755MPD2     H11158   2.537   3.264  13.524 -2.3248 -2.5844 -1.8131
  755MPD2    H111159   2.719   3.352  13.149 -3.0821 -2.4523 -2.6604
  755MPD2    H211160   2.485   3.644  13.347  3.6459  0.6742 -2.4447
  755MPD2    H311161   2.648   3.576  13.168  1.7087  0.7222  2.4738
  755MPD2     N11162   2.662   3.157  13.327 -0.1825  0.4455  0.2061
  755MPD2    H511163   2.709   3.132  13.240  0.3970  2.2812 -0.0114
  755MPD2    N111164   2.434   3.484  13.561 -0.5197 -0.5114 -0.3248
  755MPD2    H711165   2.437   3.415  13.635  0.4203 -0.5579 -0.4108
  756MPD2     C11166   3.703   3.975   9.466  0.5400  0.1637 -0.1390
  756MPD2    C111167   3.662   3.947   9.598 -0.2982 -0.1972 -0.4722
  756MPD2    C211168   3.530   3.942   9.631  0.1938  0.1502  0.1235
  756MPD2    C311169   3.437   3.943   9.528  0.9303  0.7392  1.1737
  756MPD2    C411170   3.480   3.958   9.398 -0.0148  0.3207  0.8135
  756MPD2    C511171   3.612   3.983   9.370 -0.2067  0.0139 -0.1387
  756MPD2     H11172   3.490   3.930   9.731 -0.2473 -0.3880 -0.1201
  756MPD2    H111173   3.415   3.959   9.311 -0.0770  1.8946  0.8719
  756MPD2    H211174   3.808   3.983   9.442  0.5672  0.2074 -0.0076
  756MPD2    H311175   3.643   4.011   9.270  0.1539 -2.5170 -0.7320
  756MPD2     N11176   3.301   3.922   9.565 -0.9757  0.3796 -0.0995
  756MPD2    H511177   3.277   3.878   9.653  0.4672  0.5720  0.3874
  756MPD2    N111178   3.752   3.937   9.709 -0.4796 -0.0758  0.1489
  756MPD2    H711179   3.709   3.898   9.792  0.2750  2.4586  1.7532
  757MPD2     C11180   2.974   3.254   9.903 -0.2235  0.1226  0.8092
  757MPD2    C111181   3.042   3.291   9.787 -0.5361  0.3671  0.5477
  757MPD2    C211182   3.024   3.416   9.732 -0.1419  0.4703 -0.1234
  757MPD2    C311183   2.955   3.510   9.804 -0.9406  0.0486 -0.4883
  757MPD2    C411184   2.890   3.481   9.922  0.0173 -0.3814 -0.2674
  757MPD2    C511185   2.902   3.354   9.968 -0.2782 -0.5906  0.3478
  757MPD2     H11186   3.077   3.439   9.640 -0.0577  2.6537  0.4692
  757MPD2    H111187   2.839   3.556   9.981  0.7955 -0.2595  0.2448
  757MPD2    H211188   2.985   3.160   9.955  2.2714 -0.2675 -0.4025
  757MPD2    H311189   2.855   3.327  10.062 -0.9103  1.1017  0.5031
  757MPD2     N11190   2.968   3.637   9.746 -0.0781  0.0943  0.6325
  757MPD2    H511191   3.027   3.642   9.664 -2.0767  0.9837 -0.7719
  757MPD2    N111192   3.134   3.204   9.725  0.0972 -0.6194 -0.7877
  757MPD2    H711193   3.181   3.238   9.642  1.5188  2.8220  1.4368
  758MPD2     C11194   2.375   2.952  16.250  0.1809 -0.4112 -0.3145
  758MPD2    C111195   2.425   2.916  16.376 -0.3339 -0.1569  0.5685
  758MPD2    C211196   2.416   3.005  16.482 -0.7348 -0.0520  0.3775
  758MPD2    C311197   2.347   3.118  16.467 -0.3806  0.7010  0.3442
  758MPD2    C411198   2.288   3.153  16.346  0.6958 -0.2009 -0.1817
  758MPD2    C511199   2.301   3.063  16.234 -0.1116  0.1522  0.3258
  758MPD2     H11200   2.461   2.979  16.577  1.4215  0.5602 -0.4702
  758MPD2    H111201   2.248   3.252  16.329  1.1897 -0.2791 -1.7891
  758MPD2    H211202   2.386   2.895  16.158  1.2563  0.2556 -0.5986
  758MPD2    H311203   2.271   3.084  16.132 -1.4828 -4.1379 -0.1558
  758MPD2     N11204   2.322   3.209  16.575 -0.3569 -0.1779  0.0211
  758MPD2    H511205   2.264   3.290  16.556 -0.0602  0.1232  0.3933
  758MPD2    N111206   2.483   2.783  16.391 -0.2082  0.9191  0.0684
  758MPD2    H711207   2.522   2.741  16.308  1.7659  0.1872  1.3659
  759MPD2     C11208   2.415   0.901  10.430  0.4698 -0.8020  0.3521
  759MPD2    C111209   2.448   0.837  10.315  0.6760  0.1230  0.0003
  759MPD2    C211210   2.511   0.910  10.215  0.2174 -0.4560 -0.2102
  759MPD2    C311211   2.535   1.041  10.224  0.7869 -0.0406  0.1578
  759MPD2    C411212   2.503   1.102  10.344 -0.2914  0.2778 -0.2276
  759MPD2    C511213   2.444   1.028  10.447  0.0298 -0.3117 -0.5842
  759MPD2     H11214   2.522   0.852  10.123 -0.1150 -2.3690  0.9492
  759MPD2    H111215   2.529   1.206  10.359  0.1421  0.8386 -5.0314
  759MPD2    H211216   2.393   0.845  10.520 -1.9855  0.7509  0.7143
  759MPD2    H311217   2.431   1.071  10.545  2.3178 -3.2782  1.0161
  759MPD2     N11218   2.587   1.103  10.110  0.3794  0.4125 -0.4003
  759MPD2    H511219   2.609   1.053  10.025 -0.6000 -0.4786 -0.1349
  759MPD2    N111220   2.414   0.701  10.293 -0.0299 -0.3395 -0.1368
  759MPD2    H711221   2.423   0.661  10.200 -3.6388 -0.9122 -0.2412
  760MPD2     C11222   2.222   3.073  12.109 -0.3034 -0.4241  1.0328
  760MPD2    C111223   2.313   3.102  12.002  0.3442 -0.0842  0.7231
  760MPD2    C211224   2.365   3.002  11.915  0.0285  0.0837  0.1558
  760MPD2    C311225   2.342   2.872  11.949  0.9472  0.1016 -0.2783
  760MPD2    C411226   2.250   2.844  12.053  0.1617  0.5004 -0.8859
  760MPD2    C511227   2.182   2.941  12.127  0.2573  0.8659  0.7938
  760MPD2     H11228   2.424   3.035  11.831  1.3775  0.6542  1.3301
  760MPD2    H111229   2.232   2.742  12.084  0.0094  0.5073 -0.9515
  760MPD2    H211230   2.180   3.148  12.174 -0.2640 -0.6750  1.3472
  760MPD2    H311231   2.120   2.920  12.213 -1.0906 -0.9625 -0.6584
  760MPD2     N11232   2.367   2.756  11.873  1.0022 -0.3374 -0.1233
  760MPD2    H511233   2.319   2.671  11.903 -0.1088  0.8352  1.4602
  760MPD2    N111234   2.346   3.237  11.977  0.6915  0.2596  0.2787
  760MPD2    H711235   2.388   3.255  11.886  1.6461  0.0262  0.6712
  761MPD2     C11236   3.234   2.997  10.888  0.5858  0.5568 -0.5164
  761MPD2    C111237   3.339   2.921  10.832 -0.3732  0.5035  0.5875
  761MPD2    C211238   3.449   2.987  10.774  0.3119 -0.2718 -0.2399
  761MPD2    C311239   3.468   3.123  10.785 -0.4531  0.5105  0.5466
  761MPD2    C411240   3.376   3.191  10.867 -0.1402  0.2149 -0.2387
  761MPD2    C511241   3.260   3.133  10.912 -0.4470  0.0328 -0.5419
  761MPD2     H11242   3.515   2.925  10.715  1.0730  0.5720 -0.2777
  761MPD2    H111243   3.398   3.292  10.898  0.5659 -0.1012  0.3081
  761MPD2    H211244   3.134   2.962  10.910  1.3729 -0.7416  1.0026
  761MPD2    H311245   3.192   3.192  10.972 -1.4630  1.0485 -2.6597
  761MPD2     N11246   3.576   3.197  10.738  0.1590 -0.1002 -0.1143
  761MPD2    H511247   3.595   3.290  10.774 -1.7554 -0.4297  1.7443
  761MPD2    N111248   3.322   2.777  10.818  0.1132 -0.5807 -0.2078
  761MPD2    H711249   3.238   2.735  10.858  0.7579 -2.8532 -1.2310
  762MPD2     C11250   3.943   2.630  10.856 -0.2466 -0.4183  0.8855
  762MPD2    C111251   3.899   2.517  10.788  0.1416 -0.4862  0.2521
  762MPD2    C211252   3.991   2.437  10.722 -0.3633  0.2801 -0.0674
  762MPD2    C311253   4.128   2.459  10.723  0.0144  0.0813  0.4960
  762MPD2    C411254   4.170   2.574  10.788  0.4362  0.3416  0.6228
  762MPD2    C511255   4.083   2.653  10.862 -0.7617 -0.5174 -0.3587
  762MPD2     H11256   3.958   2.342  10.680 -1.5375 -0.2058  1.9643
  762MPD2    H111257   4.273   2.605  10.797  0.8945 -2.0174  3.4682
  762MPD2    H211258   3.871   2.688  10.912  1.0954  1.9941  0.1124
  762MPD2    H311259   4.124   2.738  10.915 -2.8978  1.0373 -1.2066
  762MPD2     N11260   4.212   2.382  10.639  0.2730  0.0220  0.0599
  762MPD2    H511261   4.165   2.316  10.577  0.6737 -0.3818  0.1861
  762MPD2    N111262   3.761   2.492  10.783  0.0618 -0.3227  0.4828
  762MPD2    H711263   3.699   2.572  10.788 -0.9084 -0.9997 -0.7369
  763MPD2     C11264   0.179   2.627  16.138  0.4349  0.7783  0.4902
  763MPD2    C111265   0.092   2.734  16.110 -0.7688 -0.4881 -1.0103
  763MPD2    C211266   0.085   2.841  16.189 -0.3257 -0.0752  0.0399
  763MPD2    C311267   0.172   2.855  16.295  0.2477 -0.6910 -0.3753
  763MPD2    C411268   0.278   2.769  16.306  0.3579  0.7609  0.6289
  763MPD2    C511269   0.284   2.653  16.224  0.6487 -0.1029  0.0776
  763MPD2     H11270   0.024   2.927  16.164 -0.0542 -0.5592 -2.3187
  763MPD2    H111271   0.339   2.780  16.395  1.0022  0.5253  0.2249
  763MPD2    H211272   0.171   2.538  16.077 -0.4095  0.7361  0.6621
  763MPD2    H311273   0.360   2.577  16.230  0.2612 -0.3343  1.9403
  763MPD2     N11274   0.167   2.967  16.381  0.0016  0.5788 -0.2716
  763MPD2    H511275   0.248   2.978  16.440  0.6882  1.5998 -1.3928
  763MPD2    N111276   0.003   2.739  16.002 -0.0931 -0.5691 -0.1463
  763MPD2    H711277   4.677   2.825  15.974 -0.8191 -1.5690 -2.0550
  764MPD2     C11278   2.259   4.383   0.456 -0.1948 -0.2256  0.0405
  764MPD2    C111279   2.235   4.272   0.377 -0.1161 -0.1996 -0.1872
  764MPD2    C211280   2.275   4.149   0.431 -0.1794 -0.3293 -0.3644
  764MPD2    C311281   2.331   4.141   0.556 -0.2427 -0.0422 -0.1806
  764MPD2    C411282   2.366   4.260   0.624 -0.4970  0.7954 -0.3760
  764MPD2    C511283   2.317   4.379   0.583  0.7128 -0.2046  0.3315
  764MPD2     H11284   2.268   4.062   0.368  1.2725 -0.3723 -0.4706
  764MPD2    H111285   2.397   4.255   0.728  0.6313  2.1637 -0.6535
  764MPD2    H211286   2.207   4.476   0.438 -1.9466 -0.8459  1.8361
  764MPD2    H311287   2.327   4.460   0.654 -1.4595  0.4615 -0.1319
  764MPD2     N11288   2.336   4.012   0.616 -0.3305 -0.2131  0.5548
  764MPD2    H511289   2.288   3.943   0.560  1.7891 -0.6462 -0.7443
  764MPD2    N111290   2.191   4.283   0.249  0.0930  0.0354  0.0907
  764MPD2    H711291   2.181   4.198   0.194  2.9574 -0.2399  0.0217
  765MPD2     C11292   2.283   1.588  15.710  0.0063 -0.5108  0.1071
  765MPD2    C111293   2.364   1.682  15.767  0.5472 -0.0215  0.0807
  765MPD2    C211294   2.501   1.687  15.744 -0.4184 -0.4269  0.2848
  765MPD2    C311295   2.549   1.597  15.644 -1.0031 -0.3679 -0.7002
  765MPD2    C411296   2.463   1.504  15.591  0.6604  0.3071 -0.2997
  765MPD2    C511297   2.334   1.504  15.625  0.3984 -0.4600  0.3526
  765MPD2     H11298   2.568   1.762  15.786  0.6067 -0.5176 -1.1803
  765MPD2    H111299   2.499   1.424  15.528  2.2347  0.6688  0.1292
  765MPD2    H211300   2.175   1.581  15.719  0.0909 -2.0343 -0.0735
  765MPD2    H311301   2.263   1.436  15.579 -1.1381  0.5906  1.1652
  765MPD2     N11302   2.683   1.631  15.600 -0.8363  1.0695  0.0391
  765MPD2    H511303   2.723   1.706  15.654 -0.6888  2.5593 -2.1466
  765MPD2    N111304   2.298   1.792  15.820  0.5324 -0.0604 -0.0760
  765MPD2    H711305   2.196   1.793  15.818  0.4732  2.0959  2.9292
  766MPD2     C11306   1.930   2.024  15.306 -0.2091 -0.3235 -1.2068
  766MPD2    C111307   2.037   2.106  15.346  0.1424  0.5371  0.5529
  766MPD2    C211308   2.118   2.157  15.245  0.1501 -0.3188  0.1918
  766MPD2    C311309   2.080   2.132  15.111 -0.1518  0.6569 -0.0705
  766MPD2    C411310   1.967   2.064  15.084  0.4022 -0.7981 -0.1163
  766MPD2    C511311   1.888   2.012  15.181  0.0976  0.4052  0.5920
  766MPD2     H11312   2.198   2.224  15.271  0.3841 -0.0941 -1.1208
  766MPD2    H111313   1.933   2.061  14.981  1.6463  5.2888 -0.7274
  766MPD2    H211314   1.879   1.972  15.387  0.5179  1.3497  0.3113
  766MPD2    H311315   1.788   1.974  15.164 -0.5953  2.6798 -0.3619
  766MPD2     N11316   2.158   2.181  15.006  0.0437  0.6827 -0.1794
  766MPD2    H511317   2.121   2.160  14.914  0.7749 -0.8203 -0.1325
  766MPD2    N111318   2.073   2.141  15.481 -0.1108 -0.0183  0.2448
  766MPD2    H711319   2.144   2.211  15.497 -0.1483 -0.6616  3.1536
  767MPD2     C11320   1.797   2.369  15.053  0.5330 -0.7098  0.4503
  767MPD2    C111321   1.911   2.433  15.011 -0.8557  0.0714 -0.2585
  767MPD2    C211322   1.942   2.439  14.878 -0.2886  0.1329  0.2165
  767MPD2    C311323   1.852   2.389  14.783 -0.5799  0.6018  0.1884
  767MPD2    C411324   1.730   2.331  14.824 -0.4016  0.3710 -0.3562
  767MPD2    C511325   1.713   2.319  14.957  0.1286  0.4743  0.0857
  767MPD2     H11326   2.036   2.480  14.844 -0.7331  1.1428  0.2090
  767MPD2    H111327   1.649   2.302  14.758 -2.3249 -0.0241  2.2138
  767MPD2    H211328   1.764   2.358  15.155 -0.7138  1.1239  0.2439
  767MPD2    H311329   1.622   2.271  14.991 -0.4956 -0.1718 -2.4577
  767MPD2     N11330   1.893   2.393  14.646  0.3484  0.0466 -0.1351
  767MPD2    H511331   1.989   2.409  14.617  0.2087  1.4175  0.1657
  767MPD2    N111332   1.998   2.477  15.110 -0.3823  0.3953 -0.2403
  767MPD2    H711333   1.989   2.461  15.210 -2.1894 -0.8967 -0.5961
  768MPD2     C11334   3.210   0.739  10.887  0.2218 -0.2843  0.7966
  768MPD2    C111335   3.214   0.869  10.938  0.1049  0.1747  0.9067
  768MPD2    C211336   3.327   0.909  11.008  0.4094 -0.6181  0.5516
  768MPD2    C311337   3.443   0.832  11.016 -0.1889 -0.8256  0.2384
  768MPD2    C411338   3.430   0.693  10.981 -0.1245  0.1593  0.1425
  768MPD2    C511339   3.316   0.654  10.912 -0.0941 -0.3469 -0.3769
  768MPD2     H11340   3.318   1.008  11.050 -1.1314 -0.5338  0.0332
  768MPD2    H111341   3.513   0.624  10.992 -1.1926 -0.9411  1.2405
  768MPD2    H211342   3.124   0.701  10.833  2.3096 -0.4996 -2.3769
  768MPD2    H311343   3.309   0.549  10.885  0.1203  0.0548 -2.0278
  768MPD2     N11344   3.559   0.885  11.073  0.1756  0.8270  0.0641
  768MPD2    H511345   3.622   0.816  11.112  3.1111  2.3611 -1.9228
  768MPD2    N111346   3.110   0.964  10.929  0.4568 -0.2031 -0.1600
  768MPD2    H711347   3.124   1.042  10.992  0.6481  1.2923 -2.0665
  769MPD2     C11348   3.985   3.505  14.854  0.5613 -0.5313  0.8260
  769MPD2    C111349   3.942   3.412  14.940  0.0819  0.0335  0.2223
  769MPD2    C211350   3.974   3.426  15.077 -0.0943  0.5735  0.0359
  769MPD2    C311351   4.043   3.539  15.119  0.2602  0.4797  0.1181
  769MPD2    C411352   4.071   3.635  15.029  0.5410 -0.4900 -1.0047
  769MPD2    C511353   4.045   3.617  14.890 -0.9371  0.4621 -1.0845
  769MPD2     H11354   3.956   3.354  15.155 -0.5805  0.0138 -0.5864
  769MPD2    H111355   4.112   3.732  15.051 -1.8875  0.1609  0.6548
  769MPD2    H211356   3.969   3.497  14.747 -1.4316 -0.3968  1.1270
  769MPD2    H311357   4.073   3.701  14.828  1.1806  0.7780  0.2965
  769MPD2     N11358   4.059   3.560  15.261  0.1215 -0.5576 -0.1694
  769MPD2    H511359   4.013   3.484  15.310 -0.2685 -1.7104 -2.3601
  769MPD2    N111360   3.877   3.295  14.893 -0.1838 -0.1506  0.4057
  769MPD2    H711361   3.859   3.295  14.793 -0.0367  0.9582  0.3734
  770MPD2     C11362   3.066   2.665  15.193 -0.4355 -0.4051  0.0535
  770MPD2    C111363   3.188   2.666  15.248 -0.2476 -0.1371 -0.0040
  770MPD2    C211364   3.297   2.726  15.186 -0.0160 -0.2967 -0.5586
  770MPD2    C311365   3.272   2.788  15.060  0.4618 -0.6624 -0.1736
  770MPD2    C411366   3.142   2.792  15.004 -0.2892  0.2125 -0.1341
  770MPD2    C511367   3.041   2.731  15.073 -0.1438  0.4805 -0.0471
  770MPD2     H11368   3.397   2.708  15.222  0.8135 -0.8379 -3.0778
  770MPD2    H111369   3.120   2.840  14.909 -0.5713 -1.4945 -0.9209
  770MPD2    H211370   2.982   2.615  15.240 -0.5263 -0.5293 -0.2444
  770MPD2    H311371   2.941   2.722  15.030 -0.3135  1.6553  0.0976
  770MPD2     N11372   3.379   2.844  14.987 -0.1790  0.2193 -0.3567
  770MPD2    H511373   3.357   2.877  14.894  0.4192  0.4736 -0.4076
  770MPD2    N111374   3.195   2.597  15.365  0.4531 -0.6923 -0.3908
  770MPD2    H711375   3.108   2.551  15.389 -0.0223  1.7326  2.4988
  771MPD2     C11376   0.088   1.207  13.155  0.0055 -0.1671 -0.0135
  771MPD2    C111377   0.117   1.331  13.111  0.6826  0.2103 -0.6900
  771MPD2    C211378   0.186   1.334  12.993 -0.1788 -0.0628 -0.3024
  771MPD2    C311379   0.201   1.222  12.910  0.2486  0.4063  0.0746
  771MPD2    C411380   0.149   1.106  12.951  0.4269  0.0478 -0.3010
  771MPD2    C511381   0.095   1.093  13.078 -0.5219 -0.1016  0.0405
  771MPD2     H11382   0.217   1.427  12.946  2.7915 -0.3012  1.2023
  771MPD2    H111383   0.154   1.019  12.887  0.5377 -0.1561 -0.0131
  771MPD2    H211384   0.058   1.198  13.259 -0.3534  0.4628 -0.0634
  771MPD2    H311385   0.053   0.999  13.113  0.4264 -1.6716 -3.0872
  771MPD2     N11386   0.247   1.244  12.778  0.2592  0.6572  0.1519
  771MPD2    H511387   0.262   1.341  12.753 -0.6197 -0.0015 -2.9774
  771MPD2    N111388   0.098   1.450  13.182  0.0813 -0.1915 -0.1850
  771MPD2    H711389   0.142   1.537  13.154  0.1669  0.0796  0.7959
  772MPD2     C11390   4.483   1.984  13.736  0.1135  0.1399  0.3594
  772MPD2    C111391   4.448   1.930  13.609 -0.5002 -0.0541 -0.6864
  772MPD2    C211392   4.312   1.946  13.572 -0.7467 -0.4496  0.0731
  772MPD2    C311393   4.220   1.992  13.666  0.0995  1.0012 -0.0550
  772MPD2    C411394   4.257   2.042  13.781 -0.0141  0.3320  0.3716
  772MPD2    C511395   4.389   2.037  13.819  0.1832 -0.1587 -0.2940
  772MPD2     H11396   4.271   1.902  13.482 -1.5830 -2.0162  1.2129
  772MPD2    H111397   4.188   2.101  13.839  0.2802  1.5051 -0.4616
  772MPD2    H211398   4.585   2.000  13.767 -0.1605  1.5918  0.4771
  772MPD2    H311399   4.430   2.088  13.906 -0.6685  0.2405 -0.1283
  772MPD2     N11400   4.078   2.002  13.637 -0.2210  0.3426 -0.5777
  772MPD2    H511401   4.015   2.035  13.709  1.5373 -0.5695  1.3602
  772MPD2    N111402   4.538   1.872  13.523  0.2987  0.3588 -0.3282
  772MPD2    H711403   4.504   1.844  13.431 -1.4868 -0.1879  0.5034
  773MPD2     C11404   3.526   3.173   0.951  0.0285  0.4519  0.3460
  773MPD2    C111405   3.461   3.126   0.842 -0.0481  0.0912 -0.3294
  773MPD2    C211406   3.482   2.998   0.798 -0.0178 -0.6966  0.8526
  773MPD2    C311407   3.546   2.904   0.874 -0.4177  0.4344  0.1992
  773MPD2    C411408   3.610   2.945   0.991  1.2899  0.3923  0.2040
  773MPD2    C511409   3.597   3.080   1.024 -0.4352 -0.1911 -0.0210
  773MPD2     H11410   3.436   2.967   0.705  1.8852  0.4526 -0.4692
  773MPD2    H111411   3.664   2.877   1.056  0.2431 -1.1574 -0.5507
  773MPD2    H211412   3.525   3.279   0.977  1.7198  0.6552 -0.4647
  773MPD2    H311413   3.650   3.118   1.110 -0.7095 -0.6274  0.3388
  773MPD2     N11414   3.552   2.774   0.819  0.6258  0.1803  0.2542
  773MPD2    H511415   3.485   2.763   0.743  0.2785 -1.5643  0.8181
  773MPD2    N111416   3.393   3.217   0.755  0.4711 -0.0622  0.0037
  773MPD2    H711417   3.368   3.176   0.666  0.1192 -2.5869  1.2616
  774MPD2     C11418   2.637   2.210  13.157 -0.8576  0.3068  0.3571
  774MPD2    C111419   2.612   2.139  13.271  0.0115 -0.2301  0.4570
  774MPD2    C211420   2.698   2.159  13.374 -0.6549  0.2251 -0.2448
  774MPD2    C311421   2.827   2.207  13.345  0.7749  0.7867 -0.2700
  774MPD2    C411422   2.858   2.260  13.224 -0.4411 -0.0461 -0.6753
  774MPD2    C511423   2.756   2.267  13.137 -0.3182 -0.5370  0.1407
  774MPD2     H11424   2.674   2.119  13.472 -0.4239 -1.0752 -0.7093
  774MPD2    H111425   2.957   2.295  13.194  0.1857 -1.1193  0.1253
  774MPD2    H211426   2.567   2.226  13.076 -1.0807 -0.6562  0.3611
  774MPD2    H311427   2.770   2.329  13.048  1.8065  0.8053  1.3997
  774MPD2     N11428   2.933   2.227  13.434 -0.1510 -0.3507 -0.1159
  774MPD2    H511429   3.015   2.274  13.397  0.8564 -1.3841  0.8114
  774MPD2    N111430   2.495   2.050  13.275  0.2172  0.0338  0.2266
  774MPD2    H711431   2.424   2.079  13.209 -0.2021  0.6588  0.9549
  775MPD2     C11432   4.198   3.479  15.928 -0.0456  0.5922 -0.1837
  775MPD2    C111433   4.156   3.597  15.976 -0.7789 -0.3143  0.7902
  775MPD2    C211434   4.232   3.708  15.953  0.8371  0.1015  0.0501
  775MPD2    C311435   4.337   3.710  15.855 -0.0609  0.1286 -0.0807
  775MPD2    C411436   4.369   3.587  15.800  0.0495 -0.6584  0.1554
  775MPD2    C511437   4.305   3.471  15.840  0.0806 -0.8552  0.2529
  775MPD2     H11438   4.202   3.797  16.007  1.9601  0.9577 -0.7396
  775MPD2    H111439   4.448   3.571  15.727  0.3559  0.2692  0.2770
  775MPD2    H211440   4.162   3.383  15.964  2.0618  0.3418  1.2151
  775MPD2    H311441   4.328   3.372  15.802  2.1871  0.0235 -0.7396
  775MPD2     N11442   4.410   3.823  15.817 -0.6513 -0.8648  0.2502
  775MPD2    H511443   4.451   3.820  15.724 -1.1717  0.6285 -0.0160
  775MPD2    N111444   4.026   3.594  16.040  0.4586  0.0194  0.0904
  775MPD2    H711445   3.992   3.499  16.055 -0.5180  0.0708 -1.9489
  776MPD2     C11446   4.165   4.019  11.913 -0.2456  0.3707 -0.0085
  776MPD2    C111447   4.123   3.981  11.791  0.5252  0.5493  0.5853
  776MPD2    C211448   4.141   4.072  11.686 -0.2297 -0.3807  0.2604
  776MPD2    C311449   4.216   4.183  11.708  0.2688 -0.5970 -0.6802
  776MPD2    C411450   4.266   4.216  11.834  0.1099  0.4170 -0.0080
  776MPD2    C511451   4.237   4.138  11.941  0.1036  0.6101  0.4001
  776MPD2     H11452   4.099   4.058  11.587 -3.0555 -0.2415  1.4432
  776MPD2    H111453   4.327   4.303  11.858 -0.6002  0.2824  2.3187
  776MPD2    H211454   4.161   3.947  11.995  0.4968  0.0377 -0.2613
  776MPD2    H311455   4.259   4.173  12.041  3.0356 -1.8334  0.6242
  776MPD2     N11456   4.241   4.272  11.599  0.0078  0.3894  0.7473
  776MPD2    H511457   4.280   4.361  11.626 -1.9411  1.4933 -0.0753
  776MPD2    N111458   4.060   3.860  11.763 -0.1769  1.0376 -0.2946
  776MPD2    H711459   4.064   3.828  11.667  1.8736  0.8450 -0.1418
  777MPD2     C11460   3.013   1.857   1.398  0.7349  0.2463  0.1688
  777MPD2    C111461   3.140   1.821   1.436  1.0098 -0.7677 -0.1294
  777MPD2    C211462   3.205   1.716   1.364  0.4926  0.3621 -0.1015
  777MPD2    C311463   3.147   1.666   1.253  0.0003  0.5958 -0.3024
  777MPD2    C411464   3.024   1.707   1.211 -0.1564 -0.7173 -0.1035
  777MPD2    C511465   2.960   1.799   1.285  0.3341 -0.3453  0.3797
  777MPD2     H11466   3.300   1.675   1.398  1.6414  2.9218 -0.2201
  777MPD2    H111467   2.966   1.658   1.134 -0.6411  0.6726 -0.6196
  777MPD2    H211468   2.950   1.937   1.436 -0.7072 -1.6079  1.6796
  777MPD2    H311469   2.864   1.829   1.246 -0.6808 -1.7634  1.8058
  777MPD2     N11470   3.211   1.561   1.174 -0.0707  0.0379  0.0583
  777MPD2    H511471   3.291   1.511   1.213 -0.8675 -0.8450  0.5819
  777MPD2    N111472   3.187   1.891   1.549 -0.5996  0.2861 -0.5221
  777MPD2    H711473   3.126   1.967   1.576  1.0005  1.3946 -0.0519
  778MPD2     C11474   0.139   2.100  14.666  0.4784 -0.0424 -0.3454
  778MPD2    C111475   0.058   2.027  14.586  0.0974 -0.4382 -1.0204
  778MPD2    C211476   0.040   2.072  14.455 -1.0042  0.0215  0.2598
  778MPD2    C311477   0.106   2.195  14.417 -0.1652  0.0505  0.8957
  778MPD2    C411478   0.197   2.259  14.502  0.1715  0.4935 -0.4430
  778MPD2    C511479   0.204   2.209  14.628 -0.1853 -0.1653 -0.6669
  778MPD2     H11480   4.691   2.023  14.389  0.5058 -0.1021 -1.2372
  778MPD2    H111481   0.247   2.354  14.488  1.3863 -0.3602 -1.9415
  778MPD2    H211482   0.160   2.053  14.762 -0.3637  0.2584 -0.0102
  778MPD2    H311483   0.253   2.255  14.713 -0.9435  2.9172 -1.9002
  778MPD2     N11484   0.078   2.241  14.288 -0.1158  0.5642 -0.0122
  778MPD2    H511485   0.006   2.189  14.239  1.6442 -0.8150 -1.1438
  778MPD2    N111486   0.007   1.901  14.628  0.1070  0.6941 -0.1930
  778MPD2    H711487   4.692   1.841  14.554 -2.3028 -1.1499  2.4510
  779MPD2     C11488   4.547   0.506  13.916 -0.4731  0.1240 -0.4880
  779MPD2    C111489   4.523   0.512  14.048  0.7859  0.8200 -0.4100
  779MPD2    C211490   4.485   0.632  14.111  0.2838  0.3909  0.0794
  779MPD2    C311491   4.492   0.748  14.040  0.3904  0.1224 -0.0470
  779MPD2    C411492   4.540   0.744  13.916  0.2025 -0.7087  0.3893
  779MPD2    C511493   4.559   0.626  13.842  0.5350  0.1154 -0.0360
  779MPD2     H11494   4.476   0.638  14.219 -0.5143 -0.3503  0.0550
  779MPD2    H111495   4.552   0.829  13.850  2.2246 -0.6801  0.7854
  779MPD2    H211496   4.572   0.415  13.863 -2.3683 -2.1628  2.6127
  779MPD2    H311497   4.602   0.629  13.743  0.5888  0.1075 -0.0128
  779MPD2     N11498   4.464   0.876  14.102  0.4415  0.2356  0.0704
  779MPD2    H511499   4.443   0.876  14.201  0.0316  0.1454 -0.0184
  779MPD2    N111500   4.509   0.402  14.134  0.2135  0.5295  0.1033
  779MPD2    H711501   4.489   0.423  14.231  1.5933  0.9217  0.3046
  780MPD2     C11502   2.985   0.605   0.701 -0.4924 -0.4311  0.0656
  780MPD2    C111503   3.099   0.533   0.720  0.3593 -0.7298  0.0790
  780MPD2    C211504   3.211   0.559   0.639 -0.2807  0.0153  0.3660
  780MPD2    C311505   3.198   0.656   0.535  0.3641  0.7205  0.8246
  780MPD2    C411506   3.079   0.723   0.516  0.2345 -0.0640 -0.7682
  780MPD2    C511507   2.968   0.693   0.595  0.7320 -0.4277 -0.5858
  780MPD2     H11508   3.302   0.503   0.655 -1.3452 -1.9986 -0.6753
  780MPD2    H111509   3.058   0.787   0.432 -1.3453  0.1106 -0.2347
  780MPD2    H211510   2.900   0.601   0.769 -1.6668 -0.3411 -1.3958
  780MPD2    H311511   2.871   0.737   0.576  2.2218  1.9437 -2.7616
  780MPD2     N11512   3.318   0.676   0.456  0.2695 -0.1801 -0.6158
  780MPD2    H511513   3.399   0.618   0.475 -0.6730 -0.4958  2.4600
  780MPD2    N111514   3.094   0.433   0.819  0.0140  0.2023  0.0397
  780MPD2    H711515   3.003   0.422   0.862 -0.2772 -1.5331 -1.0123
  781MPD2     C11516   1.643   2.571  11.989 -0.0469 -0.1263  0.0483
  781MPD2    C111517   1.614   2.438  12.011 -0.2070  0.5229 -0.2508
  781MPD2    C211518   1.646   2.347  11.911 -0.5848 -0.0677 -0.1343
  781MPD2    C311519   1.724   2.395  11.804  0.8375  0.1767 -0.0875
  781MPD2    C411520   1.747   2.532  11.793  0.5583  0.1215 -0.5265
  781MPD2    C511521   1.716   2.620  11.889 -0.2052 -0.3687  0.2241
  781MPD2     H11522   1.613   2.244  11.920  0.9218 -0.7233 -2.1434
  781MPD2    H111523   1.799   2.570  11.706 -0.8336 -2.8221 -2.6635
  781MPD2    H211524   1.613   2.656  12.050  0.0800  1.5532 -2.2216
  781MPD2    H311525   1.743   2.723  11.867  0.8066 -0.7936 -0.5350
  781MPD2     N11526   1.779   2.322  11.701  0.6185  0.3397  0.8097
  781MPD2    H511527   1.827   2.362  11.620 -1.7387  1.0981 -0.2254
  781MPD2    N111528   1.548   2.393  12.133  0.4009 -0.1801 -0.0440
  781MPD2    H711529   1.526   2.296  12.150 -0.3846 -0.0763 -0.4583
  782MPD2     C11530   4.365   3.071  10.194  0.4660 -0.4452 -1.0137
  782MPD2    C111531   4.476   3.126  10.134 -0.6862  0.5587 -0.7646
  782MPD2    C211532   4.542   3.222  10.202 -0.3726 -0.3851  0.1525
  782MPD2    C311533   4.504   3.259  10.331 -0.0236  0.5819  1.1225
  782MPD2    C411534   4.382   3.213  10.380  0.4805  0.3037 -0.1648
  782MPD2    C511535   4.314   3.108  10.315  0.0692 -0.2028 -0.2876
  782MPD2     H11536   4.629   3.260  10.150  0.0453 -0.6931  0.6307
  782MPD2    H111537   4.343   3.253  10.473  0.9766 -0.7087  0.4814
  782MPD2    H211538   4.320   2.988  10.140  0.1449 -0.4645 -0.7150
  782MPD2    H311539   4.225   3.060  10.354  2.6234 -2.6968  2.4418
  782MPD2     N11540   4.583   3.351  10.403 -0.8560 -0.0214 -0.1062
  782MPD2    H511541   4.655   3.400  10.353 -0.4778 -0.4309  0.0349
  782MPD2    N111542   4.535   3.080  10.011  0.1423 -0.3882  0.3561
  782MPD2    H711543   4.629   3.113   9.995  0.0022  0.1570  0.6369
  783MPD2     C11544   4.035   2.675  10.478  0.0376  0.2647  0.7637
  783MPD2    C111545   4.121   2.778  10.508  0.2001  0.1623  0.8912
  783MPD2    C211546   4.246   2.783  10.456  0.4380 -0.4624 -0.7547
  783MPD2    C311547   4.289   2.677  10.366 -0.6531  0.1913  0.0218
  783MPD2    C411548   4.207   2.572  10.350 -0.0104 -0.3836  0.0660
  783MPD2    C511549   4.082   2.571  10.405  0.5725 -0.5796  0.1409
  783MPD2     H11550   4.311   2.867  10.477  0.2054 -0.7605  1.1375
  783MPD2    H111551   4.240   2.490  10.287  2.5846  0.8270 -0.1509
  783MPD2    H211552   3.930   2.672  10.503 -0.8555  2.1814 -2.6628
  783MPD2    H311553   4.012   2.493  10.377  1.2286 -2.0162  2.4993
  783MPD2     N11554   4.413   2.685  10.298 -0.4316  0.7872  0.5529
  783MPD2    H511555   4.456   2.770  10.333 -0.8395  0.7426  1.1586
  783MPD2    N111556   4.071   2.888  10.579  0.2020 -0.3333 -0.2265
  783MPD2    H711557   3.973   2.874  10.602 -0.2209  1.0859 -1.1724
  784MPD2     C11558   0.530   4.012   1.036 -0.7129 -0.1295  0.4957
  784MPD2    C111559   0.543   4.151   1.044 -0.2833 -0.4004 -0.6153
  784MPD2    C211560   0.456   4.224   1.126  0.1711 -0.1314  0.1708
  784MPD2    C311561   0.359   4.161   1.202  0.2908  0.1384 -0.4488
  784MPD2    C411562   0.349   4.026   1.196  0.1680  0.5298  0.5737
  784MPD2    C511563   0.429   3.951   1.111  0.2022  0.9816  0.0350
  784MPD2     H11564   0.469   4.332   1.133 -0.2597 -0.0881  0.3030
  784MPD2    H111565   0.269   3.973   1.247 -0.2559 -0.5182 -1.1746
  784MPD2    H211566   0.581   3.953   0.961  0.6183  2.8004 -0.9309
  784MPD2    H311567   0.412   3.845   1.093 -2.6915  1.5747 -0.8037
  784MPD2     N11568   0.270   4.237   1.283  0.3254 -0.0181 -0.0391
  784MPD2    H511569   0.282   4.338   1.285  0.0937  0.0433 -1.8138
  784MPD2    N111570   0.638   4.224   0.969  0.2860  0.9039  0.2892
  784MPD2    H711571   0.648   4.320   0.998  1.2297  1.1397 -0.8036
  785MPD2     C11572   2.283   1.752  10.703 -0.3437 -0.4378 -0.0284
  785MPD2    C111573   2.195   1.795  10.608  0.7672  0.6127  0.1345
  785MPD2    C211574   2.137   1.704  10.524 -0.0768  0.1081  0.4158
  785MPD2    C311575   2.188   1.578  10.517  0.2790  0.4523  0.0585
  785MPD2    C411576   2.291   1.538  10.600 -0.2606 -0.3537 -0.2197
  785MPD2    C511577   2.331   1.624  10.699 -0.1875 -0.2336 -0.2884
  785MPD2     H11578   2.058   1.735  10.457 -1.0645 -1.0372  1.0596
  785MPD2    H111579   2.328   1.436  10.603 -0.0884 -0.2973 -0.4530
  785MPD2    H211580   2.331   1.819  10.774 -0.9879 -0.9984  0.9400
  785MPD2    H311581   2.406   1.579  10.764  1.1221  0.3416 -1.4176
  785MPD2     N11582   2.132   1.502  10.420 -0.3299 -0.5762  0.0673
  785MPD2    H511583   2.057   1.541  10.364  0.8630  1.3288 -0.2049
  785MPD2    N111584   2.152   1.930  10.623 -0.2643 -0.3873 -0.5512
  785MPD2    H711585   2.191   1.983  10.700 -3.1352  0.0013  0.6071
  786MPD2     C11586   4.524   4.470  14.715 -0.0449  0.3293 -0.0408
  786MPD2    C111587   4.657   4.476  14.721 -0.5767  0.1635  0.0418
  786MPD2    C211588   4.721   4.493  14.843  0.3419  0.5798 -0.2166
  786MPD2    C311589   4.653   4.508  14.960  0.3154 -0.6871 -0.1278
  786MPD2    C411590   4.517   4.487  14.958 -0.1124 -0.2361 -0.1247
  786MPD2    C511591   4.452   4.484  14.837 -0.7459 -0.6306 -0.3514
  786MPD2     H11592   0.108   4.496  14.845  0.3196  0.6463  0.5869
  786MPD2    H111593   4.456   4.494  15.047 -1.8813 -1.3795 -1.2582
  786MPD2    H211594   4.464   4.453  14.626  0.1906 -1.8120  0.2113
  786MPD2    H311595   4.345   4.492  14.830 -0.7633 -0.1206  0.6696
  786MPD2     N11596   4.718   4.519  15.087  0.0606 -0.5666 -0.2259
  786MPD2    H511597   4.658   4.515  15.169 -3.6533 -1.4589 -2.9919
  786MPD2    N111598   0.015   4.431  14.613 -0.3796  1.0113  0.0195
  786MPD2    H711599   0.115   4.428  14.633 -0.4917  0.9962  0.5792
  787MPD2     C11600   0.532   4.308  14.799 -0.1774  0.1176  0.1997
  787MPD2    C111601   0.520   4.237  14.686 -0.1055 -0.1135  0.0763
  787MPD2    C211602   0.582   4.115  14.676 -0.4490  0.4650 -0.0315
  787MPD2    C311603   0.660   4.069  14.781 -0.1825 -0.1944 -0.0337
  787MPD2    C411604   0.661   4.135  14.901  0.5705 -0.7799 -0.5197
  787MPD2    C511605   0.598   4.252  14.912  0.2720  0.1322  0.1073
  787MPD2     H11606   0.572   4.052  14.588 -2.6694  0.2514  0.3755
  787MPD2    H111607   0.721   4.105  14.986  0.9997  0.2512 -0.4573
  787MPD2    H211608   0.494   4.409  14.804 -3.0013 -0.9043 -0.4395
  787MPD2    H311609   0.602   4.314  15.001  0.7991  0.8335 -0.4085
  787MPD2     N11610   0.713   3.933  14.768  0.2915  0.2646 -0.3464
  787MPD2    H511611   0.722   3.893  14.676 -0.3220  0.0007 -0.2894
  787MPD2    N111612   0.447   4.293  14.582  0.5129  0.0273 -0.7479
  787MPD2    H711613   0.397   4.380  14.598 -0.7983 -0.9028  0.2126
  788MPD2     C11614   1.844   2.333   1.172  0.0920  0.0847 -0.2857
  788MPD2    C111615   1.777   2.323   1.049  0.5874  0.0546  0.1312
  788MPD2    C211616   1.771   2.439   0.972  0.3669 -0.6127  0.2269
  788MPD2    C311617   1.811   2.559   1.011  0.8662  0.9614 -0.5269
  788MPD2    C411618   1.876   2.566   1.135  0.4265 -0.9465 -0.1194
  788MPD2    C511619   1.903   2.455   1.207 -0.1342 -0.7735 -0.8507
  788MPD2     H11620   1.723   2.427   0.875 -0.1955 -1.3923  0.5975
  788MPD2    H111621   1.912   2.659   1.177 -0.2863 -0.6374 -0.1942
  788MPD2    H211622   1.851   2.248   1.239 -0.8600  0.6682  0.5476
  788MPD2    H311623   1.946   2.457   1.307 -0.2132  1.6485 -0.8682
  788MPD2     N11624   1.801   2.681   0.938  0.7836  0.5526  0.1486
  788MPD2    H511625   1.831   2.767   0.983  1.6205 -0.7043  2.0162
  788MPD2    N111626   1.723   2.205   1.011 -0.4033  0.3857 -0.1562
  788MPD2    H711627   1.658   2.209   0.933 -1.6046  2.9698  0.9687
  789MPD2     C11628   2.247   1.866  16.923  0.5084  0.4374  0.0754
  789MPD2    C111629   2.197   1.932  16.816  0.4339 -0.0312  0.9192
  789MPD2    C211630   2.118   2.045  16.832 -0.1935 -0.0680 -0.0457
  789MPD2    C311631   2.084   2.089  16.962  0.0210 -0.1179 -0.5267
  789MPD2    C411632   2.128   2.008  17.066  0.5057  0.3478  0.2357
  789MPD2    C511633   2.206   1.899  17.044 -0.5122 -0.1836 -0.6938
  789MPD2     H11634   2.073   2.096  16.747  0.5739 -0.7951 -0.8761
  789MPD2    H111635   2.112   2.030  17.171  1.2623  1.6518  0.0657
  789MPD2    H211636   2.307   1.776  16.914  1.1261  1.1320 -2.6595
  789MPD2    H311637   2.245   1.843  17.128  1.5976 -0.4963 -1.8907
  789MPD2     N11638   1.993   2.194  16.990 -0.1554  0.2771 -0.1635
  789MPD2    H511639   1.966   2.211  17.086  0.5788  1.2430 -0.1337
  789MPD2    N111640   2.207   1.887  16.683 -0.7147  0.6791  0.0056
  789MPD2    H711641   2.157   1.933  16.607  0.8509  1.2740 -0.6596
  790MPD2     C11642   3.607   3.835  13.826  0.0143  1.0702  0.2165
  790MPD2    C111643   3.689   3.738  13.782 -0.1317  0.9780  0.5348
  790MPD2    C211644   3.705   3.698  13.647  0.2123 -0.1090  0.1773
  790MPD2    C311645   3.633   3.767  13.551  0.3448  0.0440  0.6256
  790MPD2    C411646   3.541   3.867  13.592 -0.2384 -0.7732 -0.2950
  790MPD2    C511647   3.528   3.893  13.727  1.2777 -0.8240  0.4764
  790MPD2     H11648   3.766   3.612  13.622  1.2624  0.1391  1.8569
  790MPD2    H111649   3.476   3.925  13.528 -2.5307  0.4985  3.1708
  790MPD2    H211650   3.604   3.863  13.930 -1.8275 -1.3537  0.8111
  790MPD2    H311651   3.470   3.981  13.753 -0.3763 -1.3993 -1.3063
  790MPD2     N11652   3.653   3.738  13.415 -0.2598 -0.1139  0.4519
  790MPD2    H511653   3.693   3.646  13.396  1.6227  0.5653  1.1925
  790MPD2    N111654   3.762   3.664  13.885 -0.1267  0.3258 -0.2669
  790MPD2    H711655   3.727   3.679  13.980 -1.6399 -0.2195 -0.7348
  791MPD2     C11656   3.177   3.839  12.741  0.0821 -0.7488 -0.2136
  791MPD2    C111657   3.191   3.724  12.819  0.1582  0.8071 -0.3865
  791MPD2    C211658   3.085   3.639  12.823  0.4041 -0.7564  0.1459
  791MPD2    C311659   2.964   3.670  12.771  0.0387 -0.7267  0.1679
  791MPD2    C411660   2.947   3.781  12.695 -0.1047 -0.3044 -0.4026
  791MPD2    C511661   3.057   3.861  12.671  0.9308 -0.0917  0.2859
  791MPD2     H11662   3.089   3.554  12.890 -1.4001 -0.8668  0.1151
  791MPD2    H111663   2.845   3.806  12.668  0.0191  0.8264  0.1605
  791MPD2    H211664   3.244   3.925  12.742  1.0704 -1.5204 -0.6079
  791MPD2    H311665   3.047   3.956  12.619  0.7590  0.0750  0.6183
  791MPD2     N11666   2.854   3.580  12.798  0.5322  0.4727  0.3468
  791MPD2    H511667   2.869   3.509  12.869 -0.2458 -0.2651 -0.2312
  791MPD2    N111668   3.300   3.724  12.898 -0.6107 -0.1583  0.8185
  791MPD2    H711669   3.362   3.803  12.879 -0.1268 -0.6596  0.2965
  792MPD2     C11670   4.650   4.409  11.224  0.6365 -0.0104 -0.3799
  792MPD2    C111671   4.528   4.411  11.158  0.0875  0.0947 -0.5698
  792MPD2    C211672   4.459   4.294  11.129 -0.5481  0.4284  0.3448
  792MPD2    C311673   4.514   4.172  11.161 -0.5846  0.8330  0.0759
  792MPD2    C411674   4.637   4.166  11.221  0.5729 -0.4607  0.5487
  792MPD2    C511675   4.695   4.286  11.265 -0.0364  0.3060  0.7544
  792MPD2     H11676   4.365   4.312  11.077 -1.2011 -2.0007  0.6966
  792MPD2    H111677   4.681   4.070  11.246  4.5345  1.1468 -0.4313
  792MPD2    H211678   4.706   4.500  11.244 -0.8934  0.8250  0.1586
  792MPD2    H311679   0.069   4.286  11.316  0.7214 -1.2332 -0.6677
  792MPD2     N11680   4.457   4.049  11.121  0.1861 -0.3895 -0.0063
  792MPD2    H511681   4.518   3.971  11.146  0.7356 -0.1046 -0.4569
  792MPD2    N111682   4.488   4.535  11.100  0.5182 -0.8832  0.5039
  792MPD2    H711683   4.548   4.613  11.125 -1.2064  0.6300 -0.0068
  793MPD2     C11684   3.759   3.713  10.454  0.2474  0.1887  0.5567
  793MPD2    C111685   3.877   3.779  10.431 -0.3222  0.0053  0.1497
  793MPD2    C211686   3.981   3.778  10.523  0.0759 -0.4687 -0.4462
  793MPD2    C311687   3.960   3.720  10.644 -0.0663  0.7046  0.3367
  793MPD2    C411688   3.841   3.657  10.668 -0.0832  0.0977  0.3720
  793MPD2    C511689   3.741   3.650  10.576  0.2055  0.8126  0.0636
  793MPD2     H11690   4.081   3.820  10.515  0.3561 -0.7712  1.6197
  793MPD2    H111691   3.814   3.611  10.763 -2.0116  0.6186  0.0755
  793MPD2    H211692   3.685   3.704  10.375  1.1308 -0.0751 -0.2467
  793MPD2    H311693   3.652   3.589  10.591  1.4882 -1.2320 -0.5627
  793MPD2     N11694   4.057   3.749  10.747 -0.2144 -0.1257 -0.6255
  793MPD2    H511695   4.119   3.827  10.729 -2.4680  1.5977 -0.8013
  793MPD2    N111696   3.913   3.837  10.304 -0.1510 -0.1772 -0.0607
  793MPD2    H711697   4.002   3.886  10.296 -1.1023  1.9327  2.4921
  794MPD2     C11698   3.377   3.410   0.023  0.3659 -0.2776 -0.6653
  794MPD2    C111699   3.249   3.416   0.072 -0.6447 -0.4615 -0.4095
  794MPD2    C211700   3.150   3.438  17.665  0.1518 -0.1113  0.9710
  794MPD2    C311701   3.176   3.472  17.534  0.3025 -0.0622  1.0214
  794MPD2    C411702   3.309   3.470  17.486 -0.2242  0.9096 -1.2340
  794MPD2    C511703   3.404   3.428  17.578 -0.2673 -0.0553 -0.6717
  794MPD2     H11704   3.051   3.460   0.015 -0.2418 -0.5915  0.2052
  794MPD2    H111705   3.343   3.488  17.385  0.0824  1.9627 -0.9468
  794MPD2    H211706   3.454   3.395   0.098 -1.3552 -2.9836  0.5995
  794MPD2    H311707   3.506   3.419  17.543  0.3379  0.4071  0.9421
  794MPD2     N11708   3.084   3.518  17.445  1.0233 -0.1150 -0.0462
  794MPD2    H511709   3.120   3.506  17.350  0.0539 -0.2580 -0.3878
  794MPD2    N111710   3.203   3.407   0.209  0.4489 -0.3796 -0.6935
  794MPD2    H711711   3.104   3.423   0.226  0.3851  0.0724 -1.4836
  795MPD2     C11712   1.048   0.917  13.555 -1.0818 -0.7094 -1.1713
  795MPD2    C111713   1.030   0.798  13.496  0.4130  0.4032 -0.1602
  795MPD2    C211714   1.120   0.695  13.506 -0.7427 -0.1135 -0.1241
  795MPD2    C311715   1.228   0.700  13.597  0.2871 -0.3870 -0.2702
  795MPD2    C411716   1.251   0.824  13.656  0.3924  0.1844  1.1103
  795MPD2    C511717   1.158   0.928  13.638 -0.1951  0.4688 -0.2820
  795MPD2     H11718   1.096   0.603  13.453 -0.0461 -1.5005  1.9504
  795MPD2    H111719   1.333   0.845  13.724  2.2781 -0.1050 -1.0448
  795MPD2    H211720   0.993   1.008  13.536 -1.8883 -0.8679  0.4081
  795MPD2    H311721   1.168   1.024  13.689  0.0794  0.2578  0.0619
  795MPD2     N11722   1.301   0.581  13.620  0.0866 -0.3223 -0.0066
  795MPD2    H511723   1.249   0.494  13.623 -0.3347  0.0185  3.1296
  795MPD2    N111724   0.928   0.782  13.399 -0.9790 -0.1909  0.1107
  795MPD2    H711725   0.931   0.692  13.353  3.0064  1.1605 -2.2425
  796MPD2     C11726   0.366   2.364  15.797 -0.1869  0.7106 -0.0653
  796MPD2    C111727   0.444   2.398  15.908  0.0275 -0.3983  0.0137
  796MPD2    C211728   0.465   2.533  15.938  0.4074  0.5027  0.3204
  796MPD2    C311729   0.393   2.629  15.865  0.3219  0.0135 -0.0586
  796MPD2    C411730   0.311   2.593  15.762 -1.1060 -0.4140  0.4073
  796MPD2    C511731   0.297   2.459  15.734  0.3094 -0.8723  0.1278
  796MPD2     H11732   0.524   2.567  16.022  0.5686 -1.9303  1.1959
  796MPD2    H111733   0.252   2.664  15.707 -1.7022 -1.1863  0.0563
  796MPD2    H211734   0.355   2.260  15.771  2.5489  0.6572 -0.9186
  796MPD2    H311735   0.228   2.430  15.655 -0.0053 -0.6778  0.3303
  796MPD2     N11736   0.404   2.760  15.910 -0.1492  0.4066 -0.4111
  796MPD2    H511737   0.453   2.776  15.997 -2.0846  0.3350  0.6960
  796MPD2    N111738   0.488   2.291  15.979  0.1032  0.3002  0.1779
  796MPD2    H711739   0.442   2.205  15.950 -0.7737 -0.0215  2.5754
  797MPD2     C11740   1.348   1.346  17.170 -0.0155  0.4302  0.0881
  797MPD2    C111741   1.431   1.460  17.180  0.2879  0.2211  0.1268
  797MPD2    C211742   1.375   1.584  17.158 -0.3362 -0.0395  0.3958
  797MPD2    C311743   1.248   1.600  17.111  0.2698 -0.1287  0.8272
  797MPD2    C411744   1.167   1.490  17.097  0.2164  0.2465  0.0909
  797MPD2    C511745   1.225   1.366  17.123  0.5137  0.0382 -0.1973
  797MPD2     H11746   1.435   1.674  17.163  2.3573 -1.6723 -2.0764
  797MPD2    H111747   1.063   1.496  17.067  0.6492  2.7335 -0.9198
  797MPD2    H211748   1.385   1.248  17.199  3.3937  0.8794 -2.7241
  797MPD2    H311749   1.172   1.273  17.106 -0.2675  0.2129  1.2693
  797MPD2     N11750   1.198   1.728  17.102 -0.3060 -0.4624  0.4034
  797MPD2    H511751   1.258   1.804  17.132  0.5458 -0.4599 -1.3056
  797MPD2    N111752   1.560   1.459  17.235  0.1276  0.4040  0.2721
  797MPD2    H711753   1.599   1.552  17.246 -1.3060  0.9363  0.8196
  798MPD2     C11754   1.425   2.077  17.623  0.4281  0.2893  0.0520
  798MPD2    C111755   1.428   2.024  17.497  0.7333 -0.1733  0.2278
  798MPD2    C211756   1.527   1.923  17.471  0.0547  0.1758  0.2882
  798MPD2    C311757   1.618   1.878  17.566  0.9683 -1.1553 -0.1065
  798MPD2    C411758   1.621   1.942  17.686 -0.2779 -0.2790 -0.4384
  798MPD2    C511759   1.528   2.042   0.021  0.1219 -0.5617  0.2531
  798MPD2     H11760   1.520   1.863  17.382  0.3971  0.6621 -0.0648
  798MPD2    H111761   1.699   1.933   0.073  0.5186 -1.4359 -1.4158
  798MPD2    H211762   1.361   2.161  17.644  0.2981  0.1758  0.1076
  798MPD2    H311763   1.518   2.087   0.119  1.3702  3.1667 -1.3178
  798MPD2     N11764   1.698   1.769  17.526  0.1233 -0.4119 -0.4870
  798MPD2    H511765   1.699   1.742  17.428 -0.1995  1.2819 -0.9568
  798MPD2    N111766   1.330   2.063  17.405  0.1308  0.0724 -0.1116
  798MPD2    H711767   1.259   2.127  17.439 -1.9271 -2.4848  0.4069
  799MPD2     C11768   0.512   3.584  14.653 -0.7813 -0.3448 -0.5118
  799MPD2    C111769   0.472   3.496  14.548  0.2284  0.1565  0.0102
  799MPD2    C211770   0.386   3.544  14.453 -0.2681  0.1250 -0.8600
  799MPD2    C311771   0.342   3.677  14.454  0.1711 -0.7298  0.4009
  799MPD2    C411772   0.375   3.752  14.562  0.2481 -0.0554 -0.0745
  799MPD2    C511773   0.467   3.710  14.656 -0.1457  0.1145  0.3503
  799MPD2     H11774   0.365   3.487  14.363 -4.4695 -0.3905  0.4708
  799MPD2    H111775   0.342   3.855  14.555  0.5439  0.1055  0.8924
  799MPD2    H211776   0.591   3.550  14.719 -0.5239  1.4238  0.1101
  799MPD2    H311777   0.494   3.777  14.736  0.9335  1.3104 -1.0069
  799MPD2     N11778   0.283   3.742  14.343  0.0560 -0.1341 -0.2358
  799MPD2    H511779   0.257   3.838  14.360  0.9493 -0.1633  1.2352
  799MPD2    N111780   0.522   3.369  14.520  0.5391  0.5622 -0.4499
  799MPD2    H711781   0.483   3.319  14.441 -2.3893  0.9968  0.6967
  800MPD2     C11782   0.787   0.037  13.775  0.0210 -0.9691  0.5946
  800MPD2    C111783   0.918   0.002  13.772 -0.6278  1.0660  0.0841
  800MPD2    C211784   0.959   4.640  13.671  0.8753 -0.3697  0.6905
  800MPD2    C311785   0.869   4.586  13.584 -0.4839 -0.5512 -0.8967
  800MPD2    C411786   0.739   4.632  13.583 -0.3206  0.1193 -0.3349
  800MPD2    C511787   0.695   4.721  13.682  0.2243 -0.0099 -0.1898
  800MPD2     H11788   1.061   4.606  13.667  1.5928  1.8883 -0.0672
  800MPD2    H111789   0.666   4.597  13.511 -0.6682  1.4762 -0.6410
  800MPD2    H211790   0.748   0.099  13.856 -0.9172 -0.7907  0.0085
  800MPD2    H311791   0.592   0.023  13.709 -0.2883 -2.3400 -0.1057
  800MPD2     N11792   0.930   4.489  13.488 -0.0586 -0.4210 -0.5532
  800MPD2    H511793   1.029   4.468  13.493  0.3540  1.2403 -1.7904
  800MPD2    N111794   1.005   0.058  13.871  0.0122  0.2701  0.9167
  800MPD2    H711795   0.967   0.129  13.933 -2.5604 -0.4734  0.2006
  801MPD2     C11796   1.143   0.721  14.070  0.2057  0.2382 -0.3820
  801MPD2    C111797   1.103   0.591  14.106  1.0305  0.0209 -0.0565
  801MPD2    C211798   0.994   0.567  14.189 -0.0118  0.8090  0.4108
  801MPD2    C311799   0.915   0.674  14.222  0.5990  0.5101 -0.2457
  801MPD2    C411800   0.948   0.805  14.177  0.2555 -0.1953  0.9059
  801MPD2    C511801   1.064   0.826  14.105  0.2513 -0.2540  1.1262
  801MPD2     H11802   0.976   0.467  14.227 -1.0891 -0.5017 -3.4916
  801MPD2    H111803   0.897   0.894  14.211 -1.2997 -0.2173 -1.4094
  801MPD2    H211804   1.229   0.746  14.009  0.5554 -1.3218 -0.5285
  801MPD2    H311805   1.100   0.927  14.088 -2.2271  0.5402  0.6509
  801MPD2     N11806   0.804   0.660  14.307 -0.2164 -0.2699  0.1397
  801MPD2    H511807   0.735   0.734  14.298 -1.5844 -1.4781  0.7772
  801MPD2    N111808   1.164   0.474  14.067 -0.4220 -0.2831 -0.1552
  801MPD2    H711809   1.127   0.383  14.093  0.3577 -0.0068  1.8862
  802MPD2     C11810   0.073   0.185  17.499  0.6019  0.4844 -0.0006
  802MPD2    C111811   0.019   0.298  17.449  0.1018 -0.8041  0.1588
  802MPD2    C211812   0.029   0.325  17.318 -0.6157 -0.1046 -0.0393
  802MPD2    C311813   0.095   0.237  17.230  0.1832  0.1674  0.6821
  802MPD2    C411814   0.143   0.113  17.281  0.0755  0.0643  0.1048
  802MPD2    C511815   0.130   0.095  17.415  0.0405 -0.2794  0.0805
  802MPD2     H11816   4.694   0.411  17.284 -0.9966 -0.5548 -0.5373
  802MPD2    H111817   0.196   0.044  17.217  0.7864  0.0940  0.6578
  802MPD2    H211818   0.059   0.145  17.599 -0.4552  1.2659  0.1590
  802MPD2    H311819   0.167   0.006  17.465  1.0633  0.6540  0.9741
  802MPD2     N11820   0.105   0.274  17.097 -0.3356 -0.0045 -0.3767
  802MPD2    H511821   0.059   0.362  17.078 -0.9478 -0.5234 -1.2771
  802MPD2    N111822   4.700   0.405  17.525 -0.3993 -0.9193  0.8051
  802MPD2    H711823   4.694   0.495  17.477  1.3462 -0.9033  0.6334
  803MPD2     C11824   2.097   3.713  11.964  0.3468  0.6426 -1.0566
  803MPD2    C111825   2.065   3.801  12.070  0.3483 -0.1374  0.4288
  803MPD2    C211826   1.977   3.770  12.168  0.4161  0.2436  0.0706
  803MPD2    C311827   1.918   3.642  12.164 -0.3749 -0.4577 -0.0818
  803MPD2    C411828   1.952   3.560  12.058  0.0535  0.5106 -0.5224
  803MPD2    C511829   2.033   3.597  11.955 -0.4648 -0.2639  0.1320
  803MPD2     H11830   1.960   3.838  12.250 -0.8960 -0.8754  0.7360
  803MPD2    H111831   1.906   3.463  12.042  0.6532  0.1759 -0.1877
  803MPD2    H211832   2.160   3.746  11.883  0.5445  0.2037 -1.0826
  803MPD2    H311833   2.039   3.530  11.870 -1.0298 -1.3486  0.9466
  803MPD2     N11834   1.831   3.591  12.261  0.0939  0.0518  0.1066
  803MPD2    H511835   1.804   3.493  12.263 -2.2621  0.6473 -2.2988
  803MPD2    N111836   2.138   3.924  12.093  0.7716 -0.7692  0.7776
  803MPD2    H711837   2.116   3.976  12.177 -3.1034 -1.4137  0.1681
  804MPD2     C11838   0.726   0.540  16.810  0.4108 -0.3500  0.2093
  804MPD2    C111839   0.720   0.535  16.954  0.1321 -0.0596 -0.5485
  804MPD2    C211840   0.805   0.615  17.025 -0.1492  0.1476 -0.1091
  804MPD2    C311841   0.902   0.690  16.967 -0.1395 -0.0727 -0.4061
  804MPD2    C411842   0.900   0.703  16.829 -0.4049 -0.1174  0.2220
  804MPD2    C511843   0.813   0.629  16.752  0.1455 -0.7795 -0.0518
  804MPD2     H11844   0.790   0.616  17.133 -0.6116  1.1377 -0.1806
  804MPD2    H111845   0.967   0.775  16.783 -1.1291  2.0820  2.5560
  804MPD2    H211846   0.661   0.478  16.749  2.1859 -2.2710  0.2650
  804MPD2    H311847   0.826   0.632  16.644  0.9941 -1.6252  0.0279
  804MPD2     N11848   0.981   0.788  17.031 -0.3203  0.2851  0.5813
  804MPD2    H511849   1.055   0.830  16.976 -1.2112 -0.5682 -1.2653
  804MPD2    N111850   0.647   0.438  17.031  0.4905  0.5181  0.4908
  804MPD2    H711851   0.676   0.429  17.128 -2.3249  1.3968  1.3986
  805MPD2     C11852   0.042   3.608  15.633 -0.2236 -0.3080  0.3806
  805MPD2    C111853   0.150   3.678  15.573  0.0831 -0.0208 -0.0943
  805MPD2    C211854   0.264   3.695  15.646  0.5492 -0.7683  0.1804
  805MPD2    C311855   0.278   3.624  15.768  0.5631  0.4552  0.4645
  805MPD2    C411856   0.186   3.534  15.810  0.6110 -0.3027  0.1352
  805MPD2    C511857   0.059   3.538  15.748 -0.6070 -0.5325  0.5598
  805MPD2     H11858   0.350   3.738  15.594  1.0349 -1.6832  0.2334
  805MPD2    H111859   0.195   3.481  15.905 -3.0589  0.2814  0.8285
  805MPD2    H211860   4.668   3.607  15.582  0.0725  0.2890 -0.1845
  805MPD2    H311861   4.698   3.481  15.790  0.4192 -0.8557  2.1466
  805MPD2     N11862   0.407   3.629  15.824 -0.1428 -0.1017 -0.9893
  805MPD2    H511863   0.477   3.676  15.767  2.0799 -0.4000  1.4925
  805MPD2    N111864   0.141   3.732  15.439  0.6011  0.2438 -0.0208
  805MPD2    H711865   0.226   3.783  15.418  0.9135  0.1775  1.0677
  806MPD2     C11866   0.724   3.470   0.816  0.3546 -0.2751 -0.4127
  806MPD2    C111867   0.720   3.579   0.900  0.0777  0.4373  0.1555
  806MPD2    C211868   0.720   3.706   0.834 -0.0989  0.4846  0.0922
  806MPD2    C311869   0.728   3.721   0.698  0.4087  0.0271 -0.5387
  806MPD2    C411870   0.714   3.606   0.621  0.2573  0.5729 -0.4210
  806MPD2    C511871   0.714   3.486   0.681  0.4881 -0.3690  0.4286
  806MPD2     H11872   0.711   3.796   0.894 -0.4250  0.0747  0.6637
  806MPD2    H111873   0.712   3.601   0.513  1.8806 -0.2246 -0.4083
  806MPD2    H211874   0.724   3.367   0.850  0.4484  0.8224  2.8478
  806MPD2    H311875   0.717   3.402   0.612  0.1311  0.2598 -0.3512
  806MPD2     N11876   0.748   3.848   0.644 -0.4685  0.1597  0.0773
  806MPD2    H511877   0.746   3.927   0.707 -1.2661  0.3383 -0.1761
  806MPD2    N111878   0.710   3.559   1.036  0.2834  0.5208  0.0211
  806MPD2    H711879   0.712   3.463   1.068  0.9656  1.0915  1.7276
  807MPD2     C11880   0.431   3.837   1.817 -0.2315  0.0102 -0.2709
  807MPD2    C111881   0.410   3.708   1.767  0.2563  0.1747 -0.3727
  807MPD2    C211882   0.320   3.627   1.829  0.6888  0.6049  0.3196
  807MPD2    C311883   0.247   3.680   1.939  0.1706 -0.8547  0.5050
  807MPD2    C411884   0.255   3.813   1.967 -0.1092  0.1555  0.2078
  807MPD2    C511885   0.353   3.894   1.907  0.0940  0.2582 -0.2172
  807MPD2     H11886   0.304   3.524   1.798  0.5550  0.8520 -0.4070
  807MPD2    H111887   0.193   3.864   2.040  1.2967  1.7516  0.2902
  807MPD2    H211888   0.506   3.907   1.781 -1.6850  0.5430 -2.2863
  807MPD2    H311889   0.370   3.998   1.930  1.3359  0.3838 -1.7537
  807MPD2     N11890   0.155   3.595   2.004  0.0019  0.6407 -0.4450
  807MPD2    H511891   0.162   3.498   1.975  1.7332  0.2251  1.3210
  807MPD2    N111892   0.496   3.651   1.670  0.4399 -0.3260  0.0717
  807MPD2    H711893   0.475   3.555   1.645 -2.7297  0.3902  0.0515
  808MPD2     C11894   1.397   4.260   9.111 -0.6863  0.2588  0.1225
  808MPD2    C111895   1.478   4.229   9.226  0.2892  0.0721 -0.2571
  808MPD2    C211896   1.557   4.330   9.278  0.3980 -0.5131  0.3192
  808MPD2    C311897   1.566   4.450   9.215  0.2752  0.3465 -0.3196
  808MPD2    C411898   1.496   4.476   9.100 -0.1339 -0.5493  0.3004
  808MPD2    C511899   1.411   4.381   9.048 -0.1663 -0.2263 -0.2617
  808MPD2     H11900   1.619   4.318   9.366  1.0807  1.4229  0.1078
  808MPD2    H111901   1.500   4.577   9.061 -1.5520 -0.8844 -0.7089
  808MPD2    H211902   1.318   4.194   9.077  0.0779  0.7683 -2.6398
  808MPD2    H311903   1.351   4.401   8.960 -1.6493 -1.5667  0.4517
  808MPD2     N11904   1.663   4.553   9.248  0.2131 -0.5757 -0.6291
  808MPD2    H511905   1.683   4.633   9.189 -3.4281  1.2212  0.5749
  808MPD2    N111906   1.481   4.105   9.292  0.5454  0.3407  0.0378
  808MPD2    H711907   1.540   4.077   9.369 -1.1745  2.2853  2.0986
  809MPD2     C11908   2.435   4.401   8.992  0.5404  0.1279  0.7926
  809MPD2    C111909   2.460   4.533   9.034 -0.0968 -0.2684  0.0773
  809MPD2    C211910   2.362   4.616   9.085 -0.1929  0.0504  0.4934
  809MPD2    C311911   2.242   4.549   9.122 -0.6339  0.1829  0.4169
  809MPD2    C411912   2.219   4.413   9.093 -0.7726  0.1786  0.1437
  809MPD2    C511913   2.309   4.346   9.019  0.0167  0.4624  0.4740
  809MPD2     H11914   2.383   0.000   9.101  0.6379 -0.0703  0.1877
  809MPD2    H111915   2.126   4.370   9.127 -1.9661  2.4069 -0.2707
  809MPD2    H211916   2.516   4.336   8.960  3.0092  4.1960 -1.3047
  809MPD2    H311917   2.283   4.253   8.970  1.3509  0.6403 -0.5753
  809MPD2     N11918   2.140   4.606   9.203 -0.0242 -0.3146  0.0378
  809MPD2    H511919   2.073   4.538   9.239 -2.9901  1.9692 -1.2034
  809MPD2    N111920   2.587   4.585   9.025  0.1495 -0.4465  0.0658
  809MPD2    H711921   2.606   4.671   9.074  1.7524 -0.7716  0.0173
  810MPD2     C11922   1.599   4.520   9.897  0.4681 -0.4976 -0.1039
  810MPD2    C111923   1.558   4.421   9.977 -0.2695  0.1877 -0.0809
  810MPD2    C211924   1.527   4.448  10.110  0.0813 -0.4862 -0.2830
  810MPD2    C311925   1.523   4.574  10.145  0.0033  0.6081 -0.6050
  810MPD2    C411926   1.562   4.683  10.065  0.5135  0.5849  0.3033
  810MPD2    C511927   1.604   4.649   9.942 -0.5936 -0.0865 -0.5125
  810MPD2     H11928   1.499   4.373  10.182  1.0112 -0.0366  0.5445
  810MPD2    H111929   1.562   0.068  10.089 -0.5820  0.4341  0.9642
  810MPD2    H211930   1.624   4.511   9.792 -0.7871  1.5129 -0.5720
  810MPD2    H311931   1.637   0.004   9.873 -2.8906  0.0865 -1.4252
  810MPD2     N11932   1.462   4.592  10.269  0.4400 -0.1688  0.0782
  810MPD2    H511933   1.439   4.510  10.324  1.0072 -1.9151 -2.2829
  810MPD2    N111934   1.529   4.293   9.924  0.3681  0.2673 -0.3061
  810MPD2    H711935   1.536   4.294   9.823 -0.2770  2.8047 -0.3332
  811MPD2     C11936   0.811   4.161   9.529 -0.0825 -0.6345 -0.3031
  811MPD2    C111937   0.898   4.244   9.591 -0.1087  0.0146  0.2778
  811MPD2    C211938   0.876   4.375   9.608 -0.5730 -0.6685  1.1002
  811MPD2    C311939   0.751   4.427   9.564 -0.1851 -0.5453 -0.4884
  811MPD2    C411940   0.660   4.343   9.502 -0.9606 -0.0479 -0.0825
  811MPD2    C511941   0.689   4.209   9.492  0.3649  0.1536  0.0285
  811MPD2     H11942   0.939   4.439   9.668  2.5311 -1.3826 -1.3624
  811MPD2    H111943   0.566   4.382   9.466 -0.7597  0.4818 -0.0411
  811MPD2    H211944   0.841   4.059   9.510  2.4036  0.4921 -2.3626
  811MPD2    H311945   0.617   4.142   9.447 -0.1736  1.5754 -1.2178
  811MPD2     N11946   0.720   4.563   9.589 -0.0420  0.4432 -0.0732
  811MPD2    H511947   0.791   4.613   9.643  0.7647  0.6574 -1.3356
  811MPD2    N111948   1.010   4.174   9.645  0.1939  0.0092  0.6774
  811MPD2    H711949   1.015   4.075   9.620 -0.2565  0.4697 -1.2054
  812MPD2     C11950   4.650   3.934  12.078 -0.1130 -0.4848 -0.5665
  812MPD2    C111951   4.576   3.958  12.187 -0.6619  0.2015  0.3233
  812MPD2    C211952   4.531   3.857  12.269 -0.1920  0.5384  0.1921
  812MPD2    C311953   4.566   3.722  12.251  0.0438  0.2404 -0.0360
  812MPD2    C411954   4.652   3.704  12.148 -0.2538 -0.2833  0.6061
  812MPD2    C511955   4.687   3.801  12.060 -0.6495  0.2268  0.4979
  812MPD2     H11956   4.455   3.878  12.344  0.4611  0.1996  0.9503
  812MPD2    H111957   4.711   3.614  12.141 -0.7024 -0.5305 -0.0259
  812MPD2    H211958   4.679   4.011  12.007 -1.7917  0.4142 -0.2775
  812MPD2    H311959   0.022   3.773  11.973 -0.0791  0.8338  0.6741
  812MPD2     N11960   4.531   3.628  12.350  0.1857 -0.1215 -0.6507
  812MPD2    H511961   4.465   3.651  12.423 -0.0440 -0.4812 -0.7418
  812MPD2    N111962   4.547   4.092  12.206  0.2396 -0.5593  0.4803
  812MPD2    H711963   4.604   4.158  12.154 -0.2152  1.0522  2.0514
  813MPD2     C11964   2.762   1.364  12.868  0.6800  0.3564 -1.3343
  813MPD2    C111965   2.837   1.273  12.940 -0.2276  0.3324 -0.5145
  813MPD2    C211966   2.776   1.196  13.037 -0.0068  0.3262 -0.5762
  813MPD2    C311967   2.641   1.213  13.059 -0.0438  0.0795 -0.2998
  813MPD2    C411968   2.566   1.309  12.989 -0.2870  0.2828  0.2445
  813MPD2    C511969   2.628   1.381  12.890  0.3878  0.2829 -0.8883
  813MPD2     H11970   2.826   1.113  13.086 -0.9611 -0.2002 -0.4824
  813MPD2    H111971   2.460   1.325  13.005 -0.2197 -0.2165  1.1725
  813MPD2    H211972   2.807   1.421  12.787 -0.6837  2.1277 -0.8500
  813MPD2    H311973   2.578   1.454  12.826 -1.2045 -0.7425 -0.7893
  813MPD2     N11974   2.601   1.134  13.164  0.7772  0.2885 -0.5012
  813MPD2    H511975   2.676   1.085  13.212 -0.6131 -0.1597  1.2288
  813MPD2    N111976   2.976   1.277  12.922 -0.3704  0.1044  0.0850
  813MPD2    H711977   3.009   1.330  12.842 -0.2115  1.6112  1.1405
  814MPD2     C11978   4.501   2.359  12.193  0.3770 -0.1573  0.5891
  814MPD2    C111979   4.420   2.419  12.102  0.9341 -0.1192  0.3616
  814MPD2    C211980   4.424   2.550  12.084 -0.5456 -0.4061  0.1969
  814MPD2    C311981   4.519   2.628  12.155 -0.3309 -0.4615  0.1226
  814MPD2    C411982   4.605   2.566  12.245 -0.9259  0.4501 -0.1821
  814MPD2    C511983   4.598   2.431  12.259 -0.3100 -0.6264  0.7810
  814MPD2     H11984   4.358   2.602  12.016 -3.0054  2.8589  5.0423
  814MPD2    H111985   4.679   2.623  12.300  0.1321 -0.7851 -0.3414
  814MPD2    H211986   4.505   2.253  12.218  0.4256  0.0144  1.3165
  814MPD2    H311987   4.661   2.385  12.334 -1.6396 -2.6498  0.6779
  814MPD2     N11988   4.539   2.765  12.137  0.4332 -0.0247  0.1659
  814MPD2    H511989   4.595   2.806  12.211  2.1166 -1.3279 -0.3886
  814MPD2    N111990   4.334   2.341  12.027 -0.0147 -0.5964  0.6183
  814MPD2    H711991   4.273   2.390  11.962  1.1590 -0.3720 -0.3002
  815MPD2     C11992   4.696   1.146  12.073  0.4417 -0.4149  0.0135
  815MPD2    C111993   4.679   1.046  11.977 -0.3318 -0.5450  0.3386
  815MPD2    C211994   4.583   0.951  12.004  0.4416 -0.4157  0.1463
  815MPD2    C311995   4.520   0.952  12.129  0.0299  0.7102 -0.0603
  815MPD2    C411996   4.544   1.045  12.223 -0.0188 -0.0227  0.2897
  815MPD2    C511997   4.628   1.145  12.186 -0.0468  0.0927 -0.0671
  815MPD2     H11998   4.565   0.871  11.933 -1.3420  0.0174  0.1182
  815MPD2    H111999   4.503   1.041  12.324 -1.7394  0.5040 -0.3856
  815MPD2    H212000   0.044   1.229  12.066 -0.8195  0.7333  1.2055
  815MPD2    H312001   4.655   1.220  12.260 -0.0423  0.5387 -0.5231
  815MPD2     N12002   4.434   0.846  12.152  0.3214  0.1395 -0.1161
  815MPD2    H512003   4.414   0.774  12.083  1.4322  0.8742 -1.1969
  815MPD2    N112004   0.031   1.053  11.860  0.1229 -0.0709 -0.1770
  815MPD2    H712005   0.099   1.128  11.861  1.1629 -0.9725 -3.3149
  816MPD2     C12006   3.680   0.046  17.104 -0.0054  0.0749 -1.2568
  816MPD2    C112007   3.786   0.122  17.156  0.4992  0.2389 -0.0996
  816MPD2    C212008   3.918   0.074  17.148  0.9110  0.3938  0.3652
  816MPD2    C312009   3.949   4.679  17.077  0.2425 -0.3645 -0.5131
  816MPD2    C412010   3.844   4.604  17.029  0.6948 -0.4626  0.3139
  816MPD2    C512011   3.718   4.649  17.042 -0.2440  0.6005  0.1965
  816MPD2     H12012   4.004   0.132  17.180  0.5886  1.2570 -0.3316
  816MPD2    H112013   3.858   4.518  16.965 -0.7702 -0.0170 -0.5795
  816MPD2    H212014   3.574   0.061  17.095 -0.3875 -1.5652  0.4488
  816MPD2    H312015   3.639   4.589  17.000  1.0862 -1.7709  1.0908
  816MPD2     N12016   4.085   4.656  17.056  0.0853  0.1604 -0.1035
  816MPD2    H512017   4.150   0.011  17.071  1.5409 -1.4184  1.6215
  816MPD2    N112018   3.753   0.248  17.206 -0.2121 -0.2822  0.0978
  816MPD2    H712019   3.654   0.271  17.202  0.6919  3.3896 -1.6927
  817MPD2     C12020   0.213   1.961  10.063  0.8470  0.2227 -0.7324
  817MPD2    C112021   0.249   1.924   9.933  0.0513 -0.5029 -0.1470
  817MPD2    C212022   0.327   2.006   9.857 -0.7110 -0.0840  0.3169
  817MPD2    C312023   0.362   2.136   9.903  0.0061  0.4609  0.3900
  817MPD2    C412024   0.310   2.178  10.024  0.2242 -0.0338  0.3408
  817MPD2    C512025   0.238   2.087  10.100 -0.8323 -0.1275 -0.0720
  817MPD2     H12026   0.367   1.979   9.760 -0.6081 -3.4883  1.2995
  817MPD2    H112027   0.317   2.279  10.064 -0.9776  0.7167 -1.3712
  817MPD2    H212028   0.162   1.898  10.135 -2.6433  2.2692 -1.3894
  817MPD2    H312029   0.191   2.113  10.194  1.5687 -2.4602  1.7598
  817MPD2     N12030   0.422   2.218   9.810  0.1232 -0.0806 -0.5937
  817MPD2    H512031   0.437   2.177   9.719  2.0368  2.0780 -1.2419
  817MPD2    N112032   0.223   1.796   9.879 -0.5392  0.0495  0.4885
  817MPD2    H712033   0.256   1.773   9.786 -0.7324  0.8506  0.2178
  818MPD2     C12034   3.551   1.839   9.891  0.7155  0.0238 -0.4928
  818MPD2    C112035   3.519   1.726   9.968  0.1312  0.0732  0.3311
  818MPD2    C212036   3.524   1.600   9.915  1.2972  0.2673  1.2568
  818MPD2    C312037   3.542   1.581   9.781  0.6787 -0.3893  0.1371
  818MPD2    C412038   3.580   1.694   9.705 -0.5338 -0.5438 -0.1979
  818MPD2    C512039   3.586   1.824   9.763  0.5676  0.0380 -0.0648
  818MPD2     H12040   3.494   1.528   9.990  0.3960  0.8228  1.4374
  818MPD2    H112041   3.609   1.690   9.600  0.8887  0.3533  0.1596
  818MPD2    H212042   3.545   1.939   9.932  0.4028 -0.5268  0.7888
  818MPD2    H312043   3.621   1.914   9.713 -1.3594  0.6749 -0.2595
  818MPD2     N12044   3.523   1.458   9.711  0.2721  0.2789  0.2312
  818MPD2    H512045   3.547   1.447   9.613  2.4012  0.1976  0.7682
  818MPD2    N112046   3.471   1.736  10.099  0.6289 -0.2339  0.3507
  818MPD2    H712047   3.435   1.650  10.138 -1.5817  0.8621  0.7354
  819MPD2     C12048   0.806   3.326  15.717 -0.5791 -0.2651  0.2738
  819MPD2    C112049   0.767   3.195  15.719  0.1225  0.4174 -0.5107
  819MPD2    C212050   0.837   3.107  15.810  0.5153 -0.4568 -0.3162
  819MPD2    C312051   0.939   3.148  15.888 -1.2397 -0.4169 -0.6050
  819MPD2    C412052   0.976   3.280  15.882 -0.9685 -0.0331  0.0389
  819MPD2    C512053   0.899   3.365  15.807 -0.0720  0.1137  0.6606
  819MPD2     H12054   0.829   2.999  15.810 -1.7631 -0.2919 -0.4118
  819MPD2    H112055   1.053   3.329  15.940 -1.8389  0.7172  0.5589
  819MPD2    H212056   0.760   3.388  15.641 -3.2130 -2.0906  0.3925
  819MPD2    H312057   0.932   3.468  15.813 -0.0348  0.0703  1.2323
  819MPD2     N12058   1.015   3.057  15.959 -0.0761  0.0500 -0.0714
  819MPD2    H512059   1.001   2.958  15.941 -1.1771 -0.0247  1.2511
  819MPD2    N112060   0.674   3.149  15.622  0.3024  0.0705  0.5135
  819MPD2    H712061   0.641   3.215  15.552  1.0054  0.1373  0.2390
  820MPD2     C12062   0.160   3.338  14.807 -0.2070 -0.1341 -0.1683
  820MPD2    C112063   0.217   3.400  14.916 -0.1699 -0.5477  0.2664
  820MPD2    C212064   0.271   3.324  15.016 -0.2273 -0.7419 -0.1678
  820MPD2    C312065   0.261   3.183  15.015  0.3341  0.3901 -0.1108
  820MPD2    C412066   0.199   3.122  14.902  0.1601  0.4136  0.0067
  820MPD2    C512067   0.160   3.202  14.795  0.3345 -0.2098  0.3023
  820MPD2     H12068   0.289   3.374  15.110 -2.9241 -1.0717  0.5519
  820MPD2    H112069   0.176   3.016  14.905  1.8770  0.1022  1.7723
  820MPD2    H212070   0.126   3.390  14.718 -2.5997 -2.1830 -0.4709
  820MPD2    H312071   0.119   3.159  14.704  0.0084 -0.3593  0.5233
  820MPD2     N12072   0.313   3.099  15.121  0.2933  0.6470  0.1191
  820MPD2    H512073   0.281   3.003  15.120  0.6776  0.5349 -0.7242
  820MPD2    N112074   0.220   3.542  14.926 -0.0805  0.4314  0.0974
  820MPD2    H712075   0.160   3.592  14.861 -0.8150 -2.0600 -1.1849
  821MPD2     C12076   1.178   4.574  12.796  0.1629  0.3115  0.1248
  821MPD2    C112077   1.155   4.569  12.930  0.2954 -0.6789  0.3778
  821MPD2    C212078   1.213   4.656  13.015 -0.1721 -0.3166 -0.1988
  821MPD2    C312079   1.317   0.014  12.963  0.5194 -0.1378  0.1381
  821MPD2    C412080   1.351   0.014  12.834 -0.6066 -0.3724  0.6880
  821MPD2    C512081   1.275   4.660  12.751 -0.4004 -0.2080  0.0556
  821MPD2     H12082   1.182   4.658  13.119  0.3484  1.2910 -0.0819
  821MPD2    H112083   1.428   0.083  12.799 -0.4541 -0.6250  0.5280
  821MPD2    H212084   1.129   4.504  12.728  0.4826  0.0561  0.1582
  821MPD2    H312085   1.284   4.664  12.643  0.0360 -0.2684  0.0868
  821MPD2     N12086   1.397   0.103  13.046 -0.1878  0.6197  0.2639
  821MPD2    H512087   1.464   0.163  12.998 -0.1264  0.9179  0.7273
  821MPD2    N112088   1.061   4.478  12.995  0.2573  0.1916  0.0466
  821MPD2    H712089   1.036   4.493  13.092 -0.9569  1.9292 -0.5330
  822MPD2     C12090   1.565   4.417  15.630 -0.5832 -0.0570 -0.3120
  822MPD2    C112091   1.571   4.404  15.763 -0.2664  0.0391 -0.6965
  822MPD2    C212092   1.474   4.469  15.842  0.6288 -0.5247 -0.1674
  822MPD2    C312093   1.371   4.551  15.788  0.4004 -0.8529  0.0157
  822MPD2    C412094   1.358   4.546  15.649  0.8430  0.0708  0.2156
  822MPD2    C512095   1.456   4.486  15.579  0.7256  0.4278 -0.0473
  822MPD2     H12096   1.470   4.460  15.950  1.6050 -2.9250 -0.3351
  822MPD2    H112097   1.277   4.591  15.593 -0.2485 -3.1354 -0.7783
  822MPD2    H212098   1.644   4.377  15.567 -0.3871 -0.5555  0.2549
  822MPD2    H312099   1.441   4.487  15.472 -0.2281 -1.2946  0.0730
  822MPD2     N12100   1.282   4.619  15.870  0.5385  0.4960 -0.6813
  822MPD2    H512101   1.300   4.613  15.970 -0.2446  0.4890 -0.5449
  822MPD2    N112102   1.676   4.326  15.829 -0.2036 -0.3868 -0.4006
  822MPD2    H712103   1.676   4.341  15.929  2.2178 -2.8066 -0.0360
  823MPD2     C12104   0.759   0.149  16.526 -0.2422 -0.0474  0.1224
  823MPD2    C112105   0.864   0.100  16.453 -0.1278  0.3135  0.3212
  823MPD2    C212106   0.971   0.035  16.521 -0.3119  0.0776  0.2245
  823MPD2    C312107   0.969   0.029  16.656 -0.6523  0.6835  0.0990
  823MPD2    C412108   0.865   0.081  16.726  0.6483 -0.1963 -0.7450
  823MPD2    C512109   0.769   0.144  16.658  0.1000  0.3184  0.0586
  823MPD2     H12110   1.049   0.004  16.453 -0.7841  0.7494 -0.6288
  823MPD2    H112111   0.864   0.078  16.835 -1.0961 -0.2678 -0.7584
  823MPD2    H212112   0.675   0.202  16.484  0.0360 -0.1701 -0.5910
  823MPD2    H312113   0.685   0.178  16.718  0.9059  2.1347  0.1539
  823MPD2     N12114   1.068   4.684  16.741 -0.5509  0.1333  0.5954
  823MPD2    H512115   1.064   4.686  16.842  1.6650 -3.2450  0.7523
  823MPD2    N112116   0.858   0.104  16.311  0.0022  0.2931  0.0095
  823MPD2    H712117   0.809   0.186  16.277  0.4704  0.5732  0.0198
  824MPD2     C12118   2.039   3.625  16.140 -0.0670  0.3528  0.5961
  824MPD2    C112119   2.094   3.684  16.030  0.2870 -0.1479  0.0892
  824MPD2    C212120   2.156   3.611  15.937  0.0809  0.0552 -0.4688
  824MPD2    C312121   2.185   3.477  15.959  0.5740 -0.2501 -0.8167
  824MPD2    C412122   2.123   3.418  16.070 -0.6435 -0.1707 -0.5403
  824MPD2    C512123   2.050   3.489  16.163  0.4403  0.4272 -0.6167
  824MPD2     H12124   2.194   3.663  15.849 -0.9852  0.4058 -0.7206
  824MPD2    H112125   2.137   3.311  16.077 -1.2246 -0.0773  2.0885
  824MPD2    H212126   1.991   3.680  16.220 -0.4509  1.9373 -0.7272
  824MPD2    H312127   2.016   3.448  16.257 -0.8076 -0.1146 -1.3128
  824MPD2     N12128   2.257   3.415  15.859  0.0538  0.0684  0.3363
  824MPD2    H512129   2.298   3.482  15.796  1.7039 -0.2347  1.0726
  824MPD2    N112130   2.077   3.823  16.018  0.5336 -0.2075 -0.3539
  824MPD2    H712131   2.030   3.869  16.096  0.3777 -1.0835  0.0654
  825MPD2     C12132   2.884   3.369  15.283  0.0534  0.1604  0.4337
  825MPD2    C112133   2.813   3.443  15.367 -0.1292 -0.1536  0.5747
  825MPD2    C212134   2.816   3.575  15.352 -0.1741  0.6432 -0.2032
  825MPD2    C312135   2.888   3.638  15.251  0.1370 -0.1771  0.5453
  825MPD2    C412136   2.963   3.563  15.163  0.2081 -0.5773  0.7353
  825MPD2    C512137   2.952   3.429  15.184  0.1082 -0.7226  0.1082
  825MPD2     H12138   2.746   3.633  15.411  1.0118 -0.6030  2.4319
  825MPD2    H112139   3.030   3.604  15.088 -1.1146  0.7554  0.3096
  825MPD2    H212140   2.882   3.263  15.304 -0.2680 -0.4327 -2.6412
  825MPD2    H312141   3.005   3.362  15.117  0.0672 -0.5221 -0.1224
  825MPD2     N12142   2.913   3.774  15.241 -0.0608 -0.1473  0.3756
  825MPD2    H512143   2.969   3.815  15.167 -0.6167 -0.8530 -0.4300
  825MPD2    N112144   2.729   3.376  15.455  0.5731  0.0893  0.5384
  825MPD2    H712145   2.755   3.278  15.459  0.8882  0.1378 -0.3162
  826MPD2     C12146   2.795   3.637  13.893  0.4821  0.0392  0.1025
  826MPD2    C112147   2.778   3.662  13.758  0.2380  0.0445  0.6179
  826MPD2    C212148   2.685   3.754  13.720 -0.0979  0.3920  0.1909
  826MPD2    C312149   2.610   3.818  13.818 -0.2099  0.2736 -0.4406
  826MPD2    C412150   2.632   3.797  13.955 -0.0454  0.3963  0.5098
  826MPD2    C512151   2.724   3.706  13.987  0.1313  0.5664 -0.4267
  826MPD2     H12152   2.681   3.786  13.616 -0.7262  0.3149  0.1900
  826MPD2    H112153   2.581   3.861  14.026  0.6836 -1.5581  2.7771
  826MPD2    H212154   2.856   3.553  13.924 -0.5362 -0.7277  0.0329
  826MPD2    H312155   2.750   3.696  14.092  0.9105  0.9427 -0.5869
  826MPD2     N12156   2.502   3.913  13.789  0.1942  0.3984  0.1221
  826MPD2    H512157   2.470   3.963  13.871 -1.6586 -1.3273  0.4576
  826MPD2    N112158   2.850   3.580  13.668  0.1182 -0.1828  0.0535
  826MPD2    H712159   2.904   3.502  13.704 -0.0005 -0.7240 -0.9409
  827MPD2     C12160   4.249   1.221  10.013 -0.0893 -0.1162  0.3497
  827MPD2    C112161   4.199   1.093  10.020  0.0345 -0.2754  0.7737
  827MPD2    C212162   4.184   1.021   9.902  0.2631  0.4626  0.6962
  827MPD2    C312163   4.213   1.073   9.774 -0.3965  0.1970  0.2323
  827MPD2    C412164   4.254   1.210   9.768  0.1878  0.1298 -0.6235
  827MPD2    C512165   4.279   1.281   9.889 -1.0262  0.0147 -0.2524
  827MPD2     H12166   4.148   0.919   9.891  1.0713  0.0902  1.5347
  827MPD2    H112167   4.269   1.258   9.673  0.5305 -0.8472 -1.0631
  827MPD2    H212168   4.270   1.264  10.110  1.8292 -1.2622  0.4360
  827MPD2    H312169   4.307   1.384   9.867 -0.5827  0.2630  1.4603
  827MPD2     N12170   4.155   1.008   9.661 -0.1939  0.8683 -0.0014
  827MPD2    H512171   4.092   0.931   9.681 -1.0781  1.3211 -1.1148
  827MPD2    N112172   4.177   1.039  10.149  0.0347  0.6959 -0.2390
  827MPD2    H712173   4.208   1.098  10.226  1.5598 -1.0597  0.4904
  828MPD2     C12174   1.948   0.110  12.676 -0.2605 -0.1403  0.5476
  828MPD2    C112175   1.949   0.115  12.539 -0.3088 -0.2706  0.9909
  828MPD2    C212176   2.061   0.073  12.479  0.0681 -0.2556 -1.3378
  828MPD2    C312177   2.179   0.029  12.536 -0.1346  0.7742  0.5552
  828MPD2    C412178   2.174   0.022  12.677 -0.3360 -0.3807  0.0017
  828MPD2    C512179   2.058   0.069  12.745 -0.1298 -0.2416  0.6165
  828MPD2     H12180   2.046   0.053  12.374  0.1474 -3.6492 -0.7334
  828MPD2    H112181   2.255   4.702  12.734  0.3450 -1.2532 -1.5955
  828MPD2    H212182   1.866   0.124  12.745 -0.3225  0.3311  0.3763
  828MPD2    H312183   2.071   0.064  12.852  0.3749 -0.3078  0.5554
  828MPD2     N12184   2.301   4.708  12.473  0.7826  0.3200 -0.4190
  828MPD2    H512185   2.378   4.684  12.534  0.8439  0.9710 -0.2443
  828MPD2    N112186   1.831   0.141  12.459  0.0507 -0.9117  0.2947
  828MPD2    H712187   1.837   0.116  12.361  0.7293  0.2327  0.0375
  829MPD2     C12188   1.965   0.414  11.667  0.4550 -0.4447  0.0268
  829MPD2    C112189   1.861   0.493  11.704  0.1137 -0.5827 -0.3443
  829MPD2    C212190   1.791   0.464  11.819 -0.4654 -0.1389  0.6242
  829MPD2    C312191   1.818   0.348  11.888 -0.6479  0.0562 -0.3928
  829MPD2    C412192   1.935   0.279  11.864 -0.3261  0.1965 -0.9043
  829MPD2    C512193   2.006   0.313  11.753 -0.2547 -0.1954 -0.2698
  829MPD2     H12194   1.717   0.534  11.854  0.7635  1.9935 -1.0274
  829MPD2    H112195   1.968   0.206  11.937  2.9260  3.5082  0.9290
  829MPD2    H212196   2.014   0.423  11.571 -1.0347 -0.0314 -0.6810
  829MPD2    H312197   2.097   0.257  11.736  0.4007  0.8558 -0.2480
  829MPD2     N12198   1.754   0.310  12.008  0.0293  0.6531 -0.0569
  829MPD2    H512199   1.796   0.234  12.060 -1.1242 -1.3185 -2.0186
  829MPD2    N112200   1.834   0.596  11.613  0.0538 -0.2403 -0.2160
  829MPD2    H712201   1.879   0.601  11.522  1.2554 -0.5351  0.3683
  830MPD2     C12202   1.631   2.737  15.833 -0.0487 -0.1395  0.4805
  830MPD2    C112203   1.546   2.841  15.862  0.1462  0.5034  0.1289
  830MPD2    C212204   1.578   2.971  15.841  0.3548  0.4093 -0.1388
  830MPD2    C312205   1.708   3.002  15.811 -0.5681 -0.1252 -0.3466
  830MPD2    C412206   1.802   2.897  15.806 -0.3966  0.6743  0.2377
  830MPD2    C512207   1.762   2.767  15.801 -0.5314 -0.5309 -0.6198
  830MPD2     H12208   1.506   3.051  15.852 -1.4254 -0.9414 -2.0793
  830MPD2    H112209   1.906   2.920  15.791 -0.4488 -0.7611 -2.3988
  830MPD2    H212210   1.590   2.637  15.838  1.4194 -0.7212  0.9573
  830MPD2    H312211   1.829   2.684  15.780 -0.8344 -0.7866 -0.5765
  830MPD2     N12212   1.762   3.134  15.798 -0.4409  0.7098 -0.1996
  830MPD2    H512213   1.860   3.142  15.771  0.3530 -0.8369  2.1580
  830MPD2    N112214   1.421   2.824  15.927  0.3872  0.2379  0.2561
  830MPD2    H712215   1.383   2.915  15.951  2.4395  1.4454 -1.0604
  831MPD2     C12216   1.461   0.172  16.155 -0.2888  0.5404  0.3491
  831MPD2    C112217   1.504   0.044  16.117 -0.3720 -0.2152 -0.6003
  831MPD2    C212218   1.443   4.653  16.160 -0.4065  0.1208  0.0736
  831MPD2    C312219   1.331   4.660  16.241 -0.1263 -0.9434 -0.3318
  831MPD2    C412220   1.295   0.062  16.293  0.6337  0.2534  0.1584
  831MPD2    C512221   1.356   0.178  16.252 -0.4565 -0.3866  0.4033
  831MPD2     H12222   1.496   4.560  16.146  0.9060  1.0374 -1.0220
  831MPD2    H112223   1.217   0.062  16.369  0.7373  0.5569  0.2656
  831MPD2    H212224   1.505   0.269  16.133  0.2129  0.3821  0.6665
  831MPD2    H312225   1.329   0.278  16.284 -0.6817 -0.3843  0.2025
  831MPD2     N12226   1.263   4.549  16.287 -0.0582 -0.2118 -0.7813
  831MPD2    H512227   1.219   4.558  16.379  2.5399 -0.0499  0.4464
  831MPD2    N112228   1.625   0.046  16.041 -0.3342  0.3012  0.4349
  831MPD2    H712229   1.655   0.137  16.006 -0.0089 -0.1700 -0.5258
  832MPD2     C12230   4.503   1.321  17.196 -0.0221 -0.0770  0.3527
  832MPD2    C112231   4.486   1.450  17.155  0.6204  1.0220  0.1620
  832MPD2    C212232   4.391   1.482  17.067 -0.3975  1.2494  0.7055
  832MPD2    C312233   4.305   1.385  17.021  0.0625 -0.8244  0.5355
  832MPD2    C412234   4.325   1.254  17.063  0.3568  0.5246 -0.2243
  832MPD2    C512235   4.432   1.222  17.143  0.1820  0.8724 -0.9528
  832MPD2     H12236   4.400   1.574  17.009  1.0075 -0.6200 -2.0557
  832MPD2    H112237   4.259   1.174  17.033 -0.2135  0.6632  0.6551
  832MPD2    H212238   4.583   1.295  17.264 -0.1472 -2.1109 -0.2778
  832MPD2    H312239   4.447   1.119  17.174 -0.4198  1.1849  0.3746
  832MPD2     N12240   4.191   1.414  16.949  0.3883 -0.5838  0.1251
  832MPD2    H512241   4.117   1.346  16.934 -0.0069 -0.2919  0.7536
  832MPD2    N112242   4.577   1.545  17.208 -0.2176 -1.2049 -0.1484
  832MPD2    H712243   4.632   1.512  17.287  3.1363 -0.7461 -2.3532
  833MPD2     C12244   2.659   2.741  12.597 -0.7820  0.5331  0.2907
  833MPD2    C112245   2.708   2.838  12.518 -0.3700 -0.6139  0.4679
  833MPD2    C212246   2.776   2.819  12.396 -0.2329  0.1279  0.3081
  833MPD2    C312247   2.803   2.689  12.355  0.7367  0.0226  0.3107
  833MPD2    C412248   2.756   2.584  12.439 -1.1412 -0.6443  0.3820
  833MPD2    C512249   2.682   2.608  12.555 -0.6380  0.3918  0.6242
  833MPD2     H12250   2.812   2.906  12.342  0.5574  0.0071  0.6441
  833MPD2    H112251   2.781   2.483  12.408  0.1729 -0.2945  0.2817
  833MPD2    H212252   2.597   2.766  12.683 -0.2297  3.0393 -0.0428
  833MPD2    H312253   2.646   2.525  12.615 -0.1545 -0.9730 -0.9803
  833MPD2     N12254   2.869   2.659  12.231  0.3159 -0.4340  0.8072
  833MPD2    H512255   2.876   2.562  12.201 -2.5837  0.3994 -2.5607
  833MPD2    N112256   2.667   2.964  12.566 -0.7228 -0.2168 -0.1009
  833MPD2    H712257   2.601   2.963  12.643 -1.5142 -0.8816 -0.7841
  834MPD2     C12258   2.539   2.151  11.524  0.2240  0.1711 -0.3050
  834MPD2    C112259   2.555   2.266  11.455  0.2404 -0.1247  0.3021
  834MPD2    C212260   2.623   2.375  11.510 -0.6059  0.0514  0.8690
  834MPD2    C312261   2.668   2.363  11.640 -0.0857 -0.9341  1.1458
  834MPD2    C412262   2.660   2.241  11.710  0.3557  0.6490  0.3431
  834MPD2    C512263   2.590   2.141  11.648  0.1000  0.1725  0.0088
  834MPD2     H12264   2.636   2.471  11.460  1.7014 -1.4802 -1.4906
  834MPD2    H112265   2.698   2.212  11.808  1.3398 -3.8394 -1.3810
  834MPD2    H212266   2.479   2.072  11.480 -1.3704  1.1427  0.1126
  834MPD2    H312267   2.567   2.053  11.707  1.9965 -0.4191 -0.1174
  834MPD2     N12268   2.736   2.479  11.696 -0.0359 -0.3813 -0.0572
  834MPD2    H512269   2.762   2.555  11.634 -0.2739 -1.2144 -1.1892
  834MPD2    N112270   2.509   2.256  11.320 -0.2524  0.0654  0.4200
  834MPD2    H712271   2.456   2.179  11.282  0.7422 -0.7382  0.6561
  835MPD2     C12272   2.435   0.862  11.227  0.2291  0.0716  0.6617
  835MPD2    C112273   2.302   0.855  11.246  0.1569 -0.2130  0.4515
  835MPD2    C212274   2.250   0.847  11.366 -0.2937 -0.5988  0.4237
  835MPD2    C312275   2.332   0.811  11.471  0.3285  0.0140 -0.1743
  835MPD2    C412276   2.467   0.795  11.454 -0.2327 -0.3571  0.6611
  835MPD2    C512277   2.524   0.823  11.330 -0.6365  0.3154  0.1319
  835MPD2     H12278   2.143   0.865  11.377 -0.3682 -0.4462 -0.5447
  835MPD2    H112279   2.537   0.775  11.534  0.2986  0.3439  0.3731
  835MPD2    H212280   2.474   0.887  11.129 -0.5659 -0.9789  0.0773
  835MPD2    H312281   2.632   0.818  11.330 -0.7633 -2.5921 -1.4764
  835MPD2     N12282   2.286   0.782  11.602 -0.4179 -0.0938 -0.1936
  835MPD2    H512283   2.358   0.760  11.669 -1.9452 -1.2355  1.0844
  835MPD2    N112284   2.218   0.870  11.133  0.3642 -0.1230  0.1194
  835MPD2    H712285   2.118   0.882  11.147  0.5800 -0.1821  1.6709
  836MPD2     C12286   1.581   0.936  11.927  0.0809 -0.4472 -0.5988
  836MPD2    C112287   1.668   0.890  12.021 -0.1368 -0.1558  0.0303
  836MPD2    C212288   1.642   0.921  12.155 -0.4744  0.1085  0.5386
  836MPD2    C312289   1.520   0.990  12.187  0.2961 -0.2737 -0.0583
  836MPD2    C412290   1.435   1.034  12.086 -0.8098  0.5475  0.5574
  836MPD2    C512291   1.467   1.006  11.955  0.3912 -0.2758 -0.0788
  836MPD2     H12292   1.705   0.882  12.233  0.8294  0.3709 -0.3865
  836MPD2    H112293   1.349   1.097  12.103  0.2779  1.8953  1.0199
  836MPD2    H212294   1.600   0.919  11.822  0.5309 -2.9402 -0.1091
  836MPD2    H312295   1.402   1.024  11.870  0.9899 -2.8441 -1.0744
  836MPD2     N12296   1.485   1.021  12.323 -0.3522 -0.3040  0.0116
  836MPD2    H512297   1.395   1.066  12.335 -0.2367 -0.4627  1.5279
  836MPD2    N112298   1.784   0.829  11.968  0.4977  0.0033 -0.2500
  836MPD2    H712299   1.793   0.830  11.866 -0.1609 -0.4670 -0.3118
  837MPD2     C12300   0.745   0.468  10.078  0.1913  0.0894 -0.1644
  837MPD2    C112301   0.662   0.484   9.965  0.4084  0.3802 -0.1573
  837MPD2    C212302   0.582   0.591   9.954  0.0416  0.4722 -0.5035
  837MPD2    C312303   0.585   0.690  10.051  0.7251  0.7116 -0.4846
  837MPD2    C412304   0.653   0.672  10.171  0.0638 -0.4729 -0.2295
  837MPD2    C512305   0.740   0.569  10.175  0.3642 -0.8852  0.2471
  837MPD2     H12306   0.511   0.602   9.874 -0.6480 -1.6267 -0.1672
  837MPD2    H112307   0.670   0.757  10.236  0.5137 -0.7422  0.0112
  837MPD2    H212308   0.797   0.375  10.098 -1.5010 -0.7640  0.2131
  837MPD2    H312309   0.814   0.553  10.253 -0.2479 -0.6404  0.8792
  837MPD2     N12310   0.507   0.805  10.019  0.5483  0.3162  0.4114
  837MPD2    H512311   0.459   0.797   9.930  1.5597 -0.7165 -0.0448
  837MPD2    N112312   0.654   0.388   9.864  0.8501  0.8990 -0.3845
  837MPD2    H712313   0.575   0.396   9.801 -0.2198 -0.9983  0.7454
  838MPD2     C12314   3.842   2.903  11.052 -0.0451  0.0641 -0.2697
  838MPD2    C112315   3.866   2.904  11.190 -0.2310  0.4154  0.8045
  838MPD2    C212316   3.779   2.859  11.282  0.3489  0.1626  0.0137
  838MPD2    C312317   3.657   2.822  11.225 -0.5528  0.2087 -0.2235
  838MPD2    C412318   3.623   2.825  11.091 -0.5209 -0.0730  0.4983
  838MPD2    C512319   3.724   2.859  11.007  0.5680 -0.0624  0.3110
  838MPD2     H12320   3.796   2.874  11.388  0.2614 -0.9396  0.1830
  838MPD2    H112321   3.525   2.800  11.054 -0.3489 -1.3496  0.9093
  838MPD2    H212322   3.916   2.945  10.985 -0.1373 -0.6404 -0.8185
  838MPD2    H312323   3.696   2.866  10.902  1.2410  3.0104  0.3396
  838MPD2     N12324   3.556   2.786  11.320 -0.5887 -0.2542 -0.2426
  838MPD2    H512325   3.584   2.781  11.417  0.5443 -0.4960 -0.5858
  838MPD2    N112326   3.984   2.949  11.245 -0.6016 -0.1467 -0.2612
  838MPD2    H712327   3.989   2.944  11.346 -0.7533 -0.1956 -0.2562
  839MPD2     C12328   3.910   2.989  12.000 -0.4804  0.8263  0.4521
  839MPD2    C112329   3.891   2.902  11.892 -0.0965 -0.5024  0.1181
  839MPD2    C212330   3.964   2.927  11.781  0.1708 -0.2475  0.2401
  839MPD2    C312331   4.050   3.030  11.767 -0.3275 -0.4476  0.3233
  839MPD2    C412332   4.062   3.121  11.871  0.9158 -1.0814  0.0835
  839MPD2    C512333   3.991   3.096  11.987  0.7528 -0.0882 -0.4797
  839MPD2     H12334   3.958   2.848  11.707  0.5824  0.2520 -0.3292
  839MPD2    H112335   4.136   3.201  11.876  0.0414 -0.3110  0.6729
  839MPD2    H212336   3.859   2.981  12.096  0.5906 -0.1312  0.9404
  839MPD2    H312337   3.992   3.170  12.066  0.7966  0.3167 -0.8593
  839MPD2     N12338   4.129   3.029  11.650 -0.5657  0.5691 -0.1606
  839MPD2    H512339   4.095   2.975  11.572 -0.4855 -0.7969  0.7447
  839MPD2    N112340   3.807   2.789  11.892 -0.3604  0.7036 -0.0728
  839MPD2    H712341   3.804   2.748  11.799 -1.6870  0.0064  0.2862
  840MPD2     C12342   4.614   1.175  10.541 -0.7758  0.0667 -0.2639
  840MPD2    C112343   4.507   1.134  10.622  0.9163  0.1998 -0.5295
  840MPD2    C212344   4.499   1.182  10.748 -0.2951  0.4924  0.3402
  840MPD2    C312345   4.598   1.266  10.797 -0.3312 -0.1260 -0.2395
  840MPD2    C412346   4.703   1.309  10.716  0.0335  0.0056 -0.5027
  840MPD2    C512347   4.708   1.263  10.588  0.1575 -0.6770 -0.4336
  840MPD2     H12348   4.413   1.157  10.810 -1.4005  1.4847 -0.8021
  840MPD2    H112349   0.054   1.385  10.743 -0.8193  0.9790 -0.9405
  840MPD2    H212350   4.620   1.128  10.443  0.9805 -1.0367  0.3710
  840MPD2    H312351   0.070   1.288  10.523  1.0439  0.1111  1.0108
  840MPD2     N12352   4.609   1.320  10.932  0.0921  0.7744 -0.4186
  840MPD2    H512353   4.698   1.357  10.964  0.8011  0.6108 -2.1608
  840MPD2    N112354   4.408   1.052  10.567  0.4280 -0.2265 -0.0992
  840MPD2    H712355   4.405   1.040  10.467  2.3067 -1.1679 -0.0462
  841MPD2     C12356   4.001   0.077  14.332  0.1393 -0.2717  0.0403
  841MPD2    C112357   3.930   0.070  14.447 -0.5902  0.7756  0.5068
  841MPD2    C212358   3.947   0.160  14.554 -0.3009 -1.0656  0.3045
  841MPD2    C312359   4.058   0.238  14.550  0.0604  0.5341  0.0355
  841MPD2    C412360   4.146   0.239  14.439  0.1420  0.1808  0.5692
  841MPD2    C512361   4.109   0.156  14.330  0.1385 -0.2432 -1.0388
  841MPD2     H12362   3.880   0.167  14.639 -0.7980  1.1632 -0.2598
  841MPD2    H112363   4.233   0.303  14.428  1.8154 -2.3450 -0.8546
  841MPD2    H212364   3.989   0.014  14.245 -0.0481 -0.8921  0.5200
  841MPD2    H312365   4.177   0.149  14.246  1.1693 -1.4393 -0.1146
  841MPD2     N12366   4.078   0.330  14.653  0.2895 -0.1734  0.1668
  841MPD2    H512367   4.009   0.318  14.727 -0.2461  1.2918 -0.1030
  841MPD2    N112368   3.822   4.691  14.453 -0.3503 -0.0813 -0.7992
  841MPD2    H712369   3.799   4.646  14.365 -0.9105 -3.3334  0.9988
  842MPD2     C12370   2.436   1.507  16.962 -0.3347  0.3241  0.3646
  842MPD2    C112371   2.538   1.596  16.980 -0.5284 -0.4797 -0.0379
  842MPD2    C212372   2.575   1.618  17.112 -0.3655  0.2033  0.1126
  842MPD2    C312373   2.541   1.531  17.214  0.2036  0.3311  0.3743
  842MPD2    C412374   2.452   1.427  17.186 -0.1374  0.4456  0.2661
  842MPD2    C512375   2.405   1.413  17.053 -0.0958 -0.2620  0.3616
  842MPD2     H12376   2.651   1.691  17.137 -1.6825  0.6929  2.6414
  842MPD2    H112377   2.423   1.353  17.261 -1.6119  0.1362 -0.6133
  842MPD2    H212378   2.394   1.477  16.866  0.0739 -1.0561  0.6273
  842MPD2    H312379   2.341   1.332  17.021  0.5288 -0.3131 -0.7284
  842MPD2     N12380   2.589   1.543  17.345 -0.3776 -0.1831 -0.1970
  842MPD2    H512381   2.545   1.477  17.408  1.2612  0.9031  2.0625
  842MPD2    N112382   2.584   1.679  16.870  0.1244  0.3924  0.1974
  842MPD2    H712383   2.539   1.660  16.781 -0.4233  2.1105  0.1020
  843MPD2     C12384   0.471   1.992  17.643  0.1806 -0.2865  0.7633
  843MPD2    C112385   0.529   1.922   0.055 -0.4860  0.4111 -0.2451
  843MPD2    C212386   0.623   1.985   0.137 -0.9306 -0.1404  0.0376
  843MPD2    C312387   0.671   2.116   0.110 -0.4717 -0.5700 -0.1142
  843MPD2    C412388   0.624   2.174  17.685 -0.5112  0.4389 -0.0891
  843MPD2    C512389   0.522   2.119  17.621  0.2895  0.5484 -0.4937
  843MPD2     H12390   0.649   1.942   0.233 -1.8523  0.5970  0.6134
  843MPD2    H112391   0.654   2.276  17.667  2.2959 -0.0956  1.6367
  843MPD2    H212392   0.392   1.962  17.575  0.7884 -0.7908  0.2847
  843MPD2    H312393   0.466   2.176  17.548 -1.5405 -1.3327 -0.5624
  843MPD2     N12394   0.770   2.189   0.186  0.4699  0.1769  0.5987
  843MPD2    H512395   0.787   2.286   0.165 -0.1298  0.3959  1.1185
  843MPD2    N112396   0.483   1.791   0.073  0.2424 -0.1246  0.1633
  843MPD2    H712397   0.416   1.760   0.003 -1.2775  0.3660  1.3987
  844MPD2     C12398   4.213   1.214  16.385 -0.1880 -0.0292 -0.1635
  844MPD2    C112399   4.295   1.120  16.435 -0.4528 -0.2464  0.7076
  844MPD2    C212400   4.380   1.151  16.541 -0.0601 -0.3686  0.8774
  844MPD2    C312401   4.393   1.280  16.592  0.5965 -0.2089  0.0070
  844MPD2    C412402   4.312   1.379  16.534 -0.1650 -0.6588  0.3712
  844MPD2    C512403   4.221   1.341  16.440  0.9932  0.0519 -0.0652
  844MPD2     H12404   4.452   1.082  16.584  1.6853  1.5346  1.0010
  844MPD2    H112405   4.302   1.482  16.565 -1.2097 -0.3349 -1.0196
  844MPD2    H212406   4.148   1.202  16.299 -1.0126  0.6623  0.3552
  844MPD2    H312407   4.156   1.410  16.386  0.3284 -0.5041  0.0199
  844MPD2     N12408   4.480   1.297  16.696 -0.2510 -0.1590 -0.9496
  844MPD2    H512409   4.511   1.209  16.737 -1.2009 -0.1593 -0.2204
  844MPD2    N112410   4.297   0.997  16.364 -0.1666  0.5847 -0.1164
  844MPD2    H712411   4.257   0.996  16.271  1.2860  1.4816 -0.7438
  845MPD2     C12412   0.454   2.050  16.900  0.0273  0.2870  0.1280
  845MPD2    C112413   0.313   2.059  16.881  0.5014 -0.9643 -0.1544
  845MPD2    C212414   0.236   1.947  16.851 -0.6883  0.4541  0.2569
  845MPD2    C312415   0.294   1.821  16.853  0.0413 -0.0435  0.9442
  845MPD2    C412416   0.432   1.815  16.867  0.3034  0.1494 -0.5564
  845MPD2    C512417   0.503   1.927  16.888  0.3478  0.1686  0.4988
  845MPD2     H12418   0.130   1.963  16.839 -1.2959 -2.3475  1.9033
  845MPD2    H112419   0.488   1.724  16.849  0.5083 -0.0269  1.0187
  845MPD2    H212420   0.525   2.131  16.911 -1.2231  0.9036  3.4646
  845MPD2    H312421   0.610   1.924  16.905  0.7182  0.3842 -1.8475
  845MPD2     N12422   0.216   1.705  16.839 -0.3092  0.7076 -0.1216
  845MPD2    H512423   0.118   1.728  16.823 -0.1295  0.6962 -1.2592
  845MPD2    N112424   0.252   2.187  16.906  0.0632 -0.2558 -0.4249
  845MPD2    H712425   0.304   2.255  16.960 -2.4324  2.5389 -1.5716
  846MPD2     C12426   1.880   2.118  13.932 -0.2608  0.2346  0.3729
  846MPD2    C112427   1.794   2.218  13.908 -0.8363 -0.1443 -0.1441
  846MPD2    C212428   1.687   2.239  13.998  0.3690  0.1628  0.3673
  846MPD2    C312429   1.683   2.164  14.115 -0.0200 -0.1257  0.0344
  846MPD2    C412430   1.774   2.057  14.134 -0.4400 -0.0152 -0.1739
  846MPD2    C512431   1.860   2.034  14.037  0.9210 -0.1370 -0.7196
  846MPD2     H12432   1.624   2.324  13.974  1.2816  0.0367 -2.5353
  846MPD2    H112433   1.772   1.989  14.219  0.0128  1.0108  0.6637
  846MPD2    H212434   1.960   2.084  13.868 -0.9567  0.4920 -0.6337
  846MPD2    H312435   1.928   1.950  14.041  1.3560  0.3093  1.2075
  846MPD2     N12436   1.591   2.206  14.220 -0.2930 -0.4835  0.4907
  846MPD2    H512437   1.529   2.276  14.179  0.2620  0.0567  0.5670
  846MPD2    N112438   1.797   2.291  13.782  0.2299  0.6291  0.0152
  846MPD2    H712439   1.730   2.366  13.770 -1.8335 -0.9106  2.0670
  847MPD2     C12440   1.425   2.976  14.301 -0.0489 -0.2566 -0.0468
  847MPD2    C112441   1.549   3.035  14.282 -0.1567  0.0780 -0.0337
  847MPD2    C212442   1.651   2.987  14.362  0.2360 -0.0768  0.3271
  847MPD2    C312443   1.636   2.879  14.448  0.1855 -1.1555 -0.3475
  847MPD2    C412444   1.515   2.830  14.475 -0.2364 -0.0184 -0.2279
  847MPD2    C512445   1.406   2.884  14.400  0.0760  0.1017 -0.1152
  847MPD2     H12446   1.741   3.048  14.363 -0.4545  0.9177  1.3642
  847MPD2    H112447   1.492   2.760  14.555 -0.3464 -0.2085 -0.4266
  847MPD2    H212448   1.338   3.005  14.243 -0.5287  0.4198  1.0040
  847MPD2    H312449   1.306   2.847  14.419  0.8018 -1.9394 -0.2636
  847MPD2     N12450   1.758   2.843  14.517  0.1483 -0.0320 -0.2269
  847MPD2    H512451   1.841   2.896  14.494  0.8644  0.3098  3.1428
  847MPD2    N112452   1.567   3.140  14.186  0.3402  0.5415 -0.0925
  847MPD2    H712453   1.486   3.162  14.128 -1.2395 -0.7667  1.5945
  848MPD2     C12454   3.779   1.772  16.292 -0.0655 -0.3278  0.0935
  848MPD2    C112455   3.818   1.814  16.415 -0.5709  0.3078 -0.1788
  848MPD2    C212456   3.810   1.949  16.448 -0.3576 -0.5615  0.3299
  848MPD2    C312457   3.756   2.043  16.363 -0.7698 -0.1984 -0.1896
  848MPD2    C412458   3.723   1.998  16.236 -0.6195 -0.0158 -0.0129
  848MPD2    C512459   3.736   1.864  16.208 -0.1017 -0.0584  0.0472
  848MPD2     H12460   3.849   1.967  16.548  0.0844 -1.7574  0.3715
  848MPD2    H112461   3.684   2.064  16.160 -0.3154  0.9105  0.6359
  848MPD2    H212462   3.799   1.669  16.262  0.1645 -0.7226  1.6130
  848MPD2    H312463   3.706   1.836  16.108  1.6771 -0.9684 -0.2455
  848MPD2     N12464   3.727   2.176  16.401  0.1346  0.7917 -0.2078
  848MPD2    H512465   3.687   2.232  16.326  0.9432  0.8912 -0.5596
  848MPD2    N112466   3.869   1.734  16.520  0.0034 -0.3820  0.8331
  848MPD2    H712467   3.906   1.782  16.601  0.0597  1.3840 -0.2446
  849MPD2     C12468   3.718   1.244  13.761 -0.5791 -0.1185  0.2886
  849MPD2    C112469   3.805   1.157  13.814  0.2546  0.1718 -0.3443
  849MPD2    C212470   3.790   1.119  13.943 -0.1761  0.8100 -0.5246
  849MPD2    C312471   3.691   1.168  14.026  0.3303  0.2614  0.6725
  849MPD2    C412472   3.611   1.266  13.979 -0.1293  0.2944  0.3414
  849MPD2    C512473   3.623   1.302  13.845  0.8259  0.3695  0.5975
  849MPD2     H12474   3.864   1.044  13.970 -0.0082  0.5697 -1.6142
  849MPD2    H112475   3.546   1.322  14.045 -1.2570 -1.8630  1.0824
  849MPD2    H212476   3.715   1.276  13.658  0.2814 -1.2396 -0.0728
  849MPD2    H312477   3.560   1.383  13.811 -1.5341 -2.0636 -0.7712
  849MPD2     N12478   3.679   1.128  14.164 -0.6150  0.3456  0.1155
  849MPD2    H512479   3.614   1.184  14.219  0.8365 -0.4151  2.5899
  849MPD2    N112480   3.913   1.112  13.727 -0.0278  0.6604  0.0012
  849MPD2    H712481   3.899   1.152  13.635  0.2622 -1.5605 -0.9929
  850MPD2     C12482   1.417   3.685  14.816 -0.0099  0.0225 -0.5304
  850MPD2    C112483   1.427   3.698  14.954 -0.1289 -0.5104  0.4917
  850MPD2    C212484   1.558   3.684  15.011  0.0038  0.0810 -0.1316
  850MPD2    C312485   1.676   3.677  14.937 -0.2080 -0.0817 -0.5846
  850MPD2    C412486   1.661   3.678  14.800 -0.4472 -0.6016  0.1604
  850MPD2    C512487   1.535   3.677  14.746 -0.1572  0.0428 -0.2099
  850MPD2     H12488   1.562   3.683  15.119  2.3125  2.1471 -0.1953
  850MPD2    H112489   1.746   3.693  14.734  1.4676 -1.0825  2.5390
  850MPD2    H212490   1.324   3.691  14.760  0.1372 -0.6309 -0.8416
  850MPD2    H312491   1.526   3.687  14.639 -0.8302 -1.4409 -0.2785
  850MPD2     N12492   1.808   3.677  14.985  0.3503 -0.7124  0.6542
  850MPD2    H512493   1.886   3.700  14.924 -0.0185 -1.8172 -0.2341
  850MPD2    N112494   1.322   3.730  15.045  0.3819  0.1436  0.0240
  850MPD2    H712495   1.342   3.726  15.145 -0.8838  1.1145  0.3096
  851MPD2     C12496   1.367   4.026  15.706  0.1275  0.6007 -0.3262
  851MPD2    C112497   1.361   3.912  15.627  0.3533 -0.5438 -0.2540
  851MPD2    C212498   1.451   3.813  15.657 -1.1794  0.5498 -0.8017
  851MPD2    C312499   1.552   3.841  15.752 -0.2400  0.3936 -0.9904
  851MPD2    C412500   1.559   3.965  15.820  0.0825 -0.5980 -0.0214
  851MPD2    C512501   1.460   4.055  15.793 -0.7215  0.1190 -0.1098
  851MPD2     H12502   1.442   3.714  15.613  0.2538  0.6720 -1.3679
  851MPD2    H112503   1.642   3.989  15.886  0.6416 -0.7282 -0.6692
  851MPD2    H212504   1.292   4.100  15.680 -1.2081 -0.1978  1.2643
  851MPD2    H312505   1.458   4.151  15.842 -1.8521  0.3191 -0.5519
  851MPD2     N12506   1.643   3.735  15.773  0.2847  0.3488  0.1609
  851MPD2    H512507   1.633   3.654  15.714  0.8353  0.5736 -0.2371
  851MPD2    N112508   1.267   3.908  15.526 -0.3910 -0.4662 -0.5984
  851MPD2    H712509   1.225   3.998  15.504  1.9443  1.0758  1.1412
  852MPD2     C12510   2.410   1.400   9.688 -0.0511  0.4087  0.4193
  852MPD2    C112511   2.407   1.453   9.817 -0.7118  0.5801 -1.1127
  852MPD2    C212512   2.497   1.553   9.848 -0.0527  0.4126 -0.2157
  852MPD2    C312513   2.591   1.596   9.754 -0.7659 -0.6138 -0.1776
  852MPD2    C412514   2.595   1.544   9.628  0.2629 -0.2117 -0.5628
  852MPD2    C512515   2.502   1.448   9.596 -0.9504 -0.0856  0.3272
  852MPD2     H12516   2.484   1.609   9.939  0.1365 -0.0631  0.1042
  852MPD2    H112517   2.655   1.579   9.544 -2.5199  4.3490 -0.6165
  852MPD2    H212518   2.332   1.332   9.655  1.1628 -0.8608  0.1460
  852MPD2    H312519   2.514   1.413   9.494  2.4893 -0.1887  0.7636
  852MPD2     N12520   2.673   1.708   9.788 -0.4200  0.1131 -0.5667
  852MPD2    H512521   2.666   1.768   9.870  1.2435  0.2514 -0.5404
  852MPD2    N112522   2.329   1.409   9.925  0.2250 -0.0990 -0.1839
  852MPD2    H712523   2.342   1.450  10.017 -0.6622  0.0117 -0.1063
  853MPD2     C12524   3.194   1.677  12.480  0.5164  0.5451  0.4981
  853MPD2    C112525   3.108   1.764  12.423  0.0892 -0.5423 -0.0161
  853MPD2    C212526   3.118   1.805  12.292  0.1609 -0.3418 -0.6309
  853MPD2    C312527   3.224   1.759  12.217  0.1780 -0.3011 -0.0546
  853MPD2    C412528   3.316   1.673  12.279  0.6584  0.4844 -0.2647
  853MPD2    C512529   3.300   1.630  12.409  0.4062  0.1948  0.2972
  853MPD2     H12530   3.052   1.879  12.248 -1.2638 -1.3861 -0.2388
  853MPD2    H112531   3.397   1.630  12.221 -0.6599 -2.0059 -0.2403
  853MPD2    H212532   3.196   1.667  12.588  0.7608 -1.6044  0.2901
  853MPD2    H312533   3.376   1.564  12.451  0.7130  0.8720  0.8088
  853MPD2     N12534   3.252   1.781  12.075 -0.3908 -0.3592  0.6539
  853MPD2    H512535   3.328   1.734  12.028 -1.1578 -1.9285  0.9583
  853MPD2    N112536   3.015   1.826  12.521 -0.5879  0.3463 -0.1650
  853MPD2    H712537   3.025   1.796  12.617 -1.3835 -2.5888 -1.0119
  854MPD2     C12538   0.422   1.980  12.824  0.3157  0.2846  0.2311
  854MPD2    C112539   0.494   1.927  12.720  0.0419  0.5149 -0.0633
  854MPD2    C212540   0.586   1.828  12.737  0.0478  0.1561 -0.0927
  854MPD2    C312541   0.604   1.776  12.861  0.5143 -0.3585 -0.1927
  854MPD2    C412542   0.532   1.823  12.964  0.1498 -0.4811 -0.5409
  854MPD2    C512543   0.438   1.922  12.946 -0.1814 -0.4507  0.4309
  854MPD2     H12544   0.639   1.785  12.652  2.4837  1.5736  0.7213
  854MPD2    H112545   0.546   1.781  13.063 -0.2348  1.2186  0.2307
  854MPD2    H212546   0.353   2.063  12.814  1.2488  1.2587  1.7379
  854MPD2    H312547   0.387   1.957  13.035 -0.6606 -0.2973  0.0913
  854MPD2     N12548   0.710   1.682  12.892  0.0978 -0.1783 -0.0693
  854MPD2    H512549   0.723   1.657  12.989 -3.0819 -0.6148  0.2528
  854MPD2    N112550   0.468   1.991  12.600 -0.6040 -0.0534 -0.0576
  854MPD2    H712551   0.397   2.063  12.601  0.7814  1.3233 -2.3865
  855MPD2     C12552   0.892   1.695  13.634 -0.1063  0.6844 -0.6138
  855MPD2    C112553   0.873   1.566  13.598  0.1744 -0.1395 -0.1853
  855MPD2    C212554   0.910   1.518  13.472  0.0607 -0.1189  0.5771
  855MPD2    C312555   0.966   1.599  13.378 -0.7727 -0.2827 -0.1034
  855MPD2    C412556   0.989   1.732  13.417 -0.7983  0.1300 -0.8562
  855MPD2    C512557   0.948   1.774  13.542 -0.2389  0.2110  0.2690
  855MPD2     H12558   0.876   1.417  13.456  0.6700 -0.4188  1.1332
  855MPD2    H112559   1.047   1.808  13.366 -0.0123  0.6285  0.7676
  855MPD2    H212560   0.866   1.743  13.728  0.5276  2.3576 -1.3037
  855MPD2    H312561   0.964   1.879  13.565 -0.3652  0.1599  0.5879
  855MPD2     N12562   0.997   1.561  13.248  0.7731  0.2036 -0.2110
  855MPD2    H512563   1.036   1.636  13.191  1.1720  0.9413  1.0446
  855MPD2    N112564   0.812   1.479  13.692  1.2019 -0.2110 -0.1569
  855MPD2    H712565   0.796   1.387  13.652 -1.0971  0.1821 -0.1467
  856MPD2     C12566   2.566   2.324  14.058 -0.0679 -0.0721  0.1152
  856MPD2    C112567   2.685   2.387  14.034  0.3979 -0.4419 -0.3128
  856MPD2    C212568   2.685   2.515  13.988 -0.2486 -0.2238 -0.3923
  856MPD2    C312569   2.572   2.587  13.963 -0.2554  0.6024  0.0116
  856MPD2    C412570   2.453   2.524  13.976 -0.1931  0.3101  0.6642
  856MPD2    C512571   2.452   2.395  14.024 -0.2825  0.2979 -0.0932
  856MPD2     H12572   2.778   2.564  13.960 -1.0910  1.4337 -0.3087
  856MPD2    H112573   2.356   2.568  13.956 -0.5070 -1.7068 -2.2652
  856MPD2    H212574   2.563   2.218  14.081 -0.3981 -0.3358 -1.1745
  856MPD2    H312575   2.356   2.348  14.042 -0.5008  0.3540 -1.0614
  856MPD2     N12576   2.575   2.729  13.931 -0.7616 -0.0181 -0.3447
  856MPD2    H512577   2.482   2.769  13.923 -0.8364  0.2049  1.7306
  856MPD2    N112578   2.811   2.332  14.045  0.0732  0.2671  0.1030
  856MPD2    H712579   2.892   2.392  14.035 -0.4890  1.0351  0.1571
  857MPD2     C12580   4.112   4.455  12.587 -0.2423  0.7808 -0.6742
  857MPD2    C112581   4.250   4.448  12.629  0.3462  1.0911 -0.1801
  857MPD2    C212582   4.320   4.566  12.633  0.8268  0.3749  0.1211
  857MPD2    C312583   4.259   4.684  12.591  0.2724 -0.3194  0.1026
  857MPD2    C412584   4.127   4.692  12.557  0.2930  0.6233 -0.5184
  857MPD2    C512585   4.052   4.576  12.559  0.3253  0.4144  0.1635
  857MPD2     H12586   4.425   4.569  12.655  0.3963  1.2708  1.9801
  857MPD2    H112587   4.085   0.064  12.520 -2.3576  0.8229  2.9694
  857MPD2    H212588   4.051   4.366  12.588  1.0578 -0.0470  3.1942
  857MPD2    H312589   3.950   4.588  12.522  0.0269 -0.4748  0.7018
  857MPD2     N12590   4.342   0.077  12.596  0.1095  1.3370  0.2215
  857MPD2    H512591   4.433   0.052  12.634 -0.3109 -0.9961 -0.2707
  857MPD2    N112592   4.300   4.321  12.653 -0.1582  0.2823  0.8018
  857MPD2    H712593   4.232   4.246  12.647 -1.0596  1.0830  0.9990
  858MPD2     C12594   4.425   3.623  16.722  0.6357  0.6211 -0.4531
  858MPD2    C112595   4.560   3.622  16.758 -0.0833  0.0208 -0.2265
  858MPD2    C212596   4.607   3.721  16.841  0.7158  0.1180  0.3850
  858MPD2    C312597   4.524   3.815  16.896  0.3960  0.6222  0.0645
  858MPD2    C412598   4.405   3.827  16.834  0.2762 -0.3588 -0.6188
  858MPD2    C512599   4.344   3.727  16.763 -1.0527 -0.2570 -0.1743
  858MPD2     H12600   4.707   3.711  16.882  0.1630  1.0001  1.9302
  858MPD2    H112601   4.347   3.913  16.862  0.2344 -0.9667  1.1820
  858MPD2    H212602   4.375   3.556  16.653 -1.4484  1.9172 -0.1873
  858MPD2    H312603   4.246   3.728  16.717 -0.0859 -0.5989 -2.2715
  858MPD2     N12604   4.573   3.921  16.985  0.5166  0.1382 -0.0575
  858MPD2    H512605   4.512   3.998  17.008  0.3059 -0.4665  1.4103
  858MPD2    N112606   4.650   3.530  16.712 -0.1142 -0.7083  0.0953
  858MPD2    H712607   0.026   3.548  16.731 -0.3490  1.9075 -1.2273
  859MPD2     C12608   3.245   1.434  15.452 -0.2551 -0.9914  0.4638
  859MPD2    C112609   3.337   1.353  15.388  0.7211  0.4271 -0.2972
  859MPD2    C212610   3.335   1.210  15.406 -0.1421  0.3118  0.0437
  859MPD2    C312611   3.248   1.159  15.498 -0.3337 -0.9599 -0.2469
  859MPD2    C412612   3.160   1.249  15.560 -0.1505 -0.6221  0.1811
  859MPD2    C512613   3.152   1.384  15.536 -0.1024 -0.6302  0.0869
  859MPD2     H12614   3.390   1.138  15.346 -0.3989  0.7210 -0.6817
  859MPD2    H112615   3.094   1.211  15.638 -0.7477  0.3328  0.1437
  859MPD2    H212616   3.248   1.540  15.428 -1.3129 -1.0900 -0.1134
  859MPD2    H312617   3.068   1.441  15.574 -0.5858 -1.5640  0.4375
  859MPD2     N12618   3.244   1.015  15.538  0.0034  0.0730 -0.2900
  859MPD2    H512619   3.199   0.988  15.624 -2.7359 -0.3531 -1.8694
  859MPD2    N112620   3.429   1.412  15.298  0.3864  0.3937  0.1466
  859MPD2    H712621   3.419   1.511  15.277  0.1008  0.5619  1.0674
  860MPD2     C12622   1.888   1.370  11.752  0.3922  0.3091 -0.0493
  860MPD2    C112623   1.837   1.418  11.865 -0.3617 -0.0398  0.3076
  860MPD2    C212624   1.710   1.404  11.898  0.1176  0.0194  0.3964
  860MPD2    C312625   1.623   1.341  11.811  0.3019 -0.6683 -0.7885
  860MPD2    C412626   1.671   1.289  11.695 -0.1449 -0.8457  0.5513
  860MPD2    C512627   1.805   1.312  11.663  0.1080 -0.5370 -0.1610
  860MPD2     H12628   1.667   1.451  11.986  0.0660 -0.9064  0.8710
  860MPD2    H112629   1.606   1.235  11.628 -1.7648  0.2385  1.2561
  860MPD2    H212630   1.992   1.382  11.724  0.2789 -0.4728 -0.8220
  860MPD2    H312631   1.846   1.290  11.565 -0.0574  4.1130 -1.2647
  860MPD2     N12632   1.486   1.352  11.845 -0.2940 -0.7487  0.0229
  860MPD2    H512633   1.463   1.421  11.916  1.8008 -1.3174  1.2821
  860MPD2    N112634   1.910   1.503  11.956 -0.3301 -0.1245  0.0327
  860MPD2    H712635   1.868   1.530  12.044 -2.1284 -1.0163 -0.5447
  861MPD2     C12636   0.812   4.709  11.104 -0.3740 -0.2007 -0.3159
  861MPD2    C112637   0.704   0.008  11.184  0.3769  0.0337 -0.3085
  861MPD2    C212638   0.591   0.047  11.116  0.3482  0.0627 -0.1768
  861MPD2    C312639   0.588   0.041  10.976 -0.1657 -0.3908  0.4968
  861MPD2    C412640   0.698   0.004  10.902  0.2921 -0.1742  0.0364
  861MPD2    C512641   0.812   4.707  10.966  0.1519 -0.3954 -0.3206
  861MPD2     H12642   0.498   0.067  11.169  0.5230 -1.0609  0.5545
  861MPD2    H112643   0.704   4.711  10.795 -1.2859 -1.1113  0.0819
  861MPD2    H212644   0.908   4.677  11.144  0.2864  1.6245 -0.4439
  861MPD2    H312645   0.899   4.681  10.907 -1.3508 -1.1964 -2.1790
  861MPD2     N12646   0.478   0.065  10.893  0.2299  0.3463  0.1976
  861MPD2    H512647   0.485   0.072  10.792 -0.8899 -1.9770 -0.0370
  861MPD2    N112648   0.701   4.713  11.322  0.5613 -0.3093  0.7307
  861MPD2    H712649   0.620   0.034  11.367 -0.6852  0.1907 -1.9411
  862MPD2     C12650   0.142   0.144  10.248  0.1330 -1.3870  0.4503
  862MPD2    C112651   0.215   0.073  10.337 -0.5397  0.0403 -0.1865
  862MPD2    C212652   0.250   4.666  10.304 -0.0242 -0.3813 -0.2390
  862MPD2    C312653   0.224   4.617  10.179  0.2464 -0.0881 -0.0509
  862MPD2    C412654   0.150   4.690  10.090  0.1973  0.8085 -0.0312
  862MPD2    C512655   0.112   0.093  10.121  0.0111  0.7251  0.5422
  862MPD2     H12656   0.304   4.603  10.374 -0.2298 -0.3978 -0.0969
  862MPD2    H112657   0.127   4.651   9.991 -0.3917 -0.2542  0.5329
  862MPD2    H212658   0.124   0.251  10.257 -1.1983 -1.5728  0.0205
  862MPD2    H312659   0.070   0.157  10.045 -1.8997 -0.8273  0.3116
  862MPD2     N12660   0.253   4.486  10.138  0.3976 -0.2398  0.4290
  862MPD2    H512661   0.200   4.446  10.061  0.6961  0.9734 -0.4035
  862MPD2    N112662   0.252   0.125  10.459 -0.0517 -0.1306 -0.0374
  862MPD2    H712663   0.317   0.065  10.510 -1.1258 -1.7489 -0.5881
  863MPD2     C12664   2.483   3.378  17.467  0.2690 -0.2158  0.5278
  863MPD2    C112665   2.551   3.355  17.354 -0.0006 -0.3966  0.0886
  863MPD2    C212666   2.684   3.303  17.362  0.2387 -0.5746 -0.3401
  863MPD2    C312667   2.744   3.273  17.489 -0.2424 -0.3262  0.0726
  863MPD2    C412668   2.668   3.297  17.603 -0.3430 -0.5408  0.6457
  863MPD2    C512669   2.535   3.345  17.593 -0.3027 -0.0358  0.4013
  863MPD2     H12670   2.744   3.298  17.272 -0.6038  0.4237 -0.9648
  863MPD2    H112671   2.701   3.267   0.014  2.0745  0.2225  0.0629
  863MPD2    H212672   2.379   3.407  17.460  0.4333 -0.1190 -1.5788
  863MPD2    H312673   2.473   3.358  17.680 -1.2650  0.3460 -0.3430
  863MPD2     N12674   2.866   3.216  17.510  0.1500 -0.6053 -0.5710
  863MPD2    H512675   2.890   3.182  17.602 -0.5403 -1.1895 -0.6115
  863MPD2    N112676   2.482   3.371  17.233  0.1367 -0.2457  0.0244
  863MPD2    H712677   2.389   3.413  17.235  0.9944  1.5503  2.7521
  864MPD2     C12678   3.290   4.576  17.087 -0.3950 -0.6267  0.3361
  864MPD2    C112679   3.320   4.455  17.027 -0.2097  0.3206  0.6401
  864MPD2    C212680   3.375   4.459  16.903 -0.1828 -0.8161 -0.2551
  864MPD2    C312681   3.412   4.588  16.848  0.5958  0.3376  0.1748
  864MPD2    C412682   3.368   4.704  16.898  0.4099 -0.1304 -0.3560
  864MPD2    C512683   3.311   4.696  17.025  0.0519  0.0298 -0.1346
  864MPD2     H12684   3.400   4.373  16.843 -0.7891 -0.6761 -0.7084
  864MPD2    H112685   3.366   0.080  16.852  0.7901  0.7993  1.5965
  864MPD2    H212686   3.230   4.577  17.177 -1.2009  2.1867 -0.2428
  864MPD2    H312687   3.258   0.066  17.051 -0.2059  0.0958 -0.8795
  864MPD2     N12688   3.478   4.605  16.721 -0.8983  0.3884  0.3118
  864MPD2    H512689   3.495   4.694  16.674  1.3549 -1.1893 -1.8660
  864MPD2    N112690   3.300   4.333  17.098  0.4097 -0.0729 -0.2659
  864MPD2    H712691   3.274   4.333  17.196 -2.5374  1.5884 -1.0570
  865MPD2     C12692   3.498   4.109  15.902  0.8547 -0.0519 -0.1111
  865MPD2    C112693   3.518   4.096  16.037  0.6957 -0.0284 -0.1221
  865MPD2    C212694   3.508   4.210  16.114 -0.3290 -0.6167 -0.0326
  865MPD2    C312695   3.454   4.324  16.064 -0.6173  0.9671 -0.7143
  865MPD2    C412696   3.439   4.336  15.929 -0.0332 -0.2947 -0.5789
  865MPD2    C512697   3.471   4.233  15.847  0.1566  0.2184 -0.2033
  865MPD2     H12698   3.529   4.206  16.220  0.2511  1.7248 -0.0523
  865MPD2    H112699   3.406   4.428  15.883  1.5327  1.4120  1.7270
  865MPD2    H212700   3.505   4.022  15.838 -2.4070  0.5649 -1.2840
  865MPD2    H312701   3.443   4.227  15.743  1.0516  0.7243 -0.4662
  865MPD2     N12702   3.440   4.444  16.141  0.1310 -0.1867  0.3511
  865MPD2    H512703   3.438   4.532  16.090 -0.9114  0.4593  1.5044
  865MPD2    N112704   3.573   3.971  16.080 -0.5502 -0.5502  0.1834
  865MPD2    H712705   3.609   3.905  16.013  3.1008  1.7337 -0.0913
  866MPD2     C12706   1.219   0.013  11.490 -0.1669 -0.2646 -0.6683
  866MPD2    C112707   1.208   0.030  11.356 -0.0552 -1.1599  0.9588
  866MPD2    C212708   1.099   0.100  11.303  0.4208  0.1993 -0.2017
  866MPD2    C312709   1.013   0.173  11.389  0.7147  0.3147  0.2667
  866MPD2    C412710   1.030   0.157  11.523 -0.1498 -0.0385 -0.4096
  866MPD2    C512711   1.132   0.084  11.569  0.1683  0.6982  0.5583
  866MPD2     H12712   1.093   0.106  11.195 -2.9199  0.8267 -0.0016
  866MPD2    H112713   0.972   0.215  11.594 -1.4081 -0.0885 -1.3922
  866MPD2    H212714   1.310   4.701  11.539  0.5209 -0.9433 -2.4168
  866MPD2    H312715   1.145   0.073  11.676  1.4263  2.2133  0.5711
  866MPD2     N12716   0.910   0.260  11.341  0.0412 -0.5796  0.5182
  866MPD2    H512717   0.839   0.285  11.409  0.3291  0.9305  0.2502
  866MPD2    N112718   1.316   4.699  11.272  0.7887  0.4897 -0.5117
  866MPD2    H712719   1.338   0.010  11.179 -2.6306 -0.7829 -1.7485
  867MPD2     C12720   2.430   4.002  17.006 -0.0854 -0.5480  0.1809
  867MPD2    C112721   2.458   3.977  17.144 -0.2897 -0.3080 -0.1113
  867MPD2    C212722   2.397   4.054  17.237 -0.0740  0.1385  0.2355
  867MPD2    C312723   2.299   4.149  17.203 -0.0828  0.3466  0.1073
  867MPD2    C412724   2.268   4.166  17.069 -0.5600 -0.8953  1.0182
  867MPD2    C512725   2.335   4.093  16.971 -1.0964  0.3997 -0.2089
  867MPD2     H12726   2.426   4.039  17.340  1.0694  2.0100  0.1795
  867MPD2    H112727   2.196   4.241  17.037 -0.4178 -0.5044  1.6032
  867MPD2    H212728   2.472   3.948  16.922  1.1173 -0.0794  0.4708
  867MPD2    H312729   2.306   4.117  16.870  0.7976  0.9236 -0.6259
  867MPD2     N12730   2.218   4.221  17.302 -0.0921 -0.0699  0.1521
  867MPD2    H512731   2.156   4.290  17.260 -0.4839  0.5034  1.6748
  867MPD2    N112732   2.554   3.879  17.169  0.1335 -0.4851  0.7626
  867MPD2    H712733   2.587   3.825  17.089  2.7076 -1.2306  2.3237
  868MPD2     C12734   0.025   3.030  12.983 -0.5385  0.0867 -0.4181
  868MPD2    C112735   0.036   2.909  13.042 -0.0195  0.3806 -0.7123
  868MPD2    C212736   4.649   2.866  13.120 -0.4071 -0.2129  0.0265
  868MPD2    C312737   4.537   2.939  13.137  0.0021  0.0584 -0.7442
  868MPD2    C412738   4.519   3.057  13.068  0.3690  0.2499  0.5357
  868MPD2    C512739   4.623   3.096  12.993 -0.1600 -0.0848  0.0736
  868MPD2     H12740   4.646   2.768  13.165 -1.0628 -0.0231  0.4031
  868MPD2    H112741   4.425   3.111  13.071  0.4075  0.2526  1.4913
  868MPD2    H212742   0.110   3.066  12.927 -1.7705  0.1119 -2.2687
  868MPD2    H312743   4.613   3.193  12.946 -0.7176 -0.8016 -1.2694
  868MPD2     N12744   4.447   2.902  13.238  0.1682 -0.4764  0.7677
  868MPD2    H512745   4.469   2.819  13.292 -0.0063 -1.2555 -0.3519
  868MPD2    N112746   0.160   2.841  13.021 -0.2465 -0.1946  0.0454
  868MPD2    H712747   0.229   2.898  12.973  0.6451 -1.5951 -0.3347
  869MPD2     C12748   0.095   0.967   1.859 -0.5571  0.1116  0.1127
  869MPD2    C112749   0.017   0.935   1.754 -0.5497 -1.1681  0.0088
  869MPD2    C212750   0.033   0.982   1.622  0.3797  0.7160  0.9975
  869MPD2    C312751   0.129   1.078   1.601  0.3920 -0.9597  0.1268
  869MPD2    C412752   0.207   1.114   1.709 -0.1418  0.4678  0.6427
  869MPD2    C512753   0.191   1.062   1.833  0.9735  0.1886  0.5046
  869MPD2     H12754   4.676   0.959   1.552  1.4412  0.6180 -0.1452
  869MPD2    H112755   0.273   1.199   1.715 -2.6738  2.5522 -0.8646
  869MPD2    H212756   0.080   0.928   1.959 -0.2831 -1.0186 -0.2842
  869MPD2    H312757   0.256   1.098   1.911 -2.6941  2.1238  2.7022
  869MPD2     N12758   0.139   1.162   1.488 -0.2391 -0.0956  0.0585
  869MPD2    H512759   0.215   1.227   1.507  0.5207 -1.3552  1.3612
  869MPD2    N112760   4.642   0.841   1.785 -0.5146 -0.0104  0.1241
  869MPD2    H712761   4.633   0.799   1.877 -2.7744  0.9857  0.3638
  870MPD2     C12762   4.234   0.311   1.327  0.2453  0.6194 -0.0363
  870MPD2    C112763   4.306   0.194   1.367  0.2706  0.3257  0.0134
  870MPD2    C212764   4.274   0.068   1.302 -0.9619  0.3023 -0.1914
  870MPD2    C312765   4.165   0.059   1.207 -0.6237  0.4943  0.4544
  870MPD2    C412766   4.100   0.172   1.178 -0.0822  0.0444  0.0634
  870MPD2    C512767   4.134   0.294   1.238 -0.1978 -0.0427 -0.6370
  870MPD2     H12768   4.323   4.701   1.340 -2.6750  0.1481  1.6364
  870MPD2    H112769   4.026   0.178   1.099 -1.2832 -0.0201  1.1951
  870MPD2    H212770   4.252   0.412   1.360  0.2822  0.2475  1.0821
  870MPD2    H312771   4.078   0.383   1.211 -1.8070 -1.0789 -0.7386
  870MPD2     N12772   4.127   4.654   1.150 -0.1093 -0.2025 -0.3762
  870MPD2    H512773   4.195   4.579   1.161  2.3392  2.0538 -0.2387
  870MPD2    N112774   4.413   0.200   1.468  0.0160 -0.1384  0.1458
  870MPD2    H712775   4.446   0.108   1.495  0.4666 -0.1006 -0.2825
  871MPD2     C12776   1.522   4.205  16.353 -0.8139  0.3573  0.4044
  871MPD2    C112777   1.474   4.160  16.472  0.2145  0.4013  0.1919
  871MPD2    C212778   1.462   4.023  16.478  0.4864  0.0836 -0.1928
  871MPD2    C312779   1.499   3.937  16.375  0.2377  0.2742 -0.2882
  871MPD2    C412780   1.522   3.990  16.244  0.1726  0.1883  0.0630
  871MPD2    C512781   1.532   4.122  16.237 -0.3883 -0.3485  0.5437
  871MPD2     H12782   1.436   3.977  16.572 -1.9870 -0.3168 -1.0745
  871MPD2    H112783   1.525   3.930  16.154 -1.0860  0.2527 -0.0211
  871MPD2    H212784   1.523   4.310  16.327 -0.0664  0.1579 -0.3817
  871MPD2    H312785   1.546   4.152  16.134  1.2016  1.0297  1.1632
  871MPD2     N12786   1.509   3.800  16.410  0.2593  0.4016  0.4819
  871MPD2    H512787   1.475   3.782  16.504  1.4570 -1.3056  0.5972
  871MPD2    N112788   1.462   4.243  16.583 -0.0751 -0.0286 -0.0077
  871MPD2    H712789   1.475   4.343  16.567 -0.6975 -0.0014 -0.3277
  872MPD2     C12790   2.566   1.509  13.977  0.3250  1.5851 -0.1963
  872MPD2    C112791   2.486   1.612  13.923  0.2064 -0.2319  0.5469
  872MPD2    C212792   2.364   1.635  13.987 -0.0613 -0.7373 -0.3540
  872MPD2    C312793   2.325   1.564  14.096  0.1492 -0.2881  0.4549
  872MPD2    C412794   2.403   1.462  14.140 -0.3087  0.2205  0.1283
  872MPD2    C512795   2.520   1.432  14.083 -0.3457  0.3173 -0.2525
  872MPD2     H12796   2.300   1.706  13.936  0.8934  0.8681  0.7202
  872MPD2    H112797   2.373   1.407  14.228  0.5784 -1.4350 -0.6199
  872MPD2    H212798   2.671   1.491  13.955  0.4780  1.9031  0.2641
  872MPD2    H312799   2.586   1.359  14.130 -0.4813  0.5402  0.2910
  872MPD2     N12800   2.212   1.601  14.176 -0.3267  0.5676  0.3591
  872MPD2    H512801   2.196   1.541  14.256 -0.8216 -2.5339 -2.0460
  872MPD2    N112802   2.522   1.688  13.806  0.6460 -0.5255  0.2085
  872MPD2    H712803   2.469   1.773  13.788  0.2557 -0.3279  2.2311
  873MPD2     C12804   3.180   2.346   1.513  0.1896 -0.0773  0.7724
  873MPD2    C112805   3.306   2.309   1.567  0.1346 -0.5746  0.1245
  873MPD2    C212806   3.375   2.210   1.505 -0.9213 -0.9878 -0.1832
  873MPD2    C312807   3.321   2.143   1.396  0.3721 -0.2587  0.6170
  873MPD2    C412808   3.200   2.187   1.341 -0.0030 -0.5305  0.4668
  873MPD2    C512809   3.131   2.286   1.400 -0.7304  0.6955 -0.1828
  873MPD2     H12810   3.475   2.187   1.542 -0.3957  0.4015 -0.7063
  873MPD2    H112811   3.153   2.141   1.254 -0.0068 -1.4358  0.9531
  873MPD2    H212812   3.133   2.437   1.547  0.6144  0.9124 -1.3284
  873MPD2    H312813   3.042   2.328   1.356 -0.7613  0.0903 -0.6897
  873MPD2     N12814   3.385   2.033   1.336  0.2570  0.3754  0.6596
  873MPD2    H512815   3.336   2.001   1.253  0.9889 -0.2215  0.4546
  873MPD2    N112816   3.361   2.398   1.663 -0.4523 -0.2479  0.4874
  873MPD2    H712817   3.301   2.466   1.710 -0.4709 -0.1055  0.2596
  874MPD2     C12818   2.930   2.419  16.676 -0.4473  0.5505 -0.4630
  874MPD2    C112819   2.995   2.299  16.646 -0.0017  0.0777  0.0251
  874MPD2    C212820   3.134   2.314  16.616 -0.2837 -0.3666  0.4168
  874MPD2    C312821   3.196   2.438  16.600  0.4908  0.2697  0.0617
  874MPD2    C412822   3.124   2.553  16.622 -0.2313 -0.3084  0.4865
  874MPD2    C512823   2.993   2.541  16.669  0.7286  0.4347  0.4134
  874MPD2     H12824   3.198   2.228  16.598 -1.9502 -1.9397  2.0331
  874MPD2    H112825   3.160   2.655  16.616 -0.3828 -0.3907 -1.5272
  874MPD2    H212826   2.829   2.414  16.715 -0.7588 -0.3024 -1.3712
  874MPD2    H312827   2.929   2.624  16.693 -0.1502  0.3259 -1.5403
  874MPD2     N12828   3.335   2.438  16.565 -0.1001 -0.6485 -0.1107
  874MPD2    H512829   3.381   2.350  16.545 -0.1567 -1.0131  1.3514
  874MPD2    N112830   2.919   2.177  16.650 -0.1363 -0.0811  0.4176
  874MPD2    H712831   2.825   2.180  16.686  0.0217  2.9636  0.5802
  875MPD2     C12832   0.191   0.119  14.592 -0.5314  0.5706  0.4468
  875MPD2    C112833   0.056   0.126  14.628 -0.0322  0.4761 -0.0069
  875MPD2    C212834   0.023   0.188  14.750 -0.4305 -0.1027 -0.0871
  875MPD2    C312835   0.116   0.241  14.835 -0.0776 -0.2916 -0.3092
  875MPD2    C412836   0.242   0.239  14.789  0.8752  0.1617  0.3386
  875MPD2    C512837   0.282   0.181  14.672 -0.3633  0.5997  0.2377
  875MPD2     H12838   4.641   0.197  14.780 -0.4727 -1.0573  0.0500
  875MPD2    H112839   0.315   0.291  14.850  2.1594 -0.9115 -0.2880
  875MPD2    H212840   0.218   0.068  14.500  1.6431 -1.2406  2.0669
  875MPD2    H312841   0.389   0.181  14.653 -0.6149  2.0276 -1.1995
  875MPD2     N12842   0.094   0.302  14.963 -0.2870  0.2243 -0.3866
  875MPD2    H512843   0.173   0.350  15.005 -0.6834 -0.8457  1.5602
  875MPD2    N112844   4.683   0.084  14.528  0.1192 -0.3613  0.0893
  875MPD2    H712845   4.715   0.047  14.439  1.8496 -0.7041  0.8665
  876MPD2     C12846   3.293   1.473  15.840 -0.3369  0.0654  0.4828
  876MPD2    C112847   3.420   1.424  15.823 -0.4655 -0.3975  0.1710
  876MPD2    C212848   3.444   1.296  15.882  0.0690  0.0915 -0.4815
  876MPD2    C312849   3.352   1.218  15.942 -0.0366 -0.4630  0.0566
  876MPD2    C412850   3.225   1.278  15.952  1.3670  0.0988  0.6015
  876MPD2    C512851   3.202   1.400  15.906  0.0785 -0.4003  0.1749
  876MPD2     H12852   3.546   1.266  15.864 -0.3103  0.9525 -4.1012
  876MPD2    H112853   3.149   1.215  15.996  1.1517  0.5030  0.8088
  876MPD2    H212854   3.268   1.573  15.809  0.6827  0.3499  0.5555
  876MPD2    H312855   3.099   1.431  15.918 -0.0824 -1.0854  0.5722
  876MPD2     N12856   3.386   1.087  15.987  0.4348 -0.2623  0.3032
  876MPD2    H512857   3.475   1.048  15.958  0.8267 -0.1805  1.3973
  876MPD2    N112858   3.506   1.506  15.750  0.2605 -0.3803 -0.6908
  876MPD2    H712859   3.468   1.590  15.709  0.3171 -0.0376 -0.0429
  877MPD2     C12860   3.471   1.948  15.116 -0.0062 -0.5668 -0.2815
  877MPD2    C112861   3.605   1.923  15.144 -0.0845  0.1831  0.2774
  877MPD2    C212862   3.697   1.957  15.049  0.3214 -0.2201  0.0060
  877MPD2    C312863   3.657   1.991  14.919  0.2385 -0.4383  0.0094
  877MPD2    C412864   3.524   2.024  14.898 -0.2930  0.3420 -0.1477
  877MPD2    C512865   3.432   1.993  14.994  0.1587  0.6451  0.8006
  877MPD2     H12866   3.802   1.935  15.067  0.5179 -1.0385 -2.1396
  877MPD2    H112867   3.484   2.071  14.809 -1.2068  2.0799  1.1785
  877MPD2    H212868   3.405   1.935  15.201  1.1754 -0.9207  0.5757
  877MPD2    H312869   3.328   2.010  14.970  0.0679 -1.0704 -0.0776
  877MPD2     N12870   3.746   1.994  14.812 -0.4696 -0.1600  0.2624
  877MPD2    H512871   3.713   2.031  14.723 -3.5342  1.2667  2.0127
  877MPD2    N112872   3.647   1.850  15.260  0.0765  0.3349  0.5728
  877MPD2    H712873   3.746   1.845  15.286  0.3802  4.3891  0.1286
  878MPD2     C12874   3.541   0.733  13.105  0.1179 -1.1996 -0.6568
  878MPD2    C112875   3.589   0.865  13.117  0.1128  0.5653  0.8472
  878MPD2    C212876   3.707   0.884  13.187  0.7606 -0.5165 -0.1052
  878MPD2    C312877   3.770   0.776  13.248  0.5784 -0.5844  0.3267
  878MPD2    C412878   3.723   0.646  13.226 -0.0118  0.1898 -0.1630
  878MPD2    C512879   3.605   0.622  13.157 -0.0195 -0.3898  0.4020
  878MPD2     H12880   3.749   0.983  13.202  0.1015 -0.0845 -1.1380
  878MPD2    H112881   3.757   0.568  13.294 -0.5528  0.3399  0.2865
  878MPD2    H212882   3.446   0.714  13.057 -0.7543  2.1276 -0.2031
  878MPD2    H312883   3.551   0.529  13.169 -3.0750  1.3978  0.7025
  878MPD2     N12884   3.869   0.796  13.347  0.0762 -0.6297  0.3728
  878MPD2    H512885   3.893   0.893  13.364  1.8779 -1.1183  0.5562
  878MPD2    N112886   3.503   0.975  13.074  0.0969  0.0063  0.2524
  878MPD2    H712887   3.411   0.957  13.034 -0.1116 -1.7508  1.5238
  879MPD2     C12888   3.268   2.960  17.152  0.1807  0.3264 -0.1332
  879MPD2    C112889   3.291   2.874  17.259 -0.5616  0.0702 -0.3005
  879MPD2    C212890   3.174   2.830  17.320 -0.7939 -0.0983 -0.6259
  879MPD2    C312891   3.047   2.884  17.288  0.3171 -0.9914  0.3270
  879MPD2    C412892   3.033   2.956  17.179  0.6948 -0.7928  0.4814
  879MPD2    C512893   3.139   2.995  17.114 -0.4526 -0.7302  0.9781
  879MPD2     H12894   3.176   2.757  17.400  1.8624 -0.6152 -1.1774
  879MPD2    H112895   2.932   2.989  17.156  1.8675  2.7919  0.4316
  879MPD2    H212896   3.343   2.995  17.083 -1.6714 -0.9378 -2.7638
  879MPD2    H312897   3.120   3.062  17.030 -1.1390  1.9249  3.2686
  879MPD2     N12898   2.925   2.856  17.356  0.0073  0.0587 -0.5045
  879MPD2    H512899   2.844   2.912  17.334  0.0363  0.6904  1.0184
  879MPD2    N112900   3.422   2.842  17.292  0.0084  0.0824  0.0781
  879MPD2    H712901   3.493   2.890  17.237 -1.1928  0.1684 -1.4000
  880MPD2     C12902   0.331   0.202   0.979 -0.4684 -0.1591 -0.0944
  880MPD2    C112903   0.225   0.134   0.926 -0.0550 -1.1524 -0.1517
  880MPD2    C212904   0.157   0.048   0.998  0.2929 -0.0275 -0.2933
  880MPD2    C312905   0.183   0.034   1.135  0.1782  0.0305  0.7955
  880MPD2    C412906   0.288   0.109   1.193  0.2933 -0.7936 -0.6289
  880MPD2    C512907   0.361   0.183   1.113 -0.3195  0.6467  0.1175
  880MPD2     H12908   0.078   4.717   0.944  0.5229 -0.6969  0.0155
  880MPD2    H112909   0.309   0.105   1.299  1.9998  1.2428 -0.8851
  880MPD2    H212910   0.393   0.268   0.920  2.2447 -2.8675 -0.3278
  880MPD2    H312911   0.453   0.222   1.156 -0.3787 -0.7112  1.4903
  880MPD2     N12912   0.106   4.663   1.218  0.1348 -0.8415 -0.1336
  880MPD2    H512913   0.057   4.595   1.161 -1.6213  0.1742  0.1546
  880MPD2    N112914   0.174   0.151   0.795 -0.0490  0.3395 -0.2909
  880MPD2    H712915   0.087   0.107   0.769  0.6011 -0.5979 -0.8447
  881MPD2     C12916   0.500   0.557  17.620 -0.1846 -0.5701  0.6738
  881MPD2    C112917   0.470   0.425  17.592 -0.2000 -0.0726  0.6113
  881MPD2    C212918   0.381   0.367  17.686 -0.1575 -0.1286 -0.1443
  881MPD2    C312919   0.372   0.420   0.131  0.0895  0.5697  0.6884
  881MPD2    C412920   0.439   0.539   0.159  0.0240  0.5115 -0.0104
  881MPD2    C512921   0.495   0.606   0.059 -0.2552 -0.2488 -0.6975
  881MPD2     H12922   0.326   0.274  17.672  0.2813 -0.1484 -1.7515
  881MPD2    H112923   0.430   0.579   0.260 -1.2045 -0.6306  0.3238
  881MPD2    H212924   0.546   0.621  17.545  1.6477 -2.0751  0.5351
  881MPD2    H312925   0.532   0.708   0.064  1.0874 -0.7223 -0.9965
  881MPD2     N12926   0.295   0.365   0.238 -0.5744 -0.2609  0.1401
  881MPD2    H512927   0.290   0.415   0.326  2.1729 -0.4684  0.4115
  881MPD2    N112928   0.472   0.372  17.468 -0.2912  0.4563  0.8417
  881MPD2    H712929   0.524   0.427  17.400  1.0145 -2.2297 -0.3485
  882MPD2     C12930   3.833   1.821  13.996  0.5324 -0.0746 -0.2051
  882MPD2    C112931   3.770   1.835  14.120 -0.1889  0.4777 -0.0984
  882MPD2    C212932   3.648   1.765  14.130  0.3656 -0.2106 -0.6783
  882MPD2    C312933   3.582   1.713  14.023  0.2143  0.1844 -1.1393
  882MPD2    C412934   3.647   1.702  13.905 -0.9167  0.0125 -0.2209
  882MPD2    C512935   3.773   1.754  13.891 -0.4199  0.5736  0.2813
  882MPD2     H12936   3.611   1.773  14.232  1.1742  1.3710 -0.5015
  882MPD2    H112937   3.601   1.656  13.818 -1.4371 -0.7918  0.4867
  882MPD2    H212938   3.931   1.863  13.977 -0.7606  2.4470 -1.3940
  882MPD2    H312939   3.822   1.765  13.795 -0.2438  0.5789  0.3725
  882MPD2     N12940   3.447   1.671  14.020 -0.1256 -0.0704 -0.0300
  882MPD2    H512941   3.410   1.629  13.935  2.1943  0.2425 -1.2051
  882MPD2    N112942   3.843   1.885  14.230 -0.4101  0.3391  1.1382
  882MPD2    H712943   3.930   1.932  14.206 -0.0806 -0.3828  0.9136
  883MPD2     C12944   0.505   1.580  16.045 -0.0196 -0.3046  0.2585
  883MPD2    C112945   0.600   1.654  15.985 -0.6692  0.1863  0.6042
  883MPD2    C212946   0.715   1.656  16.053  0.0632  0.6486  0.1124
  883MPD2    C312947   0.743   1.611  16.178 -0.0880 -0.5057  0.1941
  883MPD2    C412948   0.638   1.545  16.237  1.1405 -0.2844 -0.3824
  883MPD2    C512949   0.521   1.531  16.169  0.1735  0.8003 -0.3834
  883MPD2     H12950   0.790   1.728  16.022  2.8144 -2.2363  0.0194
  883MPD2    H112951   0.643   1.496  16.333 -2.1641 -0.8050 -0.4774
  883MPD2    H212952   0.413   1.552  15.995  0.5079  1.5068 -1.7539
  883MPD2    H312953   0.449   1.463  16.212  0.6804  0.3864 -0.1885
  883MPD2     N12954   0.868   1.631  16.244 -0.2162  0.0524 -0.0099
  883MPD2    H512955   0.936   1.687  16.194  0.6543 -0.9290  0.0816
  883MPD2    N112956   0.593   1.726  15.861 -0.5936 -0.2755 -0.2881
  883MPD2    H712957   0.684   1.755  15.826  0.2574  0.0290  2.1281
  884MPD2     C12958   2.724   2.139  15.589  0.0204 -0.1471 -0.5550
  884MPD2    C112959   2.777   2.265  15.561 -0.2153 -0.4571  0.2103
  884MPD2    C212960   2.690   2.360  15.512  0.1854 -0.3195  0.0923
  884MPD2    C312961   2.554   2.332  15.497  0.5573  0.2356 -0.2899
  884MPD2    C412962   2.507   2.200  15.524  0.3353 -0.1856 -0.8226
  884MPD2    C512963   2.594   2.105  15.568  0.2392  0.0977  0.5824
  884MPD2     H12964   2.729   2.458  15.490  2.7487 -1.2786  0.3098
  884MPD2    H112965   2.406   2.171  15.499 -0.1436 -0.2184  1.1289
  884MPD2    H212966   2.790   2.056  15.614  2.8106  2.5276  1.0126
  884MPD2    H312967   2.557   2.005  15.587 -0.3087 -0.0286 -1.1001
  884MPD2     N12968   2.468   2.434  15.448 -0.4462  0.5155  0.4998
  884MPD2    H512969   2.510   2.520  15.415  0.7015 -0.9501 -1.8663
  884MPD2    N112970   2.915   2.303  15.573  0.1956  0.1896 -0.2224
  884MPD2    H712971   2.956   2.383  15.525 -0.4756  0.3935 -0.4600
  885MPD2     C12972   0.620   2.971   0.401  1.0483 -0.1799 -0.0388
  885MPD2    C112973   0.713   2.871   0.391  0.2947 -0.1812 -0.1385
  885MPD2    C212974   0.773   2.848   0.268 -0.6636 -0.0047  0.4651
  885MPD2    C312975   0.744   2.931   0.157 -0.1843 -0.0146  0.2212
  885MPD2    C412976   0.656   3.032   0.177 -0.1411  1.0686 -0.5691
  885MPD2    C512977   0.597   3.051   0.298 -0.0176  0.2492  0.1335
  885MPD2     H12978   0.835   2.759   0.261  1.2250  1.6009 -3.0547
  885MPD2    H112979   0.633   3.111   0.107 -0.2151  0.7555 -0.8982
  885MPD2    H212980   0.560   2.986   0.490  1.4056  0.9378  0.0142
  885MPD2    H312981   0.521   3.125   0.322  0.7792  1.7232 -1.8228
  885MPD2     N12982   0.822   2.915   0.037  0.0275 -0.0394  0.0096
  885MPD2    H512983   0.897   2.847   0.046 -1.3191 -1.3322  1.4893
  885MPD2    N112984   0.729   2.782   0.501 -0.3477  0.5522 -0.2799
  885MPD2    H712985   0.763   2.690   0.477 -0.7142  0.6418 -1.1378
  886MPD2     C12986   2.356   1.121  15.158 -0.2335  0.2988  0.4366
  886MPD2    C112987   2.463   1.136  15.075  0.3822  0.0542  0.1845
  886MPD2    C212988   2.512   1.273  15.060  0.2972  0.5473 -0.6690
  886MPD2    C312989   2.448   1.381  15.124 -0.7874  0.0771  1.0653
  886MPD2    C412990   2.337   1.356  15.197  0.3486 -0.1766  0.1016
  886MPD2    C512991   2.288   1.228  15.206  0.1434  0.2172 -0.2076
  886MPD2     H12992   2.585   1.297  14.983  0.6055  2.4754  0.2227
  886MPD2    H112993   2.278   1.438  15.236 -2.5124 -1.2284 -2.0781
  886MPD2    H212994   2.314   1.022  15.175  2.4323 -0.4775  2.4732
  886MPD2    H312995   2.200   1.204  15.265 -0.7328 -0.1193 -1.6644
  886MPD2     N12996   2.474   1.519  15.097  0.1252 -0.0675 -0.1942
  886MPD2    H512997   2.407   1.593  15.116 -3.1527 -3.2789  0.6505
  886MPD2    N112998   2.534   1.023  15.015 -0.7046 -0.1059 -0.6909
  886MPD2    H712999   2.605   1.060  14.953 -0.6070 -1.2976 -1.2902
  887MPD2     C13000   3.148   1.170  14.860 -0.3276 -0.1372  0.7079
  887MPD2    C113001   3.056   1.147  14.957 -0.8214  0.2212 -0.7041
  887MPD2    C213002   3.039   1.245  15.048  0.1487 -0.1594 -0.3192
  887MPD2    C313003   3.104   1.365  15.056 -0.2833 -0.3403 -0.0391
  887MPD2    C413004   3.195   1.388  14.959 -0.6164  0.3111  0.6349
  887MPD2    C513005   3.218   1.293  14.866  0.6375  0.4866 -0.3830
  887MPD2     H13006   2.960   1.225  15.120  0.7195 -0.2759  0.2718
  887MPD2    H113007   3.234   1.486  14.933  0.5341 -0.5450 -0.8652
  887MPD2    H213008   3.175   1.111  14.773 -1.3386  2.0856 -1.1150
  887MPD2    H313009   3.283   1.309  14.781 -1.9314 -1.3003 -2.6865
  887MPD2     N13010   3.058   1.457  15.147  0.1456 -0.8542 -0.1964
  887MPD2    H513011   2.973   1.427  15.194 -0.3393 -0.4371 -0.8058
  887MPD2    N113012   2.969   1.033  14.961  1.0098 -1.5144 -0.2621
  887MPD2    H713013   2.898   1.025  15.033 -0.9170  1.8651 -1.8198
  888MPD2     C13014   0.213   1.274  14.815  0.0193 -0.0249  0.1161
  888MPD2    C113015   0.247   1.314  14.942 -0.2538  0.2220  0.1472
  888MPD2    C213016   0.283   1.446  14.958 -0.3313 -0.3864 -0.1800
  888MPD2    C313017   0.283   1.541  14.864 -0.6793 -0.3750  0.5818
  888MPD2    C413018   0.256   1.498  14.733  0.1718 -0.1088  0.0502
  888MPD2    C513019   0.222   1.363  14.714 -0.0045 -0.0979 -0.0516
  888MPD2     H13020   0.304   1.478  15.060 -1.4173  3.5917 -1.2236
  888MPD2    H113021   0.261   1.566  14.649 -0.8591 -1.2127 -0.9223
  888MPD2    H213022   0.193   1.170  14.789 -1.6008  0.5904 -1.0981
  888MPD2    H313023   0.205   1.335  14.611  0.4801 -1.8153  0.3426
  888MPD2     N13024   0.314   1.676  14.890 -0.3649  0.0221  0.0902
  888MPD2    H513025   0.316   1.706  14.987  3.6829  2.3784 -0.7497
  888MPD2    N113026   0.237   1.231  15.057 -0.1112 -0.1414 -0.0054
  888MPD2    H713027   0.271   1.273  15.142 -0.6150 -0.9900  0.6203
  889MPD2     C13028   0.045   0.657  12.131 -0.5150  0.1853  0.2003
  889MPD2    C113029   0.042   0.678  12.264  0.1722 -1.0611  1.0658
  889MPD2    C213030   0.137   0.765  12.314 -0.1782  0.3635 -0.8036
  889MPD2    C313031   0.223   0.841  12.236 -0.2670  0.2432 -0.6621
  889MPD2    C413032   0.215   0.824  12.097 -0.2171 -0.3152  0.1528
  889MPD2    C513033   0.123   0.731  12.046  0.2394  0.3018 -0.8235
  889MPD2     H13034   0.127   0.796  12.418 -0.4305 -0.2587 -0.6452
  889MPD2    H113035   0.276   0.881  12.028 -0.1043 -0.9004 -0.2413
  889MPD2    H213036   4.695   0.590  12.084  0.8540 -0.9631 -0.2521
  889MPD2    H313037   0.117   0.714  11.939 -2.1252  2.1537 -0.9857
  889MPD2     N13038   0.292   0.946  12.299 -0.1624  0.1857 -0.1424
  889MPD2    H513039   0.277   0.945  12.399 -3.1296 -0.4000 -0.5717
  889MPD2    N113040   4.694   0.606  12.357  0.5291  0.1125 -0.3880
  889MPD2    H713041   4.716   0.626  12.454 -0.9262 -3.0623  0.6094
  890MPD2     C13042   4.151   2.340  14.741 -0.0697  0.2116 -0.6299
  890MPD2    C113043   4.225   2.424  14.830 -0.0157 -0.7285 -0.4657
  890MPD2    C213044   4.207   2.409  14.967 -0.0064  0.1169 -0.0591
  890MPD2    C313045   4.114   2.316  15.013  0.0527 -0.0913 -0.2173
  890MPD2    C413046   4.049   2.232  14.930  0.2254 -0.0181  0.1671
  890MPD2    C513047   4.070   2.245  14.794 -0.5558  0.5978 -0.0475
  890MPD2     H13048   4.260   2.475  15.034  0.3630 -0.8627  0.6263
  890MPD2    H113049   3.988   2.154  14.972 -0.1521  0.0394 -0.2697
  890MPD2    H213050   4.143   2.348  14.634  2.0262  0.6306 -0.7565
  890MPD2    H313051   4.017   2.180  14.726 -1.3656  0.2280  0.9199
  890MPD2     N13052   4.082   2.312  15.149 -0.4392 -0.1214  0.0666
  890MPD2    H513053   4.131   2.381  15.206 -0.8882 -0.0705  0.3868
  890MPD2    N113054   4.321   2.517  14.782 -0.8905 -0.2627 -0.5877
  890MPD2    H713055   4.319   2.538  14.682 -2.7166  0.8182 -0.3343
  891MPD2     C13056   1.213   0.504  16.536 -0.5677  0.0699 -0.1155
  891MPD2    C113057   1.266   0.635  16.541 -0.0399 -0.4060 -0.2724
  891MPD2    C213058   1.398   0.651  16.583  0.6280  0.1572  0.3916
  891MPD2    C313059   1.478   0.538  16.588  0.1200  0.4356  0.3747
  891MPD2    C413060   1.423   0.411  16.574  0.2481 -0.0917  0.6526
  891MPD2    C513061   1.291   0.390  16.552  0.6175  0.3933 -0.9963
  891MPD2     H13062   1.432   0.749  16.616 -1.0596  0.4689  1.1670
  891MPD2    H113063   1.489   0.326  16.586  0.4130 -0.1512 -0.6861
  891MPD2    H213064   1.112   0.474  16.512  0.3172 -2.0939 -1.1378
  891MPD2    H313065   1.250   0.290  16.543  0.7702  0.0718  1.8747
  891MPD2     N13066   1.617   0.565  16.611 -0.5549  0.5947 -0.2764
  891MPD2    H513067   1.639   0.650  16.661 -1.8062 -0.0865  1.4319
  891MPD2    N113068   1.181   0.753  16.516 -0.2734  0.0580 -0.3927
  891MPD2    H713069   1.087   0.731  16.484 -0.0459  0.7662 -1.5416
  892MPD2     C13070   2.957   2.137  14.692 -0.1612 -0.0880  0.8732
  892MPD2    C113071   2.857   2.114  14.600  0.1827 -0.3432 -0.0402
  892MPD2    C213072   2.882   2.044  14.487 -0.2762 -0.4249  0.4371
  892MPD2    C313073   3.014   2.004  14.450 -0.5697 -0.0595  0.1428
  892MPD2    C413074   3.109   2.026  14.547  0.7914  0.6051  0.4013
  892MPD2    C513075   3.077   2.088  14.660 -0.0506  0.0352 -0.4296
  892MPD2     H13076   2.805   2.033  14.411 -1.2079 -0.0692  1.3260
  892MPD2    H113077   3.206   1.980  14.539  0.0439 -0.7660 -0.7089
  892MPD2    H213078   2.946   2.182  14.790  0.0792 -0.5836  1.1248
  892MPD2    H313079   3.151   2.100  14.738  0.3675 -2.2252 -0.5006
  892MPD2     N13080   3.039   1.921  14.342 -0.1347 -0.6533 -0.1836
  892MPD2    H513081   3.136   1.898  14.325  0.1169 -0.4584  0.9627
  892MPD2    N113082   2.725   2.159  14.621 -0.5509 -0.1360  0.4208
  892MPD2    H713083   2.667   2.147  14.539 -0.9283 -0.6749  0.7739
  893MPD2     C13084   4.432   1.440   1.019  0.3359 -0.1233 -0.1627
  893MPD2    C113085   4.427   1.329   1.100  0.3549 -0.5035  0.8448
  893MPD2    C213086   4.451   1.333   1.237  0.1667  0.2141  0.5145
  893MPD2    C313087   4.476   1.459   1.291  0.4377  0.0779  0.3378
  893MPD2    C413088   4.473   1.575   1.210 -0.4238 -0.3205  0.1104
  893MPD2    C513089   4.453   1.558   1.077  0.3210 -0.7025 -0.9610
  893MPD2     H13090   4.418   1.243   1.288  0.6305  0.0399  0.5134
  893MPD2    H113091   4.500   1.673   1.248  2.4246 -1.5547  1.2881
  893MPD2    H213092   4.410   1.440   0.913 -0.5207 -2.0938  0.0198
  893MPD2    H313093   4.449   1.648   1.017 -0.8353  0.2302  0.4936
  893MPD2     N13094   4.502   1.475   1.430 -0.6746 -0.1966 -0.2042
  893MPD2    H513095   4.499   1.573   1.458  0.2715 -0.3005  0.2482
  893MPD2    N113096   4.378   1.211   1.048  0.0838 -0.1484 -0.0153
  893MPD2    H713097   4.353   1.140   1.115  3.5174 -1.3163  0.0181
  894MPD2     C13098   1.930   3.224   1.620  0.0065  0.1518 -0.3542
  894MPD2    C113099   2.006   3.302   1.534 -0.1430  0.2374 -0.1200
  894MPD2    C213100   2.145   3.293   1.559  0.5272  0.4016 -0.5919
  894MPD2    C313101   2.206   3.214   1.651  0.1806 -0.6343 -1.0277
  894MPD2    C413102   2.132   3.128   1.726 -0.5691 -0.5552  0.2779
  894MPD2    C513103   1.993   3.136   1.710  0.3981 -0.4450  0.2343
  894MPD2     H13104   2.211   3.352   1.496  1.4411 -0.7659 -0.7141
  894MPD2    H113105   2.179   3.053   1.789  1.6981  2.0333  1.6535
  894MPD2    H213106   1.824   3.218   1.602 -0.0905  2.0729 -0.4962
  894MPD2    H313107   1.937   3.061   1.764 -0.9438 -0.9568 -1.8551
  894MPD2     N13108   2.353   3.220   1.658 -0.4161  0.7225  0.2868
  894MPD2    H513109   2.406   3.273   1.590  0.7523 -1.0299 -0.1904
  894MPD2    N113110   1.946   3.393   1.441  0.3947  0.0158  0.9581
  894MPD2    H713111   2.010   3.464   1.406  1.8004 -1.2193  0.9931
  895MPD2     C13112   1.645   1.338  14.251 -0.6873  0.4544 -0.1514
  895MPD2    C113113   1.663   1.380  14.120  0.3571 -0.2742  0.0640
  895MPD2    C213114   1.784   1.402  14.062  0.1993 -0.3692  0.3665
  895MPD2    C313115   1.897   1.348  14.118  0.1625  0.4259 -0.1361
  895MPD2    C413116   1.886   1.305  14.248  0.2696  0.1574  0.0147
  895MPD2    C513117   1.763   1.298  14.315  0.3721 -0.1621 -0.0019
  895MPD2     H13118   1.786   1.435  13.959 -2.0576  1.5465  0.9346
  895MPD2    H113119   1.973   1.266  14.300 -0.5213 -0.9215  0.5308
  895MPD2    H213120   1.552   1.336  14.307  1.0110  0.0496  2.6549
  895MPD2    H313121   1.753   1.291  14.422  0.0449  1.7524  0.1001
  895MPD2     N13122   2.008   1.343  14.030  0.1389  0.4838 -0.0885
  895MPD2    H513123   1.995   1.378  13.935  0.7581  0.6369 -0.1162
  895MPD2    N113124   1.551   1.433  14.048 -0.2879  0.3185 -0.1815
  895MPD2    H713125   1.569   1.479  13.959  1.2319  1.6352  0.8022
  896MPD2     C13126   3.816   3.847   2.379 -0.6318  0.1485 -0.3480
  896MPD2    C113127   3.868   3.803   2.261  0.2092 -0.5459  0.3234
  896MPD2    C213128   3.793   3.703   2.196  0.2007  0.5332 -1.2656
  896MPD2    C313129   3.677   3.648   2.248 -0.4840 -0.0745 -0.0398
  896MPD2    C413130   3.639   3.685   2.371  0.4580  0.0735  0.1111
  896MPD2    C513131   3.706   3.783   2.432 -0.5616  0.1501  0.1351
  896MPD2     H13132   3.818   3.651   2.104  0.9759 -1.1450 -0.1107
  896MPD2    H113133   3.556   3.638   2.421  0.8919  1.1087  1.7765
  896MPD2    H213134   3.861   3.929   2.433 -1.1586  0.5723 -0.5599
  896MPD2    H313135   3.666   3.818   2.527  2.4032  2.0181  0.7033
  896MPD2     N13136   3.601   3.558   2.171 -0.3545 -0.1743 -0.6863
  896MPD2    H513137   3.626   3.545   2.074  0.7900  0.6500 -0.5128
  896MPD2    N113138   3.989   3.861   2.204  0.1916 -0.3668 -0.2436
  896MPD2    H713139   4.029   3.938   2.257 -0.0366 -0.1681 -0.3581
  897MPD2     C13140   0.976   0.678  10.413  0.5836  0.1698  0.5103
  897MPD2    C113141   0.911   0.797  10.416  1.1000  0.7922  0.0534
  897MPD2    C213142   0.839   0.829  10.533 -0.3004 -0.3127  0.3752
  897MPD2    C313143   0.844   0.742  10.639 -0.3110  0.0217 -0.1134
  897MPD2    C413144   0.904   0.618  10.629  0.4788  0.0347 -0.2772
  897MPD2    C513145   0.971   0.585  10.515 -0.0370 -0.3827  0.1520
  897MPD2     H13146   0.810   0.933  10.547 -1.8546 -0.3507 -2.5269
  897MPD2    H113147   0.895   0.537  10.701 -1.3013  0.0405 -0.4967
  897MPD2    H213148   1.030   0.661  10.320 -1.1136 -0.2461 -0.4107
  897MPD2    H313149   1.021   0.488  10.513  0.2759 -0.2626  1.7201
  897MPD2     N13150   0.786   0.784  10.763 -1.0097 -0.5406 -0.2414
  897MPD2    H513151   0.734   0.871  10.773  0.3556  0.2487 -0.0516
  897MPD2    N113152   0.926   0.884  10.302  0.0078  0.1023  0.2882
  897MPD2    H713153   0.987   0.847  10.230  2.3134  2.4520  1.0265
  898MPD2     C13154   2.563   1.285   0.290  0.5895  0.2270  0.1602
  898MPD2    C113155   2.563   1.417   0.334  0.5399  0.0198  0.3614
  898MPD2    C213156   2.492   1.510   0.255 -0.0472  0.3285 -0.2846
  898MPD2    C313157   2.431   1.471   0.137 -0.7376 -0.4359  0.0273
  898MPD2    C413158   2.435   1.343   0.098  0.7550 -0.3956  0.2146
  898MPD2    C513159   2.500   1.245   0.174  0.4844 -0.5250  0.3736
  898MPD2     H13160   2.484   1.612   0.289 -0.2624 -0.4379  1.9625
  898MPD2    H113161   2.373   1.312   0.014 -0.4385  0.7226  0.6752
  898MPD2    H213162   2.623   1.212   0.343  0.6793  0.5685  0.5310
  898MPD2    H313163   2.503   1.142   0.141 -1.5140 -0.8746  1.2532
  898MPD2     N13164   2.361   1.572   0.060 -0.3984  0.5399  0.0175
  898MPD2    H513165   2.351   1.658   0.113  0.4633  0.4040  0.4050
  898MPD2    N113166   2.621   1.454   0.460 -0.4712 -0.3378 -0.4763
  898MPD2    H713167   2.613   1.552   0.485  0.2016 -0.1492 -1.0036
  899MPD2     C13168   3.379   2.644   0.195  0.8523 -0.0467 -0.0726
  899MPD2    C113169   3.261   2.715   0.180  0.2385  1.0005 -0.3068
  899MPD2    C213170   3.162   2.679   0.262 -0.4669 -0.4684  0.5722
  899MPD2    C313171   3.184   2.586   0.367  0.4804  0.3057 -0.1924
  899MPD2    C413172   3.302   2.520   0.385 -0.1337  0.0455  0.3994
  899MPD2    C513173   3.396   2.544   0.293 -0.3865 -0.2301 -0.5565
  899MPD2     H13174   3.072   2.738   0.249 -0.3936 -0.8721 -1.6142
  899MPD2    H113175   3.318   2.456   0.471 -0.9851 -2.0223 -0.9587
  899MPD2    H213176   3.458   2.658   0.122  1.4926  1.0862  0.8338
  899MPD2    H313177   3.495   2.501   0.291 -0.3762 -0.2310 -0.0875
  899MPD2     N13178   3.089   2.561   0.468  0.7481  0.0222 -0.0059
  899MPD2    H513179   3.123   2.515   0.552 -0.6834 -1.1155 -0.0288
  899MPD2    N113180   3.249   2.810   0.075  0.3215 -0.3063 -0.0782
  899MPD2    H713181   3.325   2.814   0.008  1.8340 -0.0022  1.6642
  900MPD2     C13182   3.754   3.847  12.781 -0.2963  0.0858 -0.1958
  900MPD2    C113183   3.668   3.768  12.706  0.3909 -0.6831 -0.3012
  900MPD2    C213184   3.558   3.824  12.636 -0.1328 -0.3686  0.7501
  900MPD2    C313185   3.523   3.955  12.656 -0.6247 -0.1352 -0.3108
  900MPD2    C413186   3.611   4.035  12.736 -0.1312 -0.3737 -0.1639
  900MPD2    C513187   3.722   3.978  12.798 -0.1395  0.2559 -0.5075
  900MPD2     H13188   3.505   3.757  12.569  0.9773 -0.2089 -0.3026
  900MPD2    H113189   3.585   4.138  12.759 -1.3520 -0.5767 -0.6228
  900MPD2    H213190   3.851   3.807  12.809  0.6206  0.7565 -2.4307
  900MPD2    H313191   3.790   4.052  12.838  2.7120 -2.3696 -0.5193
  900MPD2     N13192   3.410   3.994  12.587 -0.2753  0.3990 -0.4854
  900MPD2    H513193   3.356   3.925  12.535  0.5635 -1.1461  0.7038
  900MPD2    N113194   3.711   3.635  12.688  0.1724 -0.8270 -0.3132
  900MPD2    H713195   3.809   3.615  12.700  0.8757  2.2270 -0.8794
  901MPD2     C13196   3.202   2.732  12.384 -0.9666  0.0882  0.6997
  901MPD2    C113197   3.338   2.694  12.389  0.5431  0.0135  0.2129
  901MPD2    C213198   3.440   2.786  12.429 -0.1942  0.1908  0.8240
  901MPD2    C313199   3.400   2.922  12.437  0.2651  0.6560 -0.5259
  901MPD2    C413200   3.272   2.961  12.409 -0.5852  0.2791 -0.0978
  901MPD2    C513201   3.175   2.863  12.388 -0.2509  0.0643  0.0129
  901MPD2     H13202   3.545   2.759  12.429 -0.9757 -2.8660  0.1271
  901MPD2    H113203   3.237   3.062  12.427  0.1989  0.5338  0.0041
  901MPD2    H213204   3.126   2.654  12.374 -0.7678 -0.5837  4.7356
  901MPD2    H313205   3.074   2.900  12.400  0.0394  1.1952 -1.0074
  901MPD2     N13206   3.511   3.011  12.468 -0.3528  0.3369 -0.4410
  901MPD2    H513207   3.601   2.965  12.471 -1.0855 -1.0769 -0.0584
  901MPD2    N113208   3.351   2.552  12.374 -0.6299 -0.2334  0.3145
  901MPD2    H713209   3.273   2.494  12.345  0.3358  0.1287 -2.9746
  902MPD2     C13210   2.128   1.537  12.375 -0.3794 -0.3943 -0.1487
  902MPD2    C113211   2.238   1.575  12.440 -1.0091 -0.4022  0.0572
  902MPD2    C213212   2.333   1.475  12.460  0.0443  0.0613  0.3224
  902MPD2    C313213   2.320   1.341  12.416 -0.1687  0.9218 -0.9310
  902MPD2    C413214   2.204   1.312  12.355 -0.2117  0.0956  0.4311
  902MPD2    C513215   2.108   1.404  12.342 -0.6774 -0.5423  0.6712
  902MPD2     H13216   2.422   1.509  12.512  0.3237 -1.1444  0.6412
  902MPD2    H113217   2.178   1.212  12.322  1.2602  0.1366 -0.9085
  902MPD2    H213218   2.046   1.604  12.351 -0.2895  0.3712  1.6385
  902MPD2    H313219   2.018   1.377  12.288 -0.9822 -0.4237  1.1245
  902MPD2     N13220   2.408   1.238  12.451  0.2538 -0.3322  0.1812
  902MPD2    H513221   2.372   1.147  12.424  0.1574 -0.7150  1.5815
  902MPD2    N113222   2.247   1.708  12.479  0.2814  0.5574 -0.0603
  902MPD2    H713223   2.169   1.768  12.453 -0.4672  0.2910  1.5078
  903MPD2     C13224   2.854   1.523  12.208 -0.2122 -0.3479 -0.0812
  903MPD2    C113225   2.754   1.427  12.196  0.3348  0.3890  0.3731
  903MPD2    C213226   2.626   1.468  12.171 -0.6368  0.4204 -0.1487
  903MPD2    C313227   2.596   1.605  12.164  0.1889 -0.2464  0.5757
  903MPD2    C413228   2.692   1.699  12.179  0.4427  0.3432 -0.5836
  903MPD2    C513229   2.818   1.657  12.195 -0.4476 -0.0407 -0.1889
  903MPD2     H13230   2.543   1.398  12.171  0.1676 -0.5283 -0.6233
  903MPD2    H113231   2.670   1.805  12.169 -0.8476 -0.0361 -1.7974
  903MPD2    H213232   2.953   1.489  12.236  0.6263 -0.1965 -2.8860
  903MPD2    H313233   2.896   1.732  12.208  0.3756 -0.9571  0.2181
  903MPD2     N13234   2.460   1.636  12.153 -0.0927 -0.7307 -0.1170
  903MPD2    H513235   2.393   1.566  12.125 -1.1112 -0.1194  0.8116
  903MPD2    N113236   2.788   1.292  12.218 -0.0368 -0.5141  0.0766
  903MPD2    H713237   2.874   1.270  12.267 -0.1228  0.3692  0.6377
  904MPD2     C13238   1.910   0.858  14.166 -1.1307  0.4626 -0.2125
  904MPD2    C113239   1.905   0.727  14.195  0.5144 -0.1941  0.5899
  904MPD2    C213240   2.023   0.657  14.232  0.3362  0.1134  0.6638
  904MPD2    C313241   2.143   0.726  14.247  0.2684  0.4385  0.1596
  904MPD2    C413242   2.140   0.863  14.225 -0.4406 -0.0589 -0.0779
  904MPD2    C513243   2.020   0.929  14.189  0.3905  0.1523 -0.6424
  904MPD2     H13244   2.030   0.549  14.229 -0.5484  0.0478  1.2655
  904MPD2    H113245   2.232   0.920  14.228 -0.5141  0.0906 -0.8964
  904MPD2    H213246   1.824   0.916  14.132 -1.3598  1.1104  1.4952
  904MPD2    H313247   2.010   1.037  14.183 -1.0545  0.1376  1.4857
  904MPD2     N13248   2.262   0.644  14.257  0.5345 -0.4815  0.2878
  904MPD2    H513249   2.262   0.542  14.253 -1.3930 -0.4591  0.0036
  904MPD2    N113250   1.788   0.651  14.172 -0.2701 -0.6291 -0.7166
  904MPD2    H713251   1.771   0.561  14.216 -2.4390 -0.4449 -1.1692
  905MPD2     C13252   1.516   1.201  13.777 -0.0424 -0.5472 -0.2889
  905MPD2    C113253   1.597   1.107  13.827  0.4455  0.1405  0.0467
  905MPD2    C213254   1.734   1.114  13.809 -0.0829  0.2304 -0.1395
  905MPD2    C313255   1.786   1.225  13.742  0.7159  0.1378 -0.8142
  905MPD2    C413256   1.698   1.327  13.689 -0.1622  0.0288 -0.1727
  905MPD2    C513257   1.563   1.313  13.703 -0.2343  0.5630 -0.4664
  905MPD2     H13258   1.803   1.046  13.857  0.0471  0.1938 -0.3797
  905MPD2    H113259   1.728   1.413  13.631  0.7110 -0.7458 -0.8857
  905MPD2    H213260   1.409   1.189  13.791 -0.1475  1.4926  0.7080
  905MPD2    H313261   1.493   1.390  13.671 -1.2325 -1.0013 -2.0286
  905MPD2     N13262   1.926   1.251  13.730  0.5094 -0.6636 -0.4968
  905MPD2    H513263   1.960   1.335  13.683 -0.3118  0.7619  1.4488
  905MPD2    N113264   1.557   1.003  13.921 -0.1922  0.1795 -0.2189
  905MPD2    H713265   1.625   0.930  13.941  0.5709  1.1311  0.6794
  906MPD2     C13266   4.378   1.051  11.678  0.7251  0.1455  0.1726
  906MPD2    C113267   4.429   1.024  11.556  0.2977 -0.1288 -0.4206
  906MPD2    C213268   4.402   0.904  11.499  0.1761 -0.0695 -0.3819
  906MPD2    C313269   4.351   0.801  11.576  0.9782 -0.3671  0.0951
  906MPD2    C413270   4.310   0.823  11.707 -0.4473 -0.7986 -0.8022
  906MPD2    C513271   4.314   0.953  11.758 -0.3489 -0.9276 -1.2093
  906MPD2     H13272   4.441   0.880  11.400  0.8728 -2.4834  0.4529
  906MPD2    H113273   4.265   0.749  11.772  0.7231 -1.5408 -0.8409
  906MPD2    H213274   4.392   1.146  11.728 -2.6378  0.8378 -0.1829
  906MPD2    H313275   4.266   0.973  11.853  0.2223  1.1562 -1.3708
  906MPD2     N13276   4.321   0.678  11.513 -0.6679  0.1244  1.1609
  906MPD2    H513277   4.305   0.692  11.414  0.7525 -0.2923  0.8840
  906MPD2    N113278   4.483   1.119  11.470  0.7821  0.1008  0.0648
  906MPD2    H713279   4.502   1.101  11.372  4.7947 -0.9421  1.0211
  907MPD2     C13280   3.046   4.466  15.715 -0.6231 -0.1374 -0.0768
  907MPD2    C113281   3.045   4.324  15.702 -0.4602  0.5282  0.0668
  907MPD2    C213282   3.064   4.250  15.814  0.3349 -0.6898  0.1647
  907MPD2    C313283   3.090   4.302  15.939  0.0028 -0.5435  0.1780
  907MPD2    C413284   3.103   4.437  15.948 -0.1585 -0.6054  0.2176
  907MPD2    C513285   3.079   4.520  15.835 -0.0921  0.2989  0.3167
  907MPD2     H13286   3.030   4.148  15.801 -0.7067 -0.2382 -0.7063
  907MPD2    H113287   3.141   4.485  16.038 -0.1084 -3.3921  1.6632
  907MPD2    H213288   3.024   4.532  15.632  1.0255  1.9086  1.1321
  907MPD2    H313289   3.087   4.628  15.835 -1.0636  0.3718 -0.3185
  907MPD2     N13290   3.105   4.213  16.049 -0.0052  0.1437 -0.2393
  907MPD2    H513291   3.110   4.113  16.030  0.9172  0.0763  0.3747
  907MPD2    N113292   3.006   4.261  15.587  0.3577 -0.3225  0.3923
  907MPD2    H713293   2.985   4.163  15.602  1.8754 -1.0133 -2.1346
  908MPD2     C13294   0.971   0.459   9.548 -0.3918 -0.3434 -0.0484
  908MPD2    C113295   1.017   0.450   9.681 -0.4832  1.1507  0.3294
  908MPD2    C213296   0.989   0.549   9.769  0.2930 -0.1990  0.7839
  908MPD2    C313297   0.905   0.656   9.740  0.0799 -0.0392  0.5384
  908MPD2    C413298   0.855   0.662   9.608  0.4960  0.4937  0.0841
  908MPD2    C513299   0.891   0.568   9.519  0.0138  0.1119 -0.7814
  908MPD2     H13300   1.044   0.549   9.863  0.1488 -1.8802  0.8721
  908MPD2    H113301   0.803   0.747   9.567 -0.9935 -1.1396 -1.4185
  908MPD2    H213302   0.980   0.387   9.468 -2.8880 -0.5329 -0.1758
  908MPD2    H313303   0.863   0.574   9.415  1.5309  2.9182 -1.0387
  908MPD2     N13304   0.895   0.762   9.835  0.2303 -0.8786  0.4660
  908MPD2    H513305   0.952   0.745   9.917  0.2729  3.1003  1.2435
  908MPD2    N113306   1.108   0.350   9.720  0.3288 -0.0257  0.6598
  908MPD2    H713307   1.139   0.360   9.816 -0.2664  0.7587  0.7712
  909MPD2     C13308   1.656   3.451  11.872  0.3071 -0.2137 -1.1817
  909MPD2    C113309   1.664   3.583  11.841  0.6186 -0.0359 -0.2850
  909MPD2    C213310   1.574   3.668  11.907  0.1338  0.2436  0.6703
  909MPD2    C313311   1.483   3.621  12.001 -0.2542 -0.4823 -0.2815
  909MPD2    C413312   1.471   3.489  12.022  0.2991  0.0997  0.5557
  909MPD2    C513313   1.558   3.405  11.958 -0.4958 -0.7773  0.0263
  909MPD2     H13314   1.574   3.775  11.889  0.4695 -0.1683 -1.7384
  909MPD2    H113315   1.402   3.435  12.086  1.7365 -0.6695  1.4474
  909MPD2    H213316   1.712   3.374  11.821  0.4148 -1.1953  0.3966
  909MPD2    H313317   1.552   3.299  11.982 -1.9510 -0.0407  2.8723
  909MPD2     N13318   1.382   3.705  12.059 -0.0691 -0.2653 -0.4906
  909MPD2    H513319   1.377   3.803  12.031 -1.5025 -1.5633 -4.7227
  909MPD2    N113320   1.757   3.638  11.746 -0.4664 -0.1365 -0.6314
  909MPD2    H713321   1.755   3.739  11.739  1.2955 -0.1985 -1.9525
  910MPD2     C13322   2.128   0.186  16.020  0.7693  0.0979  0.0859
  910MPD2    C113323   2.191   0.060  16.005 -0.1545 -0.1709 -0.4092
  910MPD2    C213324   2.259   0.024  15.890 -0.4384 -0.1911 -0.9392
  910MPD2    C313325   2.247   0.105  15.782  0.4839  0.3495 -0.2210
  910MPD2    C413326   2.176   0.225  15.794 -0.0887  0.4389 -0.3243
  910MPD2    C513327   2.126   0.266  15.911  0.3043  0.2214  0.2309
  910MPD2     H13328   2.294   4.643  15.891 -1.6235 -0.5626  2.4832
  910MPD2    H113329   2.162   0.297  15.714  3.0805  1.6781  0.2366
  910MPD2    H213330   2.075   0.224  16.108  0.6081 -0.3781  0.1931
  910MPD2    H313331   2.072   0.360  15.919 -1.0916 -0.5747  0.3043
  910MPD2     N13332   2.295   0.068  15.654  0.1850 -0.5860 -0.2694
  910MPD2    H513333   2.260   0.121  15.575  2.1173  0.7905 -0.2093
  910MPD2    N113334   2.187   4.684  16.103  0.7072 -0.0102 -0.5961
  910MPD2    H713335   2.236   4.599  16.079  0.4941 -0.4579  0.5585
  911MPD2     C13336   0.012   1.044  15.784 -0.3192 -0.3182  0.4378
  911MPD2    C113337   4.675   1.015  15.908 -0.0026 -0.6271 -0.3341
  911MPD2    C213338   4.556   1.080  15.935  0.0150  0.1083  0.4033
  911MPD2    C313339   4.498   1.171  15.855  0.1450 -0.4794  0.7064
  911MPD2    C413340   4.549   1.199  15.735  0.6614 -0.5866 -0.0513
  911MPD2    C513341   4.669   1.134  15.704  0.2731  0.0405 -0.6539
  911MPD2     H13342   4.517   1.058  16.034  0.3992  1.0876  0.7684
  911MPD2    H113343   4.501   1.260  15.660 -0.7244  1.2646  2.3368
  911MPD2    H213344   0.113   1.012  15.759 -0.5574  1.2827 -2.5049
  911MPD2    H313345   4.706   1.164  15.607  0.0994  0.1727 -0.6783
  911MPD2     N13346   4.370   1.238  15.882 -0.5793  0.1851  0.3251
  911MPD2    H513347   4.340   1.306  15.812 -0.0868  0.7059  0.6153
  911MPD2    N113348   0.022   0.917  15.987  0.0217  0.1878 -0.7229
  911MPD2    H713349   0.097   0.860  15.948  0.1469 -0.2056  0.1016
  912MPD2     C13350   4.115   1.023  15.576  0.2442  0.1548  0.5020
  912MPD2    C113351   4.064   1.047  15.698 -0.4536  0.4947 -0.3392
  912MPD2    C213352   4.117   0.975  15.801  0.1354 -0.6206 -0.1472
  912MPD2    C313353   4.233   0.900  15.794  0.6087  0.2122  0.0479
  912MPD2    C413354   4.289   0.877  15.670  1.0278  0.1899  0.1514
  912MPD2    C513355   4.227   0.938  15.562  0.1340  0.3424 -0.2461
  912MPD2     H13356   4.072   0.978  15.899  0.9179 -1.6569  0.2488
  912MPD2    H113357   4.377   0.816  15.651 -0.1292 -1.2693 -0.5622
  912MPD2    H213358   4.094   1.087  15.491 -1.9653 -0.3257  0.6837
  912MPD2    H313359   4.263   0.923  15.461  2.6911 -0.8359  0.8339
  912MPD2     N13360   4.276   0.844  15.912  0.0258  0.4339 -0.0320
  912MPD2    H513361   4.224   0.867  15.996 -0.7777  1.1566 -0.7217
  912MPD2    N113362   3.970   1.152  15.717 -0.3924  0.1001  0.1416
  912MPD2    H713363   3.947   1.209  15.637 -2.8507 -3.0916 -1.4195
  913MPD2     C13364   1.164   2.086  10.817  0.3251 -0.0129 -0.2002
  913MPD2    C113365   1.252   2.191  10.815 -0.0091  0.4127  0.6507
  913MPD2    C213366   1.296   2.238  10.693 -0.5330  0.0919  0.3038
  913MPD2    C313367   1.243   2.197  10.571 -0.3110 -0.1916  0.0316
  913MPD2    C413368   1.166   2.083  10.578 -0.2446 -0.7671 -0.2789
  913MPD2    C513369   1.130   2.029  10.695  0.5484 -0.2918 -0.5783
  913MPD2     H13370   1.367   2.320  10.698 -0.1203 -0.0154 -3.7964
  913MPD2    H113371   1.142   2.035  10.484  0.6048 -1.1657 -0.2901
  913MPD2    H213372   1.132   2.027  10.902 -2.9527 -1.9386 -2.7379
  913MPD2    H313373   1.075   1.936  10.694  2.3795 -1.3624 -2.2035
  913MPD2     N13374   1.264   2.259  10.446 -0.0921 -0.0939  0.1459
  913MPD2    H513375   1.205   2.232  10.368 -1.6270  2.6485  0.3906
  913MPD2    N113376   1.295   2.235  10.941 -0.2401  0.6233 -0.0811
  913MPD2    H713377   1.267   2.171  11.015 -3.5144  1.1313 -0.8936
  914MPD2     C13378   3.437   2.186  11.589 -0.1766  0.8097  0.1108
  914MPD2    C113379   3.350   2.278  11.649 -0.3286  0.3876  0.1691
  914MPD2    C213380   3.335   2.272  11.787 -0.0128 -0.4051 -0.0026
  914MPD2    C313381   3.407   2.181  11.855 -0.3576 -0.1439 -0.9589
  914MPD2    C413382   3.482   2.083  11.789 -0.7293  0.7909 -0.2255
  914MPD2    C513383   3.493   2.088  11.658 -0.1042  0.0852  0.3506
  914MPD2     H13384   3.269   2.338  11.843  0.9184  0.5003  0.0490
  914MPD2    H113385   3.535   2.002  11.838 -0.8905  1.4991  1.1157
  914MPD2    H213386   3.451   2.177  11.482  0.2768  2.5153  0.0423
  914MPD2    H313387   3.555   2.017  11.606 -0.1860  0.2807 -0.0118
  914MPD2     N13388   3.386   2.188  11.999  0.3146  0.0130  0.1739
  914MPD2    H513389   3.338   2.269  12.035 -0.3255  0.9335 -2.7558
  914MPD2    N113390   3.269   2.367  11.566  0.8138  0.1033  0.0969
  914MPD2    H713391   3.280   2.367  11.465  1.0929  2.6533  0.1090
  915MPD2     C13392   1.304   2.281  15.645  0.1136 -0.0909 -0.6484
  915MPD2    C113393   1.176   2.323  15.609 -0.8375  0.1183 -0.1744
  915MPD2    C213394   1.101   2.368  15.714  0.6532 -0.2887 -0.8990
  915MPD2    C313395   1.141   2.367  15.845  0.2695  0.2477  0.7248
  915MPD2    C413396   1.276   2.331  15.868  0.1545  0.4740 -0.2817
  915MPD2    C513397   1.358   2.279  15.771 -0.5804 -0.3069 -0.5129
  915MPD2     H13398   1.010   2.421  15.689 -0.8645 -1.4433  2.2418
  915MPD2    H113399   1.305   2.347  15.972 -0.9377  0.4134  0.0296
  915MPD2    H213400   1.364   2.231  15.570 -0.4701  0.9465 -1.8182
  915MPD2    H313401   1.457   2.244  15.796 -0.0311  1.0438 -0.7971
  915MPD2     N13402   1.051   2.405  15.947 -0.2987  0.1505  0.3875
  915MPD2    H513403   0.964   2.443  15.912 -0.3162 -0.6207 -0.4203
  915MPD2    N113404   1.114   2.312  15.479  0.3308 -0.4990 -0.5595
  915MPD2    H713405   1.013   2.323  15.489  0.4403  1.2968 -1.4476
  916MPD2     C13406   3.825   0.724  15.769 -0.1606  0.6296  0.2027
  916MPD2    C113407   3.729   0.633  15.802  0.8425  0.2816  0.4303
  916MPD2    C213408   3.738   0.514  15.748 -0.0292  0.7482  0.0413
  916MPD2    C313409   3.846   0.467  15.676 -0.4161  0.4856 -0.0167
  916MPD2    C413410   3.947   0.555  15.661 -0.9061  0.7415 -0.6295
  916MPD2    C513411   3.928   0.685  15.694 -0.3645  0.9237  1.1091
  916MPD2     H13412   3.659   0.440  15.743  0.4734  0.1643  0.5848
  916MPD2    H113413   4.040   0.534  15.609 -1.7723  0.4680 -2.0578
  916MPD2    H213414   3.817   0.830  15.791 -2.0480  0.9270 -1.9746
  916MPD2    H313415   4.010   0.748  15.663  1.0878 -1.7210 -0.4097
  916MPD2     N13416   3.851   0.327  15.632 -0.1036  0.3273  0.3855
  916MPD2    H513417   3.768   0.272  15.652  0.2111 -0.9606 -1.8094
  916MPD2    N113418   3.624   0.681  15.882  0.0922 -0.3271 -0.2579
  916MPD2    H713419   3.617   0.779  15.908 -3.9508 -0.2934 -1.4882
  917MPD2     C13420   0.069   3.007  10.886 -0.4303 -0.9658  0.7043
  917MPD2    C113421   0.157   3.023  10.992  0.0378 -0.6848 -0.1448
  917MPD2    C213422   0.270   3.093  10.966 -1.3383 -0.2682  0.8808
  917MPD2    C313423   0.304   3.127  10.838  0.2872 -0.5833 -0.0563
  917MPD2    C413424   0.212   3.118  10.738 -0.4524  0.1305 -0.2349
  917MPD2    C513425   0.091   3.064  10.766 -0.8000 -0.3418 -0.3244
  917MPD2     H13426   0.343   3.094  11.047  0.7129 -1.1675 -0.9705
  917MPD2    H113427   0.226   3.160  10.639 -1.1782  0.2954 -0.2655
  917MPD2    H213428   4.698   2.950  10.893 -0.6752 -0.3778  2.2894
  917MPD2    H313429   0.023   3.046  10.683 -1.9603  2.5943 -0.0026
  917MPD2     N13430   0.435   3.177  10.804  0.3192  0.0456 -0.1029
  917MPD2    H513431   0.448   3.203  10.707 -0.9218 -2.8497 -1.0453
  917MPD2    N113432   0.116   2.970  11.114 -0.0936  0.1764 -0.5688
  917MPD2    H713433   0.027   2.922  11.113  0.6946 -1.2420 -3.6419
  918MPD2     C13434   0.283   3.439  11.997 -0.2543  0.0636 -0.2079
  918MPD2    C113435   0.340   3.307  11.995 -0.2209  0.3077 -0.2866
  918MPD2    C213436   0.299   3.213  11.909 -0.0501  0.1375  0.7960
  918MPD2    C313437   0.188   3.241  11.822  0.0490  0.5573  0.0251
  918MPD2    C413438   0.129   3.371  11.825 -0.1676  0.7338 -0.1339
  918MPD2    C513439   0.178   3.466  11.915  0.0225  0.3765  0.0560
  918MPD2     H13440   0.352   3.119  11.909 -0.8610 -0.3168  2.1702
  918MPD2    H113441   0.051   3.397  11.755  0.5883 -0.3294 -1.3718
  918MPD2    H213442   0.323   3.516  12.063 -1.8636  0.4839  0.2950
  918MPD2    H313443   0.134   3.564  11.904 -0.9895  0.2109  2.8038
  918MPD2     N13444   0.136   3.136  11.742 -0.0819 -0.2863  0.3301
  918MPD2    H513445   0.185   3.048  11.749  0.7660  0.2092  0.6290
  918MPD2    N113446   0.449   3.272  12.079  0.6182  0.2839  0.1156
  918MPD2    H713447   0.473   3.173  12.084  1.6046  0.4324 -1.6447
  919MPD2     C13448   1.024   2.493  11.216  0.1636 -0.3137 -0.2184
  919MPD2    C113449   0.988   2.357  11.188 -0.7357  0.5854  0.5838
  919MPD2    C213450   0.967   2.314  11.056 -0.2590 -0.0645  0.0639
  919MPD2    C313451   0.951   2.403  10.958 -0.2311 -0.1623 -0.2053
  919MPD2    C413452   0.971   2.539  10.988 -0.3591  0.6555  0.4896
  919MPD2    C513453   1.002   2.583  11.118  0.2160  0.3300  0.1746
  919MPD2     H13454   0.943   2.210  11.041 -0.6579  0.1399 -0.7118
  919MPD2    H113455   0.949   2.616  10.915 -2.6504 -0.5710 -0.0862
  919MPD2    H213456   1.055   2.535  11.311 -0.8504 -1.5408  0.6609
  919MPD2    H313457   1.004   2.688  11.146 -1.2065  0.2721  0.4880
  919MPD2     N13458   0.905   2.371  10.828  0.5361 -0.9076 -0.4533
  919MPD2    H513459   0.883   2.453  10.772 -0.2179  0.4900  1.8690
  919MPD2    N113460   0.976   2.254  11.294  0.3154  0.4601  0.7393
  919MPD2    H713461   0.965   2.159  11.259  1.7854 -0.2898  2.2934
  920MPD2     C13462   0.813   2.772   9.969 -0.1024 -0.6458  0.0003
  920MPD2    C113463   0.703   2.690   9.988 -0.4628  0.6071 -0.6237
  920MPD2    C213464   0.722   2.582  10.070  0.1709  0.3316  0.1826
  920MPD2    C313465   0.840   2.568  10.150 -0.0703 -0.7223  0.0494
  920MPD2    C413466   0.947   2.651  10.133 -0.0529  0.6217  0.2848
  920MPD2    C513467   0.933   2.755  10.037 -0.3280  0.4399 -0.4390
  920MPD2     H13468   0.639   2.515  10.090 -0.7501  1.1631 -0.8734
  920MPD2    H113469   1.041   2.628  10.182 -0.8665 -1.0598  1.0674
  920MPD2    H213470   0.809   2.854   9.897 -0.1176  0.1613  0.9278
  920MPD2    H313471   1.019   2.821  10.025  1.3857 -1.7764 -0.3690
  920MPD2     N13472   0.848   2.462  10.240  0.6732 -0.2755  0.1420
  920MPD2    H513473   0.774   2.393  10.245 -0.3297  0.8978  1.5200
  920MPD2    N113474   0.580   2.712   9.941  0.4264  0.1905  0.0294
  920MPD2    H713475   0.508   2.645   9.965  0.3013  0.1394 -0.4949
  921MPD2     C13476   0.455   1.193  16.573  0.4424  0.3205 -0.1625
  921MPD2    C113477   0.518   1.076  16.551 -0.0884  0.5389  0.1146
  921MPD2    C213478   0.456   0.951  16.541  0.5111  0.5395  0.4547
  921MPD2    C313479   0.317   0.951  16.536 -0.4421  0.3788 -0.0056
  921MPD2    C413480   0.248   1.066  16.570  0.0219 -0.4755 -0.6705
  921MPD2    C513481   0.318   1.184  16.595 -0.1107 -0.3661  0.7279
  921MPD2     H13482   0.515   0.866  16.511 -1.1450 -0.2619 -0.5698
  921MPD2    H113483   0.140   1.064  16.578  0.0858  0.7222  0.3569
  921MPD2    H213484   0.507   1.286  16.587 -0.2798  0.3018  2.5963
  921MPD2    H313485   0.262   1.271  16.625 -2.6538 -1.8692  0.3005
  921MPD2     N13486   0.245   0.843  16.499  0.0746  0.7029  0.1629
  921MPD2    H513487   0.144   0.852  16.502  0.2563  2.6952 -0.1269
  921MPD2    N113488   0.659   1.086  16.547  0.0079  0.3554  0.0149
  921MPD2    H713489   0.698   1.172  16.583  1.6611 -1.4408  2.5541
  922MPD2     C13490   0.934   3.379   0.335 -0.2704 -0.5977  0.0985
  922MPD2    C113491   1.000   3.493   0.302 -0.6275 -0.0174  0.6705
  922MPD2    C213492   0.993   3.530   0.165 -0.5724  0.0956  0.6576
  922MPD2    C313493   0.928   3.451   0.065  0.1423  1.6375  0.1620
  922MPD2    C413494   0.869   3.328   0.109 -0.1467  0.2479  0.7395
  922MPD2    C513495   0.869   3.302   0.244  0.3333 -0.1832 -0.2601
  922MPD2     H13496   1.034   3.622   0.125 -0.6746 -0.3628 -0.4934
  922MPD2    H113497   0.810   3.270   0.039 -0.8451  1.0670  0.6531
  922MPD2    H213498   0.908   3.350   0.436 -2.6582  1.4387  0.0508
  922MPD2    H313499   0.802   3.224   0.278  1.9064 -0.8975  1.2437
  922MPD2     N13500   0.940   3.488  17.618 -0.0580 -0.0595 -0.0195
  922MPD2    H513501   0.981   3.577  17.592  0.8902 -1.0900 -2.0837
  922MPD2    N113502   1.071   3.576   0.394 -0.0556  0.1226 -0.6214
  922MPD2    H713503   1.109   3.665   0.362  1.1694  0.5481  2.1021
  923MPD2     C13504   3.841   1.668   9.190  0.4431  0.0566 -0.6745
  923MPD2    C113505   3.850   1.553   9.126  0.1856 -0.6905 -0.6343
  923MPD2    C213506   3.976   1.502   9.110  0.3386  0.1611 -0.0451
  923MPD2    C313507   4.092   1.564   9.168  0.6544 -0.4498 -0.1112
  923MPD2    C413508   4.082   1.694   9.212  0.0397  0.0441  0.5395
  923MPD2    C513509   3.955   1.744   9.218 -0.1261  0.3029 -0.9174
  923MPD2     H13510   3.995   1.402   9.070  1.4829  0.3344  0.0546
  923MPD2    H113511   4.165   1.761   9.234 -1.1091  1.6085  0.0786
  923MPD2    H213512   3.743   1.705   9.216  0.5194 -0.0254 -0.2711
  923MPD2    H313513   3.936   1.849   9.240  0.1866  0.2036 -0.1744
  923MPD2     N13514   4.218   1.494   9.174  0.0393  0.4353 -0.0582
  923MPD2    H513515   4.296   1.536   9.224  0.8807 -0.2581 -0.7868
  923MPD2    N113516   3.725   1.487   9.092  0.0986  0.1552  0.4979
  923MPD2    H713517   3.641   1.541   9.112  0.6823  1.2818 -0.1156
  924MPD2     C13518   2.988   3.354  16.062 -0.7262 -0.8291  0.2181
  924MPD2    C113519   2.935   3.407  16.180 -0.4764 -0.4398  0.3856
  924MPD2    C213520   3.003   3.517  16.235  0.6793 -0.4362 -0.0853
  924MPD2    C313521   3.110   3.579  16.169  0.0319 -0.3166 -0.0114
  924MPD2    C413522   3.148   3.529  16.047  1.0359 -0.3920  0.0871
  924MPD2    C513523   3.094   3.413  16.004 -0.0852 -0.4611  0.3232
  924MPD2     H13524   2.954   3.559  16.322  0.1965  0.7004 -0.9032
  924MPD2    H113525   3.224   3.571  15.983 -1.0669  0.8008 -1.6003
  924MPD2    H213526   2.939   3.271  16.012 -1.7514  1.0969 -1.9337
  924MPD2    H313527   3.139   3.358  15.922  1.7083 -0.2547  1.1860
  924MPD2     N13528   3.149   3.701  16.224 -0.0125  0.3322  0.3817
  924MPD2    H513529   3.090   3.732  16.300 -1.8002 -1.4306 -0.2862
  924MPD2    N113530   2.816   3.357  16.241  1.0803 -0.5330 -0.4095
  924MPD2    H713531   2.777   3.410  16.319  1.5796  1.0610 -1.2415
  925MPD2     C13532   2.056   1.417  14.832 -0.5904  0.2474  0.1308
  925MPD2    C113533   1.943   1.493  14.808  0.2917 -0.7509 -0.2216
  925MPD2    C213534   1.842   1.492  14.899  0.4796  0.4324  0.0215
  925MPD2    C313535   1.843   1.408  15.008  0.0052 -0.0389  0.9918
  925MPD2    C413536   1.954   1.335  15.032  0.0616 -0.5152 -0.4278
  925MPD2    C513537   2.061   1.335  14.937 -0.2139  0.4403 -0.6455
  925MPD2     H13538   1.756   1.555  14.877  1.3518  0.9171 -2.0335
  925MPD2    H113539   1.969   1.269  15.116  0.5111  0.1965  0.0480
  925MPD2    H213540   2.150   1.410  14.778 -0.8902  1.6858 -0.5871
  925MPD2    H313541   2.149   1.272  14.951 -0.0535  0.4992 -1.4385
  925MPD2     N13542   1.734   1.391  15.095  0.1848 -0.3594 -0.3668
  925MPD2    H513543   1.750   1.332  15.175 -2.2169 -0.8849 -0.2742
  925MPD2    N113544   1.931   1.561  14.686 -0.4436 -0.1835  0.3877
  925MPD2    H713545   1.846   1.616  14.675  1.0904  2.1545  0.2400
  926MPD2     C13546   0.682   4.715  13.109  0.3021  0.4901  0.5492
  926MPD2    C113547   0.722   0.114  13.158  0.3419  0.4671 -0.7811
  926MPD2    C213548   0.835   0.178  13.103 -0.4369  0.4573 -0.3996
  926MPD2    C313549   0.891   0.127  12.996  0.8587 -0.6784  0.1822
  926MPD2    C413550   0.832   0.020  12.929  0.1076 -0.7299  0.1012
  926MPD2    C513551   0.725   4.685  12.988 -0.3131 -0.1221  0.1354
  926MPD2     H13552   0.854   0.277  13.142 -2.2514  1.8971 -3.2063
  926MPD2    H113553   0.867   4.714  12.830  0.6782  2.8589 -0.7136
  926MPD2    H213554   0.588   4.667  13.135  0.7638 -0.7671 -0.1020
  926MPD2    H313555   0.674   4.606  12.933 -0.0748 -0.0314 -0.2148
  926MPD2     N13556   0.992   0.198  12.927 -0.5634 -0.0104  0.4035
  926MPD2    H513557   1.008   0.184  12.828 -0.1540 -0.7484  0.5725
  926MPD2    N113558   0.649   0.180  13.259 -0.1527 -0.0071 -0.1156
  926MPD2    H713559   0.681   0.273  13.285  2.4281 -1.6807  2.6346
  927MPD2     C13560   0.426   2.574   0.440  0.4789  0.0561 -0.6224
  927MPD2    C113561   0.404   2.691   0.373 -0.2939  0.2382 -0.4429
  927MPD2    C213562   0.467   2.696   0.253  0.0778 -0.4926  0.8478
  927MPD2    C313563   0.554   2.595   0.212  0.3660  0.4427 -0.4294
  927MPD2    C413564   0.559   2.475   0.280 -0.3881 -0.6802  0.1249
  927MPD2    C513565   0.480   2.464   0.392 -0.0353  0.5397 -0.4741
  927MPD2     H13566   0.479   2.795   0.209  2.9034 -0.6892  1.1800
  927MPD2    H113567   0.603   2.385   0.239  2.6213  1.1757 -0.6910
  927MPD2    H213568   0.373   2.555   0.532  2.5809  1.0475  0.7880
  927MPD2    H313569   0.467   2.380   0.459  0.2029 -1.6934 -3.2841
  927MPD2     N13570   0.610   2.615   0.083  0.3114  0.6942  0.0910
  927MPD2    H513571   0.570   2.685   0.021  0.1710 -1.3055 -2.0961
  927MPD2    N113572   0.313   2.778   0.431  0.5430 -0.2499 -0.0528
  927MPD2    H713573   0.271   2.751   0.519 -1.9307  1.2496 -0.7800
  928MPD2     C13574   3.461   0.587   1.228 -0.0975  0.2607 -0.0700
  928MPD2    C113575   3.482   0.702   1.302  0.4988  0.4829  0.1394
  928MPD2    C213576   3.433   0.820   1.253 -0.3693 -0.5067 -0.2990
  928MPD2    C313577   3.352   0.829   1.140 -0.6763  0.4929 -0.1751
  928MPD2    C413578   3.328   0.713   1.072  0.7364 -0.2914 -0.3097
  928MPD2    C513579   3.382   0.595   1.115 -0.2260 -0.4016  0.4526
  928MPD2     H13580   3.458   0.913   1.303 -0.3558  0.7254 -2.5820
  928MPD2    H113581   3.264   0.703   0.985 -0.2744  1.5138  0.2351
  928MPD2    H213582   3.497   0.492   1.265 -1.9410 -1.2318 -2.1960
  928MPD2    H313583   3.353   0.499   1.074 -1.5768  0.8623 -1.5173
  928MPD2     N13584   3.302   0.951   1.089  0.0146 -0.1197  0.1252
  928MPD2    H513585   3.251   0.944   1.002 -1.6854  4.0291  0.7823
  928MPD2    N113586   3.576   0.687   1.409 -0.5346 -0.2033 -0.4263
  928MPD2    H713587   3.599   0.597   1.449  0.7952  1.5759  2.8910
  929MPD2     C13588   3.938   1.353   9.685  0.0987 -0.1078  0.1925
  929MPD2    C113589   3.857   1.251   9.722  0.3789 -0.3980 -0.6177
  929MPD2    C213590   3.806   1.169   9.623  0.3529 -0.4342  0.2533
  929MPD2    C313591   3.810   1.204   9.488 -0.2033 -0.3510 -0.1654
  929MPD2    C413592   3.889   1.302   9.451 -0.3028  0.3274  0.2922
  929MPD2    C513593   3.948   1.373   9.551  0.2900  0.0169  0.0917
  929MPD2     H13594   3.737   1.094   9.658  0.2496 -0.6105 -0.3235
  929MPD2    H113595   3.908   1.335   9.350  0.0350 -1.7818 -0.3454
  929MPD2    H213596   3.986   1.424   9.752  0.1159 -1.7309  1.9231
  929MPD2    H313597   4.009   1.456   9.519  0.9707  1.1130  4.1872
  929MPD2     N13598   3.736   1.141   9.387 -0.2398  1.0526 -0.1781
  929MPD2    H513599   3.773   1.152   9.294 -0.0029 -0.4685 -0.2616
  929MPD2    N113600   3.855   1.220   9.862 -0.3010  0.5560  0.3141
  929MPD2    H713601   3.883   1.301   9.915 -0.4621  1.0588 -0.3738
  930MPD2     C13602   0.141   3.184  14.104 -0.4519  0.4152  0.1920
  930MPD2    C113603   0.180   3.255  13.992 -0.2128  0.6230  0.2662
  930MPD2    C213604   0.111   3.224  13.873 -0.6201  0.8402 -0.1208
  930MPD2    C313605   0.016   3.129  13.873  0.8477 -0.0809  0.0867
  930MPD2    C413606   4.704   3.067  13.991 -0.3193  0.4133 -1.0791
  930MPD2    C513607   0.040   3.101  14.107  0.6543  0.1270  0.3922
  930MPD2     H13608   0.144   3.270  13.781 -1.5029 -0.1338 -0.9323
  930MPD2    H113609   4.653   2.971  13.988  0.3957 -0.0675  1.7310
  930MPD2    H213610   0.192   3.200  14.198 -1.4500  2.2927  0.4260
  930MPD2    H313611   0.020   3.039  14.194  0.9033  1.0485  1.0967
  930MPD2     N13612   4.672   3.080  13.760 -0.9293 -0.0100 -0.2498
  930MPD2    H513613   4.612   3.000  13.776 -3.0060  1.8235  1.1295
  930MPD2    N113614   0.292   3.346  14.003  0.0128  0.0108 -0.1560
  930MPD2    H713615   0.321   3.376  14.096 -1.8835 -0.6849  0.6723
  931MPD2     C13616   4.491   2.549   0.618  0.5780  0.2079 -0.8210
  931MPD2    C113617   4.548   2.641   0.703  0.3226 -0.0900  0.2312
  931MPD2    C213618   4.540   2.606   0.838  0.4035 -0.4507 -0.5670
  931MPD2    C313619   4.490   2.477   0.882  0.1058  0.4712  0.2792
  931MPD2    C413620   4.433   2.399   0.792  0.0559  0.3591 -0.3423
  931MPD2    C513621   4.443   2.428   0.658  0.1144 -0.5836 -0.2318
  931MPD2     H13622   4.594   2.670   0.907  0.4606 -0.3028 -0.7518
  931MPD2    H113623   4.393   2.303   0.822 -0.6456  0.3499 -1.2879
  931MPD2    H213624   4.486   2.560   0.511  0.6140 -1.7668 -1.0400
  931MPD2    H313625   4.405   2.358   0.585 -0.7136 -0.4770  0.0908
  931MPD2     N13626   4.482   2.435   1.022  0.5574 -0.1314 -0.5335
  931MPD2    H513627   4.441   2.345   1.044 -1.3450  0.0900 -3.1081
  931MPD2    N113628   4.610   2.758   0.646 -0.0876 -0.3669 -0.0675
  931MPD2    H713629   4.610   2.775   0.546 -0.0616 -2.0689 -0.3538
  932MPD2     C13630   2.001   1.899  11.030  0.1916 -0.3012  0.1860
  932MPD2    C113631   2.123   1.903  11.097  0.6955 -0.1682  0.1450
  932MPD2    C213632   2.156   1.797  11.189 -0.0565  0.7007 -0.2745
  932MPD2    C313633   2.059   1.692  11.213  0.6437 -0.1629  0.0981
  932MPD2    C413634   1.934   1.698  11.151  0.0931  0.4521 -0.4685
  932MPD2    C513635   1.910   1.796  11.056  0.2993 -0.2595  0.5221
  932MPD2     H13636   2.250   1.798  11.243 -1.3851 -0.5226  2.0454
  932MPD2    H113637   1.858   1.621  11.162  0.6004 -0.0912 -0.8320
  932MPD2    H213638   1.978   1.970  10.953  1.1262  0.3801  0.5368
  932MPD2    H313639   1.817   1.796  11.000  1.3946 -0.2505 -1.2829
  932MPD2     N13640   2.076   1.575  11.297 -0.1573 -0.4963 -0.6273
  932MPD2    H513641   2.001   1.507  11.305 -1.3262  0.5859 -2.2958
  932MPD2    N113642   2.226   1.996  11.068  0.2725 -0.4998  0.6727
  932MPD2    H713643   2.312   1.990  11.121 -1.3085 -0.2609  3.2485
  933MPD2     C13644   3.933   0.197   1.890 -0.4546  0.1999  0.0209
  933MPD2    C113645   3.811   0.255   1.853  0.3234 -0.1397 -0.7835
  933MPD2    C213646   3.708   0.171   1.831  0.3325  0.1267  0.5651
  933MPD2    C313647   3.721   0.033   1.838 -0.8436  0.2287 -0.8934
  933MPD2    C413648   3.837   4.695   1.875 -0.4117  0.3033  0.2348
  933MPD2    C513649   3.944   0.063   1.908 -0.2054 -0.3892 -0.2494
  933MPD2     H13650   3.617   0.212   1.790  0.2817  0.9177  1.4485
  933MPD2    H113651   3.852   4.590   1.896 -0.9707  0.1736 -0.0334
  933MPD2    H213652   4.026   0.253   1.893 -0.4827  0.2167  0.5750
  933MPD2    H313653   4.038   0.017   1.935 -0.5618 -0.3410  1.1021
  933MPD2     N13654   3.609   4.677   1.806 -0.2310  0.1184 -0.2133
  933MPD2    H513655   3.528   0.006   1.769 -0.4376 -0.2487 -0.2595
  933MPD2    N113656   3.808   0.399   1.844  0.1680  0.4241  0.3256
  933MPD2    H713657   3.897   0.446   1.835  0.2772  0.4175  1.3500
  934MPD2     C13658   4.098   3.097   2.531 -0.9726 -0.0786  0.0481
  934MPD2    C113659   4.070   3.179   2.425 -0.2334 -0.4813 -0.7722
  934MPD2    C213660   4.022   3.123   2.311  0.5170  0.5661 -0.1414
  934MPD2    C313661   3.994   2.983   2.294  0.6648  0.1951 -0.2414
  934MPD2    C413662   4.022   2.909   2.400  0.2294 -0.1399 -0.6775
  934MPD2    C513663   4.066   2.964   2.518 -0.0457 -0.2078 -0.4954
  934MPD2     H13664   4.013   3.187   2.224  0.5211  0.2113 -0.4048
  934MPD2    H113665   4.001   2.803   2.391 -0.2372 -0.1937  0.9746
  934MPD2    H213666   4.141   3.123   2.627 -1.3565 -1.5556  0.6125
  934MPD2    H313667   4.088   2.892   2.597 -0.9184  1.4640  1.2815
  934MPD2     N13668   3.940   2.927   2.180  0.0219 -0.6100 -0.2317
  934MPD2    H513669   3.881   2.844   2.185  2.0647 -2.0703 -0.3013
  934MPD2    N113670   4.100   3.317   2.430 -0.1489 -0.2080  0.7009
  934MPD2    H713671   4.073   3.374   2.351 -0.1278  0.5659  1.2541
  935MPD2     C13672   4.120   2.634   1.254  0.2626  0.2892 -0.2793
  935MPD2    C113673   3.991   2.591   1.283 -0.9465 -0.4035  0.1501
  935MPD2    C213674   3.944   2.630   1.402  0.1241  0.3889  0.4093
  935MPD2    C313675   4.012   2.713   1.488  0.3850 -0.6079  0.7549
  935MPD2    C413676   4.134   2.767   1.448 -0.3892  0.0655 -0.1315
  935MPD2    C513677   4.189   2.727   1.333  0.3440  0.2407 -0.7428
  935MPD2     H13678   3.850   2.586   1.432 -0.9222  2.6346  0.4915
  935MPD2    H113679   4.196   2.828   1.513 -1.6265  0.6006  0.5586
  935MPD2    H213680   4.170   2.608   1.161 -1.8782  1.4651 -1.7605
  935MPD2    H313681   4.284   2.757   1.290  0.4770  1.8027  0.6400
  935MPD2     N13682   3.963   2.767   1.610 -0.3857  0.2739  0.1189
  935MPD2    H513683   4.019   2.842   1.650  0.6498 -0.9787  1.0205
  935MPD2    N113684   3.908   2.500   1.214  0.1642 -0.0691  0.3753
  935MPD2    H713685   3.833   2.463   1.271  0.4048 -0.8541  0.1852
  936MPD2     C13686   2.896   0.091  12.518 -0.1050 -0.0429  0.1731
  936MPD2    C113687   2.824   0.188  12.582 -0.1210  0.1247 -0.4238
  936MPD2    C213688   2.819   0.314  12.518 -0.5632  0.2609  0.4726
  936MPD2    C313689   2.889   0.333  12.401  0.2795 -0.7781  0.4037
  936MPD2    C413690   2.949   0.227  12.333 -0.0827 -0.2010 -0.7079
  936MPD2    C513691   2.957   0.108  12.397  0.6394 -0.3678 -0.0134
  936MPD2     H13692   2.773   0.398  12.567 -2.3655  1.2207 -2.8811
  936MPD2    H113693   3.006   0.239  12.242 -1.6567 -1.4995 -1.8662
  936MPD2    H213694   2.917   4.715  12.561 -0.1939 -0.5132 -0.8491
  936MPD2    H313695   3.021   0.030  12.358 -1.1129 -1.4909 -0.6258
  936MPD2     N13696   2.899   0.474  12.359  0.1945 -0.6459  0.6433
  936MPD2    H513697   2.868   0.543  12.426 -0.6112 -1.3585  1.0093
  936MPD2    N113698   2.771   0.169  12.712 -0.0677 -0.6957  0.4878
  936MPD2    H713699   2.724   0.246  12.760 -1.6586 -0.4634 -1.4255
  937MPD2     C13700   0.831   1.576  11.221  0.0397 -0.2953 -0.6634
  937MPD2    C113701   0.917   1.682  11.224  0.1060  0.4024 -0.5827
  937MPD2    C213702   1.021   1.681  11.131 -1.0521 -0.0377 -0.2998
  937MPD2    C313703   1.022   1.592  11.026 -0.0184  0.0361 -0.4033
  937MPD2    C413704   0.915   1.501  11.016  0.6222  0.9069 -0.5847
  937MPD2    C513705   0.824   1.488  11.119 -0.2484  0.4383 -0.3355
  937MPD2     H13706   1.103   1.752  11.123  0.9103 -2.3566 -0.8227
  937MPD2    H113707   0.914   1.443  10.924 -1.3766 -0.9271  0.6190
  937MPD2    H213708   0.750   1.571  11.293  1.0443 -1.8656  0.3414
  937MPD2    H313709   0.749   1.410  11.114 -1.7957  1.9321 -0.6406
  937MPD2     N13710   1.124   1.604  10.928  0.4988  0.2643  0.1018
  937MPD2    H513711   1.199   1.669  10.949 -0.9247  1.7624  0.5176
  937MPD2    N113712   0.933   1.779  11.326  0.5771  0.0134 -0.2859
  937MPD2    H713713   1.017   1.837  11.329  0.0787  0.6538  1.3763
  938MPD2     C13714   2.468   3.061   1.242  0.2443  0.0832  0.0019
  938MPD2    C113715   2.581   3.010   1.299 -0.2167 -0.3301 -0.0623
  938MPD2    C213716   2.575   2.948   1.423 -0.2303 -0.3415  0.5349
  938MPD2    C313717   2.449   2.926   1.480 -0.1455 -0.1801  0.4417
  938MPD2    C413718   2.336   2.976   1.421 -0.1276  0.0192  0.1088
  938MPD2    C513719   2.346   3.051   1.304  0.2299  0.9431 -0.0957
  938MPD2     H13720   2.665   2.909   1.469 -0.3014 -2.4481 -1.1268
  938MPD2    H113721   2.238   2.974   1.467 -0.3689 -1.1147 -0.4714
  938MPD2    H213722   2.470   3.114   1.147  0.7276 -1.0354 -0.6124
  938MPD2    H313723   2.260   3.091   1.251 -1.7452 -1.7287  1.1268
  938MPD2     N13724   2.434   2.851   1.602  0.0465 -0.6472 -0.5033
  938MPD2    H513725   2.343   2.828   1.639  1.4136  0.1342  3.2828
  938MPD2    N113726   2.709   3.020   1.244 -0.0572 -0.2034 -0.1155
  938MPD2    H713727   2.793   2.994   1.295 -0.8652  1.4362  2.0961
  939MPD2     C13728   3.999   4.082   0.976 -0.0793 -0.1507 -0.0051
  939MPD2    C113729   4.100   4.136   1.052 -0.1913  0.0700 -0.3744
  939MPD2    C213730   4.224   4.173   1.002 -0.0608  0.1573  0.7421
  939MPD2    C313731   4.248   4.157   0.870 -0.0114 -0.5163  0.3378
  939MPD2    C413732   4.152   4.112   0.791  0.1570  0.4630  0.2186
  939MPD2    C513733   4.028   4.076   0.840  0.5138 -0.3744 -0.9427
  939MPD2     H13734   4.300   4.217   1.067  0.5859  0.0987  0.0233
  939MPD2    H113735   4.171   4.090   0.687  0.9000 -2.4119  0.9533
  939MPD2    H213736   3.914   4.031   1.018 -0.7762  1.4028  0.4710
  939MPD2    H313737   3.956   4.024   0.779 -1.1576 -2.0324  2.4630
  939MPD2     N13738   4.374   4.207   0.824 -0.3935 -0.0433  0.3992
  939MPD2    H513739   4.428   4.262   0.890  0.6112 -1.5447  0.8318
  939MPD2    N113740   4.056   4.155   1.182 -0.1500  0.5420  0.5321
  939MPD2    H713741   3.959   4.134   1.205 -0.0178  1.4811  1.9160
  940MPD2     C13742   3.339   4.379  13.064 -1.0167 -0.2705 -0.5440
  940MPD2    C113743   3.222   4.448  13.090 -0.0842  0.0043  0.2055
  940MPD2    C213744   3.200   4.561  13.019  0.2132  0.5510 -0.2731
  940MPD2    C313745   3.279   4.597  12.909  0.0789 -0.4277  0.1535
  940MPD2    C413746   3.392   4.521  12.879  0.2149 -1.0567  0.4717
  940MPD2    C513747   3.421   4.418  12.963  0.4392  0.1273 -0.8315
  940MPD2     H13748   3.115   4.621  13.050 -0.6197 -0.7998  0.0309
  940MPD2    H113749   3.459   4.547  12.798  0.2777  4.3800  2.2706
  940MPD2    H213750   3.357   4.297  13.132  1.6043 -0.6771 -1.7511
  940MPD2    H313751   3.507   4.354  12.948  1.1803  1.0031 -0.3304
  940MPD2     N13752   3.257   4.707  12.824 -0.7963 -0.4568 -0.1823
  940MPD2    H513753   3.321   0.008  12.749 -2.1605  0.2665 -1.1383
  940MPD2    N113754   3.131   4.410  13.191 -0.1492 -1.2769 -0.0531
  940MPD2    H713755   3.069   4.481  13.229 -0.8812 -0.6299 -2.4679
  941MPD2     C13756   2.905   4.356   9.675 -0.2639 -0.1421  0.4739
  941MPD2    C113757   3.008   4.270   9.712  0.3870 -0.0674  0.1444
  941MPD2    C213758   2.988   4.180   9.819 -0.0498  0.3683 -0.1516
  941MPD2    C313759   2.866   4.167   9.873 -0.5545 -0.4367  0.6677
  941MPD2    C413760   2.763   4.257   9.833 -0.8683  0.0069 -0.8290
  941MPD2    C513761   2.788   4.353   9.740 -0.0368  0.7260  0.5895
  941MPD2     H13762   3.073   4.121   9.850  0.9039  0.9667 -1.6211
  941MPD2    H113763   2.663   4.243   9.872 -0.6082  2.6446  0.7927
  941MPD2    H213764   2.915   4.439   9.606  1.1887 -1.1613 -0.5443
  941MPD2    H313765   2.711   4.424   9.713 -0.3707 -0.1524 -0.7300
  941MPD2     N13766   2.830   4.079   9.978  0.4351  0.2197 -0.2576
  941MPD2    H513767   2.728   4.075   9.984  0.4855  0.8805  0.9546
  941MPD2    N113768   3.140   4.275   9.653  0.3163 -0.1134  0.3963
  941MPD2    H713769   3.216   4.227   9.701 -0.1521 -1.1724  0.0803
  942MPD2     C13770   4.000   0.446   9.537 -0.1978 -0.4117 -0.5866
  942MPD2    C113771   4.117   0.507   9.507 -0.3752 -0.2530 -0.5926
  942MPD2    C213772   4.195   0.565   9.604 -0.4367  0.1746  0.0506
  942MPD2    C313773   4.147   0.578   9.729 -0.2507 -0.2548  0.0423
  942MPD2    C413774   4.015   0.535   9.760  0.1170  0.4454  0.7486
  942MPD2    C513775   3.948   0.468   9.661  0.0784  0.0036 -0.0526
  942MPD2     H13776   4.297   0.587   9.576 -0.2914  1.6031  1.7225
  942MPD2    H113777   3.973   0.547   9.859 -0.8864  2.0559  0.1110
  942MPD2    H213778   3.937   0.393   9.466 -1.2583  0.4536 -0.3061
  942MPD2    H313779   3.849   0.433   9.689  0.2415  0.5360  1.1732
  942MPD2     N13780   4.226   0.634   9.832  0.3077 -0.4257 -0.4048
  942MPD2    H513781   4.203   0.607   9.928 -1.5806 -1.1216 -1.0650
  942MPD2    N113782   4.168   0.501   9.376 -0.2062 -0.2580 -0.4816
  942MPD2    H713783   4.258   0.542   9.354 -0.2937  0.9475  1.4214
  943MPD2     C13784   1.574   3.477   9.483 -0.4149 -0.7923 -0.3921
  943MPD2    C113785   1.665   3.544   9.561 -0.2509 -0.0373 -0.0314
  943MPD2    C213786   1.746   3.645   9.500 -0.3035 -0.3087  0.2386
  943MPD2    C313787   1.720   3.685   9.373  0.2951 -0.2556  0.5231
  943MPD2    C413788   1.637   3.613   9.292 -0.5394 -0.5955  0.3031
  943MPD2    C513789   1.565   3.504   9.347  0.0167  0.5220  0.1401
  943MPD2     H13790   1.820   3.695   9.561  0.7420  0.1446 -1.4034
  943MPD2    H113791   1.636   3.647   9.189 -0.3425 -0.6872  0.2702
  943MPD2    H213792   1.512   3.401   9.528 -2.0383  0.7625  0.0171
  943MPD2    H313793   1.496   3.448   9.285 -1.2601  1.5998  0.5945
  943MPD2     N13794   1.799   3.785   9.312  0.1391  0.2745 -0.4874
  943MPD2    H513795   1.770   3.814   9.219 -1.7566 -0.1700 -0.0266
  943MPD2    N113796   1.670   3.507   9.697  0.1812  0.3095  0.5101
  943MPD2    H713797   1.599   3.441   9.726 -0.4010  1.1648  1.0210
  944MPD2     C13798   1.427   2.758  10.918  0.3988 -0.2185 -0.1639
  944MPD2    C113799   1.513   2.866  10.890  0.0903  0.0491 -0.1659
  944MPD2    C213800   1.539   2.951  10.987 -0.3643  0.7530 -0.8222
  944MPD2    C313801   1.490   2.943  11.114  0.6019 -0.1025  0.2679
  944MPD2    C413802   1.407   2.833  11.145 -0.4007 -0.3623  0.8672
  944MPD2    C513803   1.376   2.746  11.045  0.2044  0.3052  0.8339
  944MPD2     H13804   1.611   3.030  10.967  0.3776 -0.3490 -2.4952
  944MPD2    H113805   1.360   2.812  11.240  0.1148 -1.5752  0.8422
  944MPD2    H213806   1.403   2.684  10.842 -0.6220 -0.2227  0.1640
  944MPD2    H313807   1.313   2.662  11.071 -0.6768  0.6713 -0.1549
  944MPD2     N13808   1.526   3.047  11.204  0.0432  0.5266 -0.6153
  944MPD2    H513809   1.597   3.111  11.170  1.0327 -0.5008 -0.4581
  944MPD2    N113810   1.576   2.869  10.762  0.3863  0.4718  0.0612
  944MPD2    H713811   1.566   2.785  10.706 -1.4566  0.2626  0.7054
    1TCq1    O113812   4.050   2.793  14.880 -0.0824  1.0489  0.2037
    1TCq1    C113813   4.117   2.913  14.879 -0.1714  0.1092 -0.1325
    1TCq1    O213814   4.188   2.954  14.970  0.3974 -0.0565  0.0359
    1TCq1    C213815   4.087   2.970  14.751  0.1335 -0.9284 -0.2040
    1TCq1    C313816   4.027   2.897  14.651  0.1284 -0.3406 -0.5554
    1TCq1    C413817   4.028   2.951  14.528 -0.1971 -0.9069 -0.4392
    1TCq1    C513818   4.094   3.068  14.499  0.1769 -0.0141  0.5411
    1TCq1    C613819   4.147   3.142  14.602 -0.0672 -0.4724 -0.2781
    1TCq1    C713820   4.148   3.092  14.734 -0.2698 -0.1310  0.1411
    1TCq1    C813821   4.227   3.261  14.581  0.0320  0.0439 -0.4405
    1TCq1    O413822   4.348   3.256  14.609 -0.2226 -0.3625 -0.3324
    1TCq1    C913823   3.962   2.876  14.419  0.4216 -0.7923 -0.4145
    1TCq1    O513824   3.903   2.770  14.457 -0.3014 -0.3538 -0.1370
    1TCq1    O613825   3.948   2.936  14.311 -0.1765  0.2008  0.3092
    1TCq1    H113826   3.976   2.793  14.815 -0.2358 -0.7584  0.3627
    1TCq1    H213827   4.015   2.789  14.650  1.0523 -0.4766  2.0759
    1TCq1    H313828   4.093   3.112  14.400  1.5315 -0.2181  0.4355
    1TCq1    H413829   4.207   3.150  14.804  0.7530 -0.5180 -0.3859
    2MPD2     C13830   4.275   3.768  14.636  0.0935  0.0349  0.5850
    2MPD2    C113831   4.172   3.746  14.544 -0.0589  0.3149  0.8475
    2MPD2    C213832   4.128   3.619  14.522  0.5789  0.5691 -0.3636
    2MPD2    C313833   4.189   3.505  14.577 -0.8786  0.3071  0.2487
    2MPD2    C413834   4.293   3.529  14.662 -0.3430 -0.3662  0.7767
    2MPD2    C513835   4.327   3.655  14.695  0.5514  0.0517  0.0121
    2MPD2     H13836   4.039   3.601  14.463  0.5727  2.3829 -0.9194
    2MPD2    H113837   4.346   3.462  14.728 -0.7752 -1.6445 -0.1706
    2MPD2    H213838   4.312   3.861  14.678  1.2472  0.1055 -0.5963
    2MPD2    H313839   4.400   3.670  14.775  0.4465  1.1544 -0.1024
    2MPD2     N13840   4.145   3.370  14.554  0.0305  0.4234  0.1707
    2MPD2    H513841   4.057   3.353  14.505 -0.1126  0.4148  0.4334
    2MPD2    N113842   4.119   3.865  14.490  0.5275 -0.7762 -0.3290
    2MPD2    H713843   4.163   3.949  14.527  1.5484 -0.7306 -1.6630
    3TMC2    C113844   4.003   4.006  14.353  0.3736  0.2145  0.1177
    3TMC2    C213845   4.048   4.105  14.439  0.6160 -0.4780  0.7978
    3TMC2    C313846   4.018   4.231  14.395 -0.4997 -0.6813 -0.4680
    3TMC2    C413847   3.947   4.024  14.230  0.2510 -0.1597 -0.3096
    3TMC2    C513848   3.921   4.153  14.190 -0.2126 -1.0203  0.4111
    3TMC2    C613849   3.963   4.259  14.266  0.3709 -1.2840 -0.1424
    3TMC2     C13850   4.021   3.873  14.397  0.3401  0.0456  0.0816
    3TMC2     O13851   3.947   3.786  14.352 -0.3668 -0.4761 -0.4480
    3TMC2     H13852   4.067   4.088  14.545  0.7251  0.9036  1.0015
    3TMC2    H113853   3.909   3.932  14.187  0.0330 -0.9071  1.4850
    3TMC2    H213854   3.937   4.359  14.235  2.0681 -1.2829 -1.5585
    3TMC2    C713855   3.817   4.164  14.088  0.2133  0.0872  0.9306
    3TMC2    C813856   4.036   4.350  14.485 -0.6436  0.3607 -0.0238
    3TMC2    O113857   3.782   4.062  14.039 -0.3139  0.1684  0.3815
    3TMC2    O213858   3.982   4.457  14.482 -0.4431 -0.4798  0.2670
    3TMC2    O513859   4.158   4.334  14.536 -0.4988  0.1629  0.4543
    3TMC2    H513860   4.202   4.248  14.517 -0.4422 -0.0215  1.4141
    4MPD2     C13861   2.677   0.347  13.870  0.3032  0.7321 -0.1836
    4MPD2    C113862   2.745   0.432  13.783  0.2282 -0.3690 -0.0071
    4MPD2    C213863   2.888   0.439  13.777 -0.2705  0.3835  0.0809
    4MPD2    C313864   2.966   0.363  13.859 -0.1621  0.3777 -0.9084
    4MPD2    C413865   2.899   0.291  13.959 -0.1413  0.4535 -0.9791
    4MPD2    C513866   2.763   0.278  13.955 -0.5228  0.6738 -0.2672
    4MPD2     H13867   2.948   0.497  13.708  3.1098  0.0781  2.7611
    4MPD2    H113868   2.960   0.235  14.030  1.3769  2.5317 -0.6159
    4MPD2    H213869   2.570   0.329  13.868  0.5084 -0.4808  0.1287
    4MPD2    H313870   2.718   0.208  14.024 -1.5739 -0.0809 -1.7252
    4MPD2     N13871   3.105   0.372  13.839 -0.3741 -0.8811 -0.1413
    4MPD2    H513872   3.133   0.436  13.766  0.2419  0.9819  1.7269
    4MPD2    N113873   2.651   0.492  13.694 -0.3949  0.3403 -0.3972
    4MPD2    H713874   2.555   0.461  13.708 -0.4498 -0.3716 -2.4214
    5TCq2    C113875   3.204   0.297  13.900 -0.1314 -0.7167 -0.1353
    5TCq2    O213876   3.186   0.218  13.992 -0.6456 -0.4858  0.3745
    5TCq2    C213877   3.332   0.287  13.838  0.0629 -0.5091  0.7038
    5TCq2    C313878   3.351   0.334  13.714 -0.3231  0.0279  0.3174
    5TCq2    C413879   3.454   0.285  13.638 -1.1166  0.3692  0.4934
    5TCq2    C513880   3.531   0.182  13.680 -0.6221  0.4576  0.7654
    5TCq2    C613881   3.515   0.146  13.811  0.0189 -0.4105 -0.4190
    5TCq2    C713882   3.428   0.201  13.892 -0.2677 -0.0168  0.5599
    5TCq2    C813883   3.586   0.022  13.849  0.3037  0.3732 -0.2811
    5TCq2    O413884   3.609   0.017  13.971 -0.4923  0.3821 -0.5761
    5TCq2    C913885   3.491   0.349  13.511  0.8938  0.2300  0.4528
    5TCq2    O513886   3.591   0.288  13.448  0.2175  0.3481  0.1462
    5TCq2    O613887   3.451   0.462  13.477 -0.1401  0.3542  0.0504
    5TCq2    H213888   3.291   0.417  13.680  0.4796  0.3945 -0.2002
    5TCq2    H313889   3.609   0.138  13.618  0.5278  0.8768  1.9204
    5TCq2    H413890   3.406   0.139  13.978 -0.7184  0.1148  0.5402
    6MPD1     C13891   1.896   2.098  12.839 -0.4426 -0.5020  0.8624
    6MPD1    C113892   1.912   2.009  12.728 -0.1939 -0.2174  0.2980
    6MPD1    C213893   1.942   1.878  12.754  0.8687 -0.3724 -0.6130
    6MPD1    C313894   1.964   1.838  12.884  0.3195  0.6185 -0.9031
    6MPD1    C413895   1.953   1.930  12.988  0.4928 -0.0133 -0.0075
    6MPD1    C513896   1.913   2.060  12.970  0.7722 -0.1355  0.4718
    6MPD1     H13897   1.955   1.813  12.668  1.6076  0.1836 -0.9205
    6MPD1    H113898   1.979   1.908  13.091 -0.2251  1.8125  0.5662
    6MPD1    H213899   1.872   2.201  12.817  0.4186 -0.1326  1.6710
    6MPD1    H313900   1.913   2.123  13.058 -2.5928  3.0626 -1.8330
    6MPD1     N13901   2.005   1.701  12.912  0.3255 -0.4364 -0.1519
    6MPD1    H513902   2.042   1.674  13.002  0.1798 -3.2349 -0.9549
    6MPD1    N113903   1.872   2.053  12.601 -0.2931  0.2785  0.2128
    6MPD1    H613904   1.903   1.987  12.531 -0.5095  0.1710  0.2173
    6MPD1    H713905   1.902   2.148  12.578 -0.2134 -0.2512 -1.8440
    7MPD2     C13906   1.939   1.068  13.380  0.0191  0.3143 -0.4198
    7MPD2    C113907   2.060   1.065  13.309 -0.0146 -0.1483 -0.4413
    7MPD2    C213908   2.151   0.965  13.328  0.1984 -0.2536  0.7463
    7MPD2    C313909   2.123   0.862  13.413 -0.7953 -0.1051  0.2401
    7MPD2    C413910   2.014   0.866  13.496 -0.0416 -0.4471  0.3359
    7MPD2    C513911   1.927   0.962  13.474  1.1933 -0.2972  0.7298
    7MPD2     H13912   2.238   0.969  13.263  1.0167 -0.8155  1.7969
    7MPD2    H113913   2.000   0.783  13.565  0.2428 -1.3599 -0.7072
    7MPD2    H213914   1.862   1.145  13.370 -0.1126  0.4197  1.3049
    7MPD2    H313915   1.835   0.967  13.530  1.0815  0.6895  0.4460
    7MPD2     N13916   2.222   0.758  13.424  0.1523  0.2046 -0.4228
    7MPD2    H513917   2.305   0.777  13.369  1.1729 -1.1670  0.6441
    7MPD2    N113918   2.089   1.165  13.217  0.1132  0.3112  0.3263
    7MPD2    H713919   2.176   1.139  13.172 -0.4987  0.5518 -0.9765
    8TMC3    C113920   2.332   0.572  13.450 -0.1790 -0.6359  0.1581
    8TMC3    C213921   2.431   0.570  13.543 -0.6650 -0.1085 -0.2642
    8TMC3    C313922   2.559   0.609  13.501  0.1319  1.2215 -0.4642
    8TMC3    C413923   2.364   0.600  13.314 -0.5077 -0.9072 -0.4812
    8TMC3    C513924   2.493   0.627  13.278 -0.7814  0.5332  0.4255
    8TMC3    C613925   2.589   0.647  13.374  0.7638 -0.8446  1.1148
    8TMC3     C13926   2.209   0.642  13.490  0.0619 -0.0718  0.6978
    8TMC3     O13927   2.113   0.580  13.534 -0.6667  0.0827 -0.0364
    8TMC3     H13928   2.402   0.563  13.647  0.4402 -0.9001 -0.0085
    8TMC3    H113929   2.290   0.576  13.238 -0.8746 -2.5141  0.3731
    8TMC3    H213930   2.692   0.675  13.356  0.9103 -1.5257  0.8584
    8TMC3    C713931   2.487   0.720  13.164 -0.2406  0.5692  0.7288
    8TMC3    C813932   2.674   0.574  13.584  0.3276  0.4589  0.1356
    8TMC3    O113933   2.514   0.836  13.192  0.0585 -0.3562  0.3513
    8TMC3    O213934   2.783   0.616  13.551  0.2686 -0.0680  0.0148
    9TMC3    C113935   2.074   1.477  12.871 -0.3847  0.4756 -0.0748
    9TMC3    C213936   2.136   1.388  12.782 -0.1434 -0.4826 -0.0741
    9TMC3    C313937   2.177   1.268  12.836 -0.7437  0.3751 -0.5125
    9TMC3    C413938   2.053   1.445  13.003 -0.0602  0.6287 -0.6966
    9TMC3    C513939   2.087   1.321  13.051 -0.0209 -0.2165 -0.1816
    9TMC3    C613940   2.141   1.231  12.961 -0.3751 -0.5218 -0.6047
    9TMC3     C13941   2.032   1.603  12.816  0.4613 -0.2521 -0.1608
    9TMC3     O13942   1.993   1.602  12.703  0.4689  0.3970 -0.7407
    9TMC3     H13943   2.153   1.414  12.678  1.3385  2.0194  0.7919
    9TMC3    H113944   1.994   1.503  13.073 -1.0021  0.0792 -1.0337
    9TMC3    H213945   2.155   1.127  12.991 -2.1105 -0.2950  0.9469
    9TMC3    C713946   2.011   1.266  13.166  0.5686  0.3734 -0.2211
    9TMC3    C813947   2.234   1.159  12.755  0.1996 -0.7097 -0.3394
    9TMC3    O113948   1.896   1.310  13.186  1.0211  0.0325  0.0749
    9TMC3    O213949   2.193   1.148  12.638 -0.0242 -0.5060 -0.4997
   10MPD2     C13950   2.353   0.668  12.821  0.2867  0.2109 -0.1381
   10MPD2    C113951   2.399   0.736  12.931 -0.2568  0.3358  0.0874
   10MPD2    C213952   2.396   0.877  12.926 -0.3089 -0.3874  0.0958
   10MPD2    C313953   2.338   0.939  12.819 -0.3771 -0.1679  0.2346
   10MPD2    C413954   2.289   0.872  12.714 -0.2775  1.1451 -0.1988
   10MPD2    C513955   2.306   0.739  12.711 -0.0680  0.0082  0.1164
   10MPD2     H13956   2.436   0.934  13.009 -0.9352  0.4450 -0.1784
   10MPD2    H113957   2.254   0.921  12.624 -2.2057  0.7432  0.3269
   10MPD2    H213958   2.360   0.561  12.809 -2.7778  0.1815 -1.6567
   10MPD2    H313959   2.290   0.689  12.616 -0.6046  1.0027 -0.3261
   10MPD2     N13960   2.319   1.082  12.835 -0.0136 -0.5060  0.7015
   10MPD2    H513961   2.364   1.125  12.915 -0.4261 -0.5606  0.9635
   10MPD2    N113962   2.437   0.667  13.047 -0.4627 -0.2831 -0.3133
   10MPD2    H713963   2.434   0.566  13.046  2.5250 -0.3635 -0.4220
   11MPD2     C13964   3.640   4.234  13.863 -0.6940 -0.6456  0.1545
   11MPD2    C113965   3.700   4.323  13.942 -0.4885 -0.2962 -0.1174
   11MPD2    C213966   3.681   4.458  13.916  0.6926 -0.0263 -0.0096
   11MPD2    C313967   3.597   4.502  13.809 -0.3395  0.0264  0.4005
   11MPD2    C413968   3.547   4.409  13.727 -0.2072 -0.3342  0.0076
   11MPD2    C513969   3.567   4.282  13.758 -0.8193  0.2100 -0.6267
   11MPD2     H13970   3.731   4.524  13.986  1.6463 -1.4439  0.6333
   11MPD2    H113971   3.480   4.423  13.643 -0.6034  0.0471  0.3873
   11MPD2    H213972   3.670   4.131  13.849 -0.3265 -0.3160 -1.5294
   11MPD2    H313973   3.522   4.206  13.695 -1.6210  0.3858 -0.2635
   11MPD2     N13974   3.567   4.635  13.771 -0.1551  0.2457  0.4854
   11MPD2    H513975   3.511   4.648  13.687  0.7122  1.2320  0.0540
   11MPD2    N113976   3.793   4.292  14.046 -0.7670 -0.3887 -0.6295
   11MPD2    H713977   3.850   4.368  14.081  1.4120 -2.6932  0.8525
    1MPD1     C13978   0.834   1.193  16.842  0.1146 -0.0055  0.5902
    1MPD1    C113979   0.865   1.273  16.736  0.1751 -0.4778  0.0389
    1MPD1    C213980   1.002   1.283  16.697 -0.0607  0.8525 -0.3538
    1MPD1    C313981   1.090   1.209  16.768 -0.1918 -0.3299 -0.2321
    1MPD1    C413982   1.062   1.142  16.886  0.2332  0.0988  0.0754
    1MPD1    C513983   0.926   1.117  16.909  0.3742 -0.3294 -0.2514
    1MPD1     H13984   1.028   1.329  16.602  2.4470 -1.0405 -0.5797
    1MPD1    H113985   1.131   1.082  16.944  0.2176 -0.0232 -0.0322
    1MPD1    H213986   0.729   1.195  16.868 -0.1376 -0.8605 -0.3510
    1MPD1    H313987   0.892   1.050  16.987 -0.8195  1.7739  1.0359
    1MPD1     N13988   1.224   1.213  16.723  0.3535 -0.0863  0.3566
    1MPD1    H513989   1.242   1.274  16.645 -0.8928 -0.3058 -0.0990
    1MPD1    N113990   0.762   1.326  16.659 -0.8520 -0.3695  0.5400
    1MPD1    H613991   0.805   1.403  16.608  2.4896 -1.7848  1.1941
    1MPD1    H713992   0.699   1.373  16.723 -2.1334 -0.9555 -0.3002
    2MPD1     C13993   1.797   1.889  16.957 -0.3438  0.4511 -0.8311
    2MPD1    C113994   1.663   1.871  16.973 -0.4340 -1.1993  0.6543
    2MPD1    C213995   1.600   1.776  16.895  0.2480 -0.5003  0.3506
    2MPD1    C313996   1.674   1.689  16.820 -0.0805 -0.4959 -0.3081
    2MPD1    C413997   1.811   1.698  16.821 -0.2626  0.0406 -0.5062
    2MPD1    C513998   1.871   1.799  16.893 -0.3738  0.3611  0.2546
    2MPD1     H13999   1.492   1.773  16.890  0.2621 -1.0078  0.3760
    2MPD1    H114000   1.872   1.626  16.768 -1.1079 -0.8958 -0.1979
    2MPD1    H214001   1.852   1.956  17.023 -0.1548 -2.0691  1.5732
    2MPD1    H314002   1.979   1.798  16.901 -0.3332 -1.9546 -0.5899
    2MPD1     N14003   1.608   1.588  16.750 -0.1161 -0.3812  0.0024
    2MPD1    H514004   1.510   1.582  16.777  0.2856 -4.2956  0.5095
    2MPD1    N114005   1.604   1.983  17.042  0.3895  0.6634 -0.3159
    2MPD1    H614006   1.511   1.958  17.076  1.3796 -0.4991  1.5409
    2MPD1    H714007   1.659   2.009  17.123  1.5054 -0.2775 -0.7600
    3TMC3    C114008   1.583   1.383  16.621 -0.4715  0.0353  0.3042
    3TMC3    C214009   1.659   1.292  16.552  0.0550  0.6200 -0.0740
    3TMC3    C314010   1.626   1.155  16.561 -0.6179 -0.6467 -0.0065
    3TMC3    C414011   1.484   1.337  16.701  0.1060  0.3831 -0.0813
    3TMC3    C514012   1.453   1.201  16.706  0.5146 -0.0328 -0.6687
    3TMC3    C614013   1.520   1.109  16.636  0.0496  0.9093 -0.3924
    3TMC3     C14014   1.671   1.496  16.666  0.0487 -0.0789 -0.3169
    3TMC3     O14015   1.789   1.496  16.620  0.8164  0.3546  0.2425
    3TMC3     H14016   1.734   1.329  16.484  0.5401  0.3841  0.3368
    3TMC3    H114017   1.418   1.405  16.753 -0.4435 -0.8520  0.8366
    3TMC3    H214018   1.502   1.003  16.643  0.8794  0.6268 -2.8429
    3TMC3    C714019   1.334   1.148  16.776 -0.6346  0.2912 -0.3447
    3TMC3    C814020   1.699   1.069  16.474  0.1002 -0.2991 -0.3122
    3TMC3    O114021   1.336   1.059  16.857 -0.1721 -0.1217 -0.0330
    3TMC3    O214022   1.815   1.104  16.456 -0.2496 -0.0354  0.2620
    4MPD1     C14023   1.807   0.624  16.260  0.1322 -0.1135  0.3284
    4MPD1    C114024   1.673   0.629  16.270  0.0371  0.0040  0.0285
    4MPD1    C214025   1.622   0.732  16.347 -0.4498 -0.3110  0.2994
    4MPD1    C314026   1.703   0.835  16.388  0.0525  0.3691  0.2110
    4MPD1    C414027   1.847   0.823  16.379  0.3555  0.5976 -0.3739
    4MPD1    C514028   1.893   0.711  16.321  0.7030  0.4817  0.2972
    4MPD1     H14029   1.514   0.728  16.360 -0.5295 -0.3326 -0.3619
    4MPD1    H114030   1.916   0.896  16.418  0.5387 -0.0029  0.4149
    4MPD1    H214031   1.859   0.542  16.213  0.4582  0.1271  0.2617
    4MPD1    H314032   2.000   0.700  16.312  0.5985  0.0305 -0.3688
    4MPD1     N14033   1.638   0.945  16.444  0.3529 -0.4835  0.6938
    4MPD1    H514034   1.539   0.942  16.465  0.2594 -0.0119  0.3289
    4MPD1    N114035   1.594   0.518  16.226 -0.3053 -0.1596 -0.1546
    4MPD1    H614036   1.601   0.446  16.298  1.7426  1.0574  0.8814
    4MPD1    H714037   1.496   0.543  16.227 -0.5220 -1.0252  0.0214
    1TCq1    O114038   3.765   1.101  11.681  0.0568  0.2527 -0.0027
    1TCq1    C114039   3.643   1.170  11.656  0.0102 -0.2287  0.1830
    1TCq1    O214040   3.561   1.128  11.577  0.5723 -0.4198 -0.0612
    1TCq1    C214041   3.614   1.260  11.770 -0.2722 -0.4221  1.0338
    1TCq1    C314042   3.705   1.289  11.866  0.4073 -0.4571 -0.0613
    1TCq1    C414043   3.671   1.371  11.969 -0.3496  0.1132 -0.0389
    1TCq1    C514044   3.537   1.389  11.995  0.0230  0.1780 -0.2280
    1TCq1    C614045   3.448   1.349  11.899  0.8478  0.0766 -0.1894
    1TCq1    C714046   3.486   1.294  11.776  0.1001  0.3235  0.2520
    1TCq1    C814047   3.315   1.413  11.910  0.6565 -0.1713  0.3331
    1TCq1    O414048   3.280   1.453  12.018  0.1323  0.0714  0.6352
    1TCq1    C914049   3.762   1.378  12.079  0.1781  0.4482 -0.2573
    1TCq1    O514050   3.712   1.391  12.197  0.3425  0.1088 -0.2765
    1TCq1    O614051   3.874   1.326  12.056 -0.0846 -0.8681 -0.3193
    1TCq1    H114052   3.813   1.133  11.760 -0.1847 -0.5536  0.4694
    1TCq1    H214053   3.809   1.264  11.848  1.1223  0.6526  2.6474
    1TCq1    H314054   3.496   1.434  12.085  0.4664 -0.1779  0.1433
    1TCq1    H414055   3.409   1.258  11.709 -1.0878 -0.2705  1.9386
    2MPD1     C14056   2.894   1.600  11.711  1.0924  0.3728  0.5016
    2MPD1    C114057   2.982   1.578  11.610  0.2303  0.6570 -0.1673
    2MPD1    C214058   3.103   1.516  11.634 -0.4042  0.0694  0.1895
    2MPD1    C314059   3.144   1.504  11.760 -0.5253 -0.1836  0.3182
    2MPD1    C414060   3.055   1.535  11.868 -0.3209 -0.1846 -0.7411
    2MPD1    C514061   2.934   1.594  11.841  0.5716  0.2946  0.2833
    2MPD1     H14062   3.170   1.482  11.556  0.4822  0.9974  0.5532
    2MPD1    H114063   3.081   1.523  11.972 -2.1758 -0.9542 -0.3571
    2MPD1    H214064   2.792   1.634  11.698  0.9657  0.0456  0.6390
    2MPD1    H314065   2.875   1.635  11.923  1.8872  0.5393  1.1071
    2MPD1     N14066   3.269   1.437  11.781 -0.0146 -0.6171 -0.1054
    2MPD1    H514067   3.333   1.415  11.705  0.9469  1.3487  0.1267
    2MPD1    N114068   2.928   1.575  11.479 -0.3564  0.0599 -0.0562
    2MPD1    H614069   3.001   1.602  11.414  1.3293 -0.5898  1.5403
    2MPD1    H714070   2.845   1.633  11.472 -1.5577 -1.3849  2.0415
    1TCq1    O114071   4.213   2.000   9.242 -0.5603  0.2506  0.3354
    1TCq1    C114072   4.347   1.991   9.225 -0.3954  0.4481 -0.3539
    1TCq1    O214073   4.398   1.889   9.178 -0.7377  0.2838 -0.5729
    1TCq1    C214074   4.398   2.116   9.172  0.3356 -0.4109 -0.5481
    1TCq1    C314075   4.312   2.208   9.119  0.5360 -0.5755 -0.2294
    1TCq1    C414076   4.368   2.315   9.045 -0.3112  0.6419  0.1768
    1TCq1    C514077   4.503   2.325   9.027 -0.2454 -0.0495 -0.1050
    1TCq1    C614078   4.590   2.235   9.090 -0.6100 -0.0391  0.3712
    1TCq1    C714079   4.537   2.135   9.164 -0.0573 -0.1264  0.3034
    1TCq1    C814080   0.012   2.240   9.065 -0.1783 -0.5350 -0.2791
    1TCq1    O414081   0.076   2.149   9.111 -0.8112  0.0940 -0.2124
    1TCq1    C914082   4.280   2.383   8.944  0.3896  0.8118  0.5225
    1TCq1    O514083   4.162   2.349   8.937 -0.1220  0.2372  0.4431
    1TCq1    O614084   4.345   2.427   8.841  0.3594  0.0608  0.1401
    1TCq1    H114085   4.195   2.089   9.279  1.4482  0.5965  0.4696
    1TCq1    H214086   4.207   2.182   9.112  0.1673  0.5707  1.1849
    1TCq1    H314087   4.540   2.399   8.957 -1.4042 -1.5066 -2.2825
    1TCq1    H414088   4.603   2.054   9.192 -3.1090 -1.7855  2.7936
    2MPD1     C14089   0.419   2.402   8.797  0.1395 -0.6017 -0.3305
    2MPD1    C114090   0.328   2.500   8.791 -0.7451  0.1505  0.3958
    2MPD1    C214091   0.206   2.465   8.848 -0.1073  0.2154  0.3596
    2MPD1    C314092   0.176   2.348   8.916 -0.2239 -0.8707  0.1658
    2MPD1    C414093   0.272   2.253   8.914  0.4068 -0.1496 -0.3417
    2MPD1    C514094   0.386   2.281   8.856  0.2218 -0.6899  0.0365
    2MPD1     H14095   0.134   2.546   8.842  0.9703  1.3413  2.6363
    2MPD1    H114096   0.250   2.150   8.941  0.5452  0.2417  1.2769
    2MPD1    H214097   0.516   2.418   8.751 -0.7098 -0.1656 -1.9437
    2MPD1    H314098   0.462   2.206   8.835  0.9927 -0.4568  2.0172
    2MPD1     N14099   0.047   2.330   8.971  0.4024 -0.2714  0.5269
    2MPD1    H514100   4.721   2.419   8.961 -1.2448 -1.0241  1.5899
    2MPD1    N114101   0.349   2.628   8.721  0.0732 -0.3588 -0.0696
    2MPD1    H614102   0.428   2.678   8.759 -0.5995  0.6197  0.0309
    2MPD1    H714103   0.272   2.692   8.742  1.0692 -0.8670  5.0566
    1MPD1     C14104   0.003   1.933  11.732 -0.0608  0.7073 -0.3302
    1MPD1    C114105   0.120   1.860  11.753 -0.3588 -0.6566  0.2905
    1MPD1    C214106   0.228   1.894  11.675  0.1934 -0.3951  0.2685
    1MPD1    C314107   0.228   2.000  11.585  0.8428 -0.6634 -0.6147
    1MPD1    C414108   0.113   2.070  11.571 -0.6047  0.0812 -0.5100
    1MPD1    C514109   0.000   2.027  11.635  0.1900 -1.1311 -0.5657
    1MPD1     H14110   0.319   1.835  11.680  0.2756 -0.1864  1.3640
    1MPD1    H114111   0.109   2.167  11.523 -3.4158 -0.7079 -1.8254
    1MPD1    H214112   4.634   1.909  11.786  0.5387 -3.4492 -1.1673
    1MPD1    H314113   4.627   2.071  11.605  0.0838 -0.9866 -0.0135
    1MPD1     N14114   0.347   2.031  11.511  0.7793  0.3512  0.1852
    1MPD1    H514115   0.431   1.973  11.518  0.1695 -0.4959  0.5424
    1MPD1    N114116   0.116   1.754  11.838  0.3173 -1.0954  0.5182
    1MPD1    H614117   0.042   1.759  11.908  0.0717 -2.1418  0.3305
    1MPD1    H714118   0.210   1.741  11.874  0.9931 -1.7552 -1.4934
    2MPD1     C14119   4.035   1.957  11.351  0.6826  0.2493  0.4350
    2MPD1    C114120   4.014   1.825  11.378 -0.0579  0.2291  0.1655
    2MPD1    C214121   4.057   1.731  11.290  0.0324 -0.2608 -0.3090
    2MPD1    C314122   4.100   1.763  11.164 -0.2116 -0.4773  0.2994
    2MPD1    C414123   4.125   1.895  11.145  0.0722  0.7781  0.9565
    2MPD1    C514124   4.106   1.993  11.240 -0.2006 -0.4787  0.5314
    2MPD1     H14125   4.052   1.628  11.324 -0.2607 -0.3214 -0.5353
    2MPD1    H114126   4.171   1.928  11.052  0.1724  0.8851  1.0449
    2MPD1    H214127   4.011   2.039  11.417 -1.5529 -1.2424  1.4454
    2MPD1    H314128   4.141   2.092  11.212  2.0325 -0.9415  1.7523
    2MPD1     N14129   4.140   1.670  11.061 -0.7976  0.0894  0.0044
    2MPD1    H514130   4.194   1.707  10.984 -1.9439  1.3298 -0.2004
    2MPD1    N114131   3.965   1.783  11.501 -0.5827  0.0307 -0.3164
    2MPD1    H614132   3.932   1.689  11.482 -0.7409 -0.2093  1.1506
    2MPD1    H714133   4.034   1.759  11.571 -1.7794  2.2636  1.6558
    3MPD1     C14134   3.801   0.716  10.877  0.4723  0.0651 -0.0223
    3MPD1    C114135   3.891   0.749  10.980  0.4013  0.3481  0.6522
    3MPD1    C214136   3.962   0.872  10.967 -0.2276  0.3874 -0.6709
    3MPD1    C314137   3.947   0.950  10.859  0.4989  0.1564 -0.5210
    3MPD1    C414138   3.864   0.909  10.755  0.5229  0.1887 -0.3985
    3MPD1    C514139   3.795   0.791  10.764 -0.0143 -0.1693  0.2833
    3MPD1     H14140   4.017   0.913  11.051  0.0122 -0.6195 -0.3335
    3MPD1    H114141   3.851   0.971  10.667 -0.4533 -1.8764 -1.7311
    3MPD1    H214142   3.733   0.631  10.876  1.1572 -0.4763 -0.7746
    3MPD1    H314143   3.715   0.753  10.701  0.4308  1.5162 -1.2813
    3MPD1     N14144   4.013   1.076  10.872  0.0630 -0.0859  0.3914
    3MPD1    H514145   4.071   1.086  10.954  0.3579  1.3320  0.0110
    3MPD1    N114146   3.903   0.679  11.102  0.9367  0.6656  0.4624
    3MPD1    H614147   3.906   0.578  11.089  0.3255  0.5999  0.8593
    3MPD1    H714148   3.992   0.699  11.146  0.8979  1.6673  0.0968
    4MPD2     C14149   0.495   2.439  10.860 -0.1317 -0.6888 -0.8941
    4MPD2    C114150   0.543   2.313  10.880 -0.0056 -0.3285  0.0152
    4MPD2    C214151   0.536   2.223  10.775 -0.3580 -0.1243  0.1711
    4MPD2    C314152   0.450   2.249  10.671 -0.6352  0.3550  0.2687
    4MPD2    C414153   0.375   2.358  10.665  0.8120 -0.4823  0.6090
    4MPD2    C514154   0.403   2.456  10.759 -0.6616 -0.5959 -0.2576
    4MPD2     H14155   0.582   2.126  10.791 -0.5578 -0.1545  0.5663
    4MPD2    H114156   0.313   2.385  10.580 -1.3432 -2.8379  1.4334
    4MPD2    H214157   0.500   2.518  10.934  0.6428 -1.1626 -0.4478
    4MPD2    H314158   0.341   2.544  10.747 -1.4542 -1.2443 -0.8830
    4MPD2     N14159   0.431   2.136  10.585  0.0894  0.1697 -0.5471
    4MPD2    H514160   0.485   2.054  10.611 -0.3577 -0.6027 -2.0506
    4MPD2    N114161   0.601   2.272  11.001 -0.1434 -0.4738 -0.2719
    4MPD2    H714162   0.613   2.171  11.000 -2.1510 -0.7247 -0.8040
    5TMC3    C114163   0.637   2.248  11.223 -0.5358 -0.2453  0.3203
    5TMC3    C214164   0.538   2.260  11.320 -1.0757  0.6396  0.1864
    5TMC3    C314165   0.486   2.141  11.354 -0.2203 -0.5582  0.0596
    5TMC3    C414166   0.686   2.125  11.182 -0.4577  0.0526  0.3345
    5TMC3    C514167   0.642   2.009  11.230  0.4227 -1.1969  0.3979
    5TMC3    C614168   0.534   2.016  11.320  0.6625 -0.2822  0.5762
    5TMC3     C14169   0.610   2.341  11.116 -0.3635  0.7176  0.7377
    5TMC3     O14170   0.581   2.456  11.149  0.1616  0.4057 -0.1390
    5TMC3     H14171   0.487   2.354  11.340 -1.0525 -0.2191  4.1991
    5TMC3    H114172   0.759   2.120  11.103 -0.0477 -1.3632  0.8115
    5TMC3    H214173   0.468   1.931  11.333  0.3707 -0.2606 -0.7962
    5TMC3    C714174   0.629   1.921  11.112  0.5258  0.2346  0.1740
    5TMC3    C814175   0.372   2.143  11.437 -0.0985 -0.3962 -0.1304
    5TMC3    O114176   0.602   1.990  11.010 -0.4572  0.1793  0.2084
    5TMC3    O214177   0.295   2.239  11.420 -0.0539  0.2099 -0.9419
    6TMC3    C114178   4.143   1.464  10.937 -0.0380  0.4502  0.3425
    6TMC3    C214179   4.090   1.338  10.921 -0.1025 -0.9609 -0.4196
    6TMC3    C314180   4.111   1.269  10.804  0.3385  0.1785  0.3653
    6TMC3    C414181   4.237   1.516  10.853  0.1720  0.5016  0.1130
    6TMC3    C514182   4.245   1.451  10.731  0.2572  0.6094  0.5196
    6TMC3    C614183   4.174   1.334  10.699 -0.2983  0.1864  0.0431
    6TMC3     C14184   4.119   1.533  11.065 -0.4971  0.5932 -0.3654
    6TMC3     O14185   4.053   1.469  11.146 -0.3719 -0.0732 -0.2272
    6TMC3     H14186   4.011   1.314  10.991  0.1365  0.8947  0.4907
    6TMC3    H114187   4.303   1.594  10.888 -0.8577  2.2547 -1.8346
    6TMC3    H214188   4.179   1.286  10.602  0.1156  0.7927 -0.2308
    6TMC3    C714189   4.358   1.497  10.653 -0.4143 -0.0882 -0.4501
    6TMC3    C814190   4.013   1.169  10.775 -0.0463 -0.0468 -0.5603
    6TMC3    O114191   4.445   1.561  10.713  0.3850  0.5907  0.1242
    6TMC3    O214192   3.951   1.176  10.670 -0.2745 -0.3229  0.0583
    7MPD2     C14193   0.454   1.505  10.871  0.0940  0.5855 -0.0001
    7MPD2    C114194   0.494   1.630  10.816  0.7650 -0.2442 -0.0256
    7MPD2    C214195   0.531   1.725  10.909 -0.2190  0.2650  0.9701
    7MPD2    C314196   0.538   1.698  11.046  0.2366  0.0907 -0.5238
    7MPD2    C414197   0.510   1.575  11.089 -0.3079  0.6150  0.0479
    7MPD2    C514198   0.469   1.477  11.005 -0.5260  0.1093 -0.1514
    7MPD2     H14199   0.542   1.827  10.875 -2.0678 -0.8943 -3.0221
    7MPD2    H114200   0.501   1.551  11.194  0.3737  1.1448  0.2254
    7MPD2    H214201   0.401   1.435  10.807 -2.4500  1.3962  1.1895
    7MPD2    H314202   0.444   1.377  11.036 -0.0623  0.3414  0.9868
    7MPD2     N14203   0.584   1.795  11.138  0.3911  0.6439  0.1414
    7MPD2    H514204   0.595   1.756  11.231  0.3697 -0.8615 -0.4779
    7MPD2    N114205   0.474   1.661  10.681  0.2353 -0.0508 -0.3013
    7MPD2    H714206   0.436   1.586  10.625 -1.0846  0.7655 -0.5195
    8TMC3    C114207   0.442   1.796  10.491  0.4132 -0.0539 -0.4245
    8TMC3    C214208   0.322   1.722  10.484 -0.6228  0.4825  0.2577
    8TMC3    C314209   0.213   1.793  10.440  0.3113  0.2943 -0.5306
    8TMC3    C414210   0.455   1.927  10.454  0.2609 -0.1806  0.5465
    8TMC3    C514211   0.339   1.989  10.423 -0.5945  0.8364 -0.4626
    8TMC3    C614212   0.216   1.933  10.422 -0.1440 -0.4786 -0.0891
    8TMC3     C14213   0.503   1.783  10.619 -0.3654 -0.4213 -0.6527
    8TMC3     O14214   0.558   1.884  10.650 -0.3750 -0.4870  0.0727
    8TMC3     H14215   0.309   1.619  10.514  1.7325 -0.0743 -0.6905
    8TMC3    H114216   0.552   1.972  10.435  0.3222 -0.4585  0.1912
    8TMC3    H214217   0.131   1.995  10.395  0.1488  0.7420  1.7481
    8TMC3    C714218   0.335   2.124  10.485 -0.3608  0.4016  0.2248
    8TMC3    C814219   0.081   1.734  10.448  0.2624 -0.8457  0.5562
    8TMC3    O114220   0.237   2.199  10.464 -0.0599 -0.0326 -0.0331
    8TMC3    O214221   4.713   1.815  10.453 -0.5491  0.1529  0.4168
    9MPD2     C14222   4.687   1.428  10.285  0.3500 -0.2975 -0.3633
    9MPD2    C114223   4.685   1.531  10.377 -0.1155  0.3548 -0.1036
    9MPD2    C214224   4.570   1.537  10.458  0.5836  0.0112 -0.2624
    9MPD2    C314225   4.457   1.466  10.437  0.1335  0.0133 -0.0127
    9MPD2    C414226   4.458   1.381  10.324 -0.0042  0.4020  0.2836
    9MPD2    C514227   4.566   1.364  10.250 -0.4783  0.1991 -1.5178
    9MPD2     H14228   4.576   1.605  10.543 -0.2180  1.6143 -1.4975
    9MPD2    H114229   4.378   1.309  10.310  0.9337 -0.6594  0.4203
    9MPD2    H214230   0.058   1.403  10.233  0.4034 -0.4064 -0.2165
    9MPD2    H314231   4.568   1.281  10.180 -0.7629 -0.7902 -0.3563
    9MPD2     N14232   4.349   1.460  10.525 -0.6649 -0.1222 -0.2553
    9MPD2    H514233   4.271   1.401  10.497 -1.4501  1.0270 -0.5072
    9MPD2    N114234   0.078   1.604  10.400  0.1500 -0.4276  0.2239
    9MPD2    H714235   0.165   1.566  10.363  0.6751  2.8636 -1.9318
    1MPD1     C14236   4.069   0.850  17.103 -0.0429 -0.1053  0.6838
    1MPD1    C114237   4.101   0.732  17.168  0.2118  0.5150  0.9431
    1MPD1    C214238   4.050   0.615  17.119  0.0004 -0.1437 -0.1152
    1MPD1    C314239   3.959   0.607  17.013  0.0514 -0.5021  0.6638
    1MPD1    C414240   3.923   0.730  16.956 -0.0059 -0.5268 -1.3447
    1MPD1    C514241   3.983   0.851  17.002  0.5623  0.2057  0.5342
    1MPD1     H14242   4.089   0.525  17.166 -1.0066  0.0835  1.1341
    1MPD1    H114243   3.851   0.734  16.875  0.2708 -0.4674 -1.5894
    1MPD1    H214244   4.109   0.946  17.133  1.1477 -0.1397 -0.7817
    1MPD1    H314245   3.939   0.940  16.959  1.6760  0.3740 -0.2343
    1MPD1     N14246   3.916   0.488  16.952  0.1387 -0.0823  0.1910
    1MPD1    H514247   3.851   0.503  16.876  1.4637  2.0360 -0.5285
    1MPD1    N114248   4.213   0.728  17.254 -0.4830 -0.1629  0.5578
    1MPD1    H614249   4.214   0.654  17.324  2.1483 -1.3562 -0.7595
    1MPD1    H714250   4.213   0.820  17.299  0.5787 -0.1280  0.4931
    2MPD1     C14251   4.418   4.440  16.432  0.4565 -0.2385  0.3688
    2MPD1    C114252   4.441   4.577  16.421  1.1748 -0.5200 -0.3554
    2MPD1    C214253   4.336   4.653  16.468  0.6384 -0.8056  0.2339
    2MPD1    C314254   4.232   4.609  16.546 -0.7979  0.2278  0.0375
    2MPD1    C414255   4.214   4.473  16.555  0.0834 -0.1273 -0.4665
    2MPD1    C514256   4.304   4.391  16.491 -0.1208 -0.3245 -0.9772
    2MPD1     H14257   4.336   0.040  16.467 -1.4725 -0.8168 -1.5757
    2MPD1    H114258   4.144   4.426  16.623  0.3479  0.8133  0.4457
    2MPD1    H214259   4.490   4.374  16.384 -0.7765 -2.1229  1.1165
    2MPD1    H314260   4.301   4.285  16.513  1.5837  0.2375  1.8921
    2MPD1     N14261   4.151   4.708  16.604 -0.5567  0.0262  0.2301
    2MPD1    H514262   4.165   0.085  16.585  0.0640  0.1696  1.4341
    2MPD1    N114263   4.538   4.631  16.345  0.8366  0.2503 -0.9207
    2MPD1    H614264   4.578   4.715  16.387  1.2057 -0.1240 -0.5224
    2MPD1    H714265   4.617   4.573  16.318  1.4446  0.2205  0.9188
    3TCq2    C114266   4.040   4.684  16.681 -0.1783 -0.1938 -0.1901
    3TCq2    O214267   3.989   4.579  16.720  0.3726  0.0064  0.0642
    3TCq2    C214268   3.967   0.084  16.713 -0.3925 -0.0959 -0.5439
    3TCq2    C314269   3.839   0.082  16.682  1.1156 -0.2041 -0.8234
    3TCq2    C414270   3.761   0.182  16.738  0.4022  0.2593  0.3327
    3TCq2    C514271   3.809   0.260  16.839 -0.3666  0.2152  0.5774
    3TCq2    C614272   3.939   0.260  16.867  0.1355 -0.2201  0.1388
    3TCq2    C714273   4.025   0.172  16.796 -0.6090 -0.1147  0.3529
    3TCq2    C814274   3.985   0.364  16.957  0.2464  0.3802  0.7369
    3TCq2    O414275   4.089   0.337  17.018 -0.7930 -0.5387 -0.0486
    3TCq2    C914276   3.628   0.191  16.700 -0.7005 -0.4337  0.4146
    3TCq2    O514277   3.591   0.107  16.612 -0.0870  0.5388 -0.1316
    3TCq2    O614278   3.554   0.274  16.763  0.3681 -0.2469  0.1456
    3TCq2    H214279   3.794   0.016  16.609 -2.2551  0.5452  0.5839
    3TCq2    H314280   3.745   0.328  16.894 -0.2594 -0.4427  1.5210
    3TCq2    H414281   4.129   0.168  16.824 -0.2753 -0.0899 -0.8992
    1TCq1    O114282   1.866   3.574  13.299  0.5379  0.1591  0.4985
    1TCq1    C114283   1.989   3.569  13.258 -0.2278  0.1459  0.1958
    1TCq1    O214284   2.077   3.502  13.307  0.0227  0.7130  0.2615
    1TCq1    C214285   2.006   3.653  13.140 -0.3652 -0.5536 -0.1543
    1TCq1    C314286   1.896   3.669  13.053 -0.2650 -0.0027 -0.0168
    1TCq1    C414287   1.916   3.745  12.934  0.6821  1.4206  0.3178
    1TCq1    C514288   2.040   3.797  12.904  0.2268 -0.4736 -0.6591
    1TCq1    C614289   2.139   3.799  13.001 -0.8268  0.0209  0.0933
    1TCq1    C714290   2.127   3.719  13.115  0.3059 -0.1522 -0.1036
    1TCq1    C814291   2.269   3.856  12.962  0.2898 -0.1980  0.1522
    1TCq1    O414292   2.290   3.870  12.840  0.6347 -0.1893  0.2505
    1TCq1    C914293   1.804   3.768  12.839 -0.3500  0.8097 -0.3202
    1TCq1    O514294   1.694   3.708  12.866 -0.1600 -0.5045 -0.0795
    1TCq1    O614295   1.843   3.796  12.722  0.4172  0.2535 -0.3040
    1TCq1    H114296   1.816   3.645  13.254 -1.6385 -1.6920 -0.0146
    1TCq1    H214297   1.801   3.620  13.072 -1.1015  0.9218 -1.8624
    1TCq1    H314298   2.049   3.861  12.817 -0.7769 -1.1282 -1.2522
    1TCq1    H414299   2.203   3.698  13.189  0.2033 -1.3759 -0.3383
    2MPD2     C14300   2.564   3.890  12.976 -0.5561  0.0410  0.0993
    2MPD2    C114301   2.482   3.889  13.088 -0.2750  0.4926  0.1823
    2MPD2    C214302   2.531   3.923  13.213 -0.4989 -0.8228  0.5930
    2MPD2    C314303   2.665   3.958  13.231  0.2646 -0.5437  0.9298
    2MPD2    C414304   2.738   3.959  13.119  0.0013  0.3964 -0.8602
    2MPD2    C514305   2.696   3.929  12.992 -0.0952  0.2607 -0.4421
    2MPD2     H14306   2.464   3.928  13.297 -2.7877  1.1486 -1.3667
    2MPD2    H114307   2.833   4.012  13.118 -0.4306  1.1975  1.8525
    2MPD2    H214308   2.531   3.859  12.877 -0.7867 -0.9799  0.4882
    2MPD2    H314309   2.763   3.934  12.907 -0.7681 -0.6546 -1.0217
    2MPD2     N14310   2.717   3.992  13.358  0.7113  0.1726 -0.2238
    2MPD2    H514311   2.648   3.980  13.432  1.3723  1.3604  0.5838
    2MPD2    N114312   2.344   3.867  13.076 -0.2921  0.0848 -0.5428
    2MPD2    H714313   2.299   3.870  13.167 -2.9902 -1.8579 -1.8180
    3TCq1    O114314   3.219   3.812  13.640 -0.3413  0.4467  0.1663
    3TCq1    C114315   3.103   3.800  13.705  1.2260 -0.9267 -0.1365
    3TCq1    O214316   3.093   3.739  13.807  0.3221 -0.5791 -0.6207
    3TCq1    C214317   3.035   3.920  13.682  0.5811 -0.4501  0.0453
    3TCq1    C314318   2.965   3.972  13.790 -0.3454 -0.1630  0.6007
    3TCq1    C414319   2.850   4.032  13.759  1.2152 -0.3230 -0.4164
    3TCq1    C514320   2.809   4.058  13.631 -0.5422 -0.1240  0.3457
    3TCq1    C614321   2.889   4.000  13.533 -0.6308  0.7668 -1.1138
    3TCq1    C714322   3.003   3.933  13.552  0.3801 -0.8273  0.2415
    3TCq1    C814323   2.849   4.007  13.390 -0.2028  0.0284  0.3119
    3TCq1    O414324   2.944   4.011  13.313  0.0321 -0.2510 -0.5797
    3TCq1    C914325   2.773   4.099  13.864 -0.8222 -0.3431 -0.2561
    3TCq1    O514326   2.833   4.102  13.976  0.0046  0.1501  0.6766
    3TCq1    O614327   2.695   4.191  13.831 -0.3984  0.3053  0.2825
    3TCq1    H114328   3.213   3.885  13.574 -2.6632  0.1594  0.0396
    3TCq1    H214329   2.973   3.927  13.889  0.7922 -0.2047  0.4833
    3TCq1    H314330   2.720   4.117  13.615 -1.1097 -0.6637  1.6033
    3TCq1    H414331   3.040   3.867  13.475  0.9571 -0.9644  0.6357
    1MPD2     C14332   1.827   4.621  14.670 -0.4822 -0.1600 -0.0822
    1MPD2    C114333   1.736   4.541  14.606 -0.3787  0.6780  0.7129
    1MPD2    C214334   1.707   4.412  14.657 -0.5524 -0.2443 -0.3971
    1MPD2    C314335   1.760   4.369  14.780  0.2815 -0.4213 -0.8247
    1MPD2    C414336   1.854   4.449  14.847 -0.7171  0.6997  0.4043
    1MPD2    C514337   1.887   4.568  14.779 -0.5107 -0.5044  0.0716
    1MPD2     H14338   1.641   4.350  14.598  0.3324  0.0504 -1.6959
    1MPD2    H114339   1.902   4.422  14.941 -1.6963  1.1898  1.0488
    1MPD2    H214340   1.850   4.721  14.634  0.4006 -0.1035  0.6173
    1MPD2    H314341   1.973   4.623  14.815 -1.0066 -0.0897  0.6177
    1MPD2     N14342   1.714   4.252  14.844  0.1697 -0.2740 -0.1625
    1MPD2    H514343   1.635   4.208  14.798 -0.6971  1.6458 -0.4945
    1MPD2    N114344   1.660   4.603  14.496 -1.0845 -0.5651 -0.2752
    1MPD2    H714345   1.683   4.698  14.470  0.5052 -0.0425  2.9717
    2TMC3    C114346   1.476   4.615  14.342  0.6289 -0.7773  0.1774
    2TMC3    C214347   1.389   4.517  14.293  0.1784  0.1866  0.2484
    2TMC3    C314348   1.255   4.546  14.268 -0.1050 -0.2189 -0.1444
    2TMC3    C414349   1.430   0.015  14.372 -0.7043  0.1115  0.4575
    2TMC3    C514350   1.296   0.046  14.338 -0.6663 -1.1259  0.3774
    2TMC3    C614351   1.210   4.678  14.286  0.4104 -0.0715 -0.0639
    2TMC3     C14352   1.552   4.540  14.438 -0.1992 -0.3948 -0.6237
    2TMC3     O14353   1.485   4.450  14.482  0.1264  0.3620 -0.0960
    2TMC3     H14354   1.431   4.422  14.262 -3.1229 -1.3823  0.5877
    2TMC3    H114355   1.498   0.085  14.421 -0.6556 -1.5759  2.7980
    2TMC3    H214356   1.106   4.706  14.274  0.4191 -0.5704 -1.2794
    2TMC3    C714357   1.262   0.186  14.349 -0.2526 -0.5621 -0.5262
    2TMC3    C814358   1.158   4.443  14.308 -0.2672  0.1062 -0.8070
    2TMC3    O114359   1.178   0.224  14.270  0.2721 -0.0275 -0.2861
    2TMC3    O214360   1.040   4.465  14.285  0.0136  0.0610 -0.3572
    3TCq1    O114361   1.978   0.982  15.020 -0.1579 -0.4304  0.0134
    3TCq1    C114362   1.840   0.972  15.022 -0.4555  0.3408 -0.6237
    3TCq1    O214363   1.758   1.049  15.066  0.7692 -0.2042 -0.0597
    3TCq1    C214364   1.804   0.855  14.946 -0.3965 -0.0208  0.1248
    3TCq1    C314365   1.892   0.748  14.944  0.4207 -0.6136 -0.2205
    3TCq1    C414366   1.861   0.640  14.869  0.2376  0.0913  0.1894
    3TCq1    C514367   1.745   0.639  14.797  0.1845  1.0125  0.0270
    3TCq1    C614368   1.654   0.741  14.812  0.3471  0.0710  0.6672
    3TCq1    C714369   1.679   0.851  14.892 -0.5432 -0.9415 -0.7935
    3TCq1    C814370   1.538   0.751  14.722 -0.6131 -0.2580  0.5109
    3TCq1    O414371   1.473   0.855  14.703 -0.2493  0.3157 -0.2752
    3TCq1    C914372   1.963   0.535  14.830 -0.2364 -0.2213 -0.4930
    3TCq1    O514373   1.937   0.444  14.750  0.0111 -0.7294 -0.1677
    3TCq1    O614374   2.084   0.580  14.840  0.2739  0.2871  0.2931
    3TCq1    H114375   2.023   0.915  14.965 -0.1550 -0.5289  0.1356
    3TCq1    H214376   1.990   0.747  14.992 -1.2673 -0.3731  3.2132
    3TCq1    H314377   1.725   0.553  14.733 -0.3528 -1.5566  3.6834
    3TCq1    H414378   1.622   0.943  14.888  1.2278  0.2746  1.6419
    4MPD2     C14379   1.341   0.671  14.510  0.6967 -0.5575 -0.2467
    4MPD2    C114380   1.420   0.579  14.586 -0.0886  0.0247  0.3764
    4MPD2    C214381   1.422   0.442  14.562 -0.2374 -0.3632  0.0699
    4MPD2    C314382   1.340   0.399  14.461  0.0743  0.6119  0.4607
    4MPD2    C414383   1.269   0.484  14.384  0.6636 -1.1922  0.5680
    4MPD2    C514384   1.260   0.616  14.413 -0.6493 -0.1290 -0.4133
    4MPD2     H14385   1.481   0.378  14.627 -0.0363  1.2865  1.4986
    4MPD2    H114386   1.199   0.450  14.309 -0.7916  2.2236  0.3657
    4MPD2    H214387   1.318   0.775  14.532 -1.8425 -1.5850  1.8750
    4MPD2    H314388   1.192   0.682  14.360 -3.2524 -1.4698  1.2417
    4MPD2     N14389   1.332   0.256  14.446 -0.1157 -0.1875 -0.4631
    4MPD2    H514390   1.382   0.203  14.517  0.9763  0.0314 -1.0633
    4MPD2    N114391   1.509   0.620  14.686 -0.0576 -0.1014 -0.2827
    4MPD2    H714392   1.556   0.546  14.737  1.6259  2.2942  1.6559
    5TMC2    C114393   1.488   4.000  14.868  0.1255  0.2575  0.5855
    5TMC2    C214394   1.402   4.024  14.969 -0.1265  0.0814 -0.5188
    5TMC2    C314395   1.451   4.085  15.079 -0.2435  0.8066 -0.8719
    5TMC2    C414396   1.620   4.022  14.876  0.2915  0.1792 -0.2033
    5TMC2    C514397   1.668   4.081  14.984  0.4410 -1.0902  0.2460
    5TMC2    C614398   1.584   4.105  15.090 -0.0902 -0.4143  0.5821
    5TMC2     C14399   1.438   4.036  14.735 -0.0137 -0.7969  0.4429
    5TMC2     O14400   1.511   4.107  14.669  0.4125  0.1982 -0.2360
    5TMC2     H14401   1.297   4.013  14.945 -0.2774  1.4096 -0.4859
    5TMC2    H114402   1.683   4.015  14.788 -1.8585  0.0650 -1.7244
    5TMC2    H214403   1.623   4.148  15.182  1.9419 -0.5561 -0.2008
    5TMC2    C714404   1.757   4.197  14.958 -0.2422 -0.2990 -0.9812
    5TMC2    C814405   1.361   4.138  15.172 -0.0074 -0.3427 -0.0107
    5TMC2    O114406   1.834   4.225  15.050  0.3236 -0.2093 -0.2546
    5TMC2    O214407   1.241   4.147  15.143  0.7486  0.7435  0.2735
    5TMC2    O514408   1.398   4.099  15.299  0.4956  0.0485  0.4973
    5TMC2    H514409   1.460   4.024  15.287 -0.0613 -0.4743  0.8545
    6MPD2     C14410   1.057   4.204  14.440 -0.1264  0.3787  0.4111
    6MPD2    C114411   1.181   4.259  14.469 -0.0291  0.3091 -0.3012
    6MPD2    C214412   1.260   4.197  14.561  0.9111  0.5700  0.1127
    6MPD2    C314413   1.215   4.084  14.635 -0.5587 -0.1915  0.3662
    6MPD2    C414414   1.091   4.032  14.595  0.1447  0.1776  0.5278
    6MPD2    C514415   1.017   4.090  14.493 -0.0153 -0.7955 -0.1000
    6MPD2     H14416   1.353   4.248  14.584  1.4064  0.3737 -1.4874
    6MPD2    H114417   1.060   3.937  14.636  1.0996 -0.6530 -0.6468
    6MPD2    H214418   0.999   4.241  14.356  0.6320 -0.0371 -0.2887
    6MPD2    H314419   0.925   4.042  14.463 -0.5323  0.4681 -0.5489
    6MPD2     N14420   1.301   4.012  14.723  0.1658 -0.6854  0.5604
    6MPD2    H514421   1.260   3.934  14.773 -0.3125 -0.5610  0.3534
    6MPD2    N114422   1.224   4.370  14.402  0.0587  0.6246 -0.1421
    6MPD2    H714423   1.320   4.396  14.422  0.7214 -1.3969 -0.6989
  945NH3     N114424   1.452   3.945  17.324  0.6784  0.0571  0.6226
  945NH3     H214425   1.454   3.947  17.223  0.7950  0.4304  0.6300
  945NH3     H314426   1.353   3.927  17.334  0.7784 -1.1719 -0.5821
  945NH3     H414427   1.467   4.044  17.342  0.1161 -0.2750  2.9302
  946SOD     NA14428   0.536   3.427  15.154 -0.1839  0.3224  0.3160
  947SOD     NA14429   3.953   4.676  16.097  0.3027 -0.0511  0.2258
  948SOD     NA14430   3.943   1.165   5.966 -0.1968  0.4655  0.0566
  949SOD     NA14431   2.298   3.869  10.514 -0.5037 -0.3960  0.6057
  950SOD     NA14432   3.245   2.305  17.643  0.1688 -0.0613 -0.2310
  951SOD     NA14433   2.754   2.181  16.116  0.4952 -0.4067 -0.4712
  952SOD     NA14434   0.043   0.015  12.736 -0.2576  0.7023 -0.1367
  953SOD     NA14435   2.736   2.802   9.807 -0.0232 -0.1016 -0.2290
  954SOD     NA14436   1.935   3.419  10.541 -0.4272  0.2541 -0.4458
  955SOD     NA14437   3.786   3.064  14.325 -0.1065 -0.0906 -0.0030
  956SOD     NA14438   0.238   1.564   0.713  0.3058 -0.0873  0.2870
  957SOD     NA14439   3.234   3.361  12.515 -0.2135  0.0340  0.5977
  958SOD     NA14440   3.291   4.677  11.229 -0.0754 -0.0433  0.3309
  959SOD     NA14441   4.271   2.877  12.503  0.2164 -0.2492  0.1334
  960SOD     NA14442   4.355   1.643  11.732 -0.3236 -0.3231 -0.1614
  961SOD     NA14443   1.257   3.349   1.440  0.2061 -0.0587  0.3248
  962SOD     NA14444   0.824   4.472  14.228  0.2655  0.2811 -0.1549
  963SOD     NA14445   2.756   3.921  11.904 -0.4124 -0.5420  0.0954
  964SOD     NA14446   2.175   3.588  10.434 -0.2826  0.1404 -0.2403
  965SOD     NA14447   0.725   2.600   8.407  0.4185 -0.2153  0.3294
  966SOD     NA14448   3.234   0.440  14.379  0.1850  0.1661  0.0050
  967SOD     NA14449   2.380   4.603   9.801 -0.2194  0.6514  0.1367
  968SOD     NA14450   3.957   4.235   8.618  0.0108  0.6793  0.2055
  969SOD     NA14451   1.329   0.399  10.911  0.0197 -0.0484  0.5260
  970SOD     NA14452   2.115   3.300  10.339 -0.2481  0.2186 -0.3806
  971SOD     NA14453   2.538   1.290  11.321  0.1225 -0.0682  0.1481
  972SOD     NA14454   3.407   3.839  12.056 -0.1252 -0.1764  0.0024
  973SOD     NA14455   2.752   2.021   2.331 -0.0321 -0.1081  0.3874
  974SOD     NA14456   2.806   4.417  12.685 -0.0716  0.0281  0.0726
  975SOD     NA14457   4.543   3.382   2.702  0.1998  0.2888 -0.0121
  976SOD     NA14458   3.671   4.295  15.015  0.1214  0.2964  0.0089
  977SOD     NA14459   4.005   2.556  12.369  0.3276  0.1410 -0.1871
  978SOD     NA14460   3.330   4.059  14.788  0.0325  0.2640  0.9123
  979SOD     NA14461   0.560   0.866   2.591 -0.7117 -0.2190 -0.0570
  980SOD     NA14462   3.294   0.596  13.420  0.3473 -0.0213 -0.0638
  981SOD     NA14463   3.273   4.111  11.878 -0.1554 -0.1098  0.5130
  982SOD     NA14464   2.719   1.789  10.426 -0.3014  0.4471  0.0587
  983SOD     NA14465   1.989   3.652  10.994 -0.7331 -0.2427 -0.1850
  984SOD     NA14466   3.959   3.375   1.393  0.0797 -0.0494  0.2053
  985SOD     NA14467   0.703   3.184  11.416  0.0306  0.4550  0.2797
  986SOD     NA14468   1.525   1.254   9.763 -0.3107  0.6619 -0.4763
  987SOD     NA14469   3.644   3.944  14.799 -0.0043 -0.3181  0.0084
  988SOD     NA14470   4.462   0.016   0.815  0.0828 -0.0855 -0.4923
  989SOD     NA14471   2.963   0.879  15.912  0.0428 -0.1828 -0.5540
  990SOD     NA14472   1.727   4.333   1.005 -0.5329 -0.3341 -0.0293
  991SOD     NA14473   2.156   3.161   8.372  0.2573  0.6144  0.1046
  992SOD     NA14474   2.143   0.466  14.666 -0.2547  0.0359  0.1252
  993SOD     NA14475   3.343   4.408  14.927  0.2179 -0.1432 -0.6885
  994SOD     NA14476   1.653   3.033   2.565  0.0484  0.2894 -0.0969
  995SOD     NA14477   0.220   0.570  15.727 -0.7401  0.1090 -0.5108
  996SOD     NA14478   3.800   0.413   6.208  0.7270  0.2514  0.1550
  997SOD     NA14479   2.135   2.613   2.664 -0.2955  0.1136 -0.1621
  998SOD     NA14480   0.337   4.609   7.644  0.3599 -0.2878 -0.4271
  999SOD     NA14481   3.974   4.063  16.819  0.0870 -0.0079 -0.3516
 1000SOD     NA14482   4.497   2.462  15.161  0.1006 -0.2572  0.1671
 1001SOD     NA14483   3.000   4.443   2.461 -0.0362  0.3984  0.5454
 1002SOD     NA14484   2.169   4.253  14.464  0.3098  0.1678  0.1603
 1003SOD     NA14485   1.073   1.227  10.766  0.6674 -0.1900 -0.0652
 1004SOD     NA14486   2.075   3.044  10.091  0.5053 -0.0167  0.0466
 1005SOD     NA14487   1.535   3.764  12.993 -0.0541  0.1081 -0.3199
 1006SOD     NA14488   4.151   3.267   1.157  0.2977 -0.1208  0.1935
 1007SOD     NA14489   2.946   4.343  11.717  0.8985  0.0917  0.0261
 1008SOD     NA14490   4.200   1.483  13.884  0.5184  0.0974 -0.3444
 1009SOD     NA14491   2.717   1.976  17.419  0.2008 -0.2128  0.3833
 1010SOD     NA14492   3.538   2.254  14.513  0.6569  0.1398 -0.3453
 1011SOD     NA14493   1.470   0.242   4.928  0.2710 -0.2119 -0.6843
 1012SOL     OW14494   0.092   3.300   4.133  0.5255  0.0703 -0.2894
 1012SOL    HW114495   0.062   3.378   4.087  1.4319  0.6518  0.1021
 1012SOL    HW214496   0.166   3.328   4.187 -0.8206  0.5793  1.2527
 1013SOL     OW14497   1.201   3.742   7.541 -0.4988 -0.1945 -0.2088
 1013SOL    HW114498   1.152   3.672   7.584 -0.7266  1.7598  2.6849
 1013SOL    HW214499   1.192   3.712   7.450  1.7720  1.3705 -0.9230
 1014SOL     OW14500   1.471   0.655   2.697  0.5413 -0.5032 -0.4406
 1014SOL    HW114501   1.547   0.600   2.719  0.4448 -0.3669  0.2476
 1014SOL    HW214502   1.409   0.584   2.678  1.5810 -1.3132 -0.7797
 1015SOL     OW14503   2.171   2.672  15.991  0.0017 -0.3581  0.5939
 1015SOL    HW114504   2.123   2.608  15.937 -0.1006  0.4380 -0.2615
 1015SOL    HW214505   2.117   2.669  16.070 -1.1404 -0.5923 -0.1914
 1016SOL     OW14506   1.307   2.355  16.703 -0.6036  0.5960  0.2934
 1016SOL    HW114507   1.332   2.263  16.716  2.5098  1.4243  0.3024
 1016SOL    HW214508   1.391   2.396  16.680 -0.1851 -0.6968 -0.5446
 1017SOL     OW14509   1.181   1.879   8.715  0.0909 -0.2155 -0.0403
 1017SOL    HW114510   1.213   1.790   8.704  2.1469  0.1852  2.8315
 1017SOL    HW214511   1.267   1.919   8.702  0.3493 -1.7759 -3.2794
 1018SOL     OW14512   4.242   0.378   2.826 -0.4513 -0.0604 -0.0060
 1018SOL    HW114513   4.190   0.443   2.779 -0.3369  1.1244  1.4916
 1018SOL    HW214514   4.255   0.413   2.914  0.3971  0.3230 -0.2841
 1019SOL     OW14515   4.194   3.997  10.689  0.0266  0.4830  0.3419
 1019SOL    HW114516   4.175   4.090  10.705  0.9969  0.2730  2.7882
 1019SOL    HW214517   4.274   4.000  10.637 -0.3094  1.0302 -0.1519
 1020SOL     OW14518   2.673   2.960  16.080 -0.6083 -0.4303 -0.2004
 1020SOL    HW114519   2.704   3.043  16.042  0.8050 -0.0976  1.6991
 1020SOL    HW214520   2.734   2.952  16.153  0.5127 -0.7843 -1.1783
 1021SOL     OW14521   4.170   0.319  16.236 -0.1020  0.2022  0.2511
 1021SOL    HW114522   4.136   0.404  16.208  0.7442  1.1751  2.1460
 1021SOL    HW214523   4.236   0.303  16.168  2.4455  0.8022  2.5969
 1022SOL     OW14524   2.155   0.050   1.850 -0.3141  0.3498  0.1342
 1022SOL    HW114525   2.157   0.000   1.768  2.0828  1.1936 -0.3278
 1022SOL    HW214526   2.235   0.010   1.884 -0.2825 -0.7685 -1.2794
 1023SOL     OW14527   3.967   4.533  14.102  0.1921 -0.2247  0.7443
 1023SOL    HW114528   4.059   4.529  14.075  0.5069 -0.8586  1.9161
 1023SOL    HW214529   3.939   4.614  14.059  0.2090 -0.3517  0.4933
 1024SOL     OW14530   0.196   2.483   6.187  0.0158  0.5311 -0.2371
 1024SOL    HW114531   0.136   2.464   6.116 -2.5747 -1.0704  2.3759
 1024SOL    HW214532   0.189   2.398   6.230 -0.7583  0.1783 -1.0805
 1025SOL     OW14533   4.526   3.808  12.943 -0.4360 -0.0301  0.7052
 1025SOL    HW114534   4.585   3.866  12.992  1.2235 -0.6177 -0.6195
 1025SOL    HW214535   4.575   3.727  12.933  2.8698  2.1056 -0.4251
 1026SOL     OW14536   0.192   1.468  11.957  0.2551 -0.5213 -0.2695
 1026SOL    HW114537   0.113   1.441  11.910  0.0312 -0.0839 -0.1444
 1026SOL    HW214538   0.168   1.483  12.049  0.5495 -0.8229 -0.1431
 1027SOL     OW14539   1.450   0.113   8.927 -0.2378  0.2985  0.1482
 1027SOL    HW114540   1.399   0.175   8.876 -3.5226 -0.2887  2.7017
 1027SOL    HW214541   1.378   0.090   8.986 -0.3240 -3.4398 -1.3985
 1028SOL     OW14542   2.011   0.553   6.079 -0.2423  0.1230 -0.1672
 1028SOL    HW114543   2.032   0.540   5.987 -0.9921 -0.8111 -0.2122
 1028SOL    HW214544   1.920   0.527   6.069 -0.2400  0.4158 -0.9094
 1029SOL     OW14545   4.425   1.898   5.681  0.1682  0.3333  0.3830
 1029SOL    HW114546   4.382   1.977   5.648 -2.3032 -1.3930 -0.5028
 1029SOL    HW214547   4.495   1.947   5.725  0.1149  1.8345 -1.1970
 1030SOL     OW14548   4.231   3.661   4.487  0.6552  0.7410  0.1374
 1030SOL    HW114549   4.282   3.596   4.438  2.0880  2.1438 -0.2174
 1030SOL    HW214550   4.279   3.742   4.470 -0.2277  1.2745  0.1936
 1031SOL     OW14551   0.980   1.349   3.115 -0.1460  0.0587  0.0985
 1031SOL    HW114552   1.011   1.340   3.025 -0.1971  1.6296 -0.0718
 1031SOL    HW214553   1.062   1.370   3.161  0.1167 -0.6057 -0.0584
 1032SOL     OW14554   3.414   1.728   0.062  0.1397 -0.1683  0.2472
 1032SOL    HW114555   3.346   1.672   0.025 -1.2789  1.8484 -0.1381
 1032SOL    HW214556   3.474   1.664   0.100  0.4169 -0.1437 -0.1465
 1033SOL     OW14557   2.606   0.422  16.915 -0.4462 -0.4486  0.3700
 1033SOL    HW114558   2.629   0.362  16.986  1.4474  0.3586  0.4351
 1033SOL    HW214559   2.558   0.497  16.949  1.3457  0.8058  0.0916
 1034SOL     OW14560   1.529   2.018   5.352 -0.2209  0.6812 -1.3217
 1034SOL    HW114561   1.612   1.982   5.320  1.8885  3.9766  0.3633
 1034SOL    HW214562   1.543   2.109   5.327 -0.6837  0.7746 -1.2296
 1035SOL     OW14563   1.108   2.888   8.826 -0.5343 -0.5705 -0.4946
 1035SOL    HW114564   1.176   2.956   8.825  0.1345 -1.2369 -0.2175
 1035SOL    HW214565   1.077   2.885   8.916 -0.2920  0.2716 -0.3863
 1036SOL     OW14566   1.138   1.759  12.637 -0.7333  0.6904  0.0244
 1036SOL    HW114567   1.196   1.832  12.617  0.1532 -0.2894 -0.9572
 1036SOL    HW214568   1.183   1.728  12.716 -0.4788 -1.8124 -1.1250
 1037SOL     OW14569   0.155   3.250   8.751  0.5210  0.3886 -0.4909
 1037SOL    HW114570   0.102   3.319   8.789  0.2046 -0.5654  0.8066
 1037SOL    HW214571   0.085   3.185   8.738  1.0549 -0.4432  0.8282
 1038SOL     OW14572   0.281   4.343  13.173 -0.2014  0.7864  0.6387
 1038SOL    HW114573   0.234   4.352  13.256 -0.9622  0.1454  0.2840
 1038SOL    HW214574   0.291   4.435  13.147 -1.0116  0.6237 -0.2683
 1039SOL     OW14575   0.114   2.671   2.480  0.8599 -0.0554 -0.2333
 1039SOL    HW114576   0.106   2.590   2.428  0.3685 -0.7171  0.8797
 1039SOL    HW214577   0.034   2.658   2.530  1.2892  0.4243  0.5743
 1040SOL     OW14578   2.766   2.585   5.872 -0.1959  0.3560  0.7597
 1040SOL    HW114579   2.711   2.662   5.885  0.5999  0.6803  2.2139
 1040SOL    HW214580   2.750   2.534   5.951  0.5134  2.2542  2.1098
 1041SOL     OW14581   0.175   1.200  17.368 -0.0443 -0.3577  0.1338
 1041SOL    HW114582   0.152   1.108  17.364  1.7715 -0.7344 -1.9328
 1041SOL    HW214583   0.151   1.229  17.456 -2.0079  0.3189 -0.6296
 1042SOL     OW14584   0.326   4.350   6.946 -0.2060 -0.2290  0.9244
 1042SOL    HW114585   0.396   4.286   6.931  1.3706  1.9707 -1.1677
 1042SOL    HW214586   0.258   4.331   6.881  0.2109  0.7320  0.2027
 1043SOL     OW14587   0.512   0.150   8.128 -0.4415  0.0346  0.4776
 1043SOL    HW114588   0.607   0.157   8.121 -0.4997  1.9642  1.4657
 1043SOL    HW214589   0.500   0.198   8.210  2.7677 -1.1653  1.6336
 1044SOL     OW14590   4.064   4.502  15.944  0.7875  0.1839  0.1431
 1044SOL    HW114591   4.025   4.436  16.001 -2.9616  1.5540 -0.8456
 1044SOL    HW214592   4.118   4.448  15.887  0.0228  0.9233 -1.2725
 1045SOL     OW14593   2.325   2.180   5.864  0.2848  0.0331 -0.0873
 1045SOL    HW114594   2.387   2.241   5.904  0.0085  0.7399 -0.7443
 1045SOL    HW214595   2.295   2.146   5.948 -1.2806 -0.8468 -0.9906
 1046SOL     OW14596   0.853   3.437   3.681  0.1219  0.0188 -0.1023
 1046SOL    HW114597   0.916   3.493   3.726  0.0246  0.5141 -0.5847
 1046SOL    HW214598   0.842   3.365   3.744 -1.0979  0.5522  0.2845
 1047SOL     OW14599   4.367   2.295  15.262  0.0122  0.4219 -0.0651
 1047SOL    HW114600   4.388   2.250  15.180  0.0350 -0.4828  0.4348
 1047SOL    HW214601   4.370   2.212  15.311  0.0437 -0.5449 -1.7116
 1048SOL     OW14602   2.653   3.507   7.168  0.1458 -0.3209 -0.1547
 1048SOL    HW114603   2.569   3.471   7.141 -0.4440  1.2083 -0.3600
 1048SOL    HW214604   2.636   3.566   7.242  0.2672 -2.9571  1.9863
 1049SOL     OW14605   4.203   4.285   3.916 -0.2344  1.0903  0.1273
 1049SOL    HW114606   4.141   4.261   3.847  1.8417 -1.5660 -0.8521
 1049SOL    HW214607   4.272   4.225   3.887 -1.7706 -0.1434 -0.9945
 1050SOL     OW14608   4.161   1.020   7.289  0.2493  0.6811  0.7538
 1050SOL    HW114609   4.159   1.067   7.373 -0.6567  0.4666  0.8501
 1050SOL    HW214610   4.123   0.936   7.315  0.3436 -0.1324 -1.8048
 1051SOL     OW14611   2.858   0.456   0.438 -0.2090 -0.1416  0.7960
 1051SOL    HW114612   2.851   0.552   0.438  1.4588 -0.0223 -0.0125
 1051SOL    HW214613   2.857   0.443   0.533  1.7251  1.2108  0.9939
 1052SOL     OW14614   0.292   4.632   0.470 -0.2991 -0.1236 -0.5059
 1052SOL    HW114615   0.382   4.623   0.500 -1.0468 -0.2690  1.6714
 1052SOL    HW214616   0.236   4.623   0.547 -0.0897 -0.4436 -0.3949
 1053SOL     OW14617   0.192   1.637   5.741 -0.2050  0.5391  0.5294
 1053SOL    HW114618   0.146   1.647   5.824 -0.4367  0.5851  0.3965
 1053SOL    HW214619   0.137   1.578   5.690 -0.7364  1.5130 -0.0326
 1054SOL     OW14620   3.888   0.499  10.224  0.5567  0.0958  0.1332
 1054SOL    HW114621   3.907   0.513  10.317  2.0141 -1.8619  0.1342
 1054SOL    HW214622   3.810   0.443  10.230 -1.0956  2.4853  0.6815
 1055SOL     OW14623   3.638   1.292  17.324 -0.3829 -0.5543 -0.1068
 1055SOL    HW114624   3.671   1.381  17.308 -3.3358  0.3126 -1.5454
 1055SOL    HW214625   3.630   1.290  17.419  0.7339 -0.9455 -0.0301
 1056SOL     OW14626   4.137   3.114  15.763  0.9585 -0.2592  0.2148
 1056SOL    HW114627   4.204   3.047  15.750  0.4631 -0.9644  1.2500
 1056SOL    HW214628   4.166   3.171  15.693  1.0048 -1.1894 -0.5325
 1057SOL     OW14629   4.396   0.698   7.169  0.1481 -0.2573 -0.4437
 1057SOL    HW114630   4.471   0.652   7.131 -0.3977 -1.7766  0.3555
 1057SOL    HW214631   4.341   0.620   7.167  0.0263 -0.2480  2.7209
 1058SOL     OW14632   3.773   2.389   9.281 -0.3348 -0.0636  0.5185
 1058SOL    HW114633   3.699   2.361   9.227 -0.2077 -1.0989  0.8734
 1058SOL    HW214634   3.848   2.378   9.222 -0.1550 -2.5660  1.1850
 1059SOL     OW14635   2.527   0.317   8.867 -0.4871 -0.6945 -0.0160
 1059SOL    HW114636   2.516   0.293   8.959 -0.3205 -1.4928 -0.2053
 1059SOL    HW214637   2.438   0.312   8.834 -1.1069 -2.0359  1.8852
 1060SOL     OW14638   3.020   1.007   6.015 -0.1351 -0.2641  0.0989
 1060SOL    HW114639   3.094   0.978   5.962 -0.7009 -2.1538  0.3420
 1060SOL    HW214640   3.059   1.024   6.101 -0.1684 -1.3055  0.3159
 1061SOL     OW14641   4.321   1.834  17.061  0.0150  0.0875  0.4048
 1061SOL    HW114642   4.284   1.760  17.012 -0.1474  0.5788 -0.2184
 1061SOL    HW214643   4.400   1.852  17.010 -0.4041  2.2057  0.5017
 1062SOL     OW14644   4.160   1.335   2.844  0.0985  0.2386  0.0210
 1062SOL    HW114645   4.193   1.305   2.759 -2.1480  0.4138 -0.9131
 1062SOL    HW214646   4.146   1.249   2.883  0.8917  0.2268  0.2766
 1063SOL     OW14647   1.426   1.999   3.592 -0.3726  0.2044  0.3484
 1063SOL    HW114648   1.371   2.056   3.538 -0.6766  1.3067  1.8290
 1063SOL    HW214649   1.506   2.052   3.587 -0.6960  0.7090  0.5017
 1064SOL     OW14650   1.775   1.174  12.412 -0.0312 -0.2653 -0.1876
 1064SOL    HW114651   1.859   1.131  12.422  1.6392  2.3355 -3.0061
 1064SOL    HW214652   1.796   1.245  12.473  0.3255  0.1983 -0.8488
 1065SOL     OW14653   3.588   3.452  10.834 -0.2892  0.0939  0.7448
 1065SOL    HW114654   3.515   3.510  10.815 -3.0789 -3.7142 -0.0589
 1065SOL    HW214655   3.646   3.507  10.887  1.4942  0.0502 -1.1888
 1066SOL     OW14656   4.421   1.634   7.404 -0.0222  0.3962 -0.1019
 1066SOL    HW114657   4.425   1.549   7.447 -0.4819 -0.5763 -1.9830
 1066SOL    HW214658   4.366   1.678   7.469 -1.0772 -1.5037  0.2922
 1067SOL     OW14659   2.582   0.070   4.174  0.3239  0.1732 -0.1234
 1067SOL    HW114660   2.526   0.121   4.115  0.4629  1.4947  0.8875
 1067SOL    HW214661   2.576   4.698   4.152 -0.2527 -0.0496  0.9832
 1068SOL     OW14662   3.464   0.559   3.370 -0.0370 -0.0076  0.0195
 1068SOL    HW114663   3.542   0.545   3.424 -0.1935 -1.5104 -0.1396
 1068SOL    HW214664   3.456   0.654   3.375 -1.7087 -0.0498 -1.9606
 1069SOL     OW14665   4.347   4.237   3.136 -0.4201 -0.0034 -0.1803
 1069SOL    HW114666   4.357   4.141   3.135 -0.9519 -0.0640  0.2106
 1069SOL    HW214667   4.403   4.259   3.062 -1.3211  1.1034 -0.5386
 1070SOL     OW14668   3.722   3.099   8.885  0.0501  0.1691 -0.3841
 1070SOL    HW114669   3.702   3.130   8.973 -2.4035  1.4520 -1.4008
 1070SOL    HW214670   3.759   3.181   8.852 -0.4085  1.2382  1.7678
 1071SOL     OW14671   1.174   2.182   8.480 -0.3995 -0.4905 -0.1491
 1071SOL    HW114672   1.260   2.218   8.459 -0.7078  0.1131 -0.3589
 1071SOL    HW214673   1.133   2.244   8.540 -1.2794 -1.5776  0.3920
 1072SOL     OW14674   0.921   3.862   8.484  0.6420 -0.2650  1.0694
 1072SOL    HW114675   0.909   3.775   8.446  0.8307  0.3674 -0.4807
 1072SOL    HW214676   0.844   3.906   8.446  0.2775 -0.9301  1.0265
 1073SOL     OW14677   4.303   3.448   2.125 -0.4566 -0.4253  0.0820
 1073SOL    HW114678   4.328   3.360   2.150  2.3512 -0.6067 -3.4018
 1073SOL    HW214679   4.239   3.433   2.056 -0.4639  0.1700 -0.0452
 1074SOL     OW14680   1.621   1.470   6.690 -0.1284 -0.6991  0.3673
 1074SOL    HW114681   1.658   1.422   6.763  0.5816 -0.9235 -0.1357
 1074SOL    HW214682   1.583   1.393   6.648  0.6811 -1.4343  0.9829
 1075SOL     OW14683   1.164   2.900   7.987 -0.2956 -0.1425 -0.0923
 1075SOL    HW114684   1.098   2.859   8.043  0.3380 -2.1357 -0.7970
 1075SOL    HW214685   1.139   2.991   8.004 -0.7479 -0.5539  1.4178
 1076SOL     OW14686   0.161   2.840   3.685 -0.4440 -0.3865 -0.0244
 1076SOL    HW114687   0.098   2.859   3.615  1.8958  0.4243 -1.9245
 1076SOL    HW214688   0.229   2.904   3.664 -0.7258 -0.6585 -1.7920
 1077SOL     OW14689   3.593   2.216   7.610  0.1135 -0.0593  0.0106
 1077SOL    HW114690   3.549   2.133   7.629 -1.5616  1.1983  1.6533
 1077SOL    HW214691   3.658   2.225   7.680 -0.4932  0.1458  0.5386
 1078SOL     OW14692   0.266   2.767   6.957  0.1868 -0.2234  0.3649
 1078SOL    HW114693   0.218   2.806   7.030 -0.6323  0.4803 -0.5536
 1078SOL    HW214694   0.212   2.786   6.880 -2.4245  0.5215  2.4149
 1079SOL     OW14695   3.342   1.945  11.082 -0.0531 -0.5370  0.3441
 1079SOL    HW114696   3.365   2.036  11.063 -1.9210 -0.1293  0.0518
 1079SOL    HW214697   3.261   1.941  11.031 -0.4022  2.3777  0.6790
 1080SOL     OW14698   0.025   3.263   3.128  0.2768 -0.8457  0.3249
 1080SOL    HW114699   4.676   3.234   3.070 -0.9401  0.9735  0.9035
 1080SOL    HW214700   4.698   3.321   3.187  0.9668 -1.0402  1.0828
 1081SOL     OW14701   2.768   3.758  16.196 -0.2021  0.3342 -0.2112
 1081SOL    HW114702   2.794   3.846  16.169  0.6113  1.1242  3.2401
 1081SOL    HW214703   2.805   3.762  16.284 -1.2115  0.4439  0.2057
 1082SOL     OW14704   0.871   4.598   2.030  0.5066  0.0608 -0.0276
 1082SOL    HW114705   0.872   4.586   1.935  1.1933  2.2127 -0.3086
 1082SOL    HW214706   0.826   4.518   2.056  0.2643 -0.4884 -2.1321
 1083SOL     OW14707   2.644   1.144   8.522 -0.0379 -0.0108 -0.0151
 1083SOL    HW114708   2.632   1.050   8.534  1.0009 -0.2149 -0.5389
 1083SOL    HW214709   2.740   1.142   8.525 -0.0316 -0.1421 -0.3042
 1084SOL     OW14710   3.237   4.499  14.548  0.0039  0.7398  0.8527
 1084SOL    HW114711   3.287   4.532  14.474 -1.5688 -0.6921 -0.8493
 1084SOL    HW214712   3.159   4.456  14.513 -0.2747  0.2832  2.0398
 1085SOL     OW14713   3.276   2.117   8.015  0.2505  0.0759 -0.0529
 1085SOL    HW114714   3.243   2.086   8.099 -0.2326  1.3250  0.2182
 1085SOL    HW214715   3.336   2.184   8.048 -0.0097 -0.0874  0.7476
 1086SOL     OW14716   1.097   0.989   4.593  0.9844  0.7739  0.5675
 1086SOL    HW114717   1.147   0.991   4.674 -0.8314  1.1367  1.6651
 1086SOL    HW214718   1.164   0.960   4.531 -0.5156 -0.3725 -0.5202
 1087SOL     OW14719   1.930   3.460   4.338  0.1791 -0.6997  0.7415
 1087SOL    HW114720   1.852   3.452   4.282  0.7038  1.2611 -0.2933
 1087SOL    HW214721   1.916   3.548   4.372 -1.3131 -1.1271  1.2463
 1088SOL     OW14722   3.130   0.760   9.478 -0.3541 -0.4950  0.0648
 1088SOL    HW114723   3.115   0.835   9.421  0.5958 -1.3959 -1.3787
 1088SOL    HW214724   3.225   0.755   9.464  0.2775 -2.6636  5.1305
 1089SOL     OW14725   1.811   2.715   6.368  0.0132 -0.2329 -0.3690
 1089SOL    HW114726   1.830   2.721   6.274  0.3985 -0.5047 -0.3079
 1089SOL    HW214727   1.733   2.768   6.384  0.5095  0.6706 -0.9274
 1090SOL     OW14728   2.882   3.863  15.904 -0.1896  0.0269  0.2259
 1090SOL    HW114729   2.818   3.912  15.853 -0.0369 -0.4268 -0.3947
 1090SOL    HW214730   2.842   3.777  15.914 -1.5474  0.6065 -0.1828
 1091SOL     OW14731   0.603   3.457   8.879 -0.4379  0.3199  0.0565
 1091SOL    HW114732   0.612   3.374   8.833  0.6822  0.3799  0.1647
 1091SOL    HW214733   0.690   3.489   8.903 -1.8484  1.9860  2.9231
 1092SOL     OW14734   4.337   4.450   1.181  0.2789  0.4006  0.5433
 1092SOL    HW114735   4.299   4.395   1.250 -1.5052  2.7810  1.4489
 1092SOL    HW214736   4.408   4.391   1.156 -1.2047 -1.2617  0.2428
 1093SOL     OW14737   1.797   2.047   8.203 -0.6792  0.0106  0.1953
 1093SOL    HW114738   1.762   2.004   8.281  0.5104 -1.5835 -0.1623
 1093SOL    HW214739   1.868   1.990   8.173 -0.2789  1.3944 -1.4610
 1094SOL     OW14740   0.423   0.736  10.415 -0.3699 -0.0610 -0.2915
 1094SOL    HW114741   0.450   0.797  10.346 -0.6063 -0.3107 -0.6102
 1094SOL    HW214742   0.432   0.798  10.487  2.9113  0.1909 -0.9220
 1095SOL     OW14743   3.714   1.081   1.213  0.7054  0.1322 -0.2712
 1095SOL    HW114744   3.637   1.035   1.180  0.2924 -0.3933  1.4342
 1095SOL    HW214745   3.720   1.034   1.296 -0.5697 -0.2921 -0.4193
 1096SOL     OW14746   0.269   0.714  13.045 -0.1365  0.1015 -0.4626
 1096SOL    HW114747   0.338   0.750  12.988 -0.0196 -0.7529 -0.8641
 1096SOL    HW214748   0.321   0.681  13.118 -0.4292  0.4025 -0.1197
 1097SOL     OW14749   3.548   3.601   9.097  0.0680  0.0377 -0.5336
 1097SOL    HW114750   3.574   3.643   9.015 -0.3144  0.1532 -0.5934
 1097SOL    HW214751   3.629   3.560   9.127 -0.0268 -0.9865 -1.6492
 1098SOL     OW14752   1.626   4.137  12.784  0.1204 -0.1123  0.5335
 1098SOL    HW114753   1.619   4.059  12.730 -0.4602 -1.9069  3.1840
 1098SOL    HW214754   1.570   4.189  12.726 -0.9373 -1.9649 -0.1127
 1099SOL     OW14755   1.352   1.637   5.196  0.1601  0.1112 -0.2854
 1099SOL    HW114756   1.418   1.572   5.219 -0.2359 -0.6744 -1.3683
 1099SOL    HW214757   1.359   1.692   5.274  0.4051 -1.5649  0.8724
 1100SOL     OW14758   2.801   0.677  17.222  0.5346  0.7358  0.4036
 1100SOL    HW114759   2.870   0.724  17.270  0.6171  2.7887 -1.7032
 1100SOL    HW214760   2.752   0.747  17.179 -0.4643 -1.0958 -1.4203
 1101SOL     OW14761   3.032   3.729   2.371 -0.4335 -0.1979  0.1477
 1101SOL    HW114762   3.121   3.762   2.359 -0.3186 -0.7624 -0.5409
 1101SOL    HW214763   2.996   3.745   2.283  0.3713  1.0735  0.0498
 1102SOL     OW14764   0.916   0.271   6.456 -0.2174 -0.3107 -0.2286
 1102SOL    HW114765   0.920   0.224   6.372 -0.7882 -0.3876 -0.2070
 1102SOL    HW214766   0.857   0.343   6.433  0.1419  0.9145  2.7919
 1103SOL     OW14767   0.634   1.414   7.346  0.4298  0.0502 -0.2736
 1103SOL    HW114768   0.717   1.460   7.363 -1.0604  2.9966 -0.9490
 1103SOL    HW214769   0.596   1.420   7.434 -0.5105  0.3452 -0.6963
 1104SOL     OW14770   3.162   3.496  15.406 -0.0538 -0.0328 -0.4485
 1104SOL    HW114771   3.087   3.451  15.368  0.2720 -1.2565  0.3910
 1104SOL    HW214772   3.151   3.477  15.499 -1.2466  0.2424 -0.5344
 1105SOL     OW14773   4.272   0.994   7.592  0.2478  0.8784 -0.3396
 1105SOL    HW114774   4.213   0.990   7.668  2.1143  1.7702  1.1298
 1105SOL    HW214775   4.250   1.081   7.559 -1.1540  0.7444  0.2250
 1106SOL     OW14776   2.236   1.881  10.270 -0.7629 -0.3526 -0.1314
 1106SOL    HW114777   2.321   1.862  10.309 -1.0179  2.2013  1.7176
 1106SOL    HW214778   2.165   1.862  10.332 -0.9046 -1.6067 -0.6880
 1107SOL     OW14779   0.416   1.302   1.428 -0.3761  0.0561 -0.1054
 1107SOL    HW114780   0.457   1.346   1.354  0.3378 -0.8041 -0.2278
 1107SOL    HW214781   0.491   1.249   1.456 -1.4085 -1.0312  0.5670
 1108SOL     OW14782   0.555   1.087   2.532  0.8476 -0.0043  0.0882
 1108SOL    HW114783   0.582   1.150   2.465 -1.7967 -1.6161 -2.4712
 1108SOL    HW214784   0.472   1.124   2.562 -0.8379 -1.4929 -2.7625
 1109SOL     OW14785   2.717   0.980   0.621  0.2643  0.0381  0.0641
 1109SOL    HW114786   2.789   0.989   0.684  0.5897  1.4455 -0.5001
 1109SOL    HW214787   2.686   1.069   0.601  0.2394 -0.3178 -1.4453
 1110SOL     OW14788   2.588   4.244   7.721  0.0444 -0.6115 -0.0287
 1110SOL    HW114789   2.569   4.234   7.814  0.0076 -0.1499  0.0096
 1110SOL    HW214790   2.510   4.280   7.679  0.3163  0.4448  0.3726
 1111SOL     OW14791   3.050   4.427   3.049  0.8212  0.6268 -0.6340
 1111SOL    HW114792   3.071   4.386   2.965 -3.7821  0.1223 -1.5302
 1111SOL    HW214793   3.001   4.353   3.085  1.2825  1.8366  2.4077
 1112SOL     OW14794   0.827   4.604   1.548  0.1358 -0.5354  0.1359
 1112SOL    HW114795   0.847   4.517   1.514 -0.9051 -0.6072 -0.2925
 1112SOL    HW214796   0.779   4.640   1.473  0.2778  0.5182  0.5550
 1113SOL     OW14797   3.733   4.339   4.226  0.0530  0.2373  0.1543
 1113SOL    HW114798   3.736   4.417   4.280  0.5307  0.5303 -0.2925
 1113SOL    HW214799   3.826   4.318   4.218  0.1574  0.5463  0.6075
 1114SOL     OW14800   4.081   2.978   9.120  0.0885  0.5426 -0.2902
 1114SOL    HW114801   4.026   2.932   9.183  1.1520 -1.0856 -0.5646
 1114SOL    HW214802   4.112   3.050   9.175 -0.3718 -0.6633  1.5469
 1115SOL     OW14803   3.185   2.443   5.851  0.1721  0.1535 -0.3338
 1115SOL    HW114804   3.194   2.538   5.847  1.0656 -0.0213 -2.7080
 1115SOL    HW214805   3.092   2.426   5.841 -0.2998  1.1388  2.4919
 1116SOL     OW14806   4.554   2.804   8.774 -0.4427 -0.2039  0.1452
 1116SOL    HW114807   4.544   2.879   8.833  0.9063 -0.5993  0.8694
 1116SOL    HW214808   4.520   2.845   8.695 -0.1399  0.6349  0.4503
 1117SOL     OW14809   2.524   0.540   6.347  0.1206  0.2016  0.1388
 1117SOL    HW114810   2.585   0.614   6.350  1.0035 -0.5338  0.3158
 1117SOL    HW214811   2.469   0.563   6.272 -0.4889 -1.8201 -0.0230
 1118SOL     OW14812   4.385   3.157  16.572 -0.0648  0.5241  0.0750
 1118SOL    HW114813   4.405   3.097  16.500  0.8572 -1.0160  1.6241
 1118SOL    HW214814   4.436   3.238  16.563 -0.6395  0.9250  0.4671
 1119SOL     OW14815   2.348   0.870   1.677 -0.2759  0.6683 -0.0609
 1119SOL    HW114816   2.368   0.864   1.583 -0.5847  0.9150 -0.1440
 1119SOL    HW214817   2.344   0.778   1.704  0.8366  0.0661 -1.8742
 1120SOL     OW14818   2.130   1.534   5.945  0.8987 -1.0486 -0.3335
 1120SOL    HW114819   2.148   1.479   6.021 -0.6569 -1.3898 -0.2047
 1120SOL    HW214820   2.048   1.573   5.976  1.5630 -0.4052  0.6026
 1121SOL     OW14821   2.361   1.517   0.713 -0.7296 -0.2853  0.4909
 1121SOL    HW114822   2.282   1.479   0.674  1.5264 -4.3552 -0.1994
 1121SOL    HW214823   2.379   1.466   0.792  1.3647 -1.0977 -0.4865
 1122SOL     OW14824   1.265   1.758   9.686  0.5676  0.7591 -0.0779
 1122SOL    HW114825   1.329   1.731   9.751  0.0854 -0.8268 -0.2608
 1122SOL    HW214826   1.226   1.832   9.733 -0.5662 -0.1678  0.4438
 1123SOL     OW14827   1.399   2.053   5.900  0.2611 -0.3988  0.0171
 1123SOL    HW114828   1.321   2.086   5.945 -0.2162 -2.3020  0.5745
 1123SOL    HW214829   1.385   2.062   5.806 -3.0285  0.8355  0.5936
 1124SOL     OW14830   1.006   2.639   5.536  0.0127  0.2920  0.1612
 1124SOL    HW114831   0.985   2.609   5.448  3.2254 -2.7171  0.4596
 1124SOL    HW214832   1.042   2.724   5.511  1.5421 -0.5690 -0.5791
 1125SOL     OW14833   4.009   1.155   5.738 -0.5303 -0.1172 -0.2116
 1125SOL    HW114834   4.026   1.077   5.685  1.3736 -1.1593  1.8991
 1125SOL    HW214835   4.065   1.219   5.693 -0.1717 -0.9920 -1.0245
 1126SOL     OW14836   2.104   3.714   8.928  0.0311 -0.0045  0.2278
 1126SOL    HW114837   2.166   3.712   8.856  1.4705  1.3110  1.4201
 1126SOL    HW214838   2.038   3.767   8.882  0.6770  1.0733  0.5304
 1127SOL     OW14839   3.426   0.604   4.783 -0.1438  0.0533 -0.2926
 1127SOL    HW114840   3.368   0.598   4.859  0.1836 -0.1614 -0.0592
 1127SOL    HW214841   3.427   0.512   4.759  1.1277 -0.4126  1.5426
 1128SOL     OW14842   0.582   1.495  15.584  0.4316 -0.4288  0.0021
 1128SOL    HW114843   0.667   1.517  15.546  0.2000 -0.8990 -0.7855
 1128SOL    HW214844   0.520   1.513  15.514  2.2694 -0.7793 -1.7262
 1129SOL     OW14845   1.293   3.315  14.318  0.1349  0.2025 -0.1128
 1129SOL    HW114846   1.208   3.359  14.325 -0.2924 -0.5436 -0.6909
 1129SOL    HW214847   1.281   3.251  14.248 -0.9881 -0.9719  1.1559
 1130SOL     OW14848   4.143   3.023  16.526  0.3141  0.0742 -0.4435
 1130SOL    HW114849   4.196   2.950  16.496  0.7673 -0.3392  1.3720
 1130SOL    HW214850   4.196   3.076  16.585  0.6973 -0.0144 -0.7069
 1131SOL     OW14851   4.417   0.908  10.981 -0.5217 -0.3299  0.7391
 1131SOL    HW114852   4.355   0.948  10.920 -1.7149 -0.4191  1.9130
 1131SOL    HW214853   4.429   0.821  10.944  1.5710  1.5948 -3.2323
 1132SOL     OW14854   1.834   3.719  11.165  0.0073  0.0303  0.0378
 1132SOL    HW114855   1.759   3.776  11.151 -0.6408 -1.6906 -3.3111
 1132SOL    HW214856   1.793   3.651  11.219 -1.9191  1.2367  0.0557
 1133SOL     OW14857   3.236   0.274  15.883  0.0758  0.2033  0.4791
 1133SOL    HW114858   3.210   0.366  15.888 -3.1514 -0.8041  1.8819
 1133SOL    HW214859   3.168   0.237  15.939 -0.9686  1.6391  0.1642
 1134SOL     OW14860   2.505   4.027   8.937  0.4445  0.3738  0.1779
 1134SOL    HW114861   2.543   4.017   8.850 -1.0652  1.8679 -0.6672
 1134SOL    HW214862   2.583   4.043   8.990  0.7087 -0.5812  0.0667
 1135SOL     OW14863   2.935   4.617  16.989  0.7732  0.0110 -0.6177
 1135SOL    HW114864   2.955   4.690  16.930  1.0609  0.7574  0.3922
 1135SOL    HW214865   3.006   4.554  16.979  2.1464  1.4347  0.0550
 1136SOL     OW14866   4.416   1.871   0.171 -0.1552  0.2630  0.0782
 1136SOL    HW114867   4.493   1.815   0.158 -2.2062 -2.4366 -0.3606
 1136SOL    HW214868   4.437   1.905   0.258  0.5499 -2.0377  0.8087
 1137SOL     OW14869   2.272   1.463   6.616  0.4375 -0.1990 -0.2588
 1137SOL    HW114870   2.191   1.486   6.661  0.9763 -2.8642  2.1312
 1137SOL    HW214871   2.302   1.375   6.641 -1.1297 -0.5369  0.4746
 1138SOL     OW14872   3.445   0.933  13.659 -0.7097 -0.1326 -0.0179
 1138SOL    HW114873   3.477   0.908  13.746 -0.8811  0.4350  0.2021
 1138SOL    HW214874   3.460   0.851  13.610 -0.2733  0.4830 -0.9118
 1139SOL     OW14875   0.293   3.289   1.926 -0.1488 -0.6148  0.3570
 1139SOL    HW114876   0.352   3.228   1.883 -0.3906 -2.9171  3.3249
 1139SOL    HW214877   0.248   3.228   1.984 -2.9364 -0.1413 -1.3041
 1140SOL     OW14878   1.354   0.775   6.197  0.1082  0.2364 -0.1947
 1140SOL    HW114879   1.397   0.765   6.282 -1.7265  2.5748  1.0260
 1140SOL    HW214880   1.296   0.850   6.213 -1.5558 -1.5978  2.5034
 1141SOL     OW14881   3.567   2.914  13.602  0.2024 -0.0529  0.4453
 1141SOL    HW114882   3.561   3.007  13.583 -0.4417  0.3718  2.7739
 1141SOL    HW214883   3.659   2.888  13.588 -0.7815 -2.2693 -2.1328
 1142SOL     OW14884   1.300   3.322   0.430 -0.3160 -0.1905  0.8066
 1142SOL    HW114885   1.219   3.335   0.479 -0.2880 -1.2373  1.1257
 1142SOL    HW214886   1.261   3.330   0.343  1.4635 -2.8978 -0.2561
 1143SOL     OW14887   0.121   0.341  15.740 -0.6651  0.2573 -0.0659
 1143SOL    HW114888   0.100   0.257  15.699  1.0944 -0.1109 -0.1968
 1143SOL    HW214889   0.099   0.324  15.831 -0.2940 -0.0490 -0.0331
 1144SOL     OW14890   0.321   0.789   6.970 -0.4171 -0.5903 -0.3051
 1144SOL    HW114891   0.243   0.740   6.994 -0.1803 -0.5683  0.4977
 1144SOL    HW214892   0.320   0.874   7.014 -1.2299  0.9425 -3.2736
 1145SOL     OW14893   2.346   2.610   4.638  0.0099  0.1259 -0.7387
 1145SOL    HW114894   2.441   2.619   4.635  0.0199  0.6837  2.0802
 1145SOL    HW214895   2.320   2.684   4.692  2.0554  1.5685 -1.7372
 1146SOL     OW14896   3.357   4.058  12.951  0.2060 -0.2502  0.1289
 1146SOL    HW114897   3.345   4.123  12.882 -1.8469  1.1167  1.7410
 1146SOL    HW214898   3.421   4.100  13.010  0.1017  1.7881 -1.2219
 1147SOL     OW14899   1.355   2.899  13.388 -0.0506  0.2122 -0.2720
 1147SOL    HW114900   1.442   2.863  13.368  0.6899  1.8732 -0.0606
 1147SOL    HW214901   1.318   2.905  13.301 -0.5606 -2.3205 -0.2469
 1148SOL     OW14902   2.261   2.434   9.480 -0.1292 -0.1410 -0.8011
 1148SOL    HW114903   2.196   2.413   9.547  1.8804  1.1453  1.5469
 1148SOL    HW214904   2.245   2.525   9.456  0.9275  0.2794  0.1030
 1149SOL     OW14905   1.295   0.567   3.973  0.1773  0.7434  0.3173
 1149SOL    HW114906   1.273   0.639   4.032 -0.2783  0.8435  0.0254
 1149SOL    HW214907   1.347   0.607   3.903  0.2027 -0.1420 -0.1809
 1150SOL     OW14908   0.512   1.902  16.568  0.2472  0.6878 -0.3356
 1150SOL    HW114909   0.490   1.877  16.658  0.2517 -1.7585 -1.0285
 1150SOL    HW214910   0.548   1.821  16.532  0.2648  0.2888  0.5829
 1151SOL     OW14911   2.064   0.966   3.971 -0.2800 -0.5719 -0.1952
 1151SOL    HW114912   2.078   0.971   3.877  1.4923  1.7776  0.1908
 1151SOL    HW214913   2.144   0.926   4.004 -0.5154 -0.5701  0.3831
 1152SOL     OW14914   0.890   1.923   2.601  0.2007 -0.3041 -0.4763
 1152SOL    HW114915   0.961   1.979   2.631 -0.1768 -1.2466  2.1274
 1152SOL    HW214916   0.900   1.931   2.506 -1.2425 -0.5090 -0.6408
 1153SOL     OW14917   3.533   1.884  10.772  0.4020  0.0154 -0.0642
 1153SOL    HW114918   3.457   1.830  10.749 -0.3581  1.4501 -0.8840
 1153SOL    HW214919   3.512   1.909  10.861 -0.1327  2.3036 -0.8484
 1154SOL     OW14920   3.392   2.151   7.390 -0.3609  0.0893 -0.0224
 1154SOL    HW114921   3.372   2.058   7.400  1.1415 -0.1329  0.8010
 1154SOL    HW214922   3.475   2.144   7.436 -0.4506  1.1073  0.3023
 1155SOL     OW14923   2.635   4.483   3.723  0.5942 -0.1427 -0.4577
 1155SOL    HW114924   2.645   4.504   3.630  1.4863 -2.4284 -0.8757
 1155SOL    HW214925   2.713   4.520   3.765 -0.3966  2.2018 -0.6852
 1156SOL     OW14926   3.374   1.965   4.779 -0.1034 -0.0792  0.1910
 1156SOL    HW114927   3.458   2.006   4.759 -0.2891 -0.7157 -1.9260
 1156SOL    HW214928   3.375   2.012   4.862  0.6934  2.2196 -1.1371
 1157SOL     OW14929   2.489   4.668  12.683  0.0242 -0.3179 -0.3452
 1157SOL    HW114930   2.517   4.586  12.721 -3.2056 -1.0621  0.4664
 1157SOL    HW214931   2.573   4.712  12.669  1.1982 -2.8708 -1.1153
 1158SOL     OW14932   1.100   3.947   6.612 -0.4293  0.2888  0.1967
 1158SOL    HW114933   1.013   3.988   6.606 -0.9225 -0.8267 -0.3478
 1158SOL    HW214934   1.106   3.932   6.706 -2.0789 -1.3546  0.0376
 1159SOL     OW14935   3.814   0.098   7.068  0.1832 -0.3903  0.0614
 1159SOL    HW114936   3.895   0.111   7.116  0.6067 -0.1949 -0.6995
 1159SOL    HW214937   3.756   0.097   7.144 -1.1480 -1.2397 -0.9705
 1160SOL     OW14938   1.697   0.682   0.641 -0.6309  0.3792  0.3178
 1160SOL    HW114939   1.658   0.741   0.706 -1.8213  1.6512 -1.5218
 1160SOL    HW214940   1.625   0.622   0.620  0.9315 -1.1861 -0.5554
 1161SOL     OW14941   1.139   1.075   6.583 -0.0071 -0.4841  0.1950
 1161SOL    HW114942   1.069   1.124   6.540  1.4769 -0.3546 -2.1121
 1161SOL    HW214943   1.090   1.012   6.635  0.1349 -1.6730 -1.0784
 1162SOL     OW14944   3.079   0.688  11.218 -0.0533  0.1977 -0.2511
 1162SOL    HW114945   2.992   0.720  11.241 -1.1976 -1.6522 -1.9826
 1162SOL    HW214946   3.076   0.722  11.128 -2.5031  1.0833  0.1772
 1163SOL     OW14947   1.132   2.393   8.194  0.5065  0.2973  1.0307
 1163SOL    HW114948   1.145   2.320   8.134 -1.4448  2.7589 -2.3967
 1163SOL    HW214949   1.146   2.464   8.131 -0.2119 -1.2059 -0.8162
 1164SOL     OW14950   2.534   0.481  11.232  0.3310  0.0355 -0.4990
 1164SOL    HW114951   2.617   0.436  11.214  1.1373  0.1676  2.8045
 1164SOL    HW214952   2.532   0.545  11.161  2.3197 -1.3583 -1.8112
 1165SOL     OW14953   0.392   3.402   9.523 -0.6493  0.2828 -0.6439
 1165SOL    HW114954   0.383   3.345   9.599 -0.0829  1.4908  0.3144
 1165SOL    HW214955   0.423   3.484   9.561  0.3345  0.6242 -2.1957
 1166SOL     OW14956   4.351   0.651   6.240  0.2972 -0.2406  0.2561
 1166SOL    HW114957   4.360   0.642   6.145  1.8407  1.1728  0.2503
 1166SOL    HW214958   4.274   0.703   6.260 -0.4120 -0.1618 -2.6170
 1167SOL     OW14959   3.026   1.693   9.100  0.5938  0.3456  0.0634
 1167SOL    HW114960   2.962   1.683   9.171  1.0633 -1.0041  0.2971
 1167SOL    HW214961   3.007   1.781   9.069  1.1464  0.6476  0.5632
 1168SOL     OW14962   3.146   4.170   0.561 -0.7300  0.3469 -1.1023
 1168SOL    HW114963   3.142   4.255   0.517 -0.9512  1.0124  0.2021
 1168SOL    HW214964   3.131   4.117   0.483 -1.9802 -1.3984  0.3462
 1169SOL     OW14965   0.704   1.225   4.751  0.1990  0.6013 -0.3921
 1169SOL    HW114966   0.760   1.245   4.676  0.4893 -3.0905 -1.1825
 1169SOL    HW214967   0.714   1.130   4.744 -1.2215  0.3562  1.1072
 1170SOL     OW14968   0.929   0.796   7.444 -0.4421  0.8959  0.1096
 1170SOL    HW114969   1.024   0.807   7.448 -0.3762  0.1840  0.6381
 1170SOL    HW214970   0.926   0.702   7.424 -3.2548  1.2201 -0.9629
 1171SOL     OW14971   3.500   1.953   6.925 -0.5883 -0.1749  0.5076
 1171SOL    HW114972   3.449   1.965   7.005 -1.7401  0.3243 -0.2936
 1171SOL    HW214973   3.538   1.869   6.950 -1.2399 -0.3306  0.9749
 1172SOL     OW14974   1.677   3.950   1.648  0.1219 -0.4904  0.8984
 1172SOL    HW114975   1.591   3.964   1.686 -0.0193 -0.7992  0.6967
 1172SOL    HW214976   1.685   4.004   1.569  3.9838  0.4122  1.8914
 1173SOL     OW14977   3.750   0.770   7.283  0.0707  0.0096  0.3618
 1173SOL    HW114978   3.710   0.835   7.340  1.2581  0.1789  0.9957
 1173SOL    HW214979   3.735   0.699   7.345 -2.3446  0.0861 -0.1334
 1174SOL     OW14980   3.962   3.118   6.946  0.1177  0.1229  0.3151
 1174SOL    HW114981   3.983   3.099   6.854 -1.5675  2.0750 -0.4536
 1174SOL    HW214982   3.966   3.027   6.975  0.9639  0.0928  0.1117
 1175SOL     OW14983   1.314   2.552  15.033  0.7919 -0.2961  0.2268
 1175SOL    HW114984   1.375   2.538  14.960  0.3496 -1.5630  0.1025
 1175SOL    HW214985   1.350   2.636  15.062 -0.3521  0.4470 -0.5067
 1176SOL     OW14986   3.439   1.063   2.694 -0.3318  0.2980 -0.0925
 1176SOL    HW114987   3.345   1.051   2.678  0.3543 -1.7131 -2.4805
 1176SOL    HW214988   3.456   1.136   2.635 -0.3322 -2.0002 -2.9063
 1177SOL     OW14989   4.244   3.396   3.185  0.0730 -0.4391 -0.0574
 1177SOL    HW114990   4.279   3.332   3.123 -0.2189  0.9119 -1.6212
 1177SOL    HW214991   4.279   3.479   3.151  1.6144 -0.6500  1.0279
 1178SOL     OW14992   3.257   3.569   9.119  0.2203 -0.4112 -0.5387
 1178SOL    HW114993   3.245   3.598   9.029  1.3271 -1.1757 -0.9260
 1178SOL    HW214994   3.343   3.527   9.117  0.8700  0.8500  0.6705
 1179SOL     OW14995   2.078   3.406   0.244 -0.9530 -0.3810  0.0864
 1179SOL    HW114996   2.106   3.482   0.193 -0.0604 -0.7575  0.0190
 1179SOL    HW214997   2.108   3.333   0.190 -3.3570 -0.5477 -1.0551
 1180SOL     OW14998   3.115   0.915   3.042  0.0384 -0.1602 -0.6962
 1180SOL    HW114999   3.070   0.883   3.120  1.9310  0.0150  0.4694
 1180SOL    HW215000   3.056   0.984   3.010  1.3234  0.7564 -1.1074
 1181SOL     OW15001   2.836   2.243  17.061  0.3092 -0.1439  0.3053
 1181SOL    HW115002   2.742   2.235  17.077  0.5038  2.1968  2.5870
 1181SOL    HW215003   2.844   2.338  17.053 -1.3416  0.1092  1.7624
 1182SOL     OW15004   4.347   0.406   5.461  0.0119  0.0447 -0.3088
 1182SOL    HW115005   4.274   0.417   5.401 -2.0174  0.7625  2.2697
 1182SOL    HW215006   4.411   0.382   5.394 -0.8656  1.1310 -1.5389
 1183SOL     OW15007   2.059   3.551   5.394  0.0229  0.2768 -0.3586
 1183SOL    HW115008   1.993   3.525   5.458  2.8471  0.6435  2.6788
 1183SOL    HW215009   2.136   3.518   5.439  0.4294  1.3882 -0.2451
 1184SOL     OW15010   4.663   2.843  10.463 -0.2323  0.3773 -0.4370
 1184SOL    HW115011   4.670   2.769  10.524 -1.5745  0.4547 -0.1887
 1184SOL    HW215012   4.626   2.909  10.522  0.6583 -0.5378  1.1321
 1185SOL     OW15013   3.087   3.373   3.229 -0.3492 -0.4999 -0.0344
 1185SOL    HW115014   3.180   3.355   3.216 -0.0310  1.0588  0.0343
 1185SOL    HW215015   3.082   3.414   3.315  1.2866 -3.6954  1.5717
 1186SOL     OW15016   3.225   0.297   2.085  0.0081 -1.0434 -0.3823
 1186SOL    HW115017   3.266   0.215   2.110 -1.1139 -2.0860 -1.9614
 1186SOL    HW215018   3.264   0.314   2.000  0.6238 -0.7089 -0.0299
 1187SOL     OW15019   3.228   2.444   2.680  0.1121  0.0565 -0.4539
 1187SOL    HW115020   3.239   2.389   2.757  2.1488  0.8604 -0.1802
 1187SOL    HW215021   3.315   2.440   2.641  0.6391  1.8384  0.5626
 1188SOL     OW15022   1.169   2.551   7.966  0.6486 -0.0449  0.2701
 1188SOL    HW115023   1.129   2.475   7.924  1.2779 -0.6240  0.7170
 1188SOL    HW215024   1.147   2.618   7.901  2.1646 -1.7450 -1.9804
 1189SOL     OW15025   4.322   2.246   5.281  0.2144 -0.2460  0.2190
 1189SOL    HW115026   4.356   2.277   5.197  1.2238  0.3918  0.8661
 1189SOL    HW215027   4.405   2.246   5.329 -0.1439  1.8386  0.8430
 1190SOL     OW15028   0.062   4.479  13.066  0.4093  0.3254  0.1354
 1190SOL    HW115029   0.075   4.489  13.160  1.7869  0.6559 -0.0870
 1190SOL    HW215030   0.126   4.538  13.026  0.1891 -0.0604 -0.7761
 1191SOL     OW15031   2.993   3.275   3.598  0.2441 -0.0887 -0.1341
 1191SOL    HW115032   3.070   3.333   3.602 -0.8909  1.3891  0.3917
 1191SOL    HW215033   2.925   3.338   3.572  0.7234  0.8158  0.7859
 1192SOL     OW15034   0.053   0.654  11.405 -0.4285  0.3044 -0.0971
 1192SOL    HW115035   0.106   0.575  11.412  0.7934  1.0557 -0.7907
 1192SOL    HW215036   4.714   0.626  11.337  0.7432  0.9708 -1.4215
 1193SOL     OW15037   3.021   2.256  11.854 -0.6351  0.0781 -0.1570
 1193SOL    HW115038   2.937   2.250  11.810 -0.1824 -3.4999 -0.5013
 1193SOL    HW215039   3.059   2.330  11.806  0.2762 -1.4074 -1.7099
 1194SOL     OW15040   1.690   1.824   4.451  0.6471 -0.3515 -0.4803
 1194SOL    HW115041   1.606   1.870   4.454  1.7432  1.7389 -1.5448
 1194SOL    HW215042   1.752   1.896   4.457  1.5344 -1.2483  0.9073
 1195SOL     OW15043   3.989   0.769   4.326 -0.5992  0.1808  0.8495
 1195SOL    HW115044   4.058   0.787   4.389  2.3031 -0.9613 -2.0260
 1195SOL    HW215045   3.926   0.722   4.381 -2.4585  0.7716 -0.7374
 1196SOL     OW15046   2.584   3.542   5.871 -0.6534 -0.1259  0.1703
 1196SOL    HW115047   2.557   3.469   5.926 -0.7170 -0.8461 -0.8164
 1196SOL    HW215048   2.589   3.499   5.786 -2.4474  1.4804 -0.7272
 1197SOL     OW15049   1.337   3.308  11.040  0.2581 -0.3460 -0.2415
 1197SOL    HW115050   1.247   3.325  11.012 -0.5762 -0.0420  2.6468
 1197SOL    HW215051   1.328   3.261  11.123  2.5856  0.0319  0.2190
 1198SOL     OW15052   0.911   0.196   7.296  0.4964 -0.0927  0.2160
 1198SOL    HW115053   0.963   0.236   7.227 -0.0813  0.3662  0.0382
 1198SOL    HW215054   0.881   0.115   7.255 -0.6418  0.3032  0.2451
 1199SOL     OW15055   2.897   3.015   4.507 -0.1182 -0.2051 -0.3695
 1199SOL    HW115056   2.977   3.032   4.457 -0.0623  0.6913  0.0190
 1199SOL    HW215057   2.893   3.091   4.566  1.1627 -0.2349 -0.2399
 1200SOL     OW15058   3.457   3.797  15.156 -0.1652  0.5261 -0.0211
 1200SOL    HW115059   3.387   3.787  15.221  0.8927  0.6941  1.1585
 1200SOL    HW215060   3.525   3.738  15.190 -0.1633  0.5143 -0.0452
 1201SOL     OW15061   1.568   0.329   2.790  0.4407  0.3407  0.1593
 1201SOL    HW115062   1.502   0.273   2.750 -1.9802  2.3846  1.3198
 1201SOL    HW215063   1.594   0.269   2.860 -1.6491 -0.5886  0.1326
 1202SOL     OW15064   1.662   0.322   0.761 -0.1013 -0.3475  0.2698
 1202SOL    HW115065   1.620   0.394   0.715 -0.9433 -1.2587 -0.4037
 1202SOL    HW215066   1.624   0.325   0.849 -1.9260 -1.6755 -0.4665
 1203SOL     OW15067   1.095   2.491   2.378 -0.4362  0.2959 -0.4273
 1203SOL    HW115068   1.000   2.506   2.385 -0.9315 -0.8676 -4.3993
 1203SOL    HW215069   1.098   2.412   2.323 -2.3308 -1.1997  1.5819
 1204SOL     OW15070   1.397   3.840   3.949  0.1882 -0.3962  0.7253
 1204SOL    HW115071   1.357   3.817   3.865  1.2596 -0.9568  0.3561
 1204SOL    HW215072   1.467   3.899   3.921 -1.0736  0.3123 -0.9336
 1205SOL     OW15073   0.782   1.629   3.482  0.6584 -0.6240  0.0343
 1205SOL    HW115074   0.814   1.607   3.395 -0.5312 -2.5293  0.0827
 1205SOL    HW215075   0.734   1.548   3.497 -0.1898 -0.5667 -2.4261
 1206SOL     OW15076   3.821   0.131  11.209  0.5030 -0.3936  0.0453
 1206SOL    HW115077   3.743   0.076  11.222  0.7265 -0.3930  1.4529
 1206SOL    HW215078   3.885   0.072  11.168 -1.1938 -2.1284 -0.1215
 1207SOL     OW15079   1.908   2.773  12.410 -0.1600 -0.7014 -0.0237
 1207SOL    HW115080   1.986   2.827  12.419 -1.6437  0.9851  2.3709
 1207SOL    HW215081   1.937   2.682  12.416  2.6789  0.1999  0.1030
 1208SOL     OW15082   0.061   4.136   7.386 -0.6709  0.2802 -0.5538
 1208SOL    HW115083   0.023   4.067   7.331  2.1734 -0.1915 -1.9262
 1208SOL    HW215084   0.141   4.155   7.337  0.5207 -0.5804  1.0167
 1209SOL     OW15085   3.103   2.408  12.308  0.4766 -0.7460 -0.5416
 1209SOL    HW115086   3.009   2.409  12.325  0.6359 -0.8715  0.3060
 1209SOL    HW215087   3.109   2.363  12.224  0.8792 -0.0009 -0.9127
 1210SOL     OW15088   2.154   4.040   8.838  0.1194 -0.5681  0.1356
 1210SOL    HW115089   2.083   3.983   8.869 -0.6425  0.1221 -0.3730
 1210SOL    HW215090   2.217   4.027   8.909 -0.5161  0.0929  0.8194
 1211SOL     OW15091   2.346   2.974   2.569 -0.5653  0.5635  0.3264
 1211SOL    HW115092   2.422   2.926   2.537 -1.0064 -0.6982  1.2165
 1211SOL    HW215093   2.381   3.004   2.653  0.6001 -1.0193  0.3997
 1212SOL     OW15094   3.529   4.150   0.301  0.3421  0.0875  0.4712
 1212SOL    HW115095   3.542   4.089   0.228 -0.3127  0.7611 -0.2051
 1212SOL    HW215096   3.585   4.222   0.270  0.5427 -0.8524 -1.3671
 1213SOL     OW15097   3.544   1.745  12.027  0.0585 -0.6818 -0.4073
 1213SOL    HW115098   3.522   1.822  12.080 -1.0519 -0.8262 -0.6793
 1213SOL    HW215099   3.605   1.702  12.087  0.7414  0.4370 -0.2865
 1214SOL     OW15100   3.732   0.036  16.005  0.0465 -0.0417 -0.4617
 1214SOL    HW115101   3.664   0.102  16.015 -1.0398 -0.8933 -2.3067
 1214SOL    HW215102   3.725   0.016  15.912  1.1063  0.4300 -0.6399
 1215SOL     OW15103   1.126   3.039  11.402  0.5022 -0.6522  0.0108
 1215SOL    HW115104   1.211   3.001  11.424 -0.0271 -0.4556  2.3268
 1215SOL    HW215105   1.076   2.998  11.472  0.9361 -1.0265  0.1030
 1216SOL     OW15106   3.934   1.243   6.447 -0.4405 -0.4781 -0.3276
 1216SOL    HW115107   3.909   1.205   6.531  1.8013  1.6694  1.3037
 1216SOL    HW215108   3.995   1.310   6.478  1.1150 -1.3832 -1.4564
 1217SOL     OW15109   2.661   4.517   9.396 -0.6907  0.6955  0.6524
 1217SOL    HW115110   2.629   4.428   9.404 -0.0125  0.2226 -2.0962
 1217SOL    HW215111   2.752   4.501   9.369 -0.7831 -0.1696  0.8850
 1218SOL     OW15112   4.390   2.960  15.446  0.1212 -0.1707 -0.2974
 1218SOL    HW115113   4.338   2.923  15.374  0.9203 -1.3918 -0.2489
 1218SOL    HW215114   4.470   2.909  15.434  0.4120  0.2079  0.0388
 1219SOL     OW15115   0.845   2.405  13.064  0.1315  0.9784 -0.3592
 1219SOL    HW115116   0.904   2.481  13.061  0.1868  0.9317 -0.4572
 1219SOL    HW215117   0.890   2.352  12.999  0.6903  0.3302  0.5593
 1220SOL     OW15118   0.412   3.899   5.318  0.3342 -0.1561 -0.7778
 1220SOL    HW115119   0.452   3.985   5.326  0.4561 -0.1952 -0.9762
 1220SOL    HW215120   0.480   3.849   5.274  1.4940  1.7008 -1.0904
 1221SOL     OW15121   0.751   3.128  14.960 -0.5676  0.5860  0.0366
 1221SOL    HW115122   0.706   3.175  14.889  0.2773  1.8842  0.3546
 1221SOL    HW215123   0.805   3.196  15.000 -0.3889  1.2259 -1.2939
 1222SOL     OW15124   3.918   4.518   6.112 -0.5309  0.3255  0.2718
 1222SOL    HW115125   3.852   4.449   6.112 -0.9529  0.7316  1.1207
 1222SOL    HW215126   3.923   4.557   6.024  1.9901 -1.8336 -0.5227
 1223SOL     OW15127   3.298   0.047   2.528 -0.1398  0.2025 -0.0645
 1223SOL    HW115128   3.390   0.033   2.508 -0.2754 -3.3609  1.7384
 1223SOL    HW215129   3.291   0.136   2.495 -0.4764  0.3189  0.3182
 1224SOL     OW15130   4.650   0.769  17.119  0.1771  0.6134 -0.1127
 1224SOL    HW115131   4.570   0.804  17.080  0.1165  1.3307  0.6511
 1224SOL    HW215132   4.701   0.731  17.047 -0.2089 -0.0160 -0.0530
 1225SOL     OW15133   2.603   2.157  13.790  0.1968  0.2079 -0.6477
 1225SOL    HW115134   2.650   2.212  13.853 -0.9787 -1.8405  1.9986
 1225SOL    HW215135   2.678   2.142  13.733  0.4519  2.4647 -0.9196
 1226SOL     OW15136   2.000   0.839   5.030 -0.3207  0.2701  0.4763
 1226SOL    HW115137   2.007   0.746   5.007  2.4216  0.6861 -0.4036
 1226SOL    HW215138   2.082   0.877   4.997  0.2787 -3.4573 -2.4446
 1227SOL     OW15139   4.676   3.293   5.274  0.3440 -0.1818  0.4624
 1227SOL    HW115140   0.000   3.346   5.339  1.0716 -1.0095  0.6218
 1227SOL    HW215141   0.003   3.210   5.271  1.2676  0.4283 -1.7351
 1228SOL     OW15142   2.388   0.161   7.538  0.3331  0.5987  0.5997
 1228SOL    HW115143   2.391   0.092   7.472 -0.1023 -0.9455  2.2212
 1228SOL    HW215144   2.293   0.175   7.545  0.5692  1.5576  1.8942
 1229SOL     OW15145   2.603   1.117   5.781  0.2273 -0.1638  0.8813
 1229SOL    HW115146   2.518   1.159   5.792  0.4915  1.3339 -2.9503
 1229SOL    HW215147   2.583   1.041   5.836 -0.5773  0.4349  1.4120
 1230SOL     OW15148   2.811   4.394  16.699  0.8746 -0.2533 -0.0410
 1230SOL    HW115149   2.716   4.386  16.714  1.3724 -2.2902  2.1201
 1230SOL    HW215150   2.821   4.489  16.703 -0.1007 -0.1315 -0.4564
 1231SOL     OW15151   1.233   0.743  10.699 -0.2184 -0.2752 -0.0182
 1231SOL    HW115152   1.215   0.698  10.782  0.4219 -3.2331 -1.4979
 1231SOL    HW215153   1.204   0.675  10.638 -0.1163 -2.0376  1.9088
 1232SOL     OW15154   3.677   0.024  14.895  0.6546 -0.3047  0.4791
 1232SOL    HW115155   3.702   4.719  14.806 -0.1897  1.8159 -0.3920
 1232SOL    HW215156   3.765   0.002  14.924  0.9252 -0.3801 -0.3923
 1233SOL     OW15157   4.257   4.662   0.069  0.2967 -0.0401 -0.7432
 1233SOL    HW115158   4.290   0.017   0.115  0.7763 -1.4992  1.3500
 1233SOL    HW215159   4.212   4.689  17.677  0.9331 -1.5186 -1.6080
 1234SOL     OW15160   4.679   3.696  11.516  0.4048  0.4628 -0.2819
 1234SOL    HW115161   4.616   3.726  11.581  1.0078 -0.2146  0.6037
 1234SOL    HW215162   4.653   3.606  11.494 -0.0435  0.7938 -1.0918
 1235SOL     OW15163   0.979   4.579   3.212  0.7079  0.8948 -0.1041
 1235SOL    HW115164   1.001   4.501   3.263 -2.5651  1.7587  2.6679
 1235SOL    HW215165   0.910   4.552   3.151  0.7855 -1.0325  0.6661
 1236SOL     OW15166   2.064   1.973   1.246 -0.0453  0.3111 -0.3358
 1236SOL    HW115167   2.000   2.010   1.186 -2.1047 -0.5946  1.3121
 1236SOL    HW215168   1.998   1.968   1.314  0.4010  1.0428  0.1627
 1237SOL     OW15169   0.282   2.225   3.336 -0.4377  0.5328 -0.3758
 1237SOL    HW115170   0.316   2.154   3.391 -0.9241 -0.0207 -0.7988
 1237SOL    HW215171   0.293   2.180   3.253  0.3332  2.0866 -1.1264
 1238SOL     OW15172   3.945   1.251   4.761  0.2515  0.3005 -0.1264
 1238SOL    HW115173   4.039   1.264   4.761  0.4675 -1.1960 -0.4168
 1238SOL    HW215174   3.916   1.340   4.742  2.4236  1.8254  3.7225
 1239SOL     OW15175   4.410   3.225   5.275  0.7277 -0.6961 -0.2330
 1239SOL    HW115176   4.382   3.314   5.291 -2.0682 -1.2440 -2.0143
 1239SOL    HW215177   4.503   3.247   5.278  0.8887 -1.4720  0.5111
 1240SOL     OW15178   4.650   0.481  13.108  0.3101 -0.4032 -0.0732
 1240SOL    HW115179   4.645   0.385  13.101 -2.3320 -0.4477  2.9235
 1240SOL    HW215180   4.567   0.500  13.150  0.5265  2.1326 -0.8106
 1241SOL     OW15181   2.497   0.894   4.583  0.2842  0.3929  0.1864
 1241SOL    HW115182   2.445   0.819   4.612 -0.3717 -0.1318 -2.3200
 1241SOL    HW215183   2.469   0.964   4.642 -0.3724  0.7257 -0.5207
 1242SOL     OW15184   3.652   0.457   2.851  0.3279 -0.5668 -0.0594
 1242SOL    HW115185   3.634   0.503   2.933  0.4848  0.0413 -0.3650
 1242SOL    HW215186   3.570   0.447   2.803  1.0309 -2.6867 -0.8162
 1243SOL     OW15187   3.920   4.470   5.663 -0.2046  0.0475 -0.4166
 1243SOL    HW115188   3.916   4.446   5.570 -3.4991  0.3861 -0.3569
 1243SOL    HW215189   4.012   4.497   5.661 -0.3020  0.6017  2.8263
 1244SOL     OW15190   3.055   2.003   3.537 -0.3227  0.2941 -0.2398
 1244SOL    HW115191   3.133   2.055   3.556 -0.3797  1.0836 -2.1637
 1244SOL    HW215192   3.001   2.012   3.615 -1.1196  0.5062 -0.8199
 1245SOL     OW15193   1.525   3.386   6.808  0.1140  0.0456 -0.1941
 1245SOL    HW115194   1.529   3.480   6.826  1.4651 -0.5027  2.3410
 1245SOL    HW215195   1.575   3.351   6.882 -1.1565 -0.3182  0.4867
 1246SOL     OW15196   1.521   3.087  16.542 -0.3782 -0.0282 -0.2489
 1246SOL    HW115197   1.586   3.116  16.478 -0.2676  0.1785 -0.0420
 1246SOL    HW215198   1.569   3.011  16.573 -0.6130 -1.0868 -2.5066
 1247SOL     OW15199   4.200   2.149  12.807 -0.8038 -0.0192  0.4984
 1247SOL    HW115200   4.157   2.136  12.891 -1.1953 -2.6384 -0.1063
 1247SOL    HW215201   4.168   2.238  12.789 -0.1383  0.4187  1.4775
 1248SOL     OW15202   3.585   3.937   2.090  0.8502  0.0848 -0.2725
 1248SOL    HW115203   3.653   3.872   2.112  0.4608  0.1088  0.9907
 1248SOL    HW215204   3.642   4.013   2.090  3.3435 -1.7841 -3.0082
 1249SOL     OW15205   0.932   3.254   8.978  0.6497 -0.6512  0.2431
 1249SOL    HW115206   0.881   3.334   8.971 -0.3126 -1.1175  1.9815
 1249SOL    HW215207   0.919   3.230   9.070 -0.8712 -1.8345 -0.2685
 1250SOL     OW15208   1.604   0.130   6.774 -0.4579 -0.3901 -0.5150
 1250SOL    HW115209   1.692   0.121   6.738 -0.8995 -0.5213 -1.5633
 1250SOL    HW215210   1.618   0.125   6.868 -0.2334 -1.2722 -0.5918
 1251SOL     OW15211   2.538   0.833   8.505  0.2265 -0.4093 -0.1911
 1251SOL    HW115212   2.454   0.807   8.467  0.1328  0.3959 -0.5329
 1251SOL    HW215213   2.601   0.767   8.476 -0.6554 -1.1368 -0.4547
 1252SOL     OW15214   4.588   0.756   5.687 -0.3269  0.7569  0.3721
 1252SOL    HW115215   4.512   0.715   5.646  2.1519 -0.1367 -3.4058
 1252SOL    HW215216   4.557   0.790   5.770 -1.0608  2.2768 -0.5436
 1253SOL     OW15217   1.376   1.062   6.848 -0.7052 -0.3775  0.0810
 1253SOL    HW115218   1.349   1.150   6.822  1.8060  0.2913 -0.2258
 1253SOL    HW215219   1.465   1.054   6.814 -1.1227  1.7486 -1.5095
 1254SOL     OW15220   4.696   0.649   4.872  0.1765 -0.6437  0.1383
 1254SOL    HW115221   4.705   0.620   4.782  1.4445  1.4330 -0.4001
 1254SOL    HW215222   0.045   0.715   4.878 -0.4622 -0.0036  0.6467
 1255SOL     OW15223   2.104   4.387   8.699  0.4701 -0.4399 -0.3797
 1255SOL    HW115224   2.037   4.319   8.695  0.4193 -0.4466  0.6547
 1255SOL    HW215225   2.093   4.414   8.790 -0.8269  0.1539 -0.7209
 1256SOL     OW15226   3.738   4.653   0.439  0.2023 -0.1402 -0.0083
 1256SOL    HW115227   3.819   4.687   0.403 -0.1387 -0.2777 -0.9003
 1256SOL    HW215228   3.771   4.608   0.517  2.1142 -2.1368 -1.9716
 1257SOL     OW15229   2.848   1.110   7.629  0.1162  0.3520 -0.0866
 1257SOL    HW115230   2.901   1.187   7.610  0.9446 -0.0558  0.5638
 1257SOL    HW215231   2.914   1.074   7.688  1.0647  0.9638 -0.7714
 1258SOL     OW15232   4.073   0.213  14.993 -0.3368  0.0415 -0.6857
 1258SOL    HW115233   4.057   0.145  15.059 -1.2824  1.0456  0.1166
 1258SOL    HW215234   4.138   0.176  14.933  1.3628 -0.5013  1.4860
 1259SOL     OW15235   1.458   4.405   2.604 -0.0148 -0.4499  0.2767
 1259SOL    HW115236   1.446   4.397   2.699  0.2998  2.1186  0.5251
 1259SOL    HW215237   1.461   4.500   2.596 -1.7593 -0.6651 -3.1537
 1260SOL     OW15238   3.357   2.957   8.802  0.3576 -0.1531 -0.0849
 1260SOL    HW115239   3.343   3.014   8.727  0.3328 -1.7185 -1.2574
 1260SOL    HW215240   3.419   3.007   8.856  0.1929  1.3353 -1.2818
 1261SOL     OW15241   1.155   4.080   5.662 -0.5712 -0.3707  0.0504
 1261SOL    HW115242   1.112   4.056   5.580  0.7661 -0.1109 -0.7328
 1261SOL    HW215243   1.157   3.995   5.705  0.1012  0.4927  1.7222
 1262SOL     OW15244   4.712   0.215   3.529 -1.0730 -0.0013 -0.1464
 1262SOL    HW115245   0.031   0.297   3.502  0.6854 -1.1126 -0.8541
 1262SOL    HW215246   4.697   0.178   3.442 -1.4319  0.9780 -0.5015
 1263SOL     OW15247   1.840   0.782   0.418 -0.4603  0.1855 -0.5853
 1263SOL    HW115248   1.777   0.846   0.387 -3.2665 -1.5638  1.4674
 1263SOL    HW215249   1.790   0.742   0.489 -2.3681 -0.7744 -2.4779
 1264SOL     OW15250   0.973   0.485   7.935 -0.1064 -0.2710 -0.0955
 1264SOL    HW115251   1.043   0.504   7.998 -0.2536  0.8623 -0.2805
 1264SOL    HW215252   0.986   0.558   7.875 -1.3998  0.5572  0.6395
 1265SOL     OW15253   3.667   2.160   8.722 -0.0503 -0.2405  0.3262
 1265SOL    HW115254   3.703   2.103   8.653  1.4581 -0.6915  1.4940
 1265SOL    HW215255   3.628   2.090   8.774 -0.2321  0.0250  0.5456
 1266SOL     OW15256   1.820   3.850   2.947 -0.0381 -0.4217  0.2865
 1266SOL    HW115257   1.764   3.908   2.895 -0.1725 -1.1406 -0.3612
 1266SOL    HW215258   1.823   3.769   2.896 -0.4457  0.3270 -0.9272
 1267SOL     OW15259   2.534   4.501   5.555  0.1238 -0.3391  0.2459
 1267SOL    HW115260   2.613   4.539   5.517 -0.5401 -1.1003 -1.9250
 1267SOL    HW215261   2.554   4.484   5.647 -1.8951  0.2970  0.8090
 1268SOL     OW15262   1.777   0.966   4.087 -0.0355  0.8885 -0.3674
 1268SOL    HW115263   1.866   0.992   4.062  1.0467 -0.4301  2.0452
 1268SOL    HW215264   1.772   1.013   4.171  0.1305  0.7111 -0.2587
 1269SOL     OW15265   0.059   1.928  12.962  0.2327  0.3990 -0.0332
 1269SOL    HW115266   0.099   2.003  13.006 -0.5176  0.2927  0.8394
 1269SOL    HW215267   4.691   1.961  12.966 -0.4657 -1.2318 -1.8495
 1270SOL     OW15268   0.180   2.924   7.872 -0.1267 -0.2907 -0.0334
 1270SOL    HW115269   0.251   2.881   7.921 -1.3868 -0.9532  1.2144
 1270SOL    HW215270   0.223   2.999   7.830  2.4600 -0.3337  2.5177
 1271SOL     OW15271   3.006   1.488   8.936  0.0122  0.0329  0.3592
 1271SOL    HW115272   2.969   1.423   8.995 -0.9774 -1.0552 -1.4447
 1271SOL    HW215273   3.024   1.565   8.989  0.9444 -0.0342  0.1591
 1272SOL     OW15274   0.688   3.430   2.220 -0.0095  0.0267  0.5899
 1272SOL    HW115275   0.740   3.466   2.292  1.6082 -0.5256 -0.3139
 1272SOL    HW215276   0.735   3.350   2.197  1.2705  0.7900  0.5325
 1273SOL     OW15277   1.189   3.963   6.890  0.1382  0.2574  0.2278
 1273SOL    HW115278   1.269   3.997   6.850 -0.4255  1.3164 -0.0048
 1273SOL    HW215279   1.229   3.894   6.942 -1.2295 -0.6945  0.0167
 1274SOL     OW15280   3.430   1.483   8.692  0.1308 -0.1950  0.0286
 1274SOL    HW115281   3.380   1.516   8.767  1.0134 -2.3099  1.5351
 1274SOL    HW215282   3.519   1.503   8.724 -0.5773  0.8404  1.3610
 1275SOL     OW15283   1.112   3.554   5.446  0.0493 -0.6947 -0.7491
 1275SOL    HW115284   1.145   3.527   5.360  1.1796  0.0568 -0.5589
 1275SOL    HW215285   1.167   3.628   5.472  0.3894 -1.0738 -0.3741
 1276SOL     OW15286   4.545   0.213   0.890  0.2534 -0.1844 -0.3535
 1276SOL    HW115287   4.501   0.244   0.968  0.3332 -3.2548  0.9278
 1276SOL    HW215288   4.589   0.293   0.861  3.4504 -1.9680 -0.4534
 1277SOL     OW15289   2.806   0.767   8.288 -0.4338  0.1109  0.4742
 1277SOL    HW115290   2.774   0.693   8.339  0.3338 -0.0486  0.7326
 1277SOL    HW215291   2.863   0.806   8.354  2.0671  0.0185 -1.6137
 1278SOL     OW15292   2.394   3.577  10.400  0.5104 -0.2773 -0.4845
 1278SOL    HW115293   2.473   3.527  10.376 -0.6535 -2.2464 -0.2034
 1278SOL    HW215294   2.431   3.665  10.404 -1.8166  0.5891  1.6250
 1279SOL     OW15295   2.732   4.595  13.257  0.1888 -0.2252 -0.0018
 1279SOL    HW115296   2.715   4.565  13.346 -2.0026  2.5961  0.5269
 1279SOL    HW215297   2.817   4.638  13.261 -1.3632  2.8371  0.2885
 1280SOL     OW15298   3.376   0.980   3.029 -0.0726  0.0715 -0.2756
 1280SOL    HW115299   3.293   0.935   3.043  0.2933  0.4261  2.9879
 1280SOL    HW215300   3.349   1.072   3.038  0.2184  0.2607 -1.3924
 1281SOL     OW15301   3.197   0.884   0.822 -0.1687  0.3759  0.3242
 1281SOL    HW115302   3.113   0.862   0.862 -1.8877  0.5008 -3.2111
 1281SOL    HW215303   3.181   0.897   0.729  0.5225  0.3294  0.1963
 1282SOL     OW15304   1.099   4.475   5.399  0.2476 -0.1989  0.5930
 1282SOL    HW115305   1.058   4.512   5.478 -1.9547 -0.4173 -0.4377
 1282SOL    HW215306   1.153   4.406   5.436 -1.4455 -1.8791 -0.0761
 1283SOL     OW15307   1.959   4.665   3.593 -0.3726 -0.2782 -0.2550
 1283SOL    HW115308   1.889   0.002   3.565 -0.6039 -0.5561 -0.2582
 1283SOL    HW215309   1.901   4.592   3.614 -2.0986  1.0737 -0.3577
 1284SOL     OW15310   3.011   4.304   1.997 -0.1261  0.1061 -0.4531
 1284SOL    HW115311   3.025   4.337   2.086  0.0359 -0.4094 -0.2879
 1284SOL    HW215312   3.006   4.210   2.017  4.0697 -0.3387 -1.5426
 1285SOL     OW15313   3.565   0.894  11.936 -0.0555 -0.0819  0.4822
 1285SOL    HW115314   3.572   0.832  11.863  1.1326  0.0568  0.4764
 1285SOL    HW215315   3.501   0.958  11.904  0.1931  0.0734  0.2967
 1286SOL     OW15316   0.898   2.118   2.027 -0.8180  0.0691  0.0827
 1286SOL    HW115317   0.820   2.172   2.040  0.2960  1.6737  0.1033
 1286SOL    HW215318   0.860   2.032   2.042 -0.2796 -0.0401  0.7945
 1287SOL     OW15319   2.011   2.234   9.020 -0.3703  0.1937 -0.2775
 1287SOL    HW115320   1.962   2.209   9.099 -0.3466 -1.6981 -0.8659
 1287SOL    HW215321   2.038   2.323   9.042  0.8693 -0.0497 -0.7935
 1288SOL     OW15322   0.525   3.910   4.167 -0.0128  0.4027 -0.4342
 1288SOL    HW115323   0.615   3.941   4.176 -0.0934  0.3350  0.5737
 1288SOL    HW215324   0.483   3.958   4.238 -0.6035 -0.4219 -0.2280
 1289SOL     OW15325   4.484   1.224  13.339 -0.0721  0.0139  0.5005
 1289SOL    HW115326   4.507   1.234  13.246  0.5422  0.0237  0.6536
 1289SOL    HW215327   4.534   1.297  13.375  2.5722 -0.4122 -2.2690
 1290SOL     OW15328   4.443   4.052  11.599 -0.1076 -0.3836 -0.0559
 1290SOL    HW115329   4.372   4.088  11.546 -0.2140  2.4338  2.0387
 1290SOL    HW215330   4.427   3.958  11.592  1.2394 -0.5020 -1.6599
 1291SOL     OW15331   1.930   1.451   1.586 -0.1618  0.0438 -0.4880
 1291SOL    HW115332   1.846   1.496   1.575  1.5977  3.7227  0.9712
 1291SOL    HW215333   1.948   1.446   1.680  0.4317  0.0846 -0.5943
 1292SOL     OW15334   2.331   0.116   2.656  0.3121  0.7742  0.2829
 1292SOL    HW115335   2.317   0.023   2.640 -0.9385  0.9530  0.2861
 1292SOL    HW215336   2.253   0.154   2.616  0.7882  2.3351  0.8528
 1293SOL     OW15337   0.164   0.574   6.843 -0.7312 -0.2723  0.2743
 1293SOL    HW115338   0.165   0.549   6.935 -2.4354 -1.5554 -0.0692
 1293SOL    HW215339   0.088   0.524   6.813 -0.4844 -0.4922  0.0113
 1294SOL     OW15340   4.493   0.829   2.507  0.0602  0.4027  0.3917
 1294SOL    HW115341   4.558   0.849   2.439 -1.2665  0.8599 -0.7284
 1294SOL    HW215342   4.543   0.871   2.577  0.1247  0.8564  0.0697
 1295SOL     OW15343   2.904   4.663   3.429 -0.3785  0.6541 -0.1846
 1295SOL    HW115344   2.988   4.701   3.402 -0.3800 -1.4483 -3.1013
 1295SOL    HW215345   2.850   4.718   3.371 -1.5068  0.8630  1.0621
 1296SOL     OW15346   1.632   2.657   6.672 -0.2863 -0.3986  0.4577
 1296SOL    HW115347   1.713   2.628   6.715 -0.7742  0.9155  2.2537
 1296SOL    HW215348   1.609   2.567   6.648  1.9090 -0.4271 -1.5079
 1297SOL     OW15349   2.223   3.868  13.365 -0.2244 -0.2450  0.0912
 1297SOL    HW115350   2.268   3.814  13.429 -0.7021  1.0271  1.4949
 1297SOL    HW215351   2.132   3.863  13.396  0.1241  0.6449  1.2395
 1298SOL     OW15352   4.631   1.779  12.062  0.1699  0.4776  0.0679
 1298SOL    HW115353   4.602   1.744  12.146  0.1440 -0.0849 -0.1750
 1298SOL    HW215354   4.559   1.748  12.007  1.2094 -1.4420 -0.2093
 1299SOL     OW15355   2.522   1.853   6.485 -0.1120  0.1330 -0.1831
 1299SOL    HW115356   2.580   1.929   6.485  0.1953 -0.1005  0.5551
 1299SOL    HW215357   2.492   1.848   6.576  0.6259  1.8272  0.1564
 1300SOL     OW15358   1.278   3.178  15.376 -0.1048  0.4343 -0.1605
 1300SOL    HW115359   1.312   3.197  15.463 -0.6479  1.3761 -0.1642
 1300SOL    HW215360   1.279   3.258  15.324 -1.3199 -0.2758 -1.2605
 1301SOL     OW15361   2.262   4.560   5.544 -0.4056  0.2408  0.1193
 1301SOL    HW115362   2.351   4.528   5.554 -0.5725  0.0674  1.0399
 1301SOL    HW215363   2.235   4.576   5.635  1.2629  0.4616  0.5769
 1302SOL     OW15364   2.150   1.027   7.261 -0.6533 -0.4174  0.2572
 1302SOL    HW115365   2.193   1.113   7.262  2.4619 -1.9979  0.8077
 1302SOL    HW215366   2.080   1.052   7.321 -1.7000 -1.1373 -0.6511
 1303SOL     OW15367   3.045   3.469   5.932 -0.4227 -0.0986 -0.5566
 1303SOL    HW115368   3.008   3.499   6.014 -1.2137 -1.4571 -0.4216
 1303SOL    HW215369   3.025   3.540   5.871 -0.3279 -0.6767 -1.2748
 1304SOL     OW15370   1.658   4.146  12.393  0.2100  0.0023 -0.5464
 1304SOL    HW115371   1.671   4.191  12.477 -2.0259 -0.8161  0.2255
 1304SOL    HW215372   1.746   4.132  12.358 -0.1013  0.1468 -1.3774
 1305SOL     OW15373   4.147   1.932   5.237  0.7069 -0.3544  0.4547
 1305SOL    HW115374   4.220   1.973   5.285 -0.2294  1.8805 -0.0324
 1305SOL    HW215375   4.201   1.883   5.174  0.1780 -0.0767 -0.2140
 1306SOL     OW15376   3.758   4.082   7.460 -0.1535 -0.4562  0.3305
 1306SOL    HW115377   3.818   4.018   7.499 -0.2185 -2.2912 -2.6031
 1306SOL    HW215378   3.671   4.052   7.486 -0.1786  0.0167  0.8077
 1307SOL     OW15379   3.392   4.453   5.774  0.3503 -0.1008  0.1181
 1307SOL    HW115380   3.463   4.424   5.716  1.3882 -0.3495  1.5068
 1307SOL    HW215381   3.369   4.375   5.824 -1.6116  1.3084  1.4283
 1308SOL     OW15382   3.286   1.745   8.598 -0.7781  0.1575 -0.1043
 1308SOL    HW115383   3.232   1.668   8.578 -0.6216 -0.5106  2.0610
 1308SOL    HW215384   3.361   1.740   8.538 -0.8922  1.2086 -0.3373
 1309SOL     OW15385   2.435   4.039  10.620 -0.1184 -0.0984 -0.5992
 1309SOL    HW115386   2.525   4.010  10.638 -0.2320  1.0683  1.7638
 1309SOL    HW215387   2.451   4.133  10.620 -2.9434  0.3657  0.0334
 1310SOL     OW15388   2.775   2.722   6.532 -0.1320 -0.0583  0.0330
 1310SOL    HW115389   2.714   2.779   6.578  2.6074  0.9525  2.3856
 1310SOL    HW215390   2.754   2.749   6.442  2.2345  2.1768  0.1505
 1311SOL     OW15391   2.119   3.344   6.022 -0.3001 -0.4792 -0.3182
 1311SOL    HW115392   2.060   3.287   5.973 -1.9500 -0.2988  1.4938
 1311SOL    HW215393   2.075   3.350   6.107  3.9543 -0.5385  1.9023
 1312SOL     OW15394   3.058   0.374   6.069 -0.1164 -0.3885  0.0596
 1312SOL    HW115395   2.992   0.306   6.061 -0.3573 -0.4139  2.1460
 1312SOL    HW215396   3.002   0.430   6.123 -0.8373  0.4444 -1.5591
 1313SOL     OW15397   0.494   0.627   5.897  0.3315  0.1122  0.1218
 1313SOL    HW115398   0.493   0.698   5.833  1.4133  1.1824  1.3141
 1313SOL    HW215399   0.481   0.672   5.980 -0.1808  0.2014 -0.0060
 1314SOL     OW15400   3.099   0.406   7.790  0.0765  0.8294  0.3815
 1314SOL    HW115401   3.055   0.420   7.874  0.6188 -1.5199  1.0797
 1314SOL    HW215402   3.187   0.440   7.809  0.9733 -1.6232  0.7451
 1315SOL     OW15403   3.147   4.366   6.478 -0.4063  0.3990 -0.0066
 1315SOL    HW115404   3.115   4.450   6.443  1.8802  1.6383  0.8939
 1315SOL    HW215405   3.092   4.311   6.421  0.9543  0.3978 -1.3170
 1316SOL     OW15406   4.343   3.518   6.103 -0.0531  0.6854 -0.1380
 1316SOL    HW115407   4.338   3.609   6.132  0.3565  0.7034 -0.1239
 1316SOL    HW215408   4.268   3.517   6.044 -0.3321 -2.0146  0.2594
 1317SOL     OW15409   4.502   1.589   4.662 -0.3381 -0.1604 -0.4790
 1317SOL    HW115410   4.582   1.607   4.711 -0.2764 -0.6645 -0.3886
 1317SOL    HW215411   4.502   1.668   4.609  2.2132  1.1833  1.5290
 1318SOL     OW15412   3.817   3.372  14.612  0.9409 -0.1436  0.3239
 1318SOL    HW115413   3.821   3.467  14.600 -1.4779  0.1115  1.4865
 1318SOL    HW215414   3.851   3.347  14.526  3.1523  2.0497  0.5604
 1319SOL     OW15415   3.613   4.645   2.595 -0.5402 -0.6324 -0.5712
 1319SOL    HW115416   3.614   4.690   2.680  0.4864 -0.7531 -0.5128
 1319SOL    HW215417   3.670   4.699   2.539 -2.4259  2.8121  0.8293
 1320SOL     OW15418   2.869   2.718   8.753  0.0803 -0.0482 -0.7062
 1320SOL    HW115419   2.844   2.695   8.842  1.3619  1.6093  0.0661
 1320SOL    HW215420   2.791   2.681   8.711  0.3883  0.5844 -1.8329
 1321SOL     OW15421   3.285   2.664   3.550 -0.2536  0.3958 -0.7418
 1321SOL    HW115422   3.291   2.748   3.595  0.3895 -0.1035  0.0910
 1321SOL    HW215423   3.190   2.656   3.547 -0.0951 -0.2981 -4.5374
 1322SOL     OW15424   2.174   3.772   6.611 -0.1589 -0.0203 -0.4785
 1322SOL    HW115425   2.086   3.808   6.602 -0.8760 -1.8259 -0.7114
 1322SOL    HW215426   2.146   3.683   6.633 -0.7251  0.4235  0.5934
 1323SOL     OW15427   0.283   2.124  13.638  0.4088  0.3657 -0.0299
 1323SOL    HW115428   0.378   2.129  13.634  0.5020 -1.4438 -0.0145
 1323SOL    HW215429   0.265   2.033  13.664 -3.2019  1.6039  1.8361
 1324SOL     OW15430   2.150   1.281   8.737  0.6996 -0.0290  0.0607
 1324SOL    HW115431   2.226   1.239   8.697  0.7310  0.1710 -0.0879
 1324SOL    HW215432   2.122   1.221   8.806 -1.4854  0.1994 -0.6124
 1325SOL     OW15433   3.958   3.767  12.505  0.4000  0.0342  0.1497
 1325SOL    HW115434   3.935   3.848  12.549 -2.2442 -0.1160 -0.9616
 1325SOL    HW215435   4.051   3.791  12.505  0.3445  0.2593 -0.5975
 1326SOL     OW15436   1.934   3.453   6.826  0.0770 -0.8996  0.3245
 1326SOL    HW115437   1.909   3.529   6.773 -1.1154 -1.0478  0.6778
 1326SOL    HW215438   1.985   3.490   6.898 -0.5990 -2.7255  1.7085
 1327SOL     OW15439   2.153   3.103  14.045  0.5248  0.5470 -0.0165
 1327SOL    HW115440   2.157   3.182  13.992  0.9255  0.6304  0.1399
 1327SOL    HW215441   2.080   3.057  14.004  1.0497 -0.3616  0.0655
 1328SOL     OW15442   1.213   4.630   5.110  0.2685 -0.0606 -0.1759
 1328SOL    HW115443   1.145   4.696   5.122 -1.5319 -1.6962 -1.5547
 1328SOL    HW215444   1.209   4.579   5.191  0.3985  1.5306  0.8241
 1329SOL     OW15445   1.280   2.991   2.861 -0.7457 -0.2628 -0.1616
 1329SOL    HW115446   1.325   2.912   2.833  0.0793 -0.0068  0.4084
 1329SOL    HW215447   1.235   2.964   2.941  0.7293 -0.5952  0.5596
 1330SOL     OW15448   1.982   0.855   1.634 -0.0910 -0.2712 -0.2400
 1330SOL    HW115449   2.014   0.930   1.685  1.3305 -2.1451  1.6092
 1330SOL    HW215450   1.929   0.891   1.563 -0.3391  0.7983  0.4833
 1331SOL     OW15451   0.402   0.882   7.947  0.1023  1.0097  0.2817
 1331SOL    HW115452   0.472   0.929   7.901  0.3476 -0.0157 -0.3891
 1331SOL    HW215453   0.437   0.793   7.954  2.8225  2.0968  0.7553
 1332SOL     OW15454   3.517   4.354   7.483  0.1284 -0.2738 -0.1379
 1332SOL    HW115455   3.606   4.386   7.472  0.4772 -0.4922  2.0437
 1332SOL    HW215456   3.480   4.383   7.399  0.2934  2.7919  0.8580
 1333SOL     OW15457   0.022   3.498   5.127 -0.5144 -0.8703 -0.1581
 1333SOL    HW115458   0.002   3.452   5.045 -1.4284  2.9954 -2.1322
 1333SOL    HW215459   0.005   3.431   5.193 -1.6585 -1.6456 -1.2328
 1334SOL     OW15460   1.356   2.671   1.811  0.0351  0.1874  0.0177
 1334SOL    HW115461   1.272   2.671   1.765  0.9976 -0.5609 -1.7672
 1334SOL    HW215462   1.410   2.716   1.745 -0.2922 -0.8987 -0.9976
 1335SOL     OW15463   2.761   0.475  16.526  0.2067 -0.4752 -0.8435
 1335SOL    HW115464   2.696   0.405  16.515 -1.3885  0.6977  1.3005
 1335SOL    HW215465   2.705   0.549  16.548  0.4622  0.0870 -2.0987
 1336SOL     OW15466   1.479   2.980  15.565 -0.2602  0.2173 -0.1104
 1336SOL    HW115467   1.555   2.967  15.620 -1.0037  1.8688  1.2901
 1336SOL    HW215468   1.502   3.039  15.493  1.1186 -2.1010 -1.5625
 1337SOL     OW15469   1.500   3.009   5.556 -0.4433  0.3520 -0.0904
 1337SOL    HW115470   1.481   2.917   5.572  0.0360  0.2858  0.0983
 1337SOL    HW215471   1.438   3.033   5.488 -2.1278 -2.2008  0.5532
 1338SOL     OW15472   4.409   2.931   1.392 -0.5439 -0.3841 -0.1036
 1338SOL    HW115473   4.470   3.004   1.381 -1.5932  0.9494  2.9919
 1338SOL    HW215474   4.371   2.948   1.478 -2.7054  3.0075 -1.6964
 1339SOL     OW15475   1.679   1.577   5.012 -0.0938  0.3107  0.6358
 1339SOL    HW115476   1.670   1.651   4.951 -1.5098 -1.3972 -1.2015
 1339SOL    HW215477   1.723   1.526   4.944  1.7534  0.2994  1.8063
 1340SOL     OW15478   0.782   3.420  13.850 -0.2618 -0.9734 -0.2620
 1340SOL    HW115479   0.869   3.408  13.812  0.4294 -1.6520  1.5139
 1340SOL    HW215480   0.736   3.413  13.767  0.6643 -1.2597 -0.7490
 1341SOL     OW15481   4.197   1.143   8.839 -0.3865 -0.1983 -0.8914
 1341SOL    HW115482   4.181   1.208   8.907  1.4387 -0.6166 -0.0590
 1341SOL    HW215483   4.200   1.063   8.891  0.4433 -0.7685 -1.8216
 1342SOL     OW15484   0.406   3.316   3.544 -0.5462  0.1663  0.1901
 1342SOL    HW115485   0.351   3.364   3.482 -0.3530 -0.4313 -0.4496
 1342SOL    HW215486   0.465   3.382   3.578 -0.2369 -0.5459  1.0212
 1343SOL     OW15487   4.591   2.774   7.715  0.9477  0.2307 -0.2581
 1343SOL    HW115488   4.496   2.769   7.727  1.0089 -1.1198 -0.3421
 1343SOL    HW215489   4.601   2.867   7.694  1.5714  0.3368  0.5049
 1344SOL     OW15490   0.086   3.072   3.958  0.2049  0.9299 -0.9242
 1344SOL    HW115491   4.716   3.043   3.958  1.0812 -1.8041 -0.2752
 1344SOL    HW215492   0.091   3.130   4.034 -0.5808 -1.4166  0.8888
 1345SOL     OW15493   1.880   1.010  11.633  0.4137 -0.5324 -0.7253
 1345SOL    HW115494   1.931   0.971  11.562  0.8844 -1.0160 -0.1152
 1345SOL    HW215495   1.822   1.070  11.585  0.9530  0.0893 -0.6012
 1346SOL     OW15496   0.306   2.500   3.450 -0.0843  0.0884  0.0999
 1346SOL    HW115497   0.276   2.409   3.451  2.9810 -0.8967 -0.0899
 1346SOL    HW215498   0.366   2.500   3.375 -0.6569 -2.5854 -0.3354
 1347SOL     OW15499   0.113   3.506   5.883  0.2490  0.3264  0.0165
 1347SOL    HW115500   0.037   3.552   5.847 -1.4865 -2.0913  0.6214
 1347SOL    HW215501   0.086   3.418   5.856  1.1277 -0.7833  2.7762
 1348SOL     OW15502   2.868   1.616   6.746 -0.4557  0.1019 -0.6411
 1348SOL    HW115503   2.869   1.669   6.666  1.0297  0.1877 -0.5535
 1348SOL    HW215504   2.809   1.674   6.793 -1.0764  0.2529 -1.6013
 1349SOL     OW15505   1.829   2.300   8.075  0.1042  0.3663 -0.1062
 1349SOL    HW115506   1.833   2.348   8.157  2.5460 -0.9446  0.5498
 1349SOL    HW215507   1.829   2.215   8.118  1.0749 -1.0364 -2.8221
 1350SOL     OW15508   1.974   0.090   1.547 -0.3396 -0.0243 -0.1052
 1350SOL    HW115509   1.934   0.116   1.630  2.2656  0.1934  1.0991
 1350SOL    HW215510   1.960   4.717   1.557  3.1419 -0.4192  1.2680
 1351SOL     OW15511   0.984   2.074  15.915 -0.7216  0.3618  0.3108
 1351SOL    HW115512   0.929   2.071  15.837 -2.2745 -0.5201  1.4637
 1351SOL    HW215513   1.027   2.157  15.892 -0.5194  0.5646  1.4482
 1352SOL     OW15514   1.341   3.523   1.731 -0.0096  0.8329  0.2359
 1352SOL    HW115515   1.249   3.538   1.755  0.1071  0.9677  0.5902
 1352SOL    HW215516   1.363   3.450   1.789  1.5370 -0.1567 -1.6216
 1353SOL     OW15517   2.756   4.037   3.619  0.2169 -0.5408  1.0799
 1353SOL    HW115518   2.683   4.097   3.636 -1.1871 -0.8495 -3.8305
 1353SOL    HW215519   2.789   4.009   3.705  2.8927  3.1807  1.2648
 1354SOL     OW15520   2.038   2.338   4.285 -0.3936 -0.4242 -0.9013
 1354SOL    HW115521   2.127   2.313   4.260 -0.2342  0.9554 -1.7587
 1354SOL    HW215522   1.980   2.271   4.249  1.5335 -0.5001 -3.8612
 1355SOL     OW15523   0.158   1.597   6.537 -0.6042 -0.6175 -0.1022
 1355SOL    HW115524   0.128   1.687   6.526  0.1985 -0.5695 -1.9673
 1355SOL    HW215525   0.192   1.610   6.626  0.5693  0.1680 -0.6710
 1356SOL     OW15526   4.720   0.573   5.398  0.4253 -0.0710 -0.5121
 1356SOL    HW115527   4.696   0.501   5.458 -1.2244 -0.0279 -1.1351
 1356SOL    HW215528   4.641   0.588   5.346  1.6068  2.1669 -1.6400
 1357SOL     OW15529   2.781   0.627   6.793  0.0282  0.3068  0.0598
 1357SOL    HW115530   2.695   0.655   6.826 -0.5104 -0.1473 -0.9697
 1357SOL    HW215531   2.813   0.603   6.880 -0.0332 -0.4144 -0.1173
 1358SOL     OW15532   2.250   0.968   4.879 -0.3928  0.5323 -0.4368
 1358SOL    HW115533   2.285   1.054   4.900 -0.0059  0.2994 -0.1140
 1358SOL    HW215534   2.188   0.993   4.811  1.2982  2.4793 -1.2600
 1359SOL     OW15535   1.409   3.530  17.666 -0.2993  0.1613 -0.2346
 1359SOL    HW115536   1.347   3.597  17.637 -0.2265  0.6493  0.7529
 1359SOL    HW215537   1.434   3.477  17.590 -1.3346 -0.9977  0.2357
 1360SOL     OW15538   2.258   0.019   9.638 -0.1854  0.0466  0.0077
 1360SOL    HW115539   2.192   0.082   9.611  0.9474  1.1710 -0.1219
 1360SOL    HW215540   2.316   0.014   9.562 -1.7670  0.4624 -1.2342
 1361SOL     OW15541   0.800   0.051   8.757 -0.5559  0.0381  0.5756
 1361SOL    HW115542   0.852   0.086   8.684  0.2358 -2.3993 -0.0060
 1361SOL    HW215543   0.851   0.069   8.836 -0.3012  0.6984  0.2666
 1362SOL     OW15544   3.132   4.321  17.324  0.1908 -0.0696  0.1568
 1362SOL    HW115545   3.056   4.278  17.286  1.6981 -1.9945 -0.7048
 1362SOL    HW215546   3.094   4.408  17.341 -1.6909 -0.3917 -2.5116
 1363SOL     OW15547   2.701   4.438   0.738 -0.2335  0.0686 -0.7635
 1363SOL    HW115548   2.631   4.504   0.734 -1.1135 -0.8631 -0.7111
 1363SOL    HW215549   2.761   4.462   0.668  0.0127  1.6863  0.0073
 1364SOL     OW15550   3.086   0.643   4.188 -0.1583  0.7083  0.0901
 1364SOL    HW115551   2.997   0.659   4.218 -0.1185  0.2214  0.4640
 1364SOL    HW215552   3.125   0.727   4.215 -3.2649  1.9876  0.6018
 1365SOL     OW15553   0.847   1.840   1.801  0.0081 -0.2933  0.0795
 1365SOL    HW115554   0.852   1.783   1.725  0.8172  0.5492 -0.4936
 1365SOL    HW215555   0.795   1.912   1.766  0.6605 -0.1085 -0.4959
 1366SOL     OW15556   1.543   2.870   4.859 -0.1115  0.4199  0.0431
 1366SOL    HW115557   1.625   2.868   4.907  0.6880 -1.7036 -1.4480
 1366SOL    HW215558   1.565   2.944   4.802  0.7609 -0.1396 -0.3243
 1367SOL     OW15559   3.132   0.354  14.836  0.3655  0.1458  0.1411
 1367SOL    HW115560   3.195   0.359  14.908 -1.2212 -2.5724  1.7421
 1367SOL    HW215561   3.058   0.401  14.875 -0.7570  0.4128 -2.2806
 1368SOL     OW15562   3.884   0.558   6.374  0.3919  0.3372  0.1440
 1368SOL    HW115563   3.855   0.638   6.417  0.7729  0.8627 -0.5900
 1368SOL    HW215564   3.942   0.523   6.442 -0.0097  0.8540  0.7479
 1369SOL     OW15565   2.545   0.982  17.337  0.2026  0.2065  0.4584
 1369SOL    HW115566   2.577   1.064  17.373  0.6129  0.1275  0.2743
 1369SOL    HW215567   2.589   0.919  17.395  0.4003 -1.0348 -1.0339
 1370SOL     OW15568   1.841   2.642   5.720 -0.3183  0.5371 -0.4165
 1370SOL    HW115569   1.835   2.724   5.672 -0.4322  0.7008 -0.1234
 1370SOL    HW215570   1.927   2.646   5.764  0.2281  1.0006 -1.5254
 1371SOL     OW15571   2.770   0.517   3.887 -0.7252  0.0343 -0.3527
 1371SOL    HW115572   2.851   0.551   3.923 -1.1882 -0.3025  1.0034
 1371SOL    HW215573   2.807   0.485   3.804 -1.8850  1.1277 -1.2992
 1372SOL     OW15574   2.121   0.104   4.267 -0.2286 -0.3580  0.8532
 1372SOL    HW115575   2.160   0.149   4.192  1.6203 -0.3708  1.8101
 1372SOL    HW215576   2.182   0.142   4.330 -1.9766 -1.1889  3.0293
 1373SOL     OW15577   0.344   1.169   6.787  0.2388  0.0674  0.6516
 1373SOL    HW115578   0.289   1.192   6.712 -0.4773  1.3747  1.5818
 1373SOL    HW215579   0.281   1.173   6.858 -1.5701  1.8137 -1.0593
 1374SOL     OW15580   2.492   0.672  17.034 -0.1140  0.0496 -0.7427
 1374SOL    HW115581   2.410   0.676  17.085  0.5190 -0.8417  0.3413
 1374SOL    HW215582   2.541   0.745  17.071  0.5232 -1.3343  1.1799
 1375SOL     OW15583   4.050   0.235  12.851 -0.0305 -0.3600 -0.0203
 1375SOL    HW115584   4.135   0.250  12.891 -1.5794  3.4528  1.8860
 1375SOL    HW215585   4.006   0.233  12.937  1.5897  1.1836  0.8543
 1376SOL     OW15586   2.341   0.635   5.859 -0.3961  0.3872 -0.5325
 1376SOL    HW115587   2.420   0.629   5.806  0.6976  1.5416  0.9424
 1376SOL    HW215588   2.286   0.617   5.783 -0.7993 -0.8624  0.0510
 1377SOL     OW15589   1.029   3.202   6.124  0.4927  0.1962  0.1161
 1377SOL    HW115590   1.103   3.215   6.182  1.0913 -1.4103 -0.2858
 1377SOL    HW215591   0.986   3.286   6.138 -0.4611 -0.6431  2.2101
 1378SOL     OW15592   0.119   1.668  12.936  0.0660  0.1658  0.2620
 1378SOL    HW115593   0.212   1.663  12.961 -0.1176  1.3841  1.1870
 1378SOL    HW215594   0.097   1.761  12.939  1.2062  0.5442 -2.5415
 1379SOL     OW15595   2.482   2.008  10.460  0.1037 -0.0821 -0.0876
 1379SOL    HW115596   2.538   2.067  10.510  0.4441  0.1521 -0.7422
 1379SOL    HW215597   2.428   2.063  10.404 -0.1825 -1.1732 -0.8885
 1380SOL     OW15598   2.316   0.924  17.199 -0.1014  0.1884  0.3343
 1380SOL    HW115599   2.332   0.988  17.130 -2.7590 -2.1398 -2.4259
 1380SOL    HW215600   2.389   0.939  17.259 -0.1935 -2.1034  1.0124
 1381SOL     OW15601   2.161   3.589   2.433 -0.1771 -0.3251 -0.0328
 1381SOL    HW115602   2.173   3.521   2.366  2.9289  1.1636 -0.9670
 1381SOL    HW215603   2.066   3.604   2.432 -0.1421 -0.1220 -1.0707
 1382SOL     OW15604   3.622   0.637  13.552  0.2723  0.0642 -0.0986
 1382SOL    HW115605   3.550   0.579  13.531 -0.5567 -0.0764  3.1544
 1382SOL    HW215606   3.616   0.685  13.469 -1.6779 -1.2285 -0.6894
 1383SOL     OW15607   0.219   1.206   6.136  0.0787  0.2923 -0.1834
 1383SOL    HW115608   0.206   1.134   6.199 -0.4919  0.9184  0.4138
 1383SOL    HW215609   0.203   1.280   6.195  1.5017  0.5525 -0.1075
 1384SOL     OW15610   2.436   0.152   3.953 -0.4900 -1.0435 -0.1699
 1384SOL    HW115611   2.438   0.062   3.921 -0.6747 -0.4720 -1.7869
 1384SOL    HW215612   2.510   0.182   3.901 -2.8001  1.3787 -2.0526
 1385SOL     OW15613   3.088   3.610  14.044  0.6349 -0.6557 -0.1388
 1385SOL    HW115614   3.118   3.654  13.965  1.0937 -1.4734 -0.4281
 1385SOL    HW215615   3.066   3.687  14.095 -0.4035  0.3235 -2.0669
 1386SOL     OW15616   0.365   1.911   1.085  0.7799  0.0145 -0.4556
 1386SOL    HW115617   0.314   1.977   1.037 -0.5622 -0.2514  0.6102
 1386SOL    HW215618   0.333   1.833   1.038 -2.5587  0.6186  0.8052
 1387SOL     OW15619   1.844   0.775   8.097 -0.2198 -0.0367  0.1820
 1387SOL    HW115620   1.896   0.779   8.177  0.3629 -2.7295 -0.0752
 1387SOL    HW215621   1.911   0.753   8.033 -0.9210  1.2228 -0.9681
 1388SOL     OW15622   4.105   0.536  16.726 -0.7561 -0.5729  0.2408
 1388SOL    HW115623   4.080   0.573  16.811 -2.0916  0.5460 -0.6248
 1388SOL    HW215624   4.062   0.596  16.665 -1.4614 -0.8077  0.5041
 1389SOL     OW15625   1.177   0.025   6.540 -0.3706 -0.3905 -0.1648
 1389SOL    HW115626   1.271   0.009   6.537 -0.6972 -2.0029 -1.7001
 1389SOL    HW215627   1.173   0.097   6.478 -2.5468 -0.7638 -0.4777
 1390SOL     OW15628   2.348   1.880   5.259  0.2165  0.8112 -0.3747
 1390SOL    HW115629   2.401   1.837   5.192 -2.2327 -2.0858 -0.4160
 1390SOL    HW215630   2.369   1.972   5.243 -0.7507  0.7359 -2.0449
 1391SOL     OW15631   1.033   4.079  11.675  0.0604  0.2729 -0.4033
 1391SOL    HW115632   1.030   4.156  11.618 -2.8800  0.0569 -0.5234
 1391SOL    HW215633   1.125   4.076  11.703 -0.0191  2.6182  0.0825
 1392SOL     OW15634   0.222   2.219   1.185 -0.0746  0.4910 -0.7686
 1392SOL    HW115635   0.273   2.192   1.109 -1.8895 -0.1754 -1.7405
 1392SOL    HW215636   0.169   2.139   1.192 -0.8806  1.3650  3.3027
 1393SOL     OW15637   0.139   2.958   1.537  0.2281  0.5306  0.2731
 1393SOL    HW115638   0.121   2.966   1.444 -0.4650  1.0102  0.4506
 1393SOL    HW215639   0.061   2.913   1.570  0.4807 -0.4475 -0.4660
 1394SOL     OW15640   1.333   3.726  11.457  0.2092  0.0468 -0.1072
 1394SOL    HW115641   1.289   3.798  11.411  0.8170 -0.4022 -1.3770
 1394SOL    HW215642   1.337   3.660  11.388 -3.0484 -1.0109  0.7143
 1395SOL     OW15643   2.844   4.705  14.286  0.4908  0.1166  0.1030
 1395SOL    HW115644   2.906   0.031  14.343  2.7559 -1.0154 -1.4047
 1395SOL    HW215645   2.892   4.707  14.203 -1.5359  1.2259 -1.0327
 1396SOL     OW15646   1.247   3.022  15.736 -0.3261 -0.5510 -0.5365
 1396SOL    HW115647   1.256   3.091  15.802 -0.9570  0.5264 -1.5626
 1396SOL    HW215648   1.337   3.018  15.704  0.1201 -2.9805  0.9980
 1397SOL     OW15649   3.677   0.831   6.223 -0.2614  0.0748  0.0006
 1397SOL    HW115650   3.720   0.864   6.302 -0.4618 -3.2057  1.5078
 1397SOL    HW215651   3.585   0.851   6.238 -0.3045 -1.2380  1.5056
 1398SOL     OW15652   1.274   1.696   9.355  0.1624 -0.3561  0.5565
 1398SOL    HW115653   1.238   1.721   9.441 -0.1235  0.7053  0.1271
 1398SOL    HW215654   1.294   1.603   9.371  0.5230 -0.4575 -0.5234
 1399SOL     OW15655   4.588   1.611  13.925  0.4736  0.1569  0.6708
 1399SOL    HW115656   4.671   1.582  13.963  0.7331 -0.8725 -0.7005
 1399SOL    HW215657   4.529   1.545  13.963  0.4327  0.0115  0.3471
 1400SOL     OW15658   4.520   0.915  13.557  0.4538 -0.1156 -0.2189
 1400SOL    HW115659   4.512   0.987  13.620 -1.5614 -0.3302 -0.2188
 1400SOL    HW215660   4.604   0.939  13.518 -1.8141  3.1920 -3.0285
 1401SOL     OW15661   1.435   4.555   4.534  0.1983 -0.1280 -0.4522
 1401SOL    HW115662   1.438   4.504   4.614  1.2531 -0.9775 -1.0309
 1401SOL    HW215663   1.527   4.545   4.509  0.5475 -0.3432  0.9452
 1402SOL     OW15664   2.745   1.909   5.632 -0.0418 -0.5378  0.8033
 1402SOL    HW115665   2.695   1.868   5.561  0.3490  0.2017  0.1006
 1402SOL    HW215666   2.684   1.968   5.677  1.3377  0.2234  1.6665
 1403SOL     OW15667   2.716   1.841  13.983 -0.0674 -0.3983  0.0095
 1403SOL    HW115668   2.741   1.930  14.010  0.2668 -0.1200 -1.2552
 1403SOL    HW215669   2.623   1.837  13.959  0.5293 -1.9061 -2.0096
 1404SOL     OW15670   2.938   4.200   3.188 -0.0765 -0.3723  0.9872
 1404SOL    HW115671   2.862   4.215   3.244 -1.8917  1.4403 -1.9374
 1404SOL    HW215672   2.901   4.148   3.117 -2.0927 -0.5090  2.1698
 1405SOL     OW15673   1.281   4.262   5.406 -0.2695 -0.1372 -0.1882
 1405SOL    HW115674   1.323   4.308   5.333 -1.5456  0.9268 -0.2468
 1405SOL    HW215675   1.342   4.277   5.478  0.1780 -0.2761 -0.5381
 1406SOL     OW15676   3.249   3.873   9.883  0.8097 -0.2048 -0.3810
 1406SOL    HW115677   3.253   3.797   9.941  2.4501 -0.9397 -1.4662
 1406SOL    HW215678   3.181   3.920   9.930  1.3014 -0.1662  0.2851
 1407SOL     OW15679   3.845   2.226  16.871 -0.2058  0.0346  0.2223
 1407SOL    HW115680   3.859   2.179  16.789  0.5246 -0.4667  0.6360
 1407SOL    HW215681   3.933   2.263  16.881  0.6931 -1.7368 -1.0768
 1408SOL     OW15682   4.349   1.318   0.159 -0.2040  0.1002  0.3329
 1408SOL    HW115683   4.265   1.303   0.203  0.7404  0.4155  2.2488
 1408SOL    HW215684   4.404   1.244   0.183  1.0366  0.8226 -0.2991
 1409SOL     OW15685   2.201   3.058   7.996 -0.3342 -0.2892  0.3121
 1409SOL    HW115686   2.207   3.153   7.985  1.8954 -0.7313 -2.4990
 1409SOL    HW215687   2.292   3.031   7.984 -0.1417  0.3550  0.3487
 1410SOL     OW15688   2.888   4.232   3.826 -0.4273 -0.3197 -0.2119
 1410SOL    HW115689   2.906   4.152   3.875  0.7211  0.9538  1.4145
 1410SOL    HW215690   2.898   4.197   3.737 -1.4695  3.1463 -1.6858
 1411SOL     OW15691   3.651   1.447   6.266 -1.1864  0.7196 -0.1687
 1411SOL    HW115692   3.649   1.542   6.275  1.2640  0.8855 -1.3262
 1411SOL    HW215693   3.695   1.426   6.184  1.3267  0.9542  1.1229
 1412SOL     OW15694   1.251   0.051   6.952  0.1320  0.3625 -0.9955
 1412SOL    HW115695   1.285   0.107   7.021  0.2206  1.8170 -2.2124
 1412SOL    HW215696   1.321   0.056   6.886  1.1144  1.0423  0.1133
 1413SOL     OW15697   2.121   2.093   7.655 -0.2319 -0.0046  0.0920
 1413SOL    HW115698   2.045   2.133   7.613 -1.2432 -2.8039 -0.7854
 1413SOL    HW215699   2.097   2.119   7.744  0.7908 -1.9445  0.9444
 1414SOL     OW15700   1.027   2.137   2.750 -0.6619  0.2380  0.4831
 1414SOL    HW115701   1.089   2.072   2.783  0.7518  1.5573  0.4355
 1414SOL    HW215702   1.071   2.221   2.759  0.3316  0.1096 -3.2770
 1415SOL     OW15703   4.027   1.836   6.964 -0.9163 -0.0954 -0.4326
 1415SOL    HW115704   3.934   1.821   6.947 -0.7858 -1.4186 -0.0148
 1415SOL    HW215705   4.047   1.774   7.035 -2.3469  1.5415  1.3707
 1416SOL     OW15706   3.538   2.306   9.144  0.5806 -0.2731  0.1451
 1416SOL    HW115707   3.498   2.330   9.061 -0.3423  3.3184  1.6004
 1416SOL    HW215708   3.467   2.326   9.205 -0.2689  2.7193 -1.7970
 1417SOL     OW15709   0.611   1.801   0.729 -0.3671  0.1458 -0.4601
 1417SOL    HW115710   0.688   1.829   0.778 -0.7102 -1.8470  1.1938
 1417SOL    HW215711   0.629   1.848   0.647 -1.9114  1.1630 -0.2012
 1418SOL     OW15712   2.388   3.579   7.422 -0.4220 -0.2137 -0.3026
 1418SOL    HW115713   2.374   3.494   7.381 -0.0559 -0.6759  0.5327
 1418SOL    HW215714   2.299   3.598   7.451  0.1058 -1.7431  2.3242
 1419SOL     OW15715   1.281   0.817   3.026 -0.2849 -0.2631 -0.3229
 1419SOL    HW115716   1.326   0.793   3.107  2.9247  0.2202 -1.9697
 1419SOL    HW215717   1.206   0.862   3.065  1.1098  1.6931  0.0768
 1420SOL     OW15718   2.435   3.712   8.913  0.1139  0.1377  0.1597
 1420SOL    HW115719   2.514   3.725   8.861 -0.2556 -1.9074 -0.9131
 1420SOL    HW215720   2.362   3.747   8.862  0.6344 -2.1664 -2.1770
 1421SOL     OW15721   2.529   4.527   4.107  0.7172 -0.7742  0.7248
 1421SOL    HW115722   2.555   4.442   4.072 -1.0385 -1.2688  0.6337
 1421SOL    HW215723   2.494   4.560   4.025  1.1275  0.4634  1.0402
 1422SOL     OW15724   3.514   1.751   7.326  0.2737  0.0980 -0.2038
 1422SOL    HW115725   3.508   1.831   7.379 -1.0548  0.3251 -0.6841
 1422SOL    HW215726   3.520   1.780   7.235  0.9584  0.0405 -0.1746
 1423SOL     OW15727   2.403   4.541   3.523 -0.2323  0.3326  0.0922
 1423SOL    HW115728   2.315   4.524   3.557  0.0973 -2.2296 -0.3254
 1423SOL    HW215729   2.404   4.480   3.449 -1.8258 -0.8921  1.0919
 1424SOL     OW15730   2.895   1.639   3.546  0.3143 -0.4762  0.4527
 1424SOL    HW115731   2.899   1.601   3.634  1.3806  0.5056  0.8317
 1424SOL    HW215732   2.893   1.556   3.499  0.9811 -0.9579  1.2692
 1425SOL     OW15733   1.292   1.538   8.424 -0.7750 -0.4077  0.2179
 1425SOL    HW115734   1.270   1.466   8.482  0.5389  0.7050  2.1039
 1425SOL    HW215735   1.369   1.503   8.378 -0.1403  0.4160  0.6417
 1426SOL     OW15736   2.720   3.532   8.519  0.3971  0.2579  0.5228
 1426SOL    HW115737   2.675   3.616   8.520 -0.0753 -0.0128  2.0403
 1426SOL    HW215738   2.737   3.522   8.426  0.4844  0.5869  0.5067
 1427SOL     OW15739   0.905   4.634   9.790 -0.1547  0.8140  0.0305
 1427SOL    HW115740   0.918   4.718   9.833 -1.0526  1.0172 -0.0851
 1427SOL    HW215741   0.921   4.578   9.866 -0.8192  0.0078 -0.4162
 1428SOL     OW15742   2.935   2.113   2.206  0.1972 -0.1587  0.0153
 1428SOL    HW115743   3.008   2.174   2.211  0.3823 -0.3642 -0.1791
 1428SOL    HW215744   2.984   2.032   2.191  1.0315  0.4759 -0.6480
 1429SOL     OW15745   2.390   1.831  11.493 -0.1864 -0.5846 -0.2954
 1429SOL    HW115746   2.314   1.885  11.513  0.6319  0.1547  0.8251
 1429SOL    HW215747   2.350   1.756  11.449  0.5517  0.7229 -3.2330
 1430SOL     OW15748   1.169   0.750   3.318 -0.2009  0.2571 -0.2696
 1430SOL    HW115749   1.082   0.727   3.287  0.4511 -1.9529 -0.4978
 1430SOL    HW215750   1.192   0.686   3.385  2.5497  1.1197 -0.3656
 1431SOL     OW15751   3.193   2.314   4.680  0.5429  0.1300 -0.8743
 1431SOL    HW115752   3.208   2.384   4.616  0.6176 -0.2419 -1.2711
 1431SOL    HW215753   3.242   2.249   4.629 -0.2402 -0.9728 -0.2055
 1432SOL     OW15754   1.109   3.390   3.141 -0.0692  0.2983 -1.1553
 1432SOL    HW115755   1.145   3.404   3.054  0.0526 -0.2542 -1.1938
 1432SOL    HW215756   1.168   3.436   3.201 -2.2247  1.6908 -0.0947
 1433SOL     OW15757   0.171   1.931  15.701 -0.0541  0.5367  0.0095
 1433SOL    HW115758   0.083   1.907  15.729 -0.0612 -0.5472 -0.9392
 1433SOL    HW215759   0.151   1.930  15.607  2.4093  0.0438 -0.5034
 1434SOL     OW15760   4.375   1.726   6.472 -0.0439 -0.2476 -0.6571
 1434SOL    HW115761   4.327   1.728   6.389  2.3301  1.3932 -2.0151
 1434SOL    HW215762   4.416   1.813   6.470 -0.7375  0.0927 -0.1651
 1435SOL     OW15763   4.706   4.528   2.879  0.3289  0.0905  0.8917
 1435SOL    HW115764   0.073   4.517   2.845 -0.5624  0.6278 -1.5424
 1435SOL    HW215765   4.665   4.597   2.827 -1.6696 -0.7140  1.3726
 1436SOL     OW15766   3.343   1.078   7.240 -0.0387 -0.9173 -0.0961
 1436SOL    HW115767   3.360   1.097   7.147 -1.8252 -1.1289 -0.4593
 1436SOL    HW215768   3.249   1.063   7.240 -0.5016  1.9533  0.1211
 1437SOL     OW15769   0.214   3.040   7.574  0.4046 -0.1576  0.2643
 1437SOL    HW115770   0.291   3.068   7.624  1.3354 -0.4945 -1.0025
 1437SOL    HW215771   0.251   2.973   7.516  4.5847  0.2881  2.4728
 1438SOL     OW15772   3.364   1.981  11.357 -0.0023 -0.1212  0.3651
 1438SOL    HW115773   3.358   1.976  11.262 -1.9590  1.9645  0.3573
 1438SOL    HW215774   3.458   1.972  11.367  0.1175 -1.3387 -1.9664
 1439SOL     OW15775   0.743   4.079   4.148  0.2571 -0.0425 -0.0964
 1439SOL    HW115776   0.799   4.148   4.115 -1.9693  2.0604  0.5593
 1439SOL    HW215777   0.714   4.119   4.230  1.4495  0.3960  0.1069
 1440SOL     OW15778   3.726   0.384   7.057  0.6204 -0.4128 -0.5582
 1440SOL    HW115779   3.766   0.298   7.065 -0.5701 -0.8177  1.0708
 1440SOL    HW215780   3.713   0.410   7.148  0.6832 -3.3247  0.2828
 1441SOL     OW15781   1.354   0.372   0.323 -0.2536  0.0316 -0.9175
 1441SOL    HW115782   1.447   0.396   0.316  0.3417 -2.1393 -0.5161
 1441SOL    HW215783   1.324   0.455   0.359 -0.2871 -0.0351 -0.7918
 1442SOL     OW15784   3.129   1.658   3.029 -0.2859 -0.2269 -0.1905
 1442SOL    HW115785   3.039   1.670   3.001 -0.0271  0.2066 -0.8148
 1442SOL    HW215786   3.165   1.736   2.987  0.3550 -0.1089  0.5770
 1443SOL     OW15787   4.485   0.729  17.540  0.7948 -0.3768  0.1697
 1443SOL    HW115788   4.498   0.823  17.525 -2.5479  0.1742  0.7444
 1443SOL    HW215789   4.395   0.734  17.573  0.8534 -0.2400  0.3096
 1444SOL     OW15790   1.947   0.613   1.776  0.0865  0.8763  0.3711
 1444SOL    HW115791   1.868   0.666   1.786 -1.2400 -0.5070 -2.4529
 1444SOL    HW215792   1.997   0.658   1.707 -2.1371  1.9750 -0.5096
 1445SOL     OW15793   2.290   1.739   0.962 -0.1579 -0.3147 -0.1952
 1445SOL    HW115794   2.305   1.822   1.008 -1.7917  0.4269 -0.9689
 1445SOL    HW215795   2.194   1.733   0.969 -0.0522 -1.6589 -0.0083
 1446SOL     OW15796   4.250   3.896   8.230 -0.3032  0.3916  0.5277
 1446SOL    HW115797   4.282   3.973   8.277  0.1861  0.5350 -0.0463
 1446SOL    HW215798   4.242   3.934   8.143  0.5267  0.3175  0.4208
 1447SOL     OW15799   0.576   4.431   4.107  0.4241  0.1849 -0.2291
 1447SOL    HW115800   0.551   4.501   4.047 -0.1829  0.5550  0.4624
 1447SOL    HW215801   0.579   4.474   4.192 -1.2196 -0.6305  0.2414
 1448SOL     OW15802   0.254   2.071   4.208  0.0767 -0.5167  0.0574
 1448SOL    HW115803   0.349   2.058   4.204  0.1849  0.7461 -1.3532
 1448SOL    HW215804   0.236   2.020   4.288 -1.6287  0.3849  0.2504
 1449SOL     OW15805   2.561   2.953   0.049 -0.0077 -0.4701  0.2618
 1449SOL    HW115806   2.640   2.979   0.096  0.7070 -1.3132 -0.4847
 1449SOL    HW215807   2.502   2.987   0.117  0.0519 -0.6893  0.4253
 1450SOL     OW15808   0.701   1.592  13.163 -0.2290  0.5206  0.1981
 1450SOL    HW115809   0.713   1.502  13.193 -0.0390  0.1300 -1.0528
 1450SOL    HW215810   0.654   1.635  13.234 -0.8767  0.6720 -0.3237
 1451SOL     OW15811   1.887   1.985  14.491 -0.4170 -0.1890  1.0172
 1451SOL    HW115812   1.804   2.014  14.454 -0.6120 -2.5451 -0.4378
 1451SOL    HW215813   1.877   1.957  14.582 -0.7770 -1.8132  0.4886
 1452SOL     OW15814   2.370   2.894   9.514  0.1129 -0.4503  0.1040
 1452SOL    HW115815   2.334   2.955   9.579  0.5089  0.7465 -0.8011
 1452SOL    HW215816   2.418   2.956   9.459  0.8810  0.7410  2.0948
 1453SOL     OW15817   2.743   1.380   3.152  0.4562  0.3412 -0.1194
 1453SOL    HW115818   2.829   1.407   3.121  0.9224 -0.2193  0.7060
 1453SOL    HW215819   2.770   1.292   3.178 -1.3055 -0.3727 -0.7002
 1454SOL     OW15820   0.881   1.606   1.630 -0.2589  0.7456  0.1563
 1454SOL    HW115821   0.850   1.522   1.664 -1.4194  1.3631  0.6310
 1454SOL    HW215822   0.973   1.602   1.657 -0.7227 -1.1863  1.4995
 1455SOL     OW15823   3.653   2.514   5.233 -0.5459  0.1163  0.4974
 1455SOL    HW115824   3.587   2.580   5.255 -0.0583  1.1608 -1.2090
 1455SOL    HW215825   3.594   2.446   5.200  2.5134 -2.0363 -0.5880
 1456SOL     OW15826   4.657   1.413  12.472 -0.7861  0.6635  0.1520
 1456SOL    HW115827   4.689   1.333  12.514  0.7895  1.0073 -0.3832
 1456SOL    HW215828   4.674   1.483  12.534  0.3887 -0.3875  1.0206
 1457SOL     OW15829   1.654   3.671   8.057 -0.1830  0.1141  0.4420
 1457SOL    HW115830   1.724   3.616   8.020  3.9179  3.9486  2.5317
 1457SOL    HW215831   1.706   3.744   8.091  0.2758  0.5125 -1.1044
 1458SOL     OW15832   2.597   0.767   9.146 -0.1845 -0.0564 -0.5409
 1458SOL    HW115833   2.607   0.756   9.241 -0.1623 -0.7873 -0.6295
 1458SOL    HW215834   2.587   0.674   9.126 -2.1017  0.7601 -3.5026
 1459SOL     OW15835   1.148   1.593   1.447 -0.1560 -0.0328  0.3502
 1459SOL    HW115836   1.238   1.617   1.470  0.1293 -1.5264  0.7727
 1459SOL    HW215837   1.160   1.500   1.430  0.1145  0.3552 -1.5422
 1460SOL     OW15838   0.072   0.859   3.446 -0.0398  0.5509  0.0864
 1460SOL    HW115839   0.010   0.831   3.378  1.1576 -1.5704 -0.1502
 1460SOL    HW215840   0.050   0.950   3.463  2.8463  1.5192 -1.5400
 1461SOL     OW15841   2.504   4.136  14.004 -0.0216  0.0471  0.1653
 1461SOL    HW115842   2.571   4.133  14.072  1.5982  3.4344 -1.2958
 1461SOL    HW215843   2.553   4.170  13.929 -0.0764 -2.7340 -1.1442
 1462SOL     OW15844   0.132   1.857   8.777 -0.5231  0.4657 -0.1730
 1462SOL    HW115845   0.206   1.856   8.838 -1.3096 -1.4838  0.7223
 1462SOL    HW215846   0.149   1.943   8.737 -0.4676 -0.1428 -1.4470
 1463SOL     OW15847   3.464   1.369   8.460  0.1241  0.1490 -0.1230
 1463SOL    HW115848   3.406   1.402   8.529 -0.9289  0.6619 -1.2547
 1463SOL    HW215849   3.549   1.398   8.496  0.3001 -1.0953  0.4415
 1464SOL     OW15850   4.603   4.608   4.383  0.4282  0.2718  0.2000
 1464SOL    HW115851   4.685   4.559   4.383  0.7046  0.7974 -3.3726
 1464SOL    HW215852   4.576   4.601   4.475  0.2692 -0.4711  0.0922
 1465SOL     OW15853   2.977   3.423   8.532 -0.4676 -0.3003  0.1435
 1465SOL    HW115854   2.899   3.478   8.538  0.3623  0.7298  1.4854
 1465SOL    HW215855   2.948   3.332   8.525 -0.0370 -0.4311  0.0906
 1466SOL     OW15856   0.736   2.616   2.753  0.0009  0.7518 -0.1871
 1466SOL    HW115857   0.640   2.618   2.757 -0.0177  0.6870 -0.5900
 1466SOL    HW215858   0.758   2.655   2.669  1.0378  1.0437  0.2318
 1467SOL     OW15859   3.297   1.757  10.704  0.7418 -0.1846 -0.5295
 1467SOL    HW115860   3.310   1.672  10.746 -4.5851 -0.3590  0.6766
 1467SOL    HW215861   3.207   1.739  10.679  0.4819  2.4561 -1.4877
 1468SOL     OW15862   4.378   4.387   8.260 -0.0887  0.3550  0.1357
 1468SOL    HW115863   4.421   4.466   8.226  2.4029 -1.1972 -0.3828
 1468SOL    HW215864   4.294   4.418   8.291 -0.6708 -1.0235 -0.0549
 1469SOL     OW15865   0.916   1.671   9.010  0.5442 -0.3732 -0.2159
 1469SOL    HW115866   0.937   1.763   8.996  1.6602 -0.3670  1.4341
 1469SOL    HW215867   0.822   1.677   9.031  0.3601 -1.5467 -0.6814
 1470SOL     OW15868   3.864   0.144  12.659 -0.1460 -0.0451 -0.4283
 1470SOL    HW115869   3.927   0.169  12.727  0.8326 -0.2800 -1.2328
 1470SOL    HW215870   3.847   0.057  12.696  0.6801 -0.0424 -0.0204
 1471SOL     OW15871   0.757   4.489   8.131 -0.6773  0.1303 -0.0563
 1471SOL    HW115872   0.797   4.404   8.150 -0.5518  0.3152  0.4990
 1471SOL    HW215873   0.730   4.519   8.218  2.4661  0.1554  0.9154
 1472SOL     OW15874   2.485   4.487  13.877  0.0686  0.6903  1.0152
 1472SOL    HW115875   2.477   4.581  13.860 -0.5386  0.4696  0.0950
 1472SOL    HW215876   2.407   4.477  13.932 -0.2392  2.0011  0.8174
 1473SOL     OW15877   1.819   0.364  16.039  0.4744  0.2329 -0.1744
 1473SOL    HW115878   1.894   0.420  16.018 -0.2029  1.8123  1.5458
 1473SOL    HW215879   1.746   0.421  16.015 -0.7639 -1.1332  0.3329
 1474SOL     OW15880   2.822   1.600   2.410 -0.1842 -0.4898 -0.3144
 1474SOL    HW115881   2.814   1.683   2.365  0.0669 -0.2835  0.0263
 1474SOL    HW215882   2.838   1.623   2.501  0.0550  2.0432 -1.0072
 1475SOL     OW15883   2.770   4.622   8.079 -0.5863  0.0246  0.8418
 1475SOL    HW115884   2.787   4.704   8.126 -0.5922  0.7704 -0.4358
 1475SOL    HW215885   2.774   4.555   8.147 -2.6268 -0.0065  0.9276
 1476SOL     OW15886   0.684   0.481   3.822  0.7295  0.0025 -0.1427
 1476SOL    HW115887   0.645   0.431   3.749  1.6049 -0.0317 -0.5814
 1476SOL    HW215888   0.740   0.416   3.864  3.8044  2.0882 -1.0781
 1477SOL     OW15889   2.603   3.624   4.817 -0.3431 -0.0409  0.4993
 1477SOL    HW115890   2.580   3.628   4.724  0.5374  2.0022  0.3677
 1477SOL    HW215891   2.530   3.572   4.850 -1.2023 -0.4117 -1.9353
 1478SOL     OW15892   2.262   3.363   9.484  0.3025 -0.1197 -0.7582
 1478SOL    HW115893   2.193   3.317   9.436  0.3082  1.4524 -2.2765
 1478SOL    HW215894   2.205   3.427   9.528  0.4755 -0.1666 -0.4612
 1479SOL     OW15895   1.753   1.650   1.958  0.0736  0.2610 -0.0247
 1479SOL    HW115896   1.706   1.585   1.907 -1.8629  0.5334  1.3930
 1479SOL    HW215897   1.840   1.609   1.956 -0.0097  0.1041 -0.4823
 1480SOL     OW15898   3.474   2.280   8.077 -0.1602  0.1341  0.0229
 1480SOL    HW115899   3.439   2.315   8.159  0.1265  1.5464 -0.4505
 1480SOL    HW215900   3.509   2.363   8.043 -2.5967  0.1568 -2.4529
 1481SOL     OW15901   1.909   2.246   4.881  0.5574  0.1281 -0.3497
 1481SOL    HW115902   1.927   2.196   4.801 -0.7078 -0.8456 -0.0306
 1481SOL    HW215903   1.999   2.270   4.902  0.7010  1.0140 -1.9753
 1482SOL     OW15904   1.125   3.678   8.249 -0.2576  0.1561  0.1788
 1482SOL    HW115905   1.083   3.750   8.202  0.7298  0.4435 -0.2691
 1482SOL    HW215906   1.051   3.631   8.286  0.8989 -1.7844  0.0237
 1483SOL     OW15907   1.622   0.077   2.203 -0.0318 -0.1931  0.4296
 1483SOL    HW115908   1.602   4.708   2.227  0.9189 -0.6482 -0.4780
 1483SOL    HW215909   1.550   0.123   2.245 -1.2012  0.1398 -1.9051
 1484SOL     OW15910   1.211   1.403   3.249  0.3696  0.2255 -0.3471
 1484SOL    HW115911   1.200   1.397   3.344 -2.7446  2.0945 -0.5766
 1484SOL    HW215912   1.286   1.461   3.245  1.6420 -1.2637  1.9275
 1485SOL     OW15913   2.929   3.838   5.515 -0.7449 -0.4540  0.1012
 1485SOL    HW115914   2.846   3.816   5.557 -0.0612  0.0254  1.7249
 1485SOL    HW215915   2.906   3.880   5.432 -0.6084 -3.9075 -1.6674
 1486SOL     OW15916   2.784   4.351   1.434 -0.1817  0.0952 -0.1215
 1486SOL    HW115917   2.718   4.389   1.376 -1.2504 -0.6180  0.6377
 1486SOL    HW215918   2.757   4.369   1.523 -0.5709  0.0970 -0.2420
 1487SOL     OW15919   1.504   2.164   2.925 -0.8801 -0.1951 -0.1612
 1487SOL    HW115920   1.525   2.147   3.017 -1.6258  1.1280  0.2490
 1487SOL    HW215921   1.412   2.188   2.928 -1.3227 -1.7816 -0.6141
 1488SOL     OW15922   4.104   2.551  11.896  0.1756 -0.2334  0.0982
 1488SOL    HW115923   4.161   2.581  11.826  1.5522 -1.8458  0.5486
 1488SOL    HW215924   4.072   2.640  11.915  2.5102  0.1756  2.2216
 1489SOL     OW15925   3.224   2.567   4.893  0.5593  0.1522  0.1235
 1489SOL    HW115926   3.184   2.480   4.889 -0.2389  0.4724  1.1454
 1489SOL    HW215927   3.263   2.574   4.806 -0.7080  2.0246 -0.2842
 1490SOL     OW15928   3.567   0.682   7.075 -0.0007 -0.1995 -0.3989
 1490SOL    HW115929   3.626   0.662   7.003 -0.8626 -1.1223 -0.8543
 1490SOL    HW215930   3.633   0.686   7.144 -1.8295 -0.6702  1.3906
 1491SOL     OW15931   0.438   2.239   1.325  0.1217  0.1154 -0.7879
 1491SOL    HW115932   0.364   2.233   1.264 -0.9904  0.7201  0.5131
 1491SOL    HW215933   0.495   2.163   1.308 -0.2468  0.2349 -2.6200
 1492SOL     OW15934   0.726   2.598   4.523  0.2382  0.5580  0.4029
 1492SOL    HW115935   0.815   2.569   4.543  0.4780  0.7063 -0.4326
 1492SOL    HW215936   0.682   2.544   4.588 -0.0664  2.4538  1.7866
 1493SOL     OW15937   0.007   4.474  17.565  0.1423 -0.0079  0.1115
 1493SOL    HW115938   4.634   4.469  17.547  0.0066  1.0963  0.5056
 1493SOL    HW215939   0.014   4.561  17.603 -0.0225 -0.2254  0.6448
 1494SOL     OW15940   1.526   4.315   4.010  0.4542  0.4662  0.5558
 1494SOL    HW115941   1.543   4.315   4.104  0.9375  1.2789  0.4654
 1494SOL    HW215942   1.432   4.297   4.013  0.7675 -1.2930  0.1733
 1495SOL     OW15943   4.713   1.540   4.258 -0.5116 -0.6008 -0.4339
 1495SOL    HW115944   4.659   1.505   4.329  0.7727 -2.5975 -0.4307
 1495SOL    HW215945   0.081   1.513   4.279 -1.1520 -1.3718  1.3131
 1496SOL     OW15946   3.328   1.584  17.155  0.0809 -0.8335  0.6492
 1496SOL    HW115947   3.381   1.508  17.131 -1.1443 -1.5780  0.2754
 1496SOL    HW215948   3.312   1.611  17.065  0.6176 -0.5000  0.6561
 1497SOL     OW15949   0.135   3.037   5.749  0.0720 -0.1990  0.4290
 1497SOL    HW115950   0.198   3.100   5.782  3.3875 -3.5298  0.4632
 1497SOL    HW215951   0.189   2.970   5.707 -0.7549 -0.9035  0.4842
 1498SOL     OW15952   4.587   3.140   5.994 -0.1092  0.1746  0.4606
 1498SOL    HW115953   4.580   3.200   5.920  0.5221 -1.8841 -1.2788
 1498SOL    HW215954   4.500   3.108   6.015  0.4335 -0.7460  1.3245
 1499SOL     OW15955   3.409   1.749  13.559  0.1781 -0.5403  0.0861
 1499SOL    HW115956   3.340   1.698  13.515 -1.5479  2.1226 -0.3130
 1499SOL    HW215957   3.356   1.775  13.634  0.9846  0.9306  0.1521
 1500SOL     OW15958   4.111   4.132  17.441 -0.1644 -0.2744  0.3774
 1500SOL    HW115959   4.118   4.187  17.363  2.2519  1.8795  2.1160
 1500SOL    HW215960   4.062   4.056  17.409 -0.2894  1.1400 -2.8070
 1501SOL     OW15961   1.794   4.262   5.273  0.0259 -0.0017  0.3301
 1501SOL    HW115962   1.870   4.209   5.295  0.7452  1.4538  1.3698
 1501SOL    HW215963   1.791   4.236   5.181 -2.1548 -2.9372  1.2477
 1502SOL     OW15964   0.868   3.049   7.822  0.3830  0.0040  0.3771
 1502SOL    HW115965   0.905   3.108   7.756 -0.0579 -0.0120  0.1079
 1502SOL    HW215966   0.906   3.091   7.899 -0.1162  2.0339 -0.4622
 1503SOL     OW15967   3.567   3.373   1.348 -0.3781  0.2297  0.2930
 1503SOL    HW115968   3.662   3.369   1.336 -0.3158 -0.0132  0.8463
 1503SOL    HW215969   3.534   3.285   1.368  1.7295 -0.2292  1.6961
 1504SOL     OW15970   2.821   4.400   3.491  0.1252 -0.5420  0.5234
 1504SOL    HW115971   2.768   4.356   3.424 -0.7132  1.4529 -0.1116
 1504SOL    HW215972   2.848   4.483   3.453 -1.2077 -0.9056 -1.1880
 1505SOL     OW15973   0.821   3.404  11.289  0.2132 -0.9142  0.5099
 1505SOL    HW115974   0.876   3.349  11.233  2.0621 -0.8511  2.2758
 1505SOL    HW215975   0.878   3.480  11.298  0.2658 -0.8040 -0.7165
 1506SOL     OW15976   2.128   4.325   5.217  0.0743  0.2346 -0.8256
 1506SOL    HW115977   2.201   4.299   5.161  1.1345  0.1393  0.5961
 1506SOL    HW215978   2.084   4.240   5.225 -2.3426  1.5858  0.2447
 1507SOL     OW15979   2.901   1.248  17.419  0.1461  0.6993  0.0222
 1507SOL    HW115980   2.922   1.312  17.351 -2.8598 -0.4384 -2.0057
 1507SOL    HW215981   2.983   1.256  17.468  0.2039  3.9193 -0.6265
 1508SOL     OW15982   3.291   3.771  17.566 -0.1991  0.4880  0.2075
 1508SOL    HW115983   3.383   3.763  17.590 -0.5500 -3.2353  0.3682
 1508SOL    HW215984   3.261   3.680  17.567  1.1506  0.0697  1.9958
 1509SOL     OW15985   2.096   0.151   7.602 -0.3486  0.1208  0.3197
 1509SOL    HW115986   2.118   0.222   7.663  0.0027  1.7100 -1.6411
 1509SOL    HW215987   2.006   0.169   7.577  0.6174  4.1182 -0.3371
 1510SOL     OW15988   1.436   4.298  10.822  0.6925 -0.2447  0.2215
 1510SOL    HW115989   1.384   4.218  10.829 -0.2937  0.3374 -0.5663
 1510SOL    HW215990   1.525   4.262  10.818  0.1486 -1.4961 -0.7543
 1511SOL     OW15991   3.419   0.791  13.393  0.1457 -0.1714 -0.1237
 1511SOL    HW115992   3.335   0.838  13.384 -0.7587 -1.7197  0.2001
 1511SOL    HW215993   3.479   0.841  13.337 -1.1305  0.1348 -1.2329
 1512SOL     OW15994   3.175   4.687   3.389 -0.0972 -0.2696  0.3101
 1512SOL    HW115995   3.241   4.653   3.449  0.5671  2.9605  1.3972
 1512SOL    HW215996   3.191   4.628   3.315  0.0691 -1.9534  1.6705
 1513SOL     OW15997   3.251   0.183  15.316  0.3622  0.4356  0.1948
 1513SOL    HW115998   3.230   0.090  15.318  0.7729  0.3941  1.8807
 1513SOL    HW215999   3.198   0.223  15.385  0.5270 -0.4875  0.8515
 1514SOL     OW16000   0.853   2.944   1.958 -0.2548 -0.1653 -0.2040
 1514SOL    HW116001   0.845   2.858   1.916 -0.7931  0.1199 -0.6942
 1514SOL    HW216002   0.795   2.997   1.903 -0.5362  0.2526  0.5000
 1515SOL     OW16003   3.045   0.240   3.561  0.0033 -0.1665  0.2289
 1515SOL    HW116004   3.075   0.150   3.551  1.2418  0.0850  1.7391
 1515SOL    HW216005   3.114   0.285   3.610  2.3627 -2.4602 -0.9804
 1516SOL     OW16006   1.953   1.018  16.662 -0.1653 -0.4096 -0.3248
 1516SOL    HW116007   1.981   1.109  16.674  2.1625 -0.8432 -2.2659
 1516SOL    HW216008   1.911   1.039  16.579 -1.0049 -1.4366 -0.1640
 1517SOL     OW16009   2.256   4.187   5.730  0.0890 -0.2647 -0.1957
 1517SOL    HW116010   2.285   4.096   5.729  2.2151  0.4786 -2.6030
 1517SOL    HW216011   2.307   4.223   5.803 -2.7051  0.4458  1.4310
 1518SOL     OW16012   0.997   3.929   4.153 -0.6272  0.3349  0.7144
 1518SOL    HW116013   0.954   3.844   4.141  2.9780 -1.1753 -1.5954
 1518SOL    HW216014   0.933   3.977   4.100 -0.4073  2.3276  2.2654
 1519SOL     OW16015   2.283   0.688   8.931  0.6279  0.6902  0.4676
 1519SOL    HW116016   2.209   0.668   8.873  0.3100  0.2918  1.0237
 1519SOL    HW216017   2.285   0.784   8.922 -0.7607  0.4619 -2.3270
 1520SOL     OW16018   0.149   3.110   5.239  0.7417  0.2953 -0.0418
 1520SOL    HW116019   0.195   3.124   5.156  1.5277 -2.3029 -0.0462
 1520SOL    HW216020   0.221   3.138   5.296 -0.6088  0.5883  1.5198
 1521SOL     OW16021   3.462   1.131   8.319 -0.1881 -0.3050  0.1891
 1521SOL    HW116022   3.443   1.212   8.367 -2.0354 -0.1322 -0.8333
 1521SOL    HW216023   3.373   1.096   8.317 -0.0253 -0.6887 -0.4342
 1522SOL     OW16024   4.240   0.366   4.695  0.0971  1.2875  0.1221
 1522SOL    HW116025   4.255   0.459   4.713 -0.6182  1.7917 -1.8610
 1522SOL    HW216026   4.315   0.339   4.643 -0.7976 -0.5882 -0.1846
 1523SOL     OW16027   3.798   4.201  11.610  0.2896 -0.8231 -0.1603
 1523SOL    HW116028   3.762   4.272  11.558 -2.6187 -1.3916  1.0470
 1523SOL    HW216029   3.788   4.130  11.546  0.4060 -1.0776  0.1031
 1524SOL     OW16030   2.074   1.604   3.667 -0.5526 -0.1919 -0.1140
 1524SOL    HW116031   1.980   1.619   3.680 -0.6889 -2.2216  1.2873
 1524SOL    HW216032   2.106   1.692   3.648 -0.0322 -0.2526  0.4648
 1525SOL     OW16033   4.065   1.634   5.301 -0.5927 -0.1458  0.4028
 1525SOL    HW116034   4.139   1.694   5.313 -1.6916  1.7565 -2.5957
 1525SOL    HW216035   4.001   1.673   5.362 -1.0143 -2.1074  1.2157
 1526SOL     OW16036   1.396   1.229  11.404  0.1965  0.2228  0.6499
 1526SOL    HW116037   1.492   1.235  11.401  0.2637 -2.7492 -2.6083
 1526SOL    HW216038   1.380   1.223  11.499  0.1390  0.4142  0.6521
 1527SOL     OW16039   2.525   4.297  13.672 -0.1426 -0.3263 -0.3603
 1527SOL    HW116040   2.581   4.246  13.730 -1.4679 -1.2670  0.0850
 1527SOL    HW216041   2.501   4.360  13.740 -0.3931  0.3707 -1.0952
 1528SOL     OW16042   1.143   1.437   3.519 -0.3112  0.0507 -0.0825
 1528SOL    HW116043   1.112   1.350   3.547 -0.6969  0.0352 -0.5668
 1528SOL    HW216044   1.209   1.458   3.586  1.6124  0.3302 -2.0602
 1529SOL     OW16045   1.600   3.278  13.378 -0.3748 -0.0528 -0.2267
 1529SOL    HW116046   1.565   3.200  13.334 -0.8521 -0.5514  1.0404
 1529SOL    HW216047   1.598   3.343  13.308 -2.1856 -1.3597 -1.4025
 1530SOL     OW16048   4.307   2.559  13.165 -0.4884  1.0684  0.4858
 1530SOL    HW116049   4.379   2.499  13.183  0.7708  1.4895 -3.1523
 1530SOL    HW216050   4.339   2.595  13.082  1.4901  1.3000  1.3413
 1531SOL     OW16051   0.668   3.852  16.476  0.1234 -0.5734  0.3836
 1531SOL    HW116052   0.676   3.911  16.550  0.2442 -0.6445  0.4267
 1531SOL    HW216053   0.750   3.805  16.494  0.6930 -0.4965 -2.0462
 1532SOL     OW16054   0.881   4.445   4.408  0.0651 -0.5127 -0.4911
 1532SOL    HW116055   0.869   4.430   4.501  0.9170 -0.0904 -0.3181
 1532SOL    HW216056   0.787   4.435   4.391 -0.2267  0.6027  0.4605
 1533SOL     OW16057   2.739   1.448   4.369  0.0138 -0.1516  0.7355
 1533SOL    HW116058   2.763   1.371   4.317  1.8798  1.5420 -0.8832
 1533SOL    HW216059   2.690   1.409   4.441 -0.4155  0.1327  0.5942
 1534SOL     OW16060   4.161   0.281   6.218 -0.3423  0.2892 -0.1844
 1534SOL    HW116061   4.099   0.342   6.178 -0.8161  0.0227  0.1303
 1534SOL    HW216062   4.135   0.199   6.176 -0.6555 -0.5268  1.6023
 1535SOL     OW16063   3.708   3.838  14.151 -0.0924 -0.0422 -0.2759
 1535SOL    HW116064   3.782   3.818  14.208  1.6803  1.5669 -2.0368
 1535SOL    HW216065   3.739   3.916  14.105  0.1931  1.1621  1.9690
 1536SOL     OW16066   1.788   0.186   6.355 -0.1337  0.6752 -0.4076
 1536SOL    HW116067   1.840   0.231   6.288  1.6465 -1.7452 -0.6142
 1536SOL    HW216068   1.848   0.113   6.363 -0.8534  0.0712 -0.5289
 1537SOL     OW16069   4.432   3.689  17.612 -0.3150 -0.0489  0.0765
 1537SOL    HW116070   4.521   3.660  17.591 -0.1370  0.3111  0.3406
 1537SOL    HW216071   4.446   3.703   0.018  2.5715  0.6038 -0.4419
 1538SOL     OW16072   2.563   2.498   8.316 -0.4031  0.4491  0.2820
 1538SOL    HW116073   2.650   2.475   8.284 -0.4200  1.7721 -0.7250
 1538SOL    HW216074   2.499   2.506   8.245  0.0435 -1.1544 -0.2979
 1539SOL     OW16075   3.578   0.626   6.545  0.0078  0.6672 -0.0122
 1539SOL    HW116076   3.621   0.618   6.630 -1.1712  1.8219  0.6996
 1539SOL    HW216077   3.601   0.717   6.527  0.3542  0.4875 -0.4839
 1540SOL     OW16078   3.047   0.211   1.785  0.1694  0.2226  0.4054
 1540SOL    HW116079   3.081   0.139   1.839  0.6592  0.8354  0.9121
 1540SOL    HW216080   3.098   0.200   1.705  0.3143 -3.5553  1.0088
 1541SOL     OW16081   0.048   1.421   5.604  0.5085 -1.0318  0.1342
 1541SOL    HW116082   0.017   1.336   5.634  1.7438 -1.2333  0.8247
 1541SOL    HW216083   4.716   1.439   5.526  1.3678 -1.0963 -0.4701
 1542SOL     OW16084   0.747   2.690   3.243 -0.1314 -0.4015 -0.2761
 1542SOL    HW116085   0.711   2.657   3.160 -2.5191  2.2455 -0.2876
 1542SOL    HW216086   0.722   2.782   3.242  1.5426  0.0143 -2.6727
 1543SOL     OW16087   0.205   0.114   5.073 -0.1981 -0.1107 -0.0776
 1543SOL    HW116088   0.125   0.144   5.115  0.6470 -0.7791  2.0223
 1543SOL    HW216089   0.186   0.133   4.982 -0.0992 -1.0908 -0.3081
 1544SOL     OW16090   1.104   0.738  10.053 -0.0480  0.1363 -0.1607
 1544SOL    HW116091   1.164   0.743   9.978  1.4871 -0.1323  1.0611
 1544SOL    HW216092   1.164   0.742  10.127 -1.2675 -0.8659  0.8710
 1545SOL     OW16093   3.169   4.450   7.759 -0.0699  0.2784  0.3141
 1545SOL    HW116094   3.086   4.499   7.755 -0.1564  0.3270  2.4992
 1545SOL    HW216095   3.170   4.402   7.677  0.9895 -1.3030  1.2475
 1546SOL     OW16096   2.325   0.591   7.051  0.1178 -0.0273  0.5474
 1546SOL    HW116097   2.265   0.565   6.982 -0.3835 -3.0086  2.1342
 1546SOL    HW216098   2.273   0.564   7.126 -0.4824 -1.2699 -0.3285
 1547SOL     OW16099   3.178   2.047   6.360  0.1980  0.0119  0.4208
 1547SOL    HW116100   3.269   2.053   6.333  0.3446  1.4541  1.2487
 1547SOL    HW216101   3.144   2.044   6.271  0.5086 -1.3271  0.3437
 1548SOL     OW16102   3.593   3.769   3.507 -0.1540 -0.1666  0.0971
 1548SOL    HW116103   3.514   3.818   3.532  0.6135  2.4074 -2.5086
 1548SOL    HW216104   3.656   3.767   3.579 -0.0733  1.9740  0.1046
 1549SOL     OW16105   4.673   0.410   5.639 -0.4084 -0.4067  0.5240
 1549SOL    HW116106   4.712   0.466   5.705  0.5647  1.1548 -1.3887
 1549SOL    HW216107   4.596   0.379   5.687 -0.1275 -0.9656  0.6132
 1550SOL     OW16108   1.502   3.808   4.859  0.2559 -0.8051 -0.2531
 1550SOL    HW116109   1.455   3.867   4.918  2.1249 -0.2768  0.6836
 1550SOL    HW216110   1.480   3.720   4.888 -1.5918 -0.2827 -0.0568
 1551SOL     OW16111   0.204   4.534   7.448 -0.3962 -0.1866  0.5234
 1551SOL    HW116112   0.110   4.541   7.434 -0.2734  0.2492 -0.0706
 1551SOL    HW216113   0.227   4.502   7.361 -0.0224 -1.3833  1.0691
 1552SOL     OW16114   1.650   4.361   6.030  0.0188  0.7928  0.0325
 1552SOL    HW116115   1.710   4.434   6.044  0.4321  0.1730  1.4144
 1552SOL    HW216116   1.711   4.307   5.980  0.3688 -0.3399  1.7061
 1553SOL     OW16117   3.470   2.346   2.587  0.2507 -0.0741 -0.2039
 1553SOL    HW116118   3.515   2.261   2.588 -2.2630 -1.3898  1.5020
 1553SOL    HW216119   3.528   2.385   2.652  1.7328 -1.1612 -0.8498
 1554SOL     OW16120   2.513   2.507   6.769 -0.7784 -0.3648 -0.6310
 1554SOL    HW116121   2.479   2.418   6.777  0.5756 -0.7402  0.8964
 1554SOL    HW216122   2.566   2.496   6.691  0.5620 -0.8454  0.3608
 1555SOL     OW16123   3.700   0.904  12.168 -0.0097  0.5125 -0.0857
 1555SOL    HW116124   3.777   0.958  12.152 -0.9594  1.5792 -1.1326
 1555SOL    HW216125   3.661   0.897  12.081 -1.3367  1.7526  0.3940
 1556SOL     OW16126   1.051   1.036   3.358  0.1978 -0.0999  0.3288
 1556SOL    HW116127   1.057   0.950   3.399 -2.0198 -1.0772 -1.3982
 1556SOL    HW216128   1.130   1.032   3.305  0.6548 -2.4969  1.2126
 1557SOL     OW16129   3.777   3.088  11.514  0.3714 -0.1317  0.0405
 1557SOL    HW116130   3.806   3.179  11.509  0.8627 -0.2338  0.8697
 1557SOL    HW216131   3.687   3.090  11.483  0.6791  0.1431 -0.8384
 1558SOL     OW16132   1.838   1.408   7.942 -0.3657 -1.0087  0.4455
 1558SOL    HW116133   1.873   1.336   7.995 -0.1841 -0.4314  1.1154
 1558SOL    HW216134   1.819   1.367   7.858 -1.2845  0.0751  0.1204
 1559SOL     OW16135   2.154   0.898   2.328  0.2703  0.5337 -0.1178
 1559SOL    HW116136   2.088   0.879   2.262  1.0429 -0.5076 -0.5914
 1559SOL    HW216137   2.221   0.829   2.324  1.4435  1.6172  0.5227
 1560SOL     OW16138   2.805   0.322   9.203 -0.3302 -0.0963  0.2325
 1560SOL    HW116139   2.882   0.350   9.153 -0.2960  1.4859  1.1510
 1560SOL    HW216140   2.831   0.350   9.291 -0.9486  1.4911 -0.0800
 1561SOL     OW16141   3.913   0.357  16.507  0.0123 -0.3082 -0.5045
 1561SOL    HW116142   3.826   0.318  16.514 -0.3150  0.7233  1.0559
 1561SOL    HW216143   3.975   0.300  16.552 -0.8616 -1.7560 -1.1146
 1562SOL     OW16144   1.196   1.097   1.518 -0.4456 -0.1343 -0.5846
 1562SOL    HW116145   1.221   1.006   1.532 -0.1829 -0.4219 -3.0503
 1562SOL    HW216146   1.283   1.134   1.504 -0.4828  0.7515  1.5300
 1563SOL     OW16147   3.956   2.606  11.661 -0.1046 -0.7598  0.1776
 1563SOL    HW116148   3.923   2.547  11.594 -0.7557  1.2628 -1.2524
 1563SOL    HW216149   3.998   2.545  11.722  1.7061 -0.0149 -0.3389
 1564SOL     OW16150   3.610   1.236   4.517 -0.1834  0.3435  0.0310
 1564SOL    HW116151   3.674   1.210   4.450 -0.1879 -1.0687  0.5787
 1564SOL    HW216152   3.580   1.320   4.483  0.8231 -0.2024 -2.2098
 1565SOL     OW16153   2.849   2.238   3.107  0.2432  0.6019 -0.8511
 1565SOL    HW116154   2.938   2.264   3.083  1.2959 -2.4436 -0.2326
 1565SOL    HW216155   2.856   2.144   3.093 -0.4078  0.2406  1.2207
 1566SOL     OW16156   4.375   2.769   5.491  0.2738  0.0502 -0.2748
 1566SOL    HW116157   4.414   2.703   5.434  0.0246 -0.4543  0.1376
 1566SOL    HW216158   4.281   2.761   5.479  0.3560  1.4451 -1.8448
 1567SOL     OW16159   0.149   1.146   6.982 -0.3534  0.3256 -0.2444
 1567SOL    HW116160   0.081   1.187   7.036 -0.7569 -0.9636  0.2337
 1567SOL    HW216161   0.092   1.077   6.947 -0.7786  0.5859 -0.0719
 1568SOL     OW16162   2.667   4.218  15.565  0.2549 -0.3841 -0.3637
 1568SOL    HW116163   2.595   4.243  15.508 -0.8558 -1.5119  0.5544
 1568SOL    HW216164   2.653   4.289  15.628  0.8213  0.0498 -0.7305
 1569SOL     OW16165   1.807   3.191   8.552  0.4114 -0.1337  0.3100
 1569SOL    HW116166   1.798   3.246   8.630 -1.1659  1.6266 -1.0835
 1569SOL    HW216167   1.844   3.253   8.489  0.9967 -0.5112  0.2849
 1570SOL     OW16168   0.195   0.578   3.191 -0.7432  0.0645 -0.0293
 1570SOL    HW116169   0.195   0.537   3.105 -2.0767 -2.6701  1.2571
 1570SOL    HW216170   0.280   0.621   3.180 -0.7930  0.0068 -0.6439
 1571SOL     OW16171   1.759   4.174   8.341  0.2353  0.0293 -0.2392
 1571SOL    HW116172   1.839   4.123   8.345  0.0358 -0.3392 -1.0812
 1571SOL    HW216173   1.703   4.133   8.407  1.2545 -0.1460  0.5112
 1572SOL     OW16174   0.148   0.627   8.127 -0.0305  0.1900  0.1886
 1572SOL    HW116175   0.165   0.567   8.054 -0.5574 -0.6843  0.7806
 1572SOL    HW216176   0.216   0.607   8.191  0.1844 -1.0002 -0.3982
 1573SOL     OW16177   3.024   3.333   5.275  0.3447  0.4079  0.1171
 1573SOL    HW116178   3.047   3.424   5.294 -0.6108  0.5999  0.3805
 1573SOL    HW216179   3.020   3.336   5.179  0.3668 -0.6149  0.0862
 1574SOL     OW16180   3.393   0.525  14.221  0.0860  0.2012  0.2738
 1574SOL    HW116181   3.455   0.500  14.153 -0.3317 -1.1398  0.3821
 1574SOL    HW216182   3.452   0.569  14.283  1.3004  0.1513 -0.8595
 1575SOL     OW16183   3.681   4.148   7.200 -0.0826 -0.1059  0.4436
 1575SOL    HW116184   3.680   4.055   7.177  1.4089 -0.0209  0.0547
 1575SOL    HW216185   3.717   4.135   7.288 -2.2614 -1.2620  1.1799
 1576SOL     OW16186   1.790   4.203   0.809 -0.3034 -0.4515 -0.0853
 1576SOL    HW116187   1.801   4.110   0.828  0.4185 -0.1009  1.2162
 1576SOL    HW216188   1.740   4.195   0.728 -2.4767  0.6132  1.1681
 1577SOL     OW16189   2.821   4.334   4.541 -0.7490  0.3432  0.0714
 1577SOL    HW116190   2.755   4.373   4.484 -0.6412 -0.6309 -0.7057
 1577SOL    HW216191   2.895   4.392   4.524  1.2096 -2.0526  0.4736
 1578SOL     OW16192   4.287   1.160  13.518 -0.1901 -0.1195  0.1233
 1578SOL    HW116193   4.346   1.124  13.585  1.1292 -0.6979 -1.3537
 1578SOL    HW216194   4.338   1.190  13.444  2.1548  2.1847  2.6768
 1579SOL     OW16195   0.074   4.058   8.203 -0.0253 -0.4892 -0.0616
 1579SOL    HW116196   4.716   4.083   8.249 -1.1232  0.9483 -2.7318
 1579SOL    HW216197   0.126   4.034   8.280  1.2271  0.2056 -0.6926
 1580SOL     OW16198   3.268   3.255   5.430  0.2159  0.4545 -0.0995
 1580SOL    HW116199   3.246   3.168   5.399  0.4297  0.4195 -0.1527
 1580SOL    HW216200   3.263   3.313   5.354  0.4460  0.1668 -0.3329
 1581SOL     OW16201   0.509   0.188   4.902  0.3051 -0.7017  0.6251
 1581SOL    HW116202   0.453   0.202   4.826  2.0059  0.0577 -0.4881
 1581SOL    HW216203   0.458   0.234   4.970  0.2633  0.9490 -0.5193
 1582SOL     OW16204   3.651   0.373  10.196  0.5785 -0.5685 -0.0981
 1582SOL    HW116205   3.627   0.444  10.136  0.8860 -0.0066  0.4385
 1582SOL    HW216206   3.660   0.302  10.134 -1.0428  0.0164 -0.9812
 1583SOL     OW16207   1.504   3.076  12.410  0.0258  0.5301  0.1923
 1583SOL    HW116208   1.465   3.145  12.357  3.3189  0.6010 -2.1767
 1583SOL    HW216209   1.467   3.095  12.496  1.7684  0.7424  0.9069
 1584SOL     OW16210   2.457   2.817   4.816  0.4419 -0.0848 -1.0084
 1584SOL    HW116211   2.420   2.888   4.764 -0.7158  0.3524  0.3879
 1584SOL    HW216212   2.503   2.887   4.863 -0.3326  0.9095 -1.7406
 1585SOL     OW16213   4.268   3.057  12.192  0.0889 -0.4962 -0.4616
 1585SOL    HW116214   4.188   3.038  12.242 -0.3920 -0.0836 -1.0729
 1585SOL    HW216215   4.325   3.062  12.269 -0.3067 -1.5566 -0.1038
 1586SOL     OW16216   4.054   3.206   4.276  0.2654 -0.2627 -0.1482
 1586SOL    HW116217   4.062   3.165   4.362 -1.9389  0.0424  0.1928
 1586SOL    HW216218   3.961   3.229   4.269  1.0376  2.6522 -1.0469
 1587SOL     OW16219   4.310   3.704   7.798 -0.3997 -0.3690  0.0251
 1587SOL    HW116220   4.218   3.692   7.822 -0.5652  0.2980 -0.2909
 1587SOL    HW216221   4.312   3.659   7.713  0.1075  0.4174 -0.3718
 1588SOL     OW16222   2.346   3.156   9.645 -0.1145 -0.3437 -0.5829
 1588SOL    HW116223   2.344   3.212   9.567  0.5496  1.5722  0.7711
 1588SOL    HW216224   2.440   3.153   9.665 -0.1530 -1.1226 -0.5481
 1589SOL     OW16225   2.248   4.343   1.489  0.2648 -0.6483  0.0087
 1589SOL    HW116226   2.172   4.290   1.514 -0.8233  0.2264 -1.4543
 1589SOL    HW216227   2.307   4.272   1.466  0.3710 -0.3980 -0.4796
 1590SOL     OW16228   0.177   1.601   5.389 -0.1761  0.4026 -0.9392
 1590SOL    HW116229   0.207   1.511   5.399 -1.1166  0.3102  1.0615
 1590SOL    HW216230   0.194   1.625   5.298  0.1243 -0.4851 -1.1140
 1591SOL     OW16231   0.539   2.025   2.632  0.3686 -0.8536  0.4410
 1591SOL    HW116232   0.471   1.973   2.589 -1.7950  1.6920  0.8069
 1591SOL    HW216233   0.593   1.953   2.666  1.9747  1.2919  2.4095
 1592SOL     OW16234   2.349   1.471   3.482 -0.2998  0.1208  0.1147
 1592SOL    HW116235   2.376   1.524   3.557  2.1930 -4.5973  2.5882
 1592SOL    HW216236   2.432   1.455   3.438 -0.0026  1.0268  0.3438
 1593SOL     OW16237   2.229   0.108   0.779  0.2641  0.8806 -0.2526
 1593SOL    HW116238   2.303   0.153   0.819 -0.1123  2.3158 -1.1884
 1593SOL    HW216239   2.194   0.175   0.720 -0.7374  1.0063  0.4865
 1594SOL     OW16240   2.632   0.867   7.203 -0.1160 -0.0042 -0.4593
 1594SOL    HW116241   2.542   0.893   7.223 -0.0510 -0.9410  1.0414
 1594SOL    HW216242   2.634   0.787   7.256 -2.8009 -0.3558 -0.8654
 1595SOL     OW16243   3.983   4.695   5.384 -0.8221  0.5181 -0.4396
 1595SOL    HW116244   4.060   4.655   5.342 -1.3472  0.3373 -1.2256
 1595SOL    HW216245   3.913   4.644   5.343 -0.3251 -0.3101 -0.2599
 1596SOL     OW16246   1.159   0.796   8.679  0.0914  0.5174 -0.5877
 1596SOL    HW116247   1.207   0.775   8.599  1.3986  0.1166  0.3025
 1596SOL    HW216248   1.199   0.877   8.713  0.1176  1.2714 -2.4260
 1597SOL     OW16249   4.370   0.980   3.190 -0.3040 -0.7734 -0.2112
 1597SOL    HW116250   4.352   1.050   3.253 -0.4931 -1.0252  0.0164
 1597SOL    HW216251   4.346   0.906   3.246 -0.1048 -1.7272 -1.4030
 1598SOL     OW16252   0.242   3.458   3.369  0.2265  0.0621  1.1790
 1598SOL    HW116253   0.296   3.536   3.359  0.5949 -0.3237  0.1190
 1598SOL    HW216254   0.168   3.476   3.310  2.7620  0.6025 -1.8705
 1599SOL     OW16255   1.288   2.621  15.647  0.6193 -0.0627 -0.0759
 1599SOL    HW116256   1.202   2.632  15.688  0.7381 -0.1320  0.1898
 1599SOL    HW216257   1.338   2.560  15.700  2.7808 -0.5673 -2.6988
 1600SOL     OW16258   4.041   1.574  14.086  0.3007 -0.0897  0.1806
 1600SOL    HW116259   4.005   1.545  14.170 -1.4388  1.7572  0.0703
 1600SOL    HW216260   4.040   1.668  14.102 -2.0019  0.2693 -2.0067
 1601SOL     OW16261   3.057   1.399   6.768 -0.1656  0.2529  0.0273
 1601SOL    HW116262   2.995   1.472   6.765  0.0256  0.3739 -0.8738
 1601SOL    HW216263   3.096   1.401   6.681 -0.9096  2.0139 -0.2806
 1602SOL     OW16264   0.764   0.047   6.887 -0.0213 -0.1030  0.4517
 1602SOL    HW116265   0.776   4.675   6.905 -1.2119 -0.3666 -0.0672
 1602SOL    HW216266   0.694   0.081   6.943 -1.4137 -1.8758 -0.1666
 1603SOL     OW16267   3.393   4.499  11.657 -0.4154  0.6631 -0.5380
 1603SOL    HW116268   3.484   4.485  11.632 -0.2568 -1.4112  1.1816
 1603SOL    HW216269   3.390   4.595  11.665  0.8436  0.6104  0.5051
 1604SOL     OW16270   2.103   0.695  12.368 -0.3813 -0.0901  0.0932
 1604SOL    HW116271   2.041   0.653  12.428 -0.1345  1.1630  1.2199
 1604SOL    HW216272   2.095   0.785  12.401 -2.6427 -0.3012  0.1420
 1605SOL     OW16273   4.091   4.456   9.648 -0.4693  0.6705 -0.2030
 1605SOL    HW116274   4.106   4.541   9.691  2.1474 -0.9396  2.0859
 1605SOL    HW216275   4.025   4.479   9.583  2.2845 -0.5298 -3.4489
 1606SOL     OW16276   2.703   4.041   1.518  0.1061  0.8449  0.3797
 1606SOL    HW116277   2.758   4.110   1.481  0.3021  0.0581 -0.7748
 1606SOL    HW216278   2.762   4.027   1.592 -0.3912 -0.4294  0.5404
 1607SOL     OW16279   0.393   0.614   4.208 -0.3586 -0.1135  0.8404
 1607SOL    HW116280   0.354   0.528   4.192  0.1657 -0.2996  0.5646
 1607SOL    HW216281   0.420   0.638   4.120 -0.8474  0.4457  0.8380
 1608SOL     OW16282   2.775   1.697  14.528 -0.0532  0.0898  0.3744
 1608SOL    HW116283   2.714   1.637  14.484  0.7180 -0.1900 -0.3060
 1608SOL    HW216284   2.799   1.754  14.455  4.0396 -0.6346  1.1646
 1609SOL     OW16285   1.140   1.305   8.060  0.3142 -0.4739 -0.1114
 1609SOL    HW116286   1.052   1.318   8.096  0.1880  0.8238 -0.9184
 1609SOL    HW216287   1.169   1.394   8.077 -0.7090  0.0777 -1.1798
 1610SOL     OW16288   0.727   3.543   6.416  0.2294 -0.5250  0.6219
 1610SOL    HW116289   0.769   3.616   6.371  1.5387 -1.6608  0.0088
 1610SOL    HW216290   0.800   3.506   6.466  1.4565 -0.7220 -1.3456
 1611SOL     OW16291   2.220   2.049   9.580 -0.0881 -0.4999  0.1252
 1611SOL    HW116292   2.235   2.108   9.653  0.8911 -1.1796  0.4869
 1611SOL    HW216293   2.270   1.971   9.606 -0.5770 -0.6386  0.6394
 1612SOL     OW16294   3.712   4.335   5.014 -0.2410  0.3690 -0.2165
 1612SOL    HW116295   3.754   4.419   5.029  1.1047 -0.3750  0.2148
 1612SOL    HW216296   3.651   4.327   5.086 -1.2787  3.7493 -0.7140
 1613SOL     OW16297   1.606   2.197   3.594 -0.1687 -0.2046 -0.4900
 1613SOL    HW116298   1.559   2.226   3.673 -0.0478 -2.9709  0.6217
 1613SOL    HW216299   1.599   2.282   3.551  1.2260 -0.4694 -1.2357
 1614SOL     OW16300   4.235   4.199   7.004  0.3976 -0.2111 -0.1593
 1614SOL    HW116301   4.182   4.191   6.925 -2.1281 -1.9673  1.7393
 1614SOL    HW216302   4.321   4.195   6.962  0.1709  0.2792 -0.6690
 1615SOL     OW16303   2.888   2.324   7.840  0.0843 -0.6800  0.0088
 1615SOL    HW116304   2.958   2.385   7.864  0.9990 -0.8708 -2.2584
 1615SOL    HW216305   2.933   2.264   7.782 -0.6206 -0.5407 -0.6751
 1616SOL     OW16306   1.727   1.068   4.661 -0.0067  0.3931 -0.2041
 1616SOL    HW116307   1.765   0.981   4.645  0.9769  0.6329  0.8272
 1616SOL    HW216308   1.754   1.104   4.746 -0.4479 -2.4807  1.1770
 1617SOL     OW16309   4.156   4.471   3.149 -0.3241 -0.0656  0.1597
 1617SOL    HW116310   4.206   4.440   3.073 -0.0301 -1.3794  0.8940
 1617SOL    HW216311   4.174   4.410   3.221 -0.2724  0.4956  0.6208
 1618SOL     OW16312   1.370   3.635   2.943  0.9918  0.1124  0.4100
 1618SOL    HW116313   1.399   3.673   2.860 -0.9597  0.1783 -0.2603
 1618SOL    HW216314   1.398   3.544   2.934 -3.5233 -0.8874 -3.8166
 1619SOL     OW16315   0.792   2.874   2.972  0.2625 -0.0301 -0.4196
 1619SOL    HW116316   0.800   2.965   2.943  1.3010 -0.4728 -1.5537
 1619SOL    HW216317   0.867   2.840   2.923  0.0212 -0.1668 -0.6900
 1620SOL     OW16318   4.087   1.386   1.666  0.2351 -0.2656  0.2726
 1620SOL    HW116319   3.992   1.373   1.657  0.2968 -0.3736 -0.1936
 1620SOL    HW216320   4.085   1.465   1.720 -0.4210 -0.6404  0.8001
 1621SOL     OW16321   3.176   2.635   1.760  0.3007  0.4864 -0.1763
 1621SOL    HW116322   3.082   2.652   1.769 -0.1295 -1.7014 -0.7649
 1621SOL    HW216323   3.201   2.644   1.853 -1.4344 -0.2073  0.3427
 1622SOL     OW16324   3.794   4.098  11.855  0.5660  0.4043 -0.7960
 1622SOL    HW116325   3.807   4.135  11.768  3.3309  1.0123 -0.1189
 1622SOL    HW216326   3.879   4.108  11.897 -0.0355 -1.0824  0.7775
 1623SOL     OW16327   3.913   3.191   5.425 -0.2772  0.1091  0.8204
 1623SOL    HW116328   3.933   3.145   5.343 -0.3202  0.2326  0.7390
 1623SOL    HW216329   3.818   3.177   5.427 -0.4667  1.1474 -0.5177
 1624SOL     OW16330   3.482   3.637  11.984 -0.0370 -0.0405 -0.7943
 1624SOL    HW116331   3.546   3.570  12.009 -1.9130 -1.8468 -0.8316
 1624SOL    HW216332   3.412   3.578  12.012 -1.1802  1.4662 -0.4689
 1625SOL     OW16333   1.642   0.879   8.261  0.2949  0.9825 -0.5646
 1625SOL    HW116334   1.649   0.785   8.278 -0.1796  1.0217 -0.1769
 1625SOL    HW216335   1.707   0.878   8.190 -1.0360  0.3244 -1.7748
 1626SOL     OW16336   2.312   3.683   6.366  0.5282  0.3042  0.3764
 1626SOL    HW116337   2.385   3.623   6.381  1.3488  1.2695  0.2364
 1626SOL    HW216338   2.292   3.711   6.455 -2.8557 -2.0650  0.3612
 1627SOL     OW16339   3.584   0.209   9.000 -0.4266 -0.3066 -0.1840
 1627SOL    HW116340   3.548   0.121   9.010  0.4986 -0.8300 -1.4955
 1627SOL    HW216341   3.511   0.268   9.020 -0.0180  0.1607 -0.0978
 1628SOL     OW16342   0.352   4.568   2.351  0.0257  0.1815  0.7293
 1628SOL    HW116343   0.280   4.617   2.311  0.6712 -0.7776 -1.6267
 1628SOL    HW216344   0.394   4.647   2.383 -2.2705  2.0228 -0.7833
 1629SOL     OW16345   0.104   2.583   0.285  0.5453  0.1159 -0.4315
 1629SOL    HW116346   0.134   2.530   0.359  0.3636  0.9928  0.2815
 1629SOL    HW216347   0.047   2.531   0.228 -1.0785 -0.5541  1.7900
 1630SOL     OW16348   1.717   2.553  15.275  0.2987  0.0347  0.4815
 1630SOL    HW116349   1.710   2.582  15.185 -2.0957 -1.2985  0.2428
 1630SOL    HW216350   1.628   2.529  15.300 -0.9353  1.7865 -2.3093
 1631SOL     OW16351   4.384   4.568   7.619  0.3756 -0.1209 -0.4185
 1631SOL    HW116352   4.435   4.648   7.610  0.5177  0.1267  2.8612
 1631SOL    HW216353   4.303   4.589   7.665 -0.5263 -0.5452 -1.7993
 1632SOL     OW16354   3.673   1.143  14.876 -0.4209  0.3254  0.1952
 1632SOL    HW116355   3.639   1.205  14.811 -0.5319  0.7788  0.6888
 1632SOL    HW216356   3.592   1.130  14.926 -1.4977 -2.3219 -2.1498
 1633SOL     OW16357   2.246   2.127  10.168 -0.4644  0.1649  0.2187
 1633SOL    HW116358   2.151   2.133  10.157 -0.6511 -2.2552  0.5698
 1633SOL    HW216359   2.264   2.037  10.194  1.7748  0.3693 -0.6813
 1634SOL     OW16360   1.267   1.242   8.472 -0.2008 -0.2849  0.1269
 1634SOL    HW116361   1.313   1.213   8.550 -2.8519  0.1147  1.8682
 1634SOL    HW216362   1.250   1.160   8.426  1.0235  0.4166 -1.5895
 1635SOL     OW16363   1.375   1.126   8.057 -0.0489  0.0807  0.4956
 1635SOL    HW116364   1.282   1.148   8.048  0.3368  1.2631 -0.4935
 1635SOL    HW216365   1.381   1.091   8.146 -0.3245 -0.1172  0.4370
 1636SOL     OW16366   1.700   4.455  15.175  0.3935 -0.3015  0.1327
 1636SOL    HW116367   1.711   4.477  15.268  0.5572  0.1128  0.0165
 1636SOL    HW216368   1.776   4.404  15.146  1.5490  0.5219  1.6806
 1637SOL     OW16369   2.997   3.413   2.358  0.5473  0.0625 -0.2696
 1637SOL    HW116370   2.972   3.413   2.265 -1.2440 -0.0867  0.2163
 1637SOL    HW216371   3.001   3.507   2.373 -1.7012  0.2537 -0.8394
 1638SOL     OW16372   3.618   0.422   0.894 -0.0509 -0.6083 -0.2297
 1638SOL    HW116373   3.661   0.348   0.936 -1.6215 -1.0195  0.6423
 1638SOL    HW216374   3.540   0.383   0.855 -1.0789  1.1193  0.0604
 1639SOL     OW16375   0.288   3.838  10.662 -0.2817  0.6853 -0.2889
 1639SOL    HW116376   0.365   3.827  10.718 -0.0684  0.3254 -0.6547
 1639SOL    HW216377   0.306   3.779  10.589  1.7303  1.3800 -0.3414
 1640SOL     OW16378   3.222   1.168  10.597 -0.4859 -0.2020  0.3322
 1640SOL    HW116379   3.172   1.091  10.572 -0.0290 -0.6464  0.7983
 1640SOL    HW216380   3.298   1.134  10.644  1.1031 -0.4183 -2.3801
 1641SOL     OW16381   0.503   1.650   3.241 -0.3056 -0.1224 -0.4525
 1641SOL    HW116382   0.516   1.734   3.198 -2.0882  0.8409  0.8782
 1641SOL    HW216383   0.535   1.669   3.329  1.7211 -0.5939 -1.0891
 1642SOL     OW16384   1.873   3.487   8.660 -0.8128  0.8104 -0.0896
 1642SOL    HW116385   1.918   3.450   8.736 -0.6170 -0.4688 -0.8181
 1642SOL    HW216386   1.946   3.540   8.627  1.1379 -1.9497 -0.2101
 1643SOL     OW16387   0.945   2.503   7.353  0.2558 -0.0892 -0.3144
 1643SOL    HW116388   0.989   2.524   7.436 -0.1048  0.9678 -0.3947
 1643SOL    HW216389   1.018   2.498   7.292  1.2011  0.3377  0.7772
 1644SOL     OW16390   0.959   4.120   7.859  0.0265 -0.7931  0.6536
 1644SOL    HW116391   0.986   4.207   7.829 -1.5359 -0.5277  0.0175
 1644SOL    HW216392   1.030   4.071   7.816  0.7205  1.5273 -0.8600
 1645SOL     OW16393   0.379   4.608   3.038  0.0564  0.2298 -0.4753
 1645SOL    HW116394   0.349   4.695   3.012 -0.2878  1.4567  3.9008
 1645SOL    HW216395   0.448   4.593   2.974 -0.7020 -2.1379 -0.7265
 1646SOL     OW16396   0.902   3.886   5.542  0.1021 -0.3273  0.6288
 1646SOL    HW116397   0.966   3.894   5.472 -1.0089 -1.0715 -0.4757
 1646SOL    HW216398   0.864   3.801   5.518  3.0448 -2.1600  2.4938
 1647SOL     OW16399   2.685   4.311  11.190 -0.0767 -0.1740  0.0907
 1647SOL    HW116400   2.644   4.236  11.146 -2.3376  2.4528 -2.2804
 1647SOL    HW216401   2.720   4.363  11.118  0.1620  0.5504  0.7313
 1648SOL     OW16402   3.073   0.463  10.454 -0.6548  0.2131 -0.0795
 1648SOL    HW116403   3.108   0.411  10.526  0.6410  0.3117 -0.6364
 1648SOL    HW216404   3.112   0.442  10.369 -0.2892 -2.2609  0.7003
 1649SOL     OW16405   3.831   1.249   5.447  0.4121  0.5094 -0.5580
 1649SOL    HW116406   3.921   1.218   5.433  0.2120 -1.1426  1.9517
 1649SOL    HW216407   3.808   1.293   5.365 -1.8381 -0.3131 -0.3582
 1650SOL     OW16408   2.144   2.883   7.626  0.6027  0.0475  0.5260
 1650SOL    HW116409   2.170   2.825   7.554 -3.4664  0.0019 -0.9170
 1650SOL    HW216410   2.162   2.973   7.599 -1.0510  0.6447  1.4126
 1651SOL     OW16411   3.427   4.319   8.611 -0.1727  0.5082  0.8339
 1651SOL    HW116412   3.431   4.413   8.630  1.0564  0.8968 -1.3933
 1651SOL    HW216413   3.400   4.278   8.694  1.4431 -0.9169  0.6509
 1652SOL     OW16414   1.803   4.575   5.200 -0.9332  0.2750  0.5183
 1652SOL    HW116415   1.805   4.643   5.133 -0.4535  0.5835  0.8478
 1652SOL    HW216416   1.892   4.570   5.235 -1.0571 -0.9681  0.6633
 1653SOL     OW16417   4.157   4.696   4.425  0.3268  0.0259  0.0188
 1653SOL    HW116418   4.160   0.070   4.419 -1.3312  0.1086  0.5834
 1653SOL    HW216419   4.143   4.674   4.333 -2.6996 -2.2780  1.0135
 1654SOL     OW16420   3.623   2.276   4.898  0.5557 -0.1382  0.2745
 1654SOL    HW116421   3.580   2.351   4.940  0.2392 -0.8742  1.2513
 1654SOL    HW216422   3.644   2.215   4.969 -0.4997 -0.1926  0.5389
 1655SOL     OW16423   3.584   3.977   0.102 -0.3870  0.4118  0.2079
 1655SOL    HW116424   3.572   3.901   0.045  2.8268 -0.1413  0.2396
 1655SOL    HW216425   3.626   4.035   0.038  0.0147  0.7189  0.7503
 1656SOL     OW16426   2.745   1.953  11.351 -0.7196  0.0650  0.0011
 1656SOL    HW116427   2.754   1.884  11.416 -1.0982 -0.0894 -0.1047
 1656SOL    HW216428   2.790   2.021  11.402 -0.2364 -0.0726 -0.2481
 1657SOL     OW16429   4.123   1.993   1.045 -0.2286 -0.3407 -0.3388
 1657SOL    HW116430   4.084   1.906   1.056 -0.9966  0.1728  0.9988
 1657SOL    HW216431   4.084   2.018   0.961 -1.4866 -2.8191 -0.5103
 1658SOL     OW16432   0.898   0.334   2.325 -0.1812 -0.1515  0.6710
 1658SOL    HW116433   0.889   0.388   2.403  2.7792  1.7166 -0.2720
 1658SOL    HW216434   0.945   0.393   2.266  0.0569 -1.4972 -0.4902
 1659SOL     OW16435   1.172   1.681   4.291  0.4149  0.5527  0.2006
 1659SOL    HW116436   1.114   1.687   4.215 -2.4730  1.1486  2.4564
 1659SOL    HW216437   1.231   1.754   4.272 -0.9090  0.7412 -3.1533
 1660SOL     OW16438   0.255   4.164   7.866  0.2256  1.0135 -0.7306
 1660SOL    HW116439   0.179   4.212   7.898  0.1617  1.3185 -1.3415
 1660SOL    HW216440   0.244   4.181   7.772 -1.0793 -0.0749 -0.7653
 1661SOL     OW16441   2.435   1.130   3.122  0.3066 -0.2786  0.0489
 1661SOL    HW116442   2.389   1.056   3.162  1.3979 -0.7794  0.3808
 1661SOL    HW216443   2.397   1.131   3.035 -0.1775  2.3280  0.2726
 1662SOL     OW16444   1.114   3.329  16.704 -0.0148 -0.4334  0.3185
 1662SOL    HW116445   1.191   3.386  16.705  1.2097 -2.0697 -0.2233
 1662SOL    HW216446   1.086   3.345  16.794 -1.4546  3.1405 -0.7622
 1663SOL     OW16447   1.346   2.629   5.808  0.1571  0.3077  0.2034
 1663SOL    HW116448   1.344   2.534   5.798 -1.7027  0.4788 -0.9531
 1663SOL    HW216449   1.347   2.636   5.904  1.7035 -2.8569  0.4171
 1664SOL     OW16450   2.930   3.735  11.548 -0.1021  0.6962  0.2811
 1664SOL    HW116451   2.948   3.813  11.495 -0.3074  1.2606  1.0314
 1664SOL    HW216452   2.866   3.697  11.489  0.3440 -1.2052  1.0227
 1665SOL     OW16453   2.246   3.053  17.181  0.1114  0.0110  0.1773
 1665SOL    HW116454   2.318   2.991  17.196  0.1564 -0.1769 -0.8246
 1665SOL    HW216455   2.197   3.002  17.117 -2.5131  0.9400  1.4817
 1666SOL     OW16456   1.243   1.390   2.309  0.1204 -0.6527  0.2081
 1666SOL    HW116457   1.257   1.321   2.244 -0.4716  1.9858 -2.7632
 1666SOL    HW216458   1.301   1.457   2.271 -1.9019  1.0256  0.0892
 1667SOL     OW16459   4.418   4.371   7.434  0.1891  0.4333  0.1670
 1667SOL    HW116460   4.431   4.433   7.505  0.0530  0.0428  0.5338
 1667SOL    HW216461   4.352   4.415   7.380 -0.5960 -1.6394 -0.6023
 1668SOL     OW16462   2.281   3.049  10.390 -0.2459 -0.2613 -0.5726
 1668SOL    HW116463   2.187   3.034  10.399  0.0392 -1.0922  1.0659
 1668SOL    HW216464   2.291   3.019  10.300  0.3874 -1.5296 -0.0779
 1669SOL     OW16465   3.316   2.308   6.913 -0.0120 -0.5755  0.2561
 1669SOL    HW116466   3.243   2.319   6.974  0.2275  3.8197 -0.2202
 1669SOL    HW216467   3.279   2.304   6.825 -0.8616 -0.2488  0.6052
 1670SOL     OW16468   2.395   3.365   5.129 -0.1290 -0.1232  0.4064
 1670SOL    HW116469   2.463   3.302   5.152  1.6515  0.8411 -2.1728
 1670SOL    HW216470   2.352   3.368   5.215 -4.3302 -1.0144 -1.6944
 1671SOL     OW16471   4.449   3.766   8.360 -0.8815 -0.2518  0.5536
 1671SOL    HW116472   4.372   3.797   8.313 -0.6386 -1.8511 -0.9111
 1671SOL    HW216473   4.517   3.786   8.295  0.1173  1.0068  2.0083
 1672SOL     OW16474   1.474   1.780   3.993 -0.2210  0.1956  0.5557
 1672SOL    HW116475   1.488   1.845   3.924 -0.2194  1.0061  1.3340
 1672SOL    HW216476   1.477   1.702   3.937  0.8905 -0.3093  1.3218
 1673SOL     OW16477   0.270   0.426   4.622  0.3492 -0.1054  0.1502
 1673SOL    HW116478   0.315   0.462   4.699  1.0869 -2.0062  0.5930
 1673SOL    HW216479   0.220   0.355   4.662 -0.4135  0.0979 -0.4518
 1674SOL     OW16480   0.516   2.876   1.071 -0.0050 -0.0341  0.1251
 1674SOL    HW116481   0.469   2.960   1.067  2.3783  1.3326  0.7230
 1674SOL    HW216482   0.500   2.860   1.164 -0.4679  0.9546  0.2175
 1675SOL     OW16483   3.260   0.610   9.185  0.2603 -0.0301  0.2535
 1675SOL    HW116484   3.303   0.687   9.223  1.5349 -0.3332 -0.5611
 1675SOL    HW216485   3.175   0.652   9.173  0.8303  1.1965  0.5194
 1676SOL     OW16486   3.545   3.660   6.193 -0.3616 -0.0387  0.3636
 1676SOL    HW116487   3.453   3.682   6.208 -0.8070 -0.0665 -2.3545
 1676SOL    HW216488   3.555   3.605   6.271 -0.8326 -0.1094  0.3744
 1677SOL     OW16489   2.113   2.067   6.382 -0.3864  0.7692 -0.5635
 1677SOL    HW116490   2.059   2.108   6.449  1.4093  2.1977  0.0217
 1677SOL    HW216491   2.138   1.982   6.419  0.9584  1.6830  0.6060
 1678SOL     OW16492   4.149   2.422   3.788  0.4651 -0.3612  0.4772
 1678SOL    HW116493   4.175   2.334   3.760 -1.6444 -0.9090  0.2111
 1678SOL    HW216494   4.207   2.476   3.736  2.1692 -2.9320 -0.3086
 1679SOL     OW16495   4.306   4.398  13.588  0.7969 -0.0434  0.5796
 1679SOL    HW116496   4.267   4.464  13.531  1.2681  0.2240  0.5654
 1679SOL    HW216497   4.292   4.318  13.539  0.5530 -0.9992  2.2032
 1680SOL     OW16498   1.051   1.924   8.952 -0.0011 -0.1983  0.0983
 1680SOL    HW116499   1.098   1.903   8.870  1.7161 -0.5921  1.1738
 1680SOL    HW216500   1.003   2.005   8.940  0.4750  0.1670  0.6484
 1681SOL     OW16501   0.690   4.683   7.943  0.0040 -0.2650 -0.0282
 1681SOL    HW116502   0.701   4.604   7.996 -1.1459 -0.1038  0.4554
 1681SOL    HW216503   0.723   0.025   8.007  0.2889  1.5289 -1.9495
 1682SOL     OW16504   2.278   1.117  10.780  0.3495 -0.0226  0.3083
 1682SOL    HW116505   2.256   1.172  10.855 -2.7583 -2.5262  1.2347
 1682SOL    HW216506   2.367   1.087  10.797 -0.1914 -2.1142 -0.6224
 1683SOL     OW16507   3.785   1.973  11.619 -1.0916  0.1796 -0.0938
 1683SOL    HW116508   3.838   1.899  11.588 -1.2034 -0.6765  1.8194
 1683SOL    HW216509   3.733   1.968  11.538  1.5071  2.2884 -1.9256
 1684SOL     OW16510   1.058   1.094  13.895 -0.4711 -0.0939  0.9212
 1684SOL    HW116511   1.149   1.090  13.926 -0.7394 -0.6295  1.6209
 1684SOL    HW216512   1.059   1.148  13.815  0.6062 -0.8839  0.3966
 1685SOL     OW16513   2.385   3.406   7.164 -0.0634  0.6530  0.0380
 1685SOL    HW116514   2.399   3.312   7.163 -0.7358  0.5663 -1.6237
 1685SOL    HW216515   2.331   3.426   7.087 -0.4613  1.5019  0.5360
 1686SOL     OW16516   0.283   4.563   2.640  0.5529  0.0742  0.2182
 1686SOL    HW116517   0.294   4.514   2.722  0.2689  1.6255  1.1812
 1686SOL    HW216518   0.266   4.483   2.591  1.3485 -0.5928  1.0187
 1687SOL     OW16519   3.276   3.824   6.654 -0.1109 -1.0060  0.4990
 1687SOL    HW116520   3.199   3.870   6.689  1.6328  0.5887  2.2205
 1687SOL    HW216521   3.275   3.850   6.562 -0.8200 -0.2653  0.7137
 1688SOL     OW16522   3.678   1.219  12.607 -0.1413 -0.2653 -0.1100
 1688SOL    HW116523   3.737   1.237  12.534  0.5787 -1.3721  0.1938
 1688SOL    HW216524   3.705   1.274  12.681  0.3955 -1.5047  0.6093
 1689SOL     OW16525   2.226   2.702   7.416  0.1006  0.2677 -0.7008
 1689SOL    HW116526   2.307   2.651   7.413  0.9170  1.6851 -2.8175
 1689SOL    HW216527   2.167   2.638   7.376 -1.5290  1.1763  0.2824
 1690SOL     OW16528   0.609   4.034  16.679 -0.2141  0.1493  0.7066
 1690SOL    HW116529   0.610   4.113  16.734 -1.9096  1.5952 -1.3546
 1690SOL    HW216530   0.648   3.967  16.735 -2.0205 -2.0614 -0.6915
 1691SOL     OW16531   0.469   4.242   5.313  0.5243 -0.8173 -0.0614
 1691SOL    HW116532   0.412   4.306   5.356  2.2402 -0.4441  1.6836
 1691SOL    HW216533   0.547   4.259   5.366  2.3678 -0.3994 -2.9085
 1692SOL     OW16534   1.944   3.058  11.944 -0.2303  0.2448  0.2427
 1692SOL    HW116535   1.857   3.021  11.955  0.4008 -0.9078  1.2909
 1692SOL    HW216536   2.007   3.020  12.005 -0.1369  0.4731  0.2879
 1693SOL     OW16537   4.515   2.480   3.808 -0.2051 -0.1559  0.0704
 1693SOL    HW116538   4.450   2.507   3.742  0.2115 -2.3543 -1.2745
 1693SOL    HW216539   4.466   2.476   3.890 -0.4139 -0.4816 -0.0665
 1694SOL     OW16540   0.023   1.809   5.914  0.7752  0.4761 -0.5041
 1694SOL    HW116541   4.685   1.758   5.859  0.3853 -0.6952  0.9980
 1694SOL    HW216542   4.684   1.863   5.964  0.3599 -2.5912  2.3664
 1695SOL     OW16543   1.262   3.293   1.204  0.4552  0.5655 -0.0037
 1695SOL    HW116544   1.305   3.211   1.179  0.9150  0.6561  0.4799
 1695SOL    HW216545   1.315   3.358   1.158  2.1234 -0.5106  0.4018
 1696SOL     OW16546   2.291   2.598   3.590 -0.3342 -0.0473 -0.0913
 1696SOL    HW116547   2.320   2.670   3.534 -0.8578  0.7931  0.7326
 1696SOL    HW216548   2.359   2.582   3.656  0.4638  1.1360 -0.6285
 1697SOL     OW16549   2.480   3.585   6.632 -0.2691  0.1704  0.1088
 1697SOL    HW116550   2.528   3.552   6.555 -1.9908 -0.7581 -0.5680
 1697SOL    HW216551   2.526   3.662   6.665 -0.2188  0.1853  0.0046
 1698SOL     OW16552   4.557   0.606   8.786 -0.2772 -0.5504 -0.3461
 1698SOL    HW116553   4.500   0.667   8.832  1.2752  0.4837  0.2129
 1698SOL    HW216554   4.590   0.655   8.711  0.2094 -2.8588 -1.6632
 1699SOL     OW16555   1.188   1.021  10.761  0.2165 -0.7621  0.1670
 1699SOL    HW116556   1.183   0.935  10.719 -0.1717 -0.2653 -0.7965
 1699SOL    HW216557   1.242   0.997  10.836  0.6385 -1.1891 -0.2799
 1700SOL     OW16558   3.339   4.209   5.888 -0.4001 -0.2015 -0.3228
 1700SOL    HW116559   3.357   4.163   5.806  1.1408 -1.4256  0.6987
 1700SOL    HW216560   3.366   4.145   5.954  0.3371 -0.3241 -0.7447
 1701SOL     OW16561   0.882   2.180   6.457 -0.3459 -0.1370  0.2548
 1701SOL    HW116562   0.819   2.111   6.436  0.6020 -1.4488  1.7178
 1701SOL    HW216563   0.863   2.254   6.399  0.3835  0.4743  0.7936
 1702SOL     OW16564   1.251   2.655   3.339  0.1403 -0.0700 -0.4197
 1702SOL    HW116565   1.242   2.582   3.401 -0.6677 -0.1382 -0.6174
 1702SOL    HW216566   1.185   2.632   3.273  0.5183  0.0107 -0.8202
 1703SOL     OW16567   0.478   3.339   5.965 -0.0953  0.4250  0.4370
 1703SOL    HW116568   0.412   3.369   6.028  0.7462  0.4734  1.3107
 1703SOL    HW216569   0.520   3.422   5.943  0.3503 -0.7883 -3.1669
 1704SOL     OW16570   3.843   3.241   3.589 -0.0105 -0.3250  0.4174
 1704SOL    HW116571   3.892   3.171   3.633  0.5505  0.0008  0.3116
 1704SOL    HW216572   3.908   3.278   3.529  0.7083 -1.6726  0.3660
 1705SOL     OW16573   1.689   1.928   1.886  0.0366 -0.8065 -0.7888
 1705SOL    HW116574   1.702   1.838   1.915 -1.1654 -0.5375  0.6177
 1705SOL    HW216575   1.776   1.967   1.892 -0.0023 -0.9441  0.7568
 1706SOL     OW16576   2.941   1.619   9.378 -0.7114 -0.2476 -0.0219
 1706SOL    HW116577   2.910   1.675   9.449 -3.3159  0.2322 -1.5293
 1706SOL    HW216578   3.022   1.588   9.418  0.0277  1.9478  0.1610
 1707SOL     OW16579   4.689   1.208  16.357 -0.0370 -0.0864  0.6447
 1707SOL    HW116580   4.659   1.127  16.316 -3.1426  0.5113  1.6988
 1707SOL    HW216581   0.047   1.229  16.309 -2.4915  0.2641 -3.2587
 1708SOL     OW16582   0.836   4.004   2.940 -0.5685  0.1151 -0.0387
 1708SOL    HW116583   0.751   3.971   2.970 -0.3434 -1.6566 -1.3463
 1708SOL    HW216584   0.843   3.970   2.851 -1.8398 -0.0727 -0.0644
 1709SOL     OW16585   3.702   3.673   9.828  0.3575 -0.0679 -0.0405
 1709SOL    HW116586   3.696   3.641   9.738 -0.6685 -1.4423  0.5211
 1709SOL    HW216587   3.736   3.596   9.873  1.6000 -0.0095 -0.8623
 1710SOL     OW16588   2.782   2.670  11.468  0.1392 -0.0584 -0.0514
 1710SOL    HW116589   2.688   2.676  11.450 -0.1827 -0.0293  1.6376
 1710SOL    HW216590   2.816   2.725  11.396  0.5012 -0.2231 -0.0064
 1711SOL     OW16591   1.761   4.014   7.881  0.9984  0.3581 -0.3362
 1711SOL    HW116592   1.673   3.992   7.848  0.0367  0.1926  2.3773
 1711SOL    HW216593   1.748   4.108   7.867  0.8755  0.3446 -0.3169
 1712SOL     OW16594   0.931   2.598   5.267  0.5560  0.2630 -0.3915
 1712SOL    HW116595   0.909   2.554   5.185  0.1146  2.3431 -1.4026
 1712SOL    HW216596   0.859   2.661   5.275 -0.7424 -1.1182 -1.1669
 1713SOL     OW16597   4.094   3.462   4.616 -0.0336 -0.3830  0.3873
 1713SOL    HW116598   4.056   3.523   4.679  0.0566  0.9314 -0.8246
 1713SOL    HW216599   4.136   3.520   4.551 -1.6860  0.3874  0.0193
 1714SOL     OW16600   0.301   0.719  14.916  0.1139  0.1115  0.4021
 1714SOL    HW116601   0.369   0.653  14.902 -0.5728 -0.5788  0.3175
 1714SOL    HW216602   0.355   0.798  14.915 -0.1106  0.2793  3.2143
 1715SOL     OW16603   0.512   0.154  15.040  0.4687  0.4754  0.0969
 1715SOL    HW116604   0.546   0.120  15.123  1.7519 -0.2547 -0.7372
 1715SOL    HW216605   0.590   0.139  14.988 -0.6885 -2.4422 -0.8160
 1716SOL     OW16606   0.729   4.388  11.246 -0.2570  0.4247 -0.0061
 1716SOL    HW116607   0.701   4.377  11.155  3.3875 -1.3195 -0.9182
 1716SOL    HW216608   0.772   4.474  11.250 -1.2376  0.9570 -1.0886
 1717SOL     OW16609   4.185   3.040   5.296 -0.4712  0.4133 -0.5643
 1717SOL    HW116610   4.117   3.090   5.252 -1.1440 -1.1641 -1.3220
 1717SOL    HW216611   4.258   3.103   5.295 -0.3066  0.2451  0.6728
 1718SOL     OW16612   3.424   0.719   5.323  0.0740  0.3259  0.1576
 1718SOL    HW116613   3.386   0.720   5.411  0.6125  1.7744  0.3628
 1718SOL    HW216614   3.416   0.811   5.299 -0.4967 -0.0223 -0.9493
 1719SOL     OW16615   2.289   3.086   3.052  0.5142 -0.5869 -0.2893
 1719SOL    HW116616   2.214   3.144   3.043  1.4925  0.5701 -1.1058
 1719SOL    HW216617   2.264   3.033   3.128 -0.3101  0.3441  0.0809
 1720SOL     OW16618   4.609   0.882   8.587  0.0046 -0.2481  0.3991
 1720SOL    HW116619   4.535   0.885   8.526 -0.4600 -0.2735  0.9662
 1720SOL    HW216620   4.679   0.850   8.529  1.0646 -1.2148  2.2307
 1721SOL     OW16621   1.001   0.093   2.149 -0.4878 -0.2248 -0.3355
 1721SOL    HW116622   0.952   0.015   2.122 -0.3308  0.2042 -1.8629
 1721SOL    HW216623   0.936   0.140   2.202  0.8729 -0.1054  1.2135
 1722SOL     OW16624   0.814   3.179   7.216  0.5686  0.1169  0.3467
 1722SOL    HW116625   0.781   3.107   7.162 -0.6754  2.0073 -1.3708
 1722SOL    HW216626   0.899   3.143   7.242  0.7810 -0.3122 -0.9483
 1723SOL     OW16627   2.567   0.662   2.812  0.0026 -0.2520  0.3538
 1723SOL    HW116628   2.634   0.716   2.854 -0.3069  1.3576 -1.2261
 1723SOL    HW216629   2.503   0.632   2.877  0.9265 -3.0879 -0.0572
 1724SOL     OW16630   3.661   1.632   0.192 -0.4534 -0.1496  0.6800
 1724SOL    HW116631   3.681   1.543   0.221  0.0361  0.3247  1.7666
 1724SOL    HW216632   3.676   1.685   0.270  0.1346  0.0682  0.4185
 1725SOL     OW16633   4.213   3.292  13.652  0.2935 -0.2801 -0.7417
 1725SOL    HW116634   4.146   3.328  13.594 -1.1545 -0.1659  1.0231
 1725SOL    HW216635   4.166   3.223  13.698 -1.2843 -0.2904 -2.3863
 1726SOL     OW16636   2.310   1.530   1.578 -0.6136 -0.2066  0.1297
 1726SOL    HW116637   2.291   1.448   1.624 -1.2532 -0.0239  0.1939
 1726SOL    HW216638   2.238   1.532   1.515 -0.0083  0.4196 -0.5337
 1727SOL     OW16639   1.609   0.690   5.915  0.0744  0.2810 -0.1934
 1727SOL    HW116640   1.524   0.732   5.929  0.5240  1.3473 -0.7004
 1727SOL    HW216641   1.621   0.694   5.820 -1.1487  1.3108 -0.3034
 1728SOL     OW16642   0.857   1.290  17.687  0.2427  0.1612  0.0279
 1728SOL    HW116643   0.785   1.291  17.624 -0.2788 -0.6637  0.6111
 1728SOL    HW216644   0.932   1.293  17.626  0.1883 -1.4385 -0.1179
 1729SOL     OW16645   3.862   1.617   7.255  0.0414 -0.0034  0.1351
 1729SOL    HW116646   3.877   1.590   7.164  2.2128  1.3869  0.0917
 1729SOL    HW216647   3.854   1.529   7.293 -0.6101  0.7679  1.7913
 1730SOL     OW16648   3.506   2.366  10.389 -0.5601 -0.5903  0.1474
 1730SOL    HW116649   3.458   2.448  10.381 -1.7667 -1.3695 -0.6856
 1730SOL    HW216650   3.440   2.305  10.422 -1.7393  0.0359 -1.0496
 1731SOL     OW16651   2.953   3.717  10.948 -0.1092 -0.2658 -0.0208
 1731SOL    HW116652   2.961   3.683  11.037  1.3939 -0.8125 -0.3761
 1731SOL    HW216653   3.010   3.794  10.947 -2.7055  1.7036  2.3826
 1732SOL     OW16654   1.691   1.892   3.691 -0.2074 -0.4519 -0.2241
 1732SOL    HW116655   1.596   1.886   3.675 -0.2777  1.4792 -0.5329
 1732SOL    HW216656   1.721   1.844   3.614 -1.9442 -0.2146 -1.0673
 1733SOL     OW16657   2.584   1.742   8.522  0.5513  0.5676  0.4005
 1733SOL    HW116658   2.656   1.803   8.503  1.5533 -0.8480 -0.3050
 1733SOL    HW216659   2.591   1.693   8.441 -0.0059 -2.5451  2.2483
 1734SOL     OW16660   0.697   0.194   7.470 -0.6330  0.3158 -0.0118
 1734SOL    HW116661   0.667   0.267   7.417  0.5385  0.1130 -0.9605
 1734SOL    HW216662   0.781   0.172   7.430 -0.3545  1.9928 -0.3425
 1735SOL     OW16663   0.349   1.751   0.625  0.0122  0.5524 -0.3601
 1735SOL    HW116664   0.321   1.793   0.544 -1.4589  1.0183  0.3935
 1735SOL    HW216665   0.427   1.797   0.656 -0.0232  0.1912  0.2578
 1736SOL     OW16666   0.638   0.791   2.387  0.1506 -0.0337  0.1401
 1736SOL    HW116667   0.648   0.824   2.298  2.4934  2.5005  1.3385
 1736SOL    HW216668   0.629   0.697   2.372  1.7154 -0.2808  0.7145
 1737SOL     OW16669   1.635   4.062   5.568  0.0846 -0.2264  0.0070
 1737SOL    HW116670   1.613   4.067   5.475 -1.5682  1.5064  0.4879
 1737SOL    HW216671   1.565   4.119   5.600 -0.5811 -1.1267  0.1632
 1738SOL     OW16672   0.048   2.357   0.047 -0.5338  0.2649  0.1234
 1738SOL    HW116673   0.078   2.425  17.675 -0.5721  0.7346  0.6382
 1738SOL    HW216674   4.675   2.373   0.037  0.3127  4.4118 -1.3651
 1739SOL     OW16675   3.005   2.189  12.861  0.0813 -0.1168  0.1192
 1739SOL    HW116676   2.997   2.262  12.923 -1.6032  0.3490 -0.6409
 1739SOL    HW216677   2.959   2.233  12.789 -2.2456 -1.8817  0.5266
 1740SOL     OW16678   1.772   1.206   8.125  0.4354 -0.7161  0.6272
 1740SOL    HW116679   1.864   1.199   8.150 -0.3701  1.9855  4.3537
 1740SOL    HW216680   1.727   1.188   8.208 -1.0447  1.0029  0.1854
 1741SOL     OW16681   0.513   3.925  15.675  0.2763  0.1543 -0.1961
 1741SOL    HW116682   0.505   3.985  15.601  2.3909  0.9115  0.1853
 1741SOL    HW216683   0.451   3.955  15.742  2.5359  1.3781  1.3491
 1742SOL     OW16684   2.061   0.314   3.125 -0.6294 -0.2538 -0.2233
 1742SOL    HW116685   2.038   0.253   3.055 -0.2229 -0.0029 -0.5718
 1742SOL    HW216686   1.994   0.381   3.111  0.6003  1.2330  1.0763
 1743SOL     OW16687   3.668   3.661  15.277  0.2442  0.2067  0.1431
 1743SOL    HW116688   3.721   3.581  15.268  0.1454 -0.0053  1.4398
 1743SOL    HW216689   3.591   3.632  15.327  1.8769  1.2292  3.3000
 1744SOL     OW16690   4.071   1.680   8.269  0.0478 -0.1206  0.2311
 1744SOL    HW116691   4.120   1.603   8.240  1.4649  0.8886 -0.0716
 1744SOL    HW216692   4.090   1.668   8.362 -3.1373  3.7884  1.3358
 1745SOL     OW16693   3.008   3.831  12.310  0.8561  0.3669  0.0587
 1745SOL    HW116694   2.941   3.774  12.348  0.5434 -0.5057 -1.7901
 1745SOL    HW216695   3.085   3.840  12.367  0.7527  2.2928 -0.1000
 1746SOL     OW16696   0.778   0.741   8.295  0.3322  0.0221 -0.7940
 1746SOL    HW116697   0.783   0.763   8.202  2.6989  1.4611 -0.3361
 1746SOL    HW216698   0.872   0.747   8.314  0.1744 -1.1745  0.3545
 1747SOL     OW16699   4.624   3.094   7.186  0.1464 -0.4858 -0.2876
 1747SOL    HW116700   4.536   3.099   7.148 -0.0580 -1.1382  0.0820
 1747SOL    HW216701   4.600   3.121   7.275  1.0083  1.6785 -0.7318
 1748SOL     OW16702   4.617   2.511   2.537  0.6184  0.1762  0.1393
 1748SOL    HW116703   4.522   2.507   2.540  0.7555 -2.6047  0.8550
 1748SOL    HW216704   4.647   2.423   2.512 -0.0962 -0.0841  0.2127
 1749SOL     OW16705   0.154   3.913   7.600 -0.3148  0.3610  0.2305
 1749SOL    HW116706   0.136   3.995   7.556 -0.0091 -1.7672 -3.8584
 1749SOL    HW216707   0.249   3.915   7.612  0.1607 -0.5831 -3.3343
 1750SOL     OW16708   2.156   4.573   0.889  0.1021  0.0383  0.2747
 1750SOL    HW116709   2.174   4.636   0.819  0.3456 -1.4850 -1.0494
 1750SOL    HW216710   2.205   4.614   0.960 -0.7550 -0.8495  1.3799
 1751SOL     OW16711   0.420   1.367   8.927 -0.2949 -0.2485  0.6547
 1751SOL    HW116712   0.324   1.363   8.932 -0.3096 -1.1530 -0.5691
 1751SOL    HW216713   0.442   1.389   8.837 -3.0324 -2.3133 -0.5152
 1752SOL     OW16714   2.675   3.513   7.582 -0.1963 -0.0829 -0.1969
 1752SOL    HW116715   2.622   3.434   7.587  1.5014 -1.2156  0.2192
 1752SOL    HW216716   2.701   3.509   7.490  1.8196  2.7149  0.2425
 1753SOL     OW16717   2.220   1.224   0.359  0.2473  0.6691  0.0080
 1753SOL    HW116718   2.297   1.199   0.307  0.9493  0.6519  1.0599
 1753SOL    HW216719   2.263   1.224   0.444  1.8166  0.3467 -0.7840
 1754SOL     OW16720   0.888   4.038   4.851  0.3604 -0.0160 -0.1186
 1754SOL    HW116721   0.856   4.119   4.888  0.6588  1.4138 -2.9658
 1754SOL    HW216722   0.807   3.989   4.833  0.6251 -1.3498  2.3587
 1755SOL     OW16723   0.479   1.508   7.862  0.2658  0.1046  0.1187
 1755SOL    HW116724   0.429   1.467   7.933  0.3616 -0.4432 -0.1281
 1755SOL    HW216725   0.436   1.491   7.778 -2.2762  1.0509  1.2238
 1756SOL     OW16726   3.682   1.970   9.080  0.2802 -0.3759 -0.4918
 1756SOL    HW116727   3.614   1.972   9.147 -1.1527  0.1344 -1.9758
 1756SOL    HW216728   3.625   1.962   9.003  1.9077 -3.3162 -1.3799
 1757SOL     OW16729   0.223   3.090   6.976  0.1853 -0.3826 -0.5677
 1757SOL    HW116730   0.206   3.017   7.035 -0.1460 -0.3028 -0.5630
 1757SOL    HW216731   0.167   3.162   7.006  2.7041  1.5703 -0.6160
 1758SOL     OW16732   1.887   4.326   0.459 -0.1787 -0.0063 -0.1635
 1758SOL    HW116733   1.889   4.381   0.537  1.7691  0.0548 -0.2601
 1758SOL    HW216734   1.935   4.246   0.477  0.1974 -0.1810 -1.9006
 1759SOL     OW16735   3.438   1.450   4.749 -0.2698  0.0842  0.0158
 1759SOL    HW116736   3.382   1.379   4.716  1.3085 -0.1595 -2.1502
 1759SOL    HW216737   3.515   1.401   4.778 -2.2198 -3.1513 -0.2470
 1760SOL     OW16738   2.650   2.600   8.636  0.7476 -0.4372 -0.1780
 1760SOL    HW116739   2.617   2.683   8.600  2.7587  0.1315 -0.7190
 1760SOL    HW216740   2.567   2.554   8.648  1.3825 -1.1168  1.5259
 1761SOL     OW16741   1.686   3.443   3.198  0.3062 -0.0555 -0.4034
 1761SOL    HW116742   1.778   3.418   3.207  0.1086 -0.8651 -0.6071
 1761SOL    HW216743   1.682   3.466   3.105 -2.2179  0.7325 -0.1008
 1762SOL     OW16744   2.019   3.918   5.840  0.1961  0.1401  0.2210
 1762SOL    HW116745   2.107   3.941   5.810  0.9113  0.0325  2.1750
 1762SOL    HW216746   1.969   3.966   5.775 -0.9075 -2.3127 -0.7260
 1763SOL     OW16747   2.557   0.628  12.172 -0.2241 -0.2327 -0.1011
 1763SOL    HW116748   2.503   0.617  12.251 -1.7450 -1.2967 -1.2948
 1763SOL    HW216749   2.512   0.576  12.106 -0.2395 -1.0889  0.5822
 1764SOL     OW16750   2.791   3.331   3.838  0.2298 -0.1643 -0.4577
 1764SOL    HW116751   2.820   3.404   3.893 -1.7956  1.4934 -1.6033
 1764SOL    HW216752   2.851   3.257   3.847  1.4160  0.7048 -1.3142
 1765SOL     OW16753   0.136   3.807   3.735  0.0223  0.2924 -0.0033
 1765SOL    HW116754   0.101   3.752   3.665  0.1441  0.0002  0.1671
 1765SOL    HW216755   0.217   3.761   3.758 -1.1840 -2.1759 -0.6460
 1766SOL     OW16756   2.810   2.435   1.200  0.5935  0.2533  0.1303
 1766SOL    HW116757   2.851   2.508   1.154  0.6295  0.1232 -0.0451
 1766SOL    HW216758   2.717   2.451   1.183  0.9445  2.1972  0.1172
 1767SOL     OW16759   3.993   3.382   3.302 -0.0577  0.2740  0.0069
 1767SOL    HW116760   3.988   3.286   3.294 -0.6400  0.3480 -0.5118
 1767SOL    HW216761   4.075   3.413   3.264 -0.2474  1.2083  0.3559
 1768SOL     OW16762   3.764   0.761   9.832  0.1187  0.3801 -0.2444
 1768SOL    HW116763   3.769   0.853   9.859  0.3708  0.5197 -0.7672
 1768SOL    HW216764   3.755   0.773   9.737  3.3430  1.4525 -0.4144
 1769SOL     OW16765   0.673   1.787   2.706  0.4705  0.4269  0.5315
 1769SOL    HW116766   0.665   1.704   2.659  0.7741  1.1542 -0.8181
 1769SOL    HW216767   0.763   1.809   2.683  0.0079  1.0870 -0.6572
 1770SOL     OW16768   0.953   1.975   4.717  0.0780 -0.2759 -0.3294
 1770SOL    HW116769   0.991   2.037   4.780 -0.9386  0.0396 -0.0224
 1770SOL    HW216770   0.976   2.017   4.634  0.7915  0.6360  0.3237
 1771SOL     OW16771   1.438   2.783   3.085  0.3481 -0.2238  0.1345
 1771SOL    HW116772   1.513   2.782   3.144  0.1092 -2.2353  0.4134
 1771SOL    HW216773   1.457   2.708   3.027  0.7356 -1.3426  1.7004
 1772SOL     OW16774   3.518   3.010  15.385 -0.6264  0.5247 -0.6615
 1772SOL    HW116775   3.462   2.962  15.446 -0.9143 -0.2628 -1.5467
 1772SOL    HW216776   3.506   2.958  15.306 -2.4471  0.3471 -0.2707
 1773SOL     OW16777   1.778   0.415   6.649 -0.6974 -0.0720 -0.2027
 1773SOL    HW116778   1.846   0.434   6.585  0.4775 -2.0130  0.4563
 1773SOL    HW216779   1.696   0.449   6.614 -0.2454  2.1127  0.8749
 1774SOL     OW16780   3.734   2.923  13.216 -0.4561  0.3966 -0.0295
 1774SOL    HW116781   3.751   2.994  13.278  2.0610  0.4021 -0.7139
 1774SOL    HW216782   3.643   2.938  13.192  0.3512  4.0710 -0.7298
 1775SOL     OW16783   3.371   0.723  11.322  0.1109  0.6682  1.0787
 1775SOL    HW116784   3.391   0.817  11.316 -0.9173  1.0766  3.7383
 1775SOL    HW216785   3.279   0.718  11.299  0.2037  1.2669  0.5905
 1776SOL     OW16786   0.559   3.314   3.042  0.1549 -0.0289 -0.3623
 1776SOL    HW116787   0.489   3.301   3.106 -0.0986 -0.6295 -0.7595
 1776SOL    HW216788   0.562   3.409   3.042  3.6995 -0.1158  0.0608
 1777SOL     OW16789   3.246   3.072   3.908  0.0985 -0.1477  0.0520
 1777SOL    HW116790   3.293   3.142   3.863  0.6617  0.1878  1.1618
 1777SOL    HW216791   3.305   3.072   3.984  0.6051 -0.4991 -0.3395
 1778SOL     OW16792   3.778   3.799   3.954  0.4376  0.2228  0.4953
 1778SOL    HW116793   3.808   3.720   3.999  0.5752 -0.7913 -1.3940
 1778SOL    HW216794   3.743   3.850   4.027 -0.9939 -0.1380  0.0652
 1779SOL     OW16795   0.702   3.657  12.015 -0.0987  0.0181  0.2483
 1779SOL    HW116796   0.675   3.740  11.977 -0.3946  0.0653  0.5583
 1779SOL    HW216797   0.634   3.633  12.078 -0.7256  1.4296  0.1136
 1780SOL     OW16798   2.713   0.455   9.484  0.2228  0.4122 -0.0510
 1780SOL    HW116799   2.792   0.485   9.439 -0.0328  2.9829  1.2127
 1780SOL    HW216800   2.731   0.479   9.575 -0.2173  1.0305 -0.1283
 1781SOL     OW16801   0.750   4.628   4.698 -0.2943 -0.0595 -0.2854
 1781SOL    HW116802   0.808   4.680   4.643 -1.4009  1.2832 -0.1628
 1781SOL    HW216803   0.786   4.540   4.685  1.9759  0.6035  1.5755
 1782SOL     OW16804   0.618   3.277   6.643  0.0895 -0.1558 -0.2483
 1782SOL    HW116805   0.629   3.251   6.552  0.4374 -0.4100 -0.1333
 1782SOL    HW216806   0.684   3.225   6.689  0.5755  0.0962 -0.6698
 1783SOL     OW16807   1.852   3.832   1.818 -0.4112 -0.6816  0.1417
 1783SOL    HW116808   1.802   3.889   1.759  0.8345 -0.4200 -0.6540
 1783SOL    HW216809   1.781   3.800   1.873 -2.2126 -0.9881 -2.3419
 1784SOL     OW16810   3.367   3.363   6.194  0.0062 -0.3430 -0.3229
 1784SOL    HW116811   3.350   3.428   6.262  1.6687 -0.8905  0.6248
 1784SOL    HW216812   3.342   3.277   6.229 -0.0794 -0.8231 -1.5749
 1785SOL     OW16813   4.063   1.871   8.013  0.1747  0.1963  0.0215
 1785SOL    HW116814   4.147   1.900   7.976 -0.5672  0.1852 -1.6622
 1785SOL    HW216815   4.078   1.830   8.099 -0.3974 -1.2415 -0.5647
 1786SOL     OW16816   4.636   2.245   3.744 -0.1126 -0.5966  0.5979
 1786SOL    HW116817   4.613   2.333   3.775 -0.4242 -0.4698  0.0076
 1786SOL    HW216818   0.010   2.241   3.748 -0.1486 -2.7085 -0.3918
 1787SOL     OW16819   0.705   2.623   7.057  0.0216 -0.2831  0.0214
 1787SOL    HW116820   0.736   2.571   7.131 -2.5254 -0.2557  1.1398
 1787SOL    HW216821   0.786   2.631   7.008 -0.5447  0.7559 -0.7332
 1788SOL     OW16822   0.793   2.121  16.990 -0.0557  0.4668  0.1979
 1788SOL    HW116823   0.778   2.093  17.080  0.6817 -2.1728 -0.4802
 1788SOL    HW216824   0.842   2.201  17.010  0.3468 -0.0878  1.4044
 1789SOL     OW16825   2.301   4.716   1.088 -0.1462  0.5324 -0.4651
 1789SOL    HW116826   2.390   0.009   1.118 -0.4215  0.1554  0.5457
 1789SOL    HW216827   2.254   0.076   1.106 -0.5636 -0.1841  1.7560
 1790SOL     OW16828   0.879   1.427   8.193 -0.0248  0.3004  0.5541
 1790SOL    HW116829   0.861   1.477   8.113 -1.4025  0.1697  0.7888
 1790SOL    HW216830   0.876   1.494   8.261  4.6525  0.3709  0.6932
 1791SOL     OW16831   1.614   0.342   0.354  0.8037 -0.4555  0.1730
 1791SOL    HW116832   1.600   0.248   0.349  1.9811 -0.5444 -1.3924
 1791SOL    HW216833   1.586   0.364   0.443 -0.1644  0.6379 -0.3920
 1792SOL     OW16834   2.504   1.916   7.621 -0.6744  0.0004  0.8853
 1792SOL    HW116835   2.490   2.001   7.581 -0.8923  0.1705  1.3167
 1792SOL    HW216836   2.553   1.941   7.700 -0.3005 -2.2426  1.3670
 1793SOL     OW16837   3.867   1.694  10.004 -0.1231  0.6851 -0.0738
 1793SOL    HW116838   3.799   1.717   9.940 -0.2428 -3.0988 -1.3283
 1793SOL    HW216839   3.813   1.654  10.071 -1.0275  0.2285 -1.0749
 1794SOL     OW16840   3.191   2.516  17.568 -0.4477 -0.1489 -0.4984
 1794SOL    HW116841   3.112   2.569  17.561 -0.4457  0.1387  1.6150
 1794SOL    HW216842   3.257   2.584  17.551 -2.2124  1.1410 -2.3033
 1795SOL     OW16843   1.579   1.183   7.112 -0.6425  0.0670 -0.2273
 1795SOL    HW116844   1.521   1.111   7.088  0.3916 -0.5556 -0.8640
 1795SOL    HW216845   1.553   1.203   7.202 -2.0382 -1.9828 -0.1933
 1796SOL     OW16846   3.025   3.751  13.147 -0.1615  0.5576 -0.2303
 1796SOL    HW116847   3.082   3.818  13.109 -1.8122  1.3625 -1.2792
 1796SOL    HW216848   2.948   3.805  13.165 -0.7188  0.6557 -2.9335
 1797SOL     OW16849   2.463   1.524   0.984  0.7255  0.1811  0.7404
 1797SOL    HW116850   2.422   1.599   0.940 -1.8565 -1.6790 -0.0578
 1797SOL    HW216851   2.520   1.569   1.045  1.1385  0.2641  0.2962
 1798SOL     OW16852   2.853   4.682   2.086  0.0196 -0.5258  0.6742
 1798SOL    HW116853   2.919   0.009   2.136  1.1942 -0.8886 -0.5252
 1798SOL    HW216854   2.783   0.025   2.077 -0.2395 -0.9627 -0.4212
 1799SOL     OW16855   3.249   1.254  13.870  0.3783  0.4674  0.1567
 1799SOL    HW116856   3.259   1.229  13.778  0.2665  1.1129 -0.0313
 1799SOL    HW216857   3.159   1.287  13.875 -0.6894 -2.2635 -1.0895
 1800SOL     OW16858   1.647   0.533   5.386  0.0276  0.5286 -0.3842
 1800SOL    HW116859   1.675   0.620   5.356 -1.3410  1.6332  1.5330
 1800SOL    HW216860   1.725   0.501   5.431  0.0310 -1.9542 -2.1233
 1801SOL     OW16861   4.145   0.047   6.719  0.2672  0.5673  0.0040
 1801SOL    HW116862   4.201   0.029   6.643  0.4983 -1.1311  0.5757
 1801SOL    HW216863   4.056   0.037   6.686  1.0964 -0.0615 -2.0695
 1802SOL     OW16864   2.006   2.249   6.582 -0.4993 -0.3116 -0.0266
 1802SOL    HW116865   2.014   2.261   6.677  0.4966 -0.5339 -0.0791
 1802SOL    HW216866   1.992   2.335   6.544 -0.4817 -0.5931 -0.6750
 1803SOL     OW16867   2.607   0.185   2.722  0.4630  0.3706 -0.1787
 1803SOL    HW116868   2.591   0.224   2.635 -0.4838  1.1330  0.3357
 1803SOL    HW216869   2.518   0.150   2.731  0.7028 -0.3441 -0.6159
 1804SOL     OW16870   3.875   4.595   5.018 -0.8334  0.3877 -0.2500
 1804SOL    HW116871   3.842   4.621   4.932  0.6345 -1.4561 -1.3704
 1804SOL    HW216872   3.869   4.677   5.067  0.0409 -0.5817  1.4868
 1805SOL     OW16873   0.783   4.060   8.972 -0.1432  0.4871 -0.3115
 1805SOL    HW116874   0.734   4.080   8.892 -0.9794 -0.9988 -0.1609
 1805SOL    HW216875   0.767   4.133   9.032  1.1729  1.6332 -1.3380
 1806SOL     OW16876   0.954   0.790   8.840  0.0818 -0.2650  0.2175
 1806SOL    HW116877   1.028   0.795   8.780  0.9941 -3.7487  1.0429
 1806SOL    HW216878   0.969   0.857   8.908 -0.5646 -0.0375  0.1383
 1807SOL     OW16879   0.408   2.414  17.017  0.4541 -0.3150  0.0446
 1807SOL    HW116880   0.484   2.389  16.965  0.3204 -0.2453 -0.1879
 1807SOL    HW216881   0.391   2.490  16.962 -0.1139  1.2015  2.3116
 1808SOL     OW16882   3.725   4.508   2.945 -0.7860  0.0359 -0.0416
 1808SOL    HW116883   3.741   4.413   2.950 -0.7428  0.0103 -0.7161
 1808SOL    HW216884   3.630   4.518   2.944 -0.6337  1.4312  0.1921
 1809SOL     OW16885   2.776   1.990   6.575  0.2328 -0.1985 -0.7898
 1809SOL    HW116886   2.856   2.012   6.623 -0.1847  2.0856 -1.1359
 1809SOL    HW216887   2.750   2.076   6.543  0.6764 -0.2118 -1.1901
 1810SOL     OW16888   0.666   0.641  16.393  0.0030 -0.1351  0.0501
 1810SOL    HW116889   0.573   0.652  16.411  0.1517  0.4017  0.4902
 1810SOL    HW216890   0.701   0.720  16.434 -0.4977 -0.0608  0.3347
 1811SOL     OW16891   1.006   3.927   5.952  0.4127 -0.5369 -0.0278
 1811SOL    HW116892   0.927   3.951   5.902 -1.9203 -1.9204  2.9975
 1811SOL    HW216893   1.067   3.906   5.881  0.0957 -0.7404 -0.2414
 1812SOL     OW16894   3.530   2.388   4.645 -0.0367 -0.0050  0.0551
 1812SOL    HW116895   3.585   2.309   4.637 -1.8351 -1.2619  0.2551
 1812SOL    HW216896   3.541   2.417   4.735  1.2787 -1.0499  0.2375
 1813SOL     OW16897   2.733   3.029  17.009 -0.3538 -0.0039  0.3900
 1813SOL    HW116898   2.773   3.116  17.022 -2.7874  1.2686 -0.6322
 1813SOL    HW216899   2.712   3.007  17.099  0.7211  0.5505  0.7740
 1814SOL     OW16900   2.296   4.322   1.884 -0.0642 -0.1022 -0.0554
 1814SOL    HW116901   2.312   4.369   1.965 -0.3662 -0.7454  0.3838
 1814SOL    HW216902   2.281   4.398   1.828 -0.7090  0.3844  0.7763
 1815SOL     OW16903   4.257   4.373   9.194 -0.1822  0.1434 -0.2658
 1815SOL    HW116904   4.217   4.345   9.276  0.0964 -1.1081 -0.5598
 1815SOL    HW216905   4.274   4.289   9.152  0.7735  0.0302  0.3502
 1816SOL     OW16906   0.636   2.926  15.074 -0.2161 -0.1781 -0.1530
 1816SOL    HW116907   0.652   2.959  15.162  1.0448 -0.0278 -0.4376
 1816SOL    HW216908   0.677   3.002  15.032  0.0900  0.1998  0.8174
 1817SOL     OW16909   3.167   3.518   4.487  0.2082  0.0598 -0.1283
 1817SOL    HW116910   3.198   3.428   4.494  1.3770  0.3893 -0.9281
 1817SOL    HW216911   3.221   3.559   4.555 -0.6192  1.3154 -0.2200
 1818SOL     OW16912   0.733   1.781   5.273  0.9087  0.1500 -0.2232
 1818SOL    HW116913   0.723   1.687   5.257  1.2953 -0.2532  1.9573
 1818SOL    HW216914   0.705   1.798   5.363 -0.2696  0.6269 -0.6738
 1819SOL     OW16915   1.270   4.384   7.383  0.2029 -0.1482  0.3407
 1819SOL    HW116916   1.194   4.415   7.334  0.9588  1.7117  0.3351
 1819SOL    HW216917   1.233   4.305   7.423  2.1952 -0.5979  1.3055
 1820SOL     OW16918   0.647   0.767   6.630 -1.0909  0.7933 -0.0531
 1820SOL    HW116919   0.714   0.714   6.587 -0.1313  0.2821  2.0785
 1820SOL    HW216920   0.682   0.854   6.614  0.7968 -0.2779 -1.7453
 1821SOL     OW16921   4.587   1.547   3.417 -0.0237  0.1926  0.7964
 1821SOL    HW116922   4.594   1.489   3.341  0.4045 -0.2220  1.1594
 1821SOL    HW216923   4.676   1.581   3.422  0.1734 -0.1439 -0.4324
 1822SOL     OW16924   3.308   2.883   4.666 -0.0439 -0.2271 -0.4056
 1822SOL    HW116925   3.329   2.790   4.659 -0.3614 -0.0862 -3.1966
 1822SOL    HW216926   3.227   2.887   4.716  0.2737  1.2708  0.0109
 1823SOL     OW16927   0.868   4.515   4.020  0.3122 -0.3225  0.3109
 1823SOL    HW116928   0.867   4.422   3.997  0.5343 -0.5347  1.1840
 1823SOL    HW216929   0.797   4.527   4.082  0.6205 -2.0028  0.9868
 1824SOL     OW16930   3.669   4.184   3.814  0.3015  0.7805  0.1753
 1824SOL    HW116931   3.751   4.139   3.836 -0.1539  0.5256  1.3644
 1824SOL    HW216932   3.617   4.143   3.884 -0.9727  3.4786  0.8115
 1825SOL     OW16933   2.562   1.602   5.712 -0.2020  0.5315 -0.8540
 1825SOL    HW116934   2.480   1.559   5.688 -1.0031 -0.2523  3.1513
 1825SOL    HW216935   2.608   1.594   5.629 -1.2305 -0.7027 -1.3032
 1826SOL     OW16936   4.440   3.882  16.250 -0.0873  0.4237 -0.2274
 1826SOL    HW116937   4.400   3.886  16.163 -0.5257 -0.1441 -0.0569
 1826SOL    HW216938   4.511   3.942  16.230  0.3584 -0.2977 -0.8099
 1827SOL     OW16939   2.686   1.711  11.488  0.4541 -0.1657 -0.1776
 1827SOL    HW116940   2.640   1.733  11.568 -1.3869  0.2224 -1.3494
 1827SOL    HW216941   2.615   1.685  11.430  0.2765 -3.0979  1.3140
 1828SOL     OW16942   0.505   0.672   3.924 -0.2529 -0.4957  0.1561
 1828SOL    HW116943   0.519   0.583   3.893  1.2035  0.4135 -1.8388
 1828SOL    HW216944   0.587   0.692   3.969 -0.5614  0.5815  0.2422
 1829SOL     OW16945   2.301   0.335   2.851 -0.1229 -0.3391 -0.3779
 1829SOL    HW116946   2.283   0.250   2.809  1.6071  0.2111 -2.2401
 1829SOL    HW216947   2.357   0.306   2.922  1.0291  1.4964 -0.5418
 1830SOL     OW16948   3.069   0.605  15.327  0.1989  0.0452  0.1719
 1830SOL    HW116949   3.052   0.548  15.402 -2.0112  1.0184  0.4114
 1830SOL    HW216950   3.147   0.563  15.291 -0.1854 -2.2830  2.0681
 1831SOL     OW16951   3.496   0.188   6.980 -0.2810  0.0171  0.0384
 1831SOL    HW116952   3.404   0.203   6.956 -0.6984  2.8820  3.5107
 1831SOL    HW216953   3.526   0.279   6.973  0.1955 -0.1590 -0.1645
 1832SOL     OW16954   1.393   4.104   8.054 -0.3046  0.4777 -0.0222
 1832SOL    HW116955   1.367   4.034   7.994  2.3662 -1.4172  1.0450
 1832SOL    HW216956   1.381   4.183   8.002  0.6660  0.7076  0.1123
 1833SOL     OW16957   2.617   0.845   1.424  0.2397  0.4718  0.7311
 1833SOL    HW116958   2.631   0.935   1.451 -0.3366  1.0705 -0.9626
 1833SOL    HW216959   2.522   0.838   1.421  0.2735 -0.5965  2.3061
 1834SOL     OW16960   2.494   3.919   5.541  0.1669  0.2101 -0.2382
 1834SOL    HW116961   2.536   3.895   5.459 -0.7145 -0.5733 -0.4553
 1834SOL    HW216962   2.561   3.892   5.603  1.1484  0.6496 -1.1021
 1835SOL     OW16963   2.940   3.944   6.983  0.3461 -0.2020 -0.4117
 1835SOL    HW116964   2.870   3.959   7.047  1.3574 -1.6041  1.0053
 1835SOL    HW216965   2.904   3.867   6.939 -0.3839 -1.0297  1.6467
 1836SOL     OW16966   1.500   1.671   7.040  0.1748 -0.9972  0.4078
 1836SOL    HW116967   1.432   1.609   7.063  0.2987 -1.2655  0.0622
 1836SOL    HW216968   1.509   1.648   6.947  1.0517 -0.5170  0.3715
 1837SOL     OW16969   2.201   4.218   7.950 -0.1273 -0.1060 -0.0169
 1837SOL    HW116970   2.163   4.131   7.963  3.1409 -1.1863  2.2469
 1837SOL    HW216971   2.152   4.245   7.872 -0.5636 -1.0422 -0.0592
 1838SOL     OW16972   2.045   2.433   4.549 -0.1541 -0.1443  0.2243
 1838SOL    HW116973   2.039   2.413   4.456 -0.6285  1.5021 -0.1063
 1838SOL    HW216974   1.954   2.460   4.566 -0.2483 -0.1709 -0.2214
 1839SOL     OW16975   4.043   4.445   8.626  0.0358  0.0104 -0.0835
 1839SOL    HW116976   3.968   4.504   8.627 -0.4891 -0.6489 -1.3191
 1839SOL    HW216977   4.107   4.497   8.676 -1.4225  0.4692  1.2975
 1840SOL     OW16978   0.084   0.969   7.548  0.1956  0.1165  0.3912
 1840SOL    HW116979   0.080   1.013   7.633  1.1016 -2.3983  1.7383
 1840SOL    HW216980   0.171   0.929   7.552 -0.5001 -1.3930  0.6861
 1841SOL     OW16981   3.352   4.330   6.165  0.0604  0.4752  0.2631
 1841SOL    HW116982   3.437   4.315   6.122 -0.4960 -0.7887 -0.3916
 1841SOL    HW216983   3.361   4.277   6.244  0.8733 -0.9521 -0.7744
 1842SOL     OW16984   0.333   1.203   4.974 -0.2250  0.4836  0.2409
 1842SOL    HW116985   0.376   1.181   4.892 -3.5862 -0.9586 -1.1638
 1842SOL    HW216986   0.247   1.233   4.943  0.6869  2.2815 -0.5149
 1843SOL     OW16987   2.462   1.625   2.051 -0.5642 -0.0264 -0.0932
 1843SOL    HW116988   2.465   1.716   2.080 -0.1518 -0.3163  0.7528
 1843SOL    HW216989   2.437   1.637   1.959  0.4934  0.8471 -0.2704
 1844SOL     OW16990   3.232   2.583   4.361 -0.0770  0.0183 -0.5153
 1844SOL    HW116991   3.180   2.555   4.285 -2.5372 -1.2063  1.6264
 1844SOL    HW216992   3.196   2.668   4.385  1.6369  0.1708  1.4550
 1845SOL     OW16993   3.428   2.899   5.627 -0.0605 -0.5892 -0.5676
 1845SOL    HW116994   3.333   2.885   5.629  0.3344 -3.0640  1.1415
 1845SOL    HW216995   3.451   2.908   5.719  2.3014 -0.2558 -1.1860
 1846SOL     OW16996   0.711   0.360   7.078 -0.1419 -0.1769 -0.4701
 1846SOL    HW116997   0.667   0.276   7.067  1.2233 -0.8507 -0.8862
 1846SOL    HW216998   0.721   0.384   6.986  1.2486  2.7018  0.4343
 1847SOL     OW16999   0.011   0.483   5.088  0.0008 -0.3425  0.0440
 1847SOL    HW117000   0.078   0.550   5.098 -1.8997  1.6691 -0.8481
 1847SOL    HW217001   4.706   0.510   5.000 -1.0470 -2.4651 -0.3098
 1848SOL     OW17002   0.970   3.224   8.666 -0.2569  0.1661  0.1614
 1848SOL    HW117003   0.884   3.228   8.624 -0.0695 -0.4706 -0.2690
 1848SOL    HW217004   0.952   3.210   8.759 -0.3971  1.9773  0.4143
 1849SOL     OW17005   2.491   4.117   1.835  0.1346 -0.0640 -0.6271
 1849SOL    HW117006   2.417   4.170   1.866  1.5625  0.4634  1.9038
 1849SOL    HW217007   2.569   4.172   1.843  0.0786  0.1488 -1.5629
 1850SOL     OW17008   3.695   3.956   5.738 -0.1197 -0.8265  0.2605
 1850SOL    HW117009   3.642   3.923   5.666  0.1901 -2.7321  0.8874
 1850SOL    HW217010   3.668   3.903   5.813 -2.4077  2.0239  1.4631
 1851SOL     OW17011   2.626   1.201  17.507 -0.2443  0.2645 -0.3030
 1851SOL    HW117012   2.715   1.195  17.473  0.0761 -0.1284  0.5990
 1851SOL    HW217013   2.638   1.225  17.599 -1.7608 -0.0067 -0.0288
 1852SOL     OW17014   4.108   2.785   5.378  0.1391  0.2698  0.5187
 1852SOL    HW117015   4.061   2.728   5.317  1.7933  1.4847 -1.8770
 1852SOL    HW217016   4.105   2.868   5.330  1.9342  0.6600  1.0982
 1853SOL     OW17017   3.466   3.518   5.007  0.2790 -0.0667 -0.7157
 1853SOL    HW117018   3.457   3.503   5.101  0.0648  0.5243 -0.6396
 1853SOL    HW217019   3.559   3.497   5.003 -0.3413 -3.0682  1.0221
 1854SOL     OW17020   2.479   4.180  12.860 -0.0598 -0.4614 -0.5055
 1854SOL    HW117021   2.387   4.163  12.882 -0.1425  0.4657 -0.1111
 1854SOL    HW217022   2.527   4.137  12.930 -1.0619 -3.1913 -1.4879
 1855SOL     OW17023   3.403   1.558   2.392  0.5610 -0.3518  0.7168
 1855SOL    HW117024   3.460   1.587   2.463 -0.2855  1.8657  0.4845
 1855SOL    HW217025   3.457   1.509   2.330  0.2363  0.0415  0.1198
 1856SOL     OW17026   0.053   1.261   5.225  0.2505 -0.0370  0.1318
 1856SOL    HW117027   4.702   1.323   5.218 -0.1390 -0.6805 -1.5882
 1856SOL    HW217028   0.080   1.249   5.134  0.8501  0.3972  0.2569
 1857SOL     OW17029   1.279   2.004   9.091  0.0242  0.3134  0.1202
 1857SOL    HW117030   1.324   1.957   9.021 -1.5128  2.1510 -2.0843
 1857SOL    HW217031   1.190   2.006   9.056  0.0480  0.6918  0.0781
 1858SOL     OW17032   2.538   4.245   8.634 -0.2859  0.2760 -0.4153
 1858SOL    HW117033   2.454   4.217   8.596 -0.2018 -0.7314  0.1637
 1858SOL    HW217034   2.513   4.286   8.717  0.2026 -0.4878  0.0958
 1859SOL     OW17035   1.032   3.368   2.084  0.9577  0.1376  0.2698
 1859SOL    HW117036   1.015   3.376   2.178  0.3651  2.1426 -0.0144
 1859SOL    HW217037   0.951   3.328   2.051  1.1730 -0.0433 -0.0436
 1860SOL     OW17038   0.549   4.398  11.434 -0.3653  0.6817 -0.2757
 1860SOL    HW117039   0.611   4.381  11.363  2.3075  2.0839  1.7571
 1860SOL    HW217040   0.607   4.391  11.509 -1.9812  1.7947  1.0759
 1861SOL     OW17041   3.798   2.439  12.371  0.2462 -0.0366 -0.4234
 1861SOL    HW117042   3.726   2.479  12.420 -1.1055 -0.9189 -1.6649
 1861SOL    HW217043   3.749   2.383  12.310  2.8062 -2.2307 -0.4597
 1862SOL     OW17044   1.157   3.132   9.870 -0.6643 -0.1499  0.0614
 1862SOL    HW117045   1.113   3.094   9.794 -0.4236  0.6058 -0.4524
 1862SOL    HW217046   1.245   3.094   9.866 -1.4587 -2.0094 -0.0087
 1863SOL     OW17047   3.719   1.073   3.964 -0.0124 -0.5721 -0.4152
 1863SOL    HW117048   3.796   1.017   3.959 -0.3744 -0.9435 -1.9738
 1863SOL    HW217049   3.728   1.137   3.893  1.0035  1.4300  1.5174
 1864SOL     OW17050   4.420   2.338   3.451  0.1498  0.0280 -0.0210
 1864SOL    HW117051   4.405   2.244   3.454 -0.8603  0.2257  1.3502
 1864SOL    HW217052   4.513   2.348   3.428 -0.4767 -0.3241 -2.6744
 1865SOL     OW17053   1.033   1.932  13.809 -0.7505 -0.2849  0.0319
 1865SOL    HW117054   1.021   1.893  13.896 -0.1964  2.2657  1.2605
 1865SOL    HW217055   0.966   2.000  13.808 -1.4910 -0.9798  2.7083
 1866SOL     OW17056   2.698   3.856  11.668 -0.3526 -0.3328  0.4598
 1866SOL    HW117057   2.666   3.911  11.596 -0.5169 -1.4781 -0.3341
 1866SOL    HW217058   2.752   3.791  11.622 -1.6078 -1.9488  1.2719
 1867SOL     OW17059   4.061   3.638   4.833 -0.0881  0.0252  0.3674
 1867SOL    HW117060   4.135   3.694   4.858 -0.1473  0.3865 -0.2792
 1867SOL    HW217061   4.004   3.695   4.781  0.3351  0.1362  0.0244
 1868SOL     OW17062   0.629   1.118  10.689  0.2958 -0.5449 -0.1334
 1868SOL    HW117063   0.561   1.173  10.726 -0.9032 -1.3487 -1.1390
 1868SOL    HW217064   0.578   1.068  10.625  0.8467 -3.8447  2.0130
 1869SOL     OW17065   0.242   3.645   6.454  0.3811  0.2546 -0.1027
 1869SOL    HW117066   0.218   3.561   6.493  0.0667  1.3772  2.1104
 1869SOL    HW217067   0.329   3.657   6.492  0.4337  0.0201 -0.1504
 1870SOL     OW17068   0.932   2.621   6.931  0.2495  0.1361 -0.2366
 1870SOL    HW117069   0.903   2.605   6.841 -0.8572  1.2873 -0.0837
 1870SOL    HW217070   0.969   2.708   6.921  2.1856 -0.6529  0.1734
 1871SOL     OW17071   4.631   4.437   6.499  0.5122  0.1005 -0.1320
 1871SOL    HW117072   4.676   4.467   6.578  1.4966  1.0850 -1.0620
 1871SOL    HW217073   4.575   4.512   6.477 -0.7836 -0.4466  1.2284
 1872SOL     OW17074   3.645   2.912   3.464  0.4634 -0.1259 -0.3909
 1872SOL    HW117075   3.626   2.946   3.377 -0.7393  0.0243 -0.0676
 1872SOL    HW217076   3.727   2.865   3.447 -0.4087 -1.9439  0.3155
 1873SOL     OW17077   2.578   0.597  10.986  0.0331  0.4344  0.0375
 1873SOL    HW117078   2.506   0.661  10.990  0.4006  0.9049 -0.8334
 1873SOL    HW217079   2.551   0.544  10.912 -1.6577  0.5198  0.5889
 1874SOL     OW17080   3.512   4.576   4.393  0.1297  0.0380  0.2235
 1874SOL    HW117081   3.465   4.541   4.469  0.0885  1.3466  0.7955
 1874SOL    HW217082   3.604   4.561   4.416  0.1695 -0.4384 -0.2396
 1875SOL     OW17083   2.238   1.423   2.507  0.1533 -0.0206 -0.3554
 1875SOL    HW117084   2.173   1.378   2.561 -0.1286 -0.0239 -0.6924
 1875SOL    HW217085   2.196   1.504   2.478  0.4327  0.1470 -0.2853
 1876SOL     OW17086   2.972   1.947   3.074 -0.3628  0.1131  0.3379
 1876SOL    HW117087   2.962   1.882   3.144  1.7638 -2.7335 -1.9842
 1876SOL    HW217088   3.060   1.978   3.092  0.5322 -0.0892 -3.7299
 1877SOL     OW17089   2.893   1.004   0.832 -0.6509 -0.7919  0.0847
 1877SOL    HW117090   2.922   0.945   0.902 -0.5721  2.0293  2.3987
 1877SOL    HW217091   2.878   1.090   0.870 -1.7253 -0.2403 -1.6033
 1878SOL     OW17092   0.061   2.286  13.680 -0.0005 -0.1916  0.0842
 1878SOL    HW117093   0.140   2.233  13.672  0.5885  0.9682 -1.6545
 1878SOL    HW217094   0.047   2.263  13.772 -0.8116  0.1422  0.0443
 1879SOL     OW17095   3.164   2.887   5.643 -0.2312  0.2799  0.2269
 1879SOL    HW117096   3.111   2.809   5.660 -0.3137  0.2219 -0.2833
 1879SOL    HW217097   3.116   2.946   5.585 -2.0606 -0.9682  0.4605
 1880SOL     OW17098   2.325   3.412   4.339  0.2735  0.3507  0.4536
 1880SOL    HW117099   2.416   3.413   4.369  0.9933  1.9014 -1.7252
 1880SOL    HW217100   2.327   3.478   4.269 -0.3782 -0.8543 -0.7036
 1881SOL     OW17101   0.345   1.655  17.193  0.0213 -0.1871  0.3826
 1881SOL    HW117102   0.286   1.585  17.220  0.6541 -0.2036  1.7626
 1881SOL    HW217103   0.376   1.609  17.115  2.7905  2.2347  0.0525
 1882SOL     OW17104   3.061   1.341   7.317  0.5000 -0.4305  0.0318
 1882SOL    HW117105   3.036   1.433   7.317 -2.1214 -1.1312  1.8461
 1882SOL    HW217106   3.066   1.327   7.412 -1.4741 -0.1293  0.1949
 1883SOL     OW17107   0.418   3.579   0.594  0.0856 -0.4829  0.2594
 1883SOL    HW117108   0.509   3.547   0.593  0.5302  0.8184 -0.8314
 1883SOL    HW217109   0.366   3.506   0.561  1.6025 -1.1761 -0.6357
 1884SOL     OW17110   1.325   3.051   8.817  0.3230 -0.5609 -0.1689
 1884SOL    HW117111   1.319   3.119   8.884  3.0051  0.4937 -0.9942
 1884SOL    HW217112   1.308   3.097   8.734  0.8087  1.6611  0.9792
 1885SOL     OW17113   3.257   1.401   5.154 -0.0067  0.2563  0.2320
 1885SOL    HW117114   3.256   1.455   5.233  2.1292  1.0462 -0.2749
 1885SOL    HW217115   3.183   1.340   5.163  0.5492 -0.5749 -0.7839
 1886SOL     OW17116   3.961   0.508   0.177 -0.1193  0.4708 -0.3616
 1886SOL    HW117117   3.954   0.519   0.083  4.0216 -1.8150 -0.9496
 1886SOL    HW217118   3.947   0.414   0.191  0.8527 -0.0619 -2.9827
 1887SOL     OW17119   0.608   2.348   6.973 -0.7932 -0.0785  0.2067
 1887SOL    HW117120   0.647   2.359   7.060 -2.7235  2.1714  0.7733
 1887SOL    HW217121   0.573   2.437   6.965  0.6563  0.5923  1.2781
 1888SOL     OW17122   2.405   0.100  16.897 -0.2141  0.4738 -0.4956
 1888SOL    HW117123   2.355   0.084  16.977  0.6594 -0.9057 -0.2228
 1888SOL    HW217124   2.367   0.183  16.868  0.8025  2.1405  2.9750
 1889SOL     OW17125   2.491   2.420   1.577  0.0970  0.9273  0.9915
 1889SOL    HW117126   2.396   2.416   1.578  0.1241 -0.4450 -0.6076
 1889SOL    HW217127   2.501   2.440   1.484  0.3199  1.0486  1.0421
 1890SOL     OW17128   2.949   0.128   5.113 -0.4849  0.3562  0.3420
 1890SOL    HW117129   2.892   0.184   5.165 -0.8693  0.1566  0.1427
 1890SOL    HW217130   2.891   0.084   5.050 -0.4664  0.1756  0.4499
 1891SOL     OW17131   4.499   1.110   0.176 -0.1556  0.4830  0.4928
 1891SOL    HW117132   4.512   1.033   0.231 -1.1719  1.0237  1.4838
 1891SOL    HW217133   4.589   1.128   0.147  0.4919 -2.0317  0.8899
 1892SOL     OW17134   4.525   3.198  15.689  0.3834  0.5437 -0.2922
 1892SOL    HW117135   4.566   3.121  15.649  0.8342  0.3205  0.6032
 1892SOL    HW217136   4.538   3.260  15.617  0.4814  1.5056  0.5441
 1893SOL     OW17137   4.639   3.961  17.480 -0.5821  0.4595  0.3610
 1893SOL    HW117138   4.581   3.934  17.408 -0.2504  0.2469  0.1755
 1893SOL    HW217139   4.618   4.054  17.488 -1.3616  0.6630 -4.0826
 1894SOL     OW17140   3.397   0.767   6.030 -0.4449  0.4883  0.2428
 1894SOL    HW117141   3.399   0.792   5.937  1.0942 -2.3356 -0.4721
 1894SOL    HW217142   3.307   0.739   6.046 -0.2827  0.4869  1.1385
 1895SOL     OW17143   2.823   2.585   8.990  0.5787  0.0880  0.2938
 1895SOL    HW117144   2.831   2.490   9.002  0.9256 -0.0707 -1.2104
 1895SOL    HW217145   2.737   2.599   9.029 -0.2000 -1.4752 -0.8560
 1896SOL     OW17146   3.902   1.949  17.672 -0.0796  0.1598 -0.4968
 1896SOL    HW117147   3.941   1.929   0.069 -0.9032 -0.4773 -0.2638
 1896SOL    HW217148   3.809   1.940   0.006  0.3436  2.0709  2.0688
 1897SOL     OW17149   3.110   0.472  17.634 -0.4897 -0.2247  0.0006
 1897SOL    HW117150   3.119   0.382  17.603  0.8983 -0.4275  1.0033
 1897SOL    HW217151   3.127   0.469   0.041 -0.5051 -0.3423 -0.0010
 1898SOL     OW17152   0.086   0.815   8.441 -0.3966  0.2783 -0.3161
 1898SOL    HW117153   0.162   0.872   8.427  1.0235 -1.2026  1.2502
 1898SOL    HW217154   0.117   0.725   8.453 -0.3479  0.0202 -2.4262
 1899SOL     OW17155   4.230   1.174   5.006  0.0262 -0.1058  0.1442
 1899SOL    HW117156   4.185   1.259   5.008  0.5615  0.1764  0.2371
 1899SOL    HW217157   4.259   1.161   4.916 -1.3434 -1.3901 -0.1153
 1900SOL     OW17158   1.780   1.106   3.659  0.3769  0.4396  0.0785
 1900SOL    HW117159   1.800   1.167   3.587  2.2481 -0.3183 -0.0342
 1900SOL    HW217160   1.865   1.107   3.702  0.5426  0.9485 -0.2521
 1901SOL     OW17161   4.682   2.392   5.729  0.0436 -0.1431 -0.3200
 1901SOL    HW117162   0.030   2.415   5.667 -0.5545  0.7560 -0.6690
 1901SOL    HW217163   4.608   2.433   5.685  0.9599  1.8973  0.0148
 1902SOL     OW17164   4.105   1.898   5.972 -0.0450  0.1443 -0.1657
 1902SOL    HW117165   4.080   1.983   6.007  1.4705  0.4060  0.2975
 1902SOL    HW217166   4.066   1.901   5.885  2.4511  0.3993 -1.2802
 1903SOL     OW17167   4.501   3.017  10.591  0.1840 -0.1153  0.3045
 1903SOL    HW117168   4.408   3.018  10.610  0.1925 -2.2634  0.4155
 1903SOL    HW217169   4.516   3.112  10.583 -1.9038  0.2959  1.2218
 1904SOL     OW17170   4.346   1.037   5.665 -0.0105  0.4713  0.0118
 1904SOL    HW117171   4.307   1.120   5.637 -1.0737 -0.6247 -1.7276
 1904SOL    HW217172   4.416   1.031   5.599  0.3159 -2.1567  0.6117
 1905SOL     OW17173   2.404   1.594  13.111 -0.0200  0.0110  0.1531
 1905SOL    HW117174   2.471   1.635  13.056  0.4283  2.2345  2.3277
 1905SOL    HW217175   2.458   1.573  13.188 -1.8694 -0.9713  1.1903
 1906SOL     OW17176   1.881   2.874   7.277 -0.4501  0.2810 -0.5542
 1906SOL    HW117177   1.969   2.910   7.267 -0.7929  0.7806 -1.6871
 1906SOL    HW217178   1.865   2.876   7.371 -0.5413  1.2542 -0.5936
 1907SOL     OW17179   4.428   1.566   4.206  0.3688  0.1187 -0.3359
 1907SOL    HW117180   4.420   1.622   4.130 -0.8011  0.2622 -0.1162
 1907SOL    HW217181   4.518   1.535   4.205  0.7577  1.2465  0.0463
 1908SOL     OW17182   3.239   3.691  10.060 -0.4846 -0.0654  0.4779
 1908SOL    HW117183   3.325   3.701  10.100 -0.1727  0.1332 -0.2507
 1908SOL    HW217184   3.211   3.608  10.100  1.6341  0.0807  2.3009
 1909SOL     OW17185   3.919   0.853  12.933  0.3070  0.4685  0.2569
 1909SOL    HW117186   3.962   0.772  12.904  0.2455  1.4669 -2.6885
 1909SOL    HW217187   3.865   0.814  13.001 -0.7361 -0.4980 -1.1272
 1910SOL     OW17188   0.338   3.369   4.244  0.1639  0.5660  0.4650
 1910SOL    HW117189   0.401   3.389   4.175 -1.0535 -0.0278 -0.8292
 1910SOL    HW217190   0.381   3.422   4.311  1.1365  2.2176 -1.4584
 1911SOL     OW17191   1.057   2.118   3.745 -0.3134 -0.2940 -0.0313
 1911SOL    HW117192   0.968   2.142   3.773 -1.7837 -2.5230 -2.8363
 1911SOL    HW217193   1.099   2.089   3.826  0.8391  1.1340 -0.1264
 1912SOL     OW17194   3.364   0.610  11.665  0.2355  0.4628  0.4621
 1912SOL    HW117195   3.450   0.649  11.647 -0.0168  1.5887  1.6817
 1912SOL    HW217196   3.377   0.593  11.759  0.4326  1.8764  0.6884
 1913SOL     OW17197   2.809   2.883   0.259  0.1230 -0.1489 -0.5496
 1913SOL    HW117198   2.896   2.888   0.218  0.1971  0.6369 -0.2963
 1913SOL    HW217199   2.796   2.789   0.249 -0.9843  0.1015 -1.3842
 1914SOL     OW17200   4.305   3.174   2.142  0.2248 -0.1559  0.4341
 1914SOL    HW117201   4.219   3.188   2.181  0.1892 -0.4348  0.4566
 1914SOL    HW217202   4.331   3.105   2.203  3.2278  0.0349 -0.6098
 1915SOL     OW17203   1.310   3.985   3.072 -0.5258 -0.7137 -0.0032
 1915SOL    HW117204   1.227   4.024   3.099 -0.6182 -2.9664  2.9428
 1915SOL    HW217205   1.295   3.900   3.114 -1.5046  0.0022  1.1102
 1916SOL     OW17206   3.328   3.058   5.992  0.5344 -0.6126 -0.5670
 1916SOL    HW117207   3.388   3.111   5.940  2.1883  1.1350  3.1101
 1916SOL    HW217208   3.390   2.988   6.012 -0.6242 -0.5320  3.3704
 1917SOL     OW17209   3.557   3.291   4.361  0.6523  0.1704 -0.2180
 1917SOL    HW117210   3.539   3.222   4.424 -0.8562  2.3480  1.7224
 1917SOL    HW217211   3.468   3.317   4.339  0.7855  1.1587  0.3777
 1918SOL     OW17212   4.449   1.804  13.279 -0.3968  0.3799 -0.7374
 1918SOL    HW117213   4.359   1.822  13.251 -0.4014 -0.3424 -1.1950
 1918SOL    HW217214   4.470   1.746  13.206  0.4777 -0.8920  0.5348
 1919SOL     OW17215   4.542   0.602  14.774 -0.1741  0.0930 -0.7007
 1919SOL    HW117216   4.606   0.580  14.706 -1.0347  0.4343 -1.6228
 1919SOL    HW217217   4.515   0.511  14.785 -1.0882  0.5766  0.9347
 1920SOL     OW17218   4.381   3.489   5.281 -0.2718  0.2557 -0.5957
 1920SOL    HW117219   4.448   3.557   5.289  0.5002 -0.7013  0.9695
 1920SOL    HW217220   4.323   3.527   5.214 -1.4409  3.9670  2.5543
 1921SOL     OW17221   1.949   3.974   6.138  0.3760 -0.1241  0.4559
 1921SOL    HW117222   1.921   4.028   6.064  0.4562  0.8822  1.1655
 1921SOL    HW217223   1.979   3.890   6.100 -1.3227 -0.4861 -0.0644
 1922SOL     OW17224   1.950   3.755   6.386  0.0500 -0.0736  0.2795
 1922SOL    HW117225   2.018   3.692   6.364  0.7863  0.6105  0.6143
 1922SOL    HW217226   1.900   3.749   6.304 -1.2228  1.5644  0.9152
 1923SOL     OW17227   2.874   2.058   6.933 -0.6933 -0.9448  0.2050
 1923SOL    HW117228   2.880   2.108   6.851  0.4072  2.4310  2.3520
 1923SOL    HW217229   2.963   2.023   6.939  0.1606  1.6325  2.3329
 1924SOL     OW17230   1.790   2.943   1.541  0.1966 -1.0003  0.0860
 1924SOL    HW117231   1.764   2.948   1.633 -1.0711  1.6642 -0.4008
 1924SOL    HW217232   1.802   2.850   1.522 -1.9908 -1.0695 -0.9202
 1925SOL     OW17233   1.218   4.642   4.102  0.1888 -1.1384 -0.2403
 1925SOL    HW117234   1.134   4.670   4.139  1.2657 -1.0532  2.1750
 1925SOL    HW217235   1.243   4.582   4.172  2.3167 -1.5282 -1.3504
 1926SOL     OW17236   3.396   4.164  16.604 -0.8836 -0.2663  0.4556
 1926SOL    HW117237   3.427   4.238  16.657 -0.2856  0.0690 -0.3647
 1926SOL    HW217238   3.333   4.209  16.548 -0.6437 -1.4981 -0.7867
 1927SOL     OW17239   0.015   4.687  13.409 -0.2569 -0.0106 -0.7083
 1927SOL    HW117240   0.094   4.649  13.446 -1.8431 -1.1486  1.5390
 1927SOL    HW217241   0.028   0.059  13.394  1.1416 -0.1643 -0.4505
 1928SOL     OW17242   3.786   3.527   2.999  0.9449  0.2150 -0.5318
 1928SOL    HW117243   3.874   3.493   2.984  0.3025 -1.7916  0.3057
 1928SOL    HW217244   3.772   3.507   3.091 -0.8630  2.1504 -0.3868
 1929SOL     OW17245   4.271   4.177   6.535 -0.0465 -0.5194  0.3622
 1929SOL    HW117246   4.241   4.192   6.625  2.2206  0.8347  0.9210
 1929SOL    HW217247   4.355   4.137   6.557  0.0501 -0.9001 -0.7055
 1930SOL     OW17248   0.218   4.093   4.930  0.0997  0.6600 -0.0622
 1930SOL    HW117249   0.302   4.125   4.962  0.0829 -0.4009  1.0523
 1930SOL    HW217250   0.224   3.998   4.941  0.8231  0.8700  1.3557
 1931SOL     OW17251   3.098   0.786  11.826  0.2745 -0.0155 -0.0659
 1931SOL    HW117252   3.158   0.824  11.761  3.4065 -0.2057  2.7309
 1931SOL    HW217253   3.158   0.769  11.898  0.2657 -0.4226 -0.1584
 1932SOL     OW17254   4.412   1.362  12.333  0.0789  0.3475 -0.8045
 1932SOL    HW117255   4.497   1.355  12.377  0.2676 -0.8333 -1.3433
 1932SOL    HW217256   4.364   1.287  12.369 -1.2861  2.3271  1.4324
 1933SOL     OW17257   3.235   1.367  16.530 -0.2292 -0.0484 -0.5659
 1933SOL    HW117258   3.221   1.296  16.468 -2.1191 -0.6307  0.5161
 1933SOL    HW217259   3.159   1.419  16.503  0.8911  2.1000  0.4286
 1934SOL     OW17260   1.230   1.851  11.348  0.1828  0.0783 -0.2794
 1934SOL    HW117261   1.243   1.937  11.388  0.1210  0.1400 -0.3880
 1934SOL    HW217262   1.261   1.798  11.421 -1.0010 -0.1732  0.0366
 1935SOL     OW17263   2.842   0.075   5.570  0.6881  0.0797 -0.3049
 1935SOL    HW117264   2.919   0.096   5.623  1.4458 -2.0807 -0.5546
 1935SOL    HW217265   2.792   0.155   5.587 -1.1436 -1.0903 -0.1625
 1936SOL     OW17266   2.987   0.063   5.833 -0.2210 -0.1714  0.7661
 1936SOL    HW117267   2.979   0.038   5.925  1.7452  0.9217  1.2279
 1936SOL    HW217268   3.047   0.000   5.794 -0.9066  1.0442 -2.2483
 1937SOL     OW17269   4.494   4.276   7.988  0.2614 -0.6784  0.1540
 1937SOL    HW117270   4.462   4.329   8.062  2.8893 -0.3957  1.0600
 1937SOL    HW217271   4.444   4.308   7.913  1.6194  1.7535  0.2742
 1938SOL     OW17272   2.673   1.378  11.481 -0.2407  0.0372 -0.4240
 1938SOL    HW117273   2.716   1.348  11.561 -0.2153  1.9547  0.2793
 1938SOL    HW217274   2.649   1.467  11.508 -0.4949 -0.2120  0.1719
 1939SOL     OW17275   3.411   3.854   4.658 -0.0723 -0.5743 -0.2316
 1939SOL    HW117276   3.318   3.872   4.672  0.3065  0.3460  1.0587
 1939SOL    HW217277   3.413   3.874   4.564  2.5765 -0.3319 -0.1010
 1940SOL     OW17278   0.446   0.726   3.227  0.0405  0.0890  0.0162
 1940SOL    HW117279   0.523   0.670   3.235  0.8649  1.2186 -0.0984
 1940SOL    HW217280   0.432   0.751   3.319  0.5111  0.3104  0.0250
 1941SOL     OW17281   0.049   0.395   1.180  0.0012 -0.0685  0.4302
 1941SOL    HW117282   0.060   0.352   1.095 -0.4780  2.3467 -0.8604
 1941SOL    HW217283   0.134   0.419   1.217  0.4564  1.2786 -1.4890
 1942SOL     OW17284   2.232   3.503  10.039  0.2577  0.0356 -0.1548
 1942SOL    HW117285   2.162   3.549  10.086 -0.8116 -2.0924  0.3796
 1942SOL    HW217286   2.282   3.576  10.004 -1.1923  0.6510 -0.9497
 1943SOL     OW17287   3.187   2.814   8.228 -0.2643  0.0846 -0.7075
 1943SOL    HW117288   3.118   2.749   8.243  1.3373 -1.2770  0.8126
 1943SOL    HW217289   3.262   2.760   8.253  0.7890  1.6479 -0.5452
 1944SOL     OW17290   2.829   1.492  12.524  0.0395 -0.6599 -0.0890
 1944SOL    HW117291   2.789   1.570  12.485 -2.4946 -3.0753 -2.4254
 1944SOL    HW217292   2.750   1.437  12.524 -0.5914  0.2677  1.0447
 1945SOL     OW17293   4.654   1.873  10.182  0.2356 -0.2045  0.4843
 1945SOL    HW117294   4.642   1.795  10.236 -1.7425 -0.1734  0.0727
 1945SOL    HW217295   4.710   1.838  10.113  0.3416  1.1114 -0.0822
 1946SOL     OW17296   1.078   3.630   4.308 -0.1523  0.1933 -0.2624
 1946SOL    HW117297   1.168   3.663   4.308 -0.9610  2.4325 -1.8811
 1946SOL    HW217298   1.061   3.660   4.218  0.4273 -0.8945 -0.7425
 1947SOL     OW17299   0.791   1.225  15.141 -0.2836  0.5027  0.8586
 1947SOL    HW117300   0.783   1.236  15.046  1.7043  1.9657  0.8492
 1947SOL    HW217301   0.824   1.311  15.167  0.6604 -0.0199  1.3937
 1948SOL     OW17302   1.666   3.624   5.499 -0.1009  0.4662 -0.0814
 1948SOL    HW117303   1.629   3.602   5.413  1.6868 -0.1543 -0.6760
 1948SOL    HW217304   1.594   3.672   5.540  0.5941  0.1944  1.4597
 1949SOL     OW17305   2.722   3.068  10.165  0.5975  0.0169 -0.3138
 1949SOL    HW117306   2.670   3.040  10.240  1.0395 -1.5510 -0.6088
 1949SOL    HW217307   2.781   3.126  10.213 -0.5861  0.3546  0.7097
 1950SOL     OW17308   0.752   0.757  17.454 -0.1543  0.1645 -0.5920
 1950SOL    HW117309   0.710   0.838  17.483 -0.4653 -0.8741  1.8602
 1950SOL    HW217310   0.799   0.787  17.376 -1.3782  0.4038 -1.2295
 1951SOL     OW17311   3.351   1.959  16.474  0.1595 -0.2134  0.1687
 1951SOL    HW117312   3.270   2.009  16.489  0.5120  0.0438  1.1870
 1951SOL    HW217313   3.407   2.008  16.534 -0.3315  3.1849 -2.0864
 1952SOL     OW17314   4.039   4.485   9.059  0.1000 -0.5337 -0.1050
 1952SOL    HW117315   4.110   4.457   9.118  0.1462  0.6100  0.3945
 1952SOL    HW217316   4.040   4.580   9.071 -0.8695 -0.0156 -4.4110
 1953SOL     OW17317   2.969   2.213   3.866  0.2807 -0.5320 -0.3405
 1953SOL    HW117318   2.920   2.272   3.809 -2.5234 -2.1511  0.3653
 1953SOL    HW217319   3.060   2.238   3.851  0.2883  1.6882  3.3637
 1954SOL     OW17320   3.253   3.791  12.437  1.3419  0.2986 -0.1870
 1954SOL    HW117321   3.262   3.704  12.476  2.0685  0.9587  1.0852
 1954SOL    HW217322   3.308   3.783  12.359 -0.7090 -1.3037 -1.4933
 1955SOL     OW17323   4.465   0.141   6.763 -0.1412 -0.4437  0.1467
 1955SOL    HW117324   4.538   0.187   6.803 -0.3655 -2.3766  2.7985
 1955SOL    HW217325   4.475   0.158   6.669  1.2629  0.1178  0.4040
 1956SOL     OW17326   3.280   4.031   7.711  0.1682  0.1451 -0.0723
 1956SOL    HW117327   3.245   4.069   7.791 -1.3939  0.0031 -0.6785
 1956SOL    HW217328   3.287   3.941   7.743  0.2643  0.8626  1.8990
 1957SOL     OW17329   2.923   1.671   7.275  0.4794  0.3468  0.1514
 1957SOL    HW117330   2.880   1.628   7.349  2.1955 -0.3506  0.7486
 1957SOL    HW217331   2.879   1.633   7.199  2.5617 -0.3469 -0.7005
 1958SOL     OW17332   1.206   2.320   7.760  0.3286 -0.0103  0.3361
 1958SOL    HW117333   1.248   2.327   7.674 -0.9578  1.3927 -0.1722
 1958SOL    HW217334   1.267   2.262   7.807  1.8629 -0.1304 -1.8446
 1959SOL     OW17335   3.409   4.162   3.163 -0.6935  0.3992  0.1246
 1959SOL    HW117336   3.330   4.167   3.216  0.5757  1.0215  1.9738
 1959SOL    HW217337   3.475   4.132   3.226  0.5613 -0.3056 -1.5280
 1960SOL     OW17338   1.856   4.467   5.817  0.5255  0.7465  0.0699
 1960SOL    HW117339   1.855   4.562   5.808 -0.3978  0.7003 -0.3272
 1960SOL    HW217340   1.850   4.435   5.727  1.2681  1.9622 -0.4151
 1961SOL     OW17341   0.534   3.753   5.531 -0.0603 -0.0675  0.6349
 1961SOL    HW117342   0.501   3.843   5.538 -0.7416 -0.2349 -0.4572
 1961SOL    HW217343   0.611   3.760   5.476 -0.1640 -0.4322  0.4450
 1962SOL     OW17344   0.114   1.247  13.534  0.5511 -0.5187 -0.5059
 1962SOL    HW117345   0.061   1.170  13.516 -0.6546 -0.3945  2.4002
 1962SOL    HW217346   0.063   1.311  13.486 -1.2945 -1.5212  0.1072
 1963SOL     OW17347   1.371   1.249   1.761 -0.0808 -0.0381 -0.1389
 1963SOL    HW117348   1.399   1.332   1.799  0.8294  0.1450 -1.1816
 1963SOL    HW217349   1.396   1.253   1.668  2.6929 -3.0163  0.4711
 1964SOL     OW17350   1.977   3.827  13.468 -0.1725  0.0849 -0.0179
 1964SOL    HW117351   1.932   3.871  13.539  0.2179  1.7500 -0.7947
 1964SOL    HW217352   1.904   3.819  13.407  0.3260  0.4418 -0.6804
 1965SOL     OW17353   1.403   4.081   5.811 -0.2791  0.0982  0.3279
 1965SOL    HW117354   1.336   4.108   5.747  0.3690 -0.1301 -0.4513
 1965SOL    HW217355   1.437   4.169   5.829  0.6928 -0.4079  0.9182
 1966SOL     OW17356   3.700   3.320  10.388  0.3137 -0.0588 -0.1625
 1966SOL    HW117357   3.754   3.262  10.335  0.3983 -0.8205  0.7475
 1966SOL    HW217358   3.692   3.398  10.333  1.6086  1.3258  1.6145
 1967SOL     OW17359   3.177   0.010   7.991 -0.1346 -0.5951  0.7901
 1967SOL    HW117360   3.196   0.063   7.913 -1.1629  1.7819  2.1529
 1967SOL    HW217361   3.106   4.677   7.958 -0.4575  1.0957 -1.3090
 1968SOL     OW17362   0.888   0.665   5.869 -0.2212  0.6808 -0.3831
 1968SOL    HW117363   0.948   0.740   5.868 -0.1873  0.6293 -2.2128
 1968SOL    HW217364   0.818   0.692   5.928 -0.0884 -0.3768  0.2718
 1969SOL     OW17365   2.568   2.781   9.276 -0.5662  0.2254 -0.0307
 1969SOL    HW117366   2.604   2.744   9.356  1.3066  2.3045  0.0979
 1969SOL    HW217367   2.592   2.873   9.280  0.7808 -0.1164 -0.0222
 1970SOL     OW17368   4.022   1.850   4.707  0.4753 -0.0606 -0.2532
 1970SOL    HW117369   4.058   1.778   4.759  2.1061  0.9885  0.0912
 1970SOL    HW217370   4.087   1.874   4.641 -0.5107 -1.0063 -1.5437
 1971SOL     OW17371   3.714   2.310  14.652  0.1779 -0.2136  0.0220
 1971SOL    HW117372   3.786   2.370  14.634  1.0881 -1.8289 -1.6680
 1971SOL    HW217373   3.697   2.317  14.746 -0.5973 -1.0057 -0.0611
 1972SOL     OW17374   4.570   3.785  11.286  0.3977 -0.5014 -0.3177
 1972SOL    HW117375   4.612   3.744  11.211  1.1096 -1.0721  0.3806
 1972SOL    HW217376   4.641   3.773  11.349  0.6128 -0.4827 -0.5587
 1973SOL     OW17377   4.294   0.967   5.394  0.1051  0.3673  0.3729
 1973SOL    HW117378   4.382   0.977   5.431  1.1416 -0.4318 -1.8860
 1973SOL    HW217379   4.291   0.889   5.339 -2.4141  0.6128  0.1713
 1974SOL     OW17380   2.748   0.649   1.288 -0.1345 -0.0789 -0.0623
 1974SOL    HW117381   2.717   0.709   1.356 -0.1057 -0.9414  0.7177
 1974SOL    HW217382   2.665   0.621   1.249 -0.1122 -1.1758  0.6661
 1975SOL     OW17383   4.087   2.975  12.396 -0.4647 -0.1712 -0.1490
 1975SOL    HW117384   4.030   2.907  12.360 -1.4775  0.9993 -0.7211
 1975SOL    HW217385   4.035   3.054  12.389 -0.2320 -0.2134 -2.2053
 1976SOL     OW17386   3.753   4.513   9.128  0.3103 -0.0007  0.0602
 1976SOL    HW117387   3.680   4.451   9.127 -0.1438  0.5495 -0.8322
 1976SOL    HW217388   3.806   4.469   9.062 -1.4984 -0.0363 -1.3777
 1977SOL     OW17389   4.361   0.035   3.104  0.1831  0.0721  0.3051
 1977SOL    HW117390   4.314   0.043   3.186 -1.5726 -0.7625 -0.6266
 1977SOL    HW217391   4.284   0.031   3.048  2.5427 -2.2723 -2.7841
 1978SOL     OW17392   3.648   1.507   9.456 -0.1715  0.1049 -0.3592
 1978SOL    HW117393   3.719   1.444   9.441 -1.7779 -1.8940  0.4358
 1978SOL    HW217394   3.705   1.584   9.458 -1.3511  0.9683 -0.6724
 1979SOL     OW17395   0.557   2.536   1.334  0.1888  0.4547  0.0577
 1979SOL    HW117396   0.505   2.456   1.330  1.0522 -0.2434  3.1220
 1979SOL    HW217397   0.649   2.509   1.343  0.5355  1.5934 -0.1015
 1980SOL     OW17398   3.778   2.970   6.711 -0.4337 -0.3239  0.2834
 1980SOL    HW117399   3.768   2.912   6.787  0.5209 -0.0843  0.5951
 1980SOL    HW217400   3.867   2.942   6.691 -1.4247 -1.5317 -2.3497
 1981SOL     OW17401   2.423   0.167   8.608  0.2695 -0.0863 -0.5356
 1981SOL    HW117402   2.460   0.252   8.633 -0.9378  0.3099 -0.0945
 1981SOL    HW217403   2.335   0.171   8.645  0.7709 -0.4958  0.7000
 1982SOL     OW17404   4.233   1.178   6.699 -0.0441 -0.1865 -0.3297
 1982SOL    HW117405   4.321   1.141   6.711 -0.2745 -1.2429 -1.8859
 1982SOL    HW217406   4.249   1.249   6.637 -1.6508 -1.1065 -1.7716
 1983SOL     OW17407   3.538   2.022  14.575 -0.3521 -0.0909  0.2512
 1983SOL    HW117408   3.448   1.988  14.573 -0.2565 -0.2484 -1.4164
 1983SOL    HW217409   3.590   1.966  14.517 -1.3232 -0.8021  0.0586
 1984SOL     OW17410   2.922   1.689   1.706  0.6741  0.3576  0.0011
 1984SOL    HW117411   2.967   1.658   1.627 -0.1165  0.3880 -0.4621
 1984SOL    HW217412   2.835   1.650   1.701 -0.2843  2.9010 -2.9817
 1985SOL     OW17413   1.521   0.828   9.299 -0.4402 -0.2036  0.2074
 1985SOL    HW117414   1.582   0.821   9.226  0.2723  1.9690  0.6035
 1985SOL    HW217415   1.478   0.909   9.272  0.4947  1.0274  2.3864
 1986SOL     OW17416   1.943   2.659   4.895 -0.1831  0.0904  0.1756
 1986SOL    HW117417   1.963   2.749   4.922  1.4064 -0.5752  1.2480
 1986SOL    HW217418   1.998   2.607   4.953  3.3623  0.9504 -2.3584
 1987SOL     OW17419   1.559   1.196   3.142 -0.0833  0.1521  0.0424
 1987SOL    HW117420   1.639   1.245   3.164  1.1627 -0.9850 -2.0057
 1987SOL    HW217421   1.534   1.186   3.234 -1.7753 -0.0938 -0.4426
 1988SOL     OW17422   4.709   2.472   5.984  0.1103  0.2669 -0.3857
 1988SOL    HW117423   4.704   2.446   5.892 -0.0600 -0.4374 -0.1731
 1988SOL    HW217424   4.641   2.538   5.995  2.8865  3.0998  0.0404
 1989SOL     OW17425   1.606   4.493   6.454  0.1023  0.3011 -0.3340
 1989SOL    HW117426   1.568   4.577   6.428  0.9296  0.9157  0.4486
 1989SOL    HW217427   1.695   4.504   6.489  0.3590 -1.6946 -0.3319
 1990SOL     OW17428   1.288   4.440   8.335  0.2708  0.6212 -0.1703
 1990SOL    HW117429   1.347   4.505   8.297  1.0903 -0.6800 -1.1431
 1990SOL    HW217430   1.206   4.453   8.288 -1.1476 -2.3392  1.5351
 1991SOL     OW17431   1.928   0.304   0.903 -0.6460 -0.2597  0.4363
 1991SOL    HW117432   1.942   0.272   0.814  1.4023  2.4190 -0.2142
 1991SOL    HW217433   1.871   0.379   0.885  0.6016  0.1948 -1.6332
 1992SOL     OW17434   0.584   0.395   0.547 -0.0844  0.4016 -0.5032
 1992SOL    HW117435   0.525   0.367   0.617 -0.1009  0.4747 -0.4873
 1992SOL    HW217436   0.596   0.310   0.507  2.3582 -0.5193  2.1318
 1993SOL     OW17437   4.114   2.153   0.218  0.4790  0.5113  0.1292
 1993SOL    HW117438   4.053   2.225   0.203  0.2910  0.8530  2.4976
 1993SOL    HW217439   4.053   2.088   0.253  0.0087  0.1188 -1.4358
 1994SOL     OW17440   0.803   3.170   9.253  0.4441  0.3524  0.3380
 1994SOL    HW117441   0.863   3.225   9.304  1.3282 -0.6784  0.4121
 1994SOL    HW217442   0.726   3.218   9.281 -0.4300 -1.4768  1.0153
 1995SOL     OW17443   0.723   4.496  10.289  0.2074 -0.0289  0.9196
 1995SOL    HW117444   0.677   4.580  10.295 -0.8666 -0.5492 -0.1230
 1995SOL    HW217445   0.647   4.438  10.287  0.3759 -0.1857 -0.8532
 1996SOL     OW17446   0.938   0.037   5.797 -0.1858 -0.2356 -0.0895
 1996SOL    HW117447   0.891   0.118   5.782 -1.0767 -0.5305  1.0938
 1996SOL    HW217448   0.916   0.018   5.888 -0.6196 -0.1464 -0.1762
 1997SOL     OW17449   1.708   4.320  17.258 -0.1836 -0.1795  0.3880
 1997SOL    HW117450   1.731   4.365  17.340 -3.4578 -1.5297  2.0565
 1997SOL    HW217451   1.629   4.364  17.229 -0.2537 -0.8708 -0.4795
 1998SOL     OW17452   3.810   0.783   0.736 -0.3052 -0.3393  0.3640
 1998SOL    HW117453   3.772   0.851   0.791  0.0450  0.7491 -0.7574
 1998SOL    HW217454   3.817   0.831   0.654  1.2020  1.8781  1.8116
 1999SOL     OW17455   1.383   2.766  15.425 -0.3218  0.1811 -0.3591
 1999SOL    HW117456   1.346   2.714  15.497  2.6222  0.0071  1.0183
 1999SOL    HW217457   1.412   2.837  15.482 -0.9774  0.9455 -0.9700
 2000SOL     OW17458   0.593   3.374   1.878 -0.0219  0.1897 -0.4203
 2000SOL    HW117459   0.564   3.292   1.920 -0.8074  0.5531 -0.2569
 2000SOL    HW217460   0.531   3.442   1.901 -0.3171 -0.1619 -0.1692
 2001SOL     OW17461   3.096   0.559  11.639 -0.1840 -0.1873 -0.1408
 2001SOL    HW117462   3.183   0.599  11.641 -0.2119 -0.0422 -1.4731
 2001SOL    HW217463   3.087   0.527  11.729 -1.0444 -1.2572 -0.6142
 2002SOL     OW17464   2.786   4.019   4.075  0.1928  0.1555  0.3365
 2002SOL    HW117465   2.707   4.033   4.127  0.5693 -1.2673  1.2821
 2002SOL    HW217466   2.739   3.973   4.005  1.8118  0.4618 -0.9517
 2003SOL     OW17467   3.266   1.133   6.735  0.2616  0.0187  0.3126
 2003SOL    HW117468   3.179   1.106   6.762 -0.4983  1.5338 -0.6281
 2003SOL    HW217469   3.279   1.101   6.646  1.5720 -0.9203  0.8429
 2004SOL     OW17470   0.846   3.488   3.081  0.3917 -0.5711 -0.2786
 2004SOL    HW117471   0.913   3.556   3.068  0.2158 -0.0163  1.6259
 2004SOL    HW217472   0.897   3.412   3.109  0.3904 -0.1154  1.0048
 2005SOL     OW17473   1.286   3.191   6.256 -0.3912  0.2086 -0.3068
 2005SOL    HW117474   1.276   3.167   6.349  1.4539  0.6091 -0.0092
 2005SOL    HW217475   1.381   3.184   6.249 -0.3022 -0.1541  1.0557
 2006SOL     OW17476   1.120   2.404   8.632 -0.3188  0.5709 -0.3644
 2006SOL    HW117477   1.129   2.499   8.638 -4.1388  0.9138 -0.2239
 2006SOL    HW217478   1.097   2.375   8.720  0.6819 -3.2327 -1.3661
 2007SOL     OW17479   1.997   0.973   3.040  0.8882 -0.3866  0.2757
 2007SOL    HW117480   1.948   0.987   3.121 -1.0465 -1.6040 -0.6614
 2007SOL    HW217481   1.925   0.964   2.977  0.1319 -1.6230  1.3186
 2008SOL     OW17482   2.386   3.229   6.544  0.4184  0.4190  0.2512
 2008SOL    HW117483   2.412   3.229   6.451 -0.1284 -0.4014  0.0977
 2008SOL    HW217484   2.296   3.263   6.543  0.6375  0.9490 -1.6657
 2009SOL     OW17485   4.033   3.308  15.456  0.3063 -0.2421 -0.1585
 2009SOL    HW117486   4.015   3.226  15.411  0.0921 -0.3720  0.1620
 2009SOL    HW217487   4.116   3.280  15.495  0.3820 -2.2223 -1.7765
 2010SOL     OW17488   2.785   4.586  15.571  0.4863 -0.1792 -0.1553
 2010SOL    HW117489   2.838   4.522  15.524 -2.2101 -2.5458  0.0219
 2010SOL    HW217490   2.732   4.529  15.626  0.0853 -1.8401 -2.2705
 2011SOL     OW17491   1.999   3.272   5.775  0.2874 -0.1823 -0.3890
 2011SOL    HW117492   2.055   3.346   5.752 -2.3206  1.8375 -0.2720
 2011SOL    HW217493   2.033   3.208   5.713  1.4650 -1.0220  1.1177
 2012SOL     OW17494   1.255   0.283   4.853 -0.2889 -0.3649  0.1637
 2012SOL    HW117495   1.189   0.310   4.916  0.7409 -1.2516  1.6343
 2012SOL    HW217496   1.235   0.334   4.774 -1.0247 -1.2578 -0.2280
 2013SOL     OW17497   1.430   0.594  10.893 -0.5999  0.4357 -0.0412
 2013SOL    HW117498   1.431   0.681  10.933  0.2933  0.9772 -1.2342
 2013SOL    HW217499   1.497   0.597  10.825  0.7318  1.0475  1.2935
 2014SOL     OW17500   1.044   4.536   7.975 -0.0210  0.6360  0.2928
 2014SOL    HW117501   1.055   4.623   7.937 -0.8060  0.5375 -0.1695
 2014SOL    HW217502   0.959   4.549   8.018 -0.0004  2.1919 -0.1631
 2015SOL     OW17503   0.053   2.624   8.498  0.0058  0.2017  0.3112
 2015SOL    HW117504   0.054   2.696   8.561 -1.6909 -0.3960  1.0152
 2015SOL    HW217505   0.040   2.659   8.410  0.4896 -2.3562 -0.7600
 2016SOL     OW17506   3.216   0.990  12.694 -0.1582  0.3971 -0.8793
 2016SOL    HW117507   3.162   1.057  12.651 -1.1927 -0.7267 -1.3166
 2016SOL    HW217508   3.297   1.010  12.648  1.1364 -1.4351  0.5984
 2017SOL     OW17509   1.265   1.509   6.307 -0.1828  0.4948 -0.1524
 2017SOL    HW117510   1.346   1.459   6.304 -0.4960 -0.0996  1.2358
 2017SOL    HW217511   1.292   1.598   6.282  1.3662  0.8378  2.7324
 2018SOL     OW17512   3.357   4.082  10.852  0.1262 -0.4019 -0.0752
 2018SOL    HW117513   3.437   4.126  10.879  0.1997  0.0142 -0.9713
 2018SOL    HW217514   3.319   4.142  10.787 -1.2243 -1.3954 -0.2034
 2019SOL     OW17515   2.825   4.129   7.374  0.4971 -0.3973  0.6637
 2019SOL    HW117516   2.905   4.095   7.415  0.9263 -1.6968 -1.2315
 2019SOL    HW217517   2.827   4.095   7.285 -1.3225 -1.6311  1.0947
 2020SOL     OW17518   2.259   2.200   3.186 -0.2561  0.1775 -0.3554
 2020SOL    HW117519   2.351   2.226   3.179  0.0955 -0.2472  2.8983
 2020SOL    HW217520   2.260   2.109   3.155 -1.1982 -0.4284  1.3903
 2021SOL     OW17521   0.209   4.289   9.101  0.1311  0.2512 -0.1934
 2021SOL    HW117522   0.293   4.309   9.143 -0.1522  0.4666  0.2806
 2021SOL    HW217523   0.164   4.307   9.184 -3.0691  1.5351 -2.2249
 2022SOL     OW17524   1.312   4.088   8.576  0.0159 -0.0122 -0.0564
 2022SOL    HW117525   1.286   4.178   8.593 -0.9004 -0.6139  1.7705
 2022SOL    HW217526   1.324   4.099   8.482 -0.2071  0.4738 -0.0248
 2023SOL     OW17527   3.846   0.336   5.692  0.2292  0.1794  0.8727
 2023SOL    HW117528   3.770   0.342   5.634  0.8655 -0.1749  0.0020
 2023SOL    HW217529   3.923   0.303   5.645 -0.6903 -0.6999 -0.0234
 2024SOL     OW17530   1.543   0.629   1.618 -0.2140  0.4019  0.6215
 2024SOL    HW117531   1.481   0.562   1.588  2.7127 -1.0537 -2.2215
 2024SOL    HW217532   1.603   0.641   1.544  0.3752  0.4818  1.1085
 2025SOL     OW17533   4.649   3.841   5.752  0.0759  0.7909  0.4000
 2025SOL    HW117534   4.683   3.914   5.804  2.4771  0.0847 -0.2066
 2025SOL    HW217535   4.556   3.856   5.770  0.2659 -0.6541  2.5703
 2026SOL     OW17536   4.410   4.296   8.904  0.4933  0.4928  0.2477
 2026SOL    HW117537   4.439   4.208   8.881 -3.2241 -1.3322  2.4928
 2026SOL    HW217538   4.372   4.269   8.987 -1.1304 -1.7838 -1.2191
 2027SOL     OW17539   1.877   2.448  11.467  0.3076  0.3957 -0.1429
 2027SOL    HW117540   1.836   2.480  11.387 -1.6720 -1.8170 -0.0148
 2027SOL    HW217541   1.968   2.478  11.464 -0.2577  1.9219 -1.7781
 2028SOL     OW17542   1.739   0.652  12.378  0.6651 -0.1311 -0.1874
 2028SOL    HW117543   1.792   0.664  12.299 -0.0237 -0.0471 -0.6360
 2028SOL    HW217544   1.686   0.730  12.396 -1.2390 -1.5447  0.3148
 2029SOL     OW17545   1.256   2.941  13.147  0.9909 -0.4333 -0.0985
 2029SOL    HW117546   1.194   3.004  13.185 -0.6301 -1.3335 -1.2416
 2029SOL    HW217547   1.251   2.973  13.057  0.9648  1.7108  0.6630
 2030SOL     OW17548   2.583   1.217  15.381 -0.4806 -0.4166 -0.1649
 2030SOL    HW117549   2.583   1.172  15.297  0.0986  1.2007 -1.0129
 2030SOL    HW217550   2.526   1.293  15.371  2.1424  1.2645 -2.3400
 2031SOL     OW17551   1.627   1.627   4.197 -0.1657  0.0923 -0.3156
 2031SOL    HW117552   1.569   1.663   4.131 -1.1080 -0.3523  0.2765
 2031SOL    HW217553   1.566   1.566   4.239 -0.9150 -0.1561 -1.7739
 2032SOL     OW17554   3.152   3.023   5.328 -0.3009 -0.0079 -0.1405
 2032SOL    HW117555   3.180   3.047   5.239 -2.2151  1.7856 -0.2762
 2032SOL    HW217556   3.174   2.930   5.326 -3.0137 -0.6530 -1.0908
 2033SOL     OW17557   3.339   1.519  10.817 -0.1490  0.3479  0.0141
 2033SOL    HW117558   3.417   1.523  10.762 -1.0024 -0.9093 -1.2910
 2033SOL    HW217559   3.369   1.465  10.890  0.3576  0.5659 -0.0337
 2034SOL     OW17560   4.148   0.467  12.722  0.0310 -0.1179 -0.1861
 2034SOL    HW117561   4.146   0.546  12.668 -1.9051 -1.4476 -2.0669
 2034SOL    HW217562   4.080   0.412  12.683  0.8566 -0.3694 -1.2757
 2035SOL     OW17563   1.945   3.340   3.202 -0.7074 -0.2994  0.0890
 2035SOL    HW117564   1.916   3.250   3.186 -1.6038 -0.3782  2.1068
 2035SOL    HW217565   1.983   3.329   3.289 -0.0037  0.6909 -0.1058
 2036SOL     OW17566   3.295   1.297  12.495  0.6769 -0.3795 -0.1952
 2036SOL    HW117567   3.368   1.306  12.434 -0.0734  0.3201 -0.9941
 2036SOL    HW217568   3.338   1.245  12.563  0.4635 -0.5452 -0.1867
 2037SOL     OW17569   2.365   4.601   6.060  0.1810  0.3053 -0.2458
 2037SOL    HW117570   2.387   4.656   6.135  1.2549 -0.5611  0.0662
 2037SOL    HW217571   2.398   4.513   6.076 -0.5849  0.2941  1.3111
 2038SOL     OW17572   3.750   3.180  13.296 -0.8825  0.1159  0.8374
 2038SOL    HW117573   3.812   3.232  13.346  0.6616  0.1918 -1.1429
 2038SOL    HW217574   3.674   3.225  13.332 -0.9465 -0.5111  1.4908
 2039SOL     OW17575   1.358   2.539  11.597  0.5314  0.1206  0.5046
 2039SOL    HW117576   1.276   2.576  11.565  0.5124 -0.6346 -0.3174
 2039SOL    HW217577   1.362   2.575  11.686  0.7355 -0.2649  0.6519
 2040SOL     OW17578   4.078   4.063   4.350  0.4583 -0.4036  0.1827
 2040SOL    HW117579   4.105   4.155   4.354  0.6225 -0.3689 -1.3922
 2040SOL    HW217580   4.141   4.025   4.288 -2.1577 -1.2554 -1.9678
 2041SOL     OW17581   0.706   2.653  16.937  0.0725  0.0866  0.0122
 2041SOL    HW117582   0.651   2.683  17.009 -1.3200  1.0251 -1.4440
 2041SOL    HW217583   0.652   2.578  16.910 -1.2103  1.3913 -1.0070
 2042SOL     OW17584   4.022   4.081  11.195  0.3689  0.5469 -0.2477
 2042SOL    HW117585   4.074   4.077  11.275 -0.3000 -2.6899  0.0503
 2042SOL    HW217586   4.093   4.101  11.135  0.2945  1.9014  0.1302
 2043SOL     OW17587   2.464   1.246   4.743 -0.3413  0.7062  0.1739
 2043SOL    HW117588   2.458   1.233   4.838 -0.1517  1.1127  0.2432
 2043SOL    HW217589   2.395   1.312   4.741  1.2230  2.3183 -0.4575
 2044SOL     OW17590   2.837   1.934   5.116 -0.3438 -0.3042 -0.0955
 2044SOL    HW117591   2.881   1.935   5.201 -3.1090  0.9954  1.3193
 2044SOL    HW217592   2.782   2.012   5.122  1.1807  0.7855 -0.3755
 2045SOL     OW17593   0.386   0.890   6.665 -0.0079 -0.2050  0.1473
 2045SOL    HW117594   0.479   0.868   6.658  0.1891  0.8990 -0.8897
 2045SOL    HW217595   0.372   0.914   6.756  0.7998 -0.1527  0.2624
 2046SOL     OW17596   2.166   0.636   4.186  0.1371 -0.2587  0.7671
 2046SOL    HW117597   2.156   0.645   4.091  0.0487  1.7103  0.9654
 2046SOL    HW217598   2.082   0.595   4.206 -1.3457  1.5118 -1.7689
 2047SOL     OW17599   1.960   0.060  13.770  0.7398  0.3969  0.2185
 2047SOL    HW117600   1.943   0.153  13.784 -1.6885 -0.0306  0.1082
 2047SOL    HW217601   1.933   0.028  13.855 -1.0072 -1.4186 -1.0206
 2048SOL     OW17602   0.448   2.049   8.260  0.2636 -0.0599 -0.0761
 2048SOL    HW117603   0.365   2.055   8.308 -0.5927  3.6599 -1.9970
 2048SOL    HW217604   0.445   1.963   8.218 -2.1653  0.1687 -0.4340
 2049SOL     OW17605   0.055   2.380   1.626  0.9605 -0.2884 -0.2744
 2049SOL    HW117606   0.122   2.313   1.611  1.5602  0.5757 -1.4802
 2049SOL    HW217607   4.696   2.329   1.634  2.0990 -2.0957 -0.1039
 2050SOL     OW17608   3.254   0.444  14.619 -0.9379  0.4118 -0.2464
 2050SOL    HW117609   3.243   0.529  14.661 -0.0265 -0.6360  2.1239
 2050SOL    HW217610   3.203   0.397  14.684  0.0319 -0.4100 -0.0743
 2051SOL     OW17611   1.216   2.464   6.750  0.0607  0.6313 -0.1341
 2051SOL    HW117612   1.256   2.377   6.762 -0.3084  0.5689  0.5988
 2051SOL    HW217613   1.159   2.476   6.826 -1.7008 -0.6238 -1.2672
 2052SOL     OW17614   3.066   4.448   4.460 -0.2024 -0.4423  0.2978
 2052SOL    HW117615   3.120   4.371   4.439  0.9621  0.5497 -0.3781
 2052SOL    HW217616   3.117   4.517   4.417 -2.4960 -0.4187 -2.3505
 2053SOL     OW17617   1.889   4.220  15.308  0.1754  0.2300  0.4621
 2053SOL    HW117618   1.868   4.185  15.222  0.5547  0.3482  0.3260
 2053SOL    HW217619   1.937   4.147  15.346  0.2784 -0.7773 -1.6366
 2054SOL     OW17620   1.930   3.096   3.096  0.6017  0.0614 -0.0769
 2054SOL    HW117621   1.952   3.007   3.068 -1.2137 -1.0891  2.0302
 2054SOL    HW217622   1.837   3.104   3.072  0.1169  0.2175  1.8339
 2055SOL     OW17623   2.340   3.774  14.451  0.1067 -0.5157  0.0007
 2055SOL    HW117624   2.351   3.842  14.385 -0.3655 -1.1320 -0.7170
 2055SOL    HW217625   2.430   3.747  14.471 -0.4958 -0.4536  2.8005
 2056SOL     OW17626   3.671   4.037   0.889 -0.3483  0.4195  0.2791
 2056SOL    HW117627   3.590   4.033   0.941 -0.0992 -0.4950  0.6118
 2056SOL    HW217628   3.697   3.945   0.900 -0.7241  0.2706 -0.0772
 2057SOL     OW17629   2.385   2.522  16.153 -0.1965 -1.1928 -0.0015
 2057SOL    HW117630   2.347   2.530  16.065 -0.1088  0.3760  0.1097
 2057SOL    HW217631   2.449   2.593  16.148 -0.7460 -0.7094 -0.2377
 2058SOL     OW17632   2.897   0.408   2.313  0.0620 -0.0198 -0.5376
 2058SOL    HW117633   2.943   0.492   2.311  0.9235 -0.4618  0.9521
 2058SOL    HW217634   2.840   0.401   2.389  0.8008 -0.1387 -0.0005
 2059SOL     OW17635   1.175   1.415  11.489  0.2193  0.2618 -0.6038
 2059SOL    HW117636   1.216   1.501  11.490  0.8916 -0.0420 -1.6810
 2059SOL    HW217637   1.203   1.379  11.405  0.1554  0.3944 -0.6810
 2060SOL     OW17638   0.192   2.189  13.368 -0.2981 -0.1250 -0.2481
 2060SOL    HW117639   0.156   2.277  13.369 -0.8244 -0.3582  2.0277
 2060SOL    HW217640   0.221   2.187  13.460 -1.6085  2.9699  0.2313
 2061SOL     OW17641   2.086   2.386  16.121 -0.3844  0.3397 -0.1628
 2061SOL    HW117642   2.077   2.471  16.164  0.3438 -0.0931  0.8549
 2061SOL    HW217643   2.029   2.395  16.045  0.3757 -0.9801 -0.8931
 2062SOL     OW17644   1.536   3.406   0.328 -0.6955  0.6681 -0.9776
 2062SOL    HW117645   1.455   3.370   0.365  0.8230  0.7875  2.4374
 2062SOL    HW217646   1.510   3.492   0.298 -1.2480  0.9496  0.3003
 2063SOL     OW17647   0.764   1.439   8.834 -0.1034  1.1486 -0.0821
 2063SOL    HW117648   0.733   1.529   8.841 -3.0112 -0.1002  3.3725
 2063SOL    HW217649   0.688   1.403   8.790  1.3263 -0.4205 -1.2375
 2064SOL     OW17650   0.241   3.697  17.431 -0.5222 -0.1096  0.2222
 2064SOL    HW117651   0.278   3.779  17.462 -0.2375 -0.7046  1.4645
 2064SOL    HW217652   0.262   3.640  17.505 -0.5927  0.2907  0.5503
 2065SOL     OW17653   3.088   3.101   5.870  0.3196  0.0095  0.0520
 2065SOL    HW117654   3.141   3.120   5.793  0.6440 -0.6093  0.1212
 2065SOL    HW217655   3.164   3.077   5.923  0.4094  0.5310  0.1566
 2066SOL     OW17656   1.865   0.952   6.874  0.4495  0.2134 -0.4808
 2066SOL    HW117657   1.871   1.017   6.944  1.2409  1.1793 -1.4400
 2066SOL    HW217658   1.892   0.872   6.918 -2.1855 -0.1445  0.4652
 2067SOL     OW17659   1.292   3.946   4.172  0.1477 -0.0474  0.6245
 2067SOL    HW117660   1.198   3.945   4.156  0.7951  1.0466 -3.0944
 2067SOL    HW217661   1.331   3.906   4.094 -1.3127 -0.8029  0.2715
 2068SOL     OW17662   0.782   4.403  10.748 -0.3019 -0.0460 -0.3330
 2068SOL    HW117663   0.877   4.409  10.742 -0.2116 -2.8395 -1.5219
 2068SOL    HW217664   0.771   4.460  10.672  2.3213  0.1178 -0.5746
 2069SOL     OW17665   2.833   1.314   5.757  0.7015  0.5160  0.1338
 2069SOL    HW117666   2.848   1.354   5.843 -1.1811 -1.2476  1.2720
 2069SOL    HW217667   2.758   1.258   5.773 -0.3838  2.0442  0.3997
 2070SOL     OW17668   4.239   3.340   4.880  0.5470 -0.0938  0.0085
 2070SOL    HW117669   4.239   3.381   4.794 -1.6935  0.6334  0.3315
 2070SOL    HW217670   4.313   3.280   4.891  0.6717  0.0103 -0.2755
 2071SOL     OW17671   1.131   2.777   6.286  0.0119 -0.1763 -0.0653
 2071SOL    HW117672   1.211   2.769   6.338 -0.0967 -2.1685 -0.2118
 2071SOL    HW217673   1.102   2.686   6.286  0.0610 -0.1909 -1.4560
 2072SOL     OW17674   2.753   0.548  10.703 -0.2717  0.3461  0.2579
 2072SOL    HW117675   2.694   0.504  10.765  0.6458 -0.5598  0.4783
 2072SOL    HW217676   2.836   0.515  10.737 -0.9108 -0.2109  1.2864
 2073SOL     OW17677   1.441   3.949   5.105 -0.4119  0.1986 -0.2207
 2073SOL    HW117678   1.525   3.906   5.118 -1.1375 -0.6300  1.7254
 2073SOL    HW217679   1.457   4.010   5.177 -0.4847  0.7462 -0.6681
 2074SOL     OW17680   3.541   3.179  11.424  0.6466 -0.0941  0.6588
 2074SOL    HW117681   3.460   3.156  11.468 -0.3937  0.9314 -0.7072
 2074SOL    HW217682   3.553   3.262  11.470  1.7786 -0.2728  0.7018
 2075SOL     OW17683   0.249   4.347  16.589 -0.1329 -0.4146  0.3700
 2075SOL    HW117684   0.267   4.263  16.547  2.3899  0.1109  0.3761
 2075SOL    HW217685   0.318   4.349  16.656 -1.8991  1.1643  2.1437
 2076SOL     OW17686   0.311   3.122   4.810  0.1545 -0.7299  0.0584
 2076SOL    HW117687   0.299   3.037   4.853  3.8812 -1.6649 -0.7207
 2076SOL    HW217688   0.398   3.104   4.775  2.0914 -0.9663  4.8767
 2077SOL     OW17689   3.277   3.469  12.015  0.3607 -0.1856 -0.0840
 2077SOL    HW117690   3.246   3.449  11.927 -0.1117  3.6582 -0.7813
 2077SOL    HW217691   3.242   3.397  12.068  0.2855 -0.9638 -1.2092
 2078SOL     OW17692   4.712   4.266   2.720 -0.0707 -0.2331  0.1210
 2078SOL    HW117693   4.687   4.229   2.636  2.3603 -1.3267 -0.1274
 2078SOL    HW217694   0.033   4.345   2.685 -0.8444  0.2436  0.2498
 2079SOL     OW17695   4.668   3.011   7.657  0.6130  0.1269 -0.0054
 2079SOL    HW117696   4.671   3.106   7.648 -1.4974  0.3329  1.6689
 2079SOL    HW217697   0.037   2.983   7.643  0.9292  2.2856 -2.2777
 2080SOL     OW17698   1.871   2.988  16.601 -0.0803 -0.0987  0.2270
 2080SOL    HW117699   1.777   2.972  16.612  0.3263 -1.6200  1.4406
 2080SOL    HW217700   1.891   2.992  16.695 -1.5700  0.1523  0.5435
 2081SOL     OW17701   1.377   1.403  15.670  0.0039 -0.4127  0.4759
 2081SOL    HW117702   1.470   1.411  15.647  0.1594 -1.7300  0.6408
 2081SOL    HW217703   1.363   1.481  15.725 -2.9493  0.2915 -1.2657
 2082SOL     OW17704   1.368   1.737   2.008 -0.6589 -0.3299  0.2266
 2082SOL    HW117705   1.365   1.821   1.962 -2.9793  0.3599  1.6822
 2082SOL    HW217706   1.361   1.681   1.930 -1.8858 -1.1194  0.9229
 2083SOL     OW17707   0.372   1.575  12.716  0.1456 -0.0083 -0.4345
 2083SOL    HW117708   0.396   1.596  12.807  0.2803 -0.6644 -0.3232
 2083SOL    HW217709   0.442   1.615  12.664 -0.1716  0.4741 -0.4958
 2084SOL     OW17710   3.773   4.397  11.400  0.3385 -0.3807 -0.0829
 2084SOL    HW117711   3.753   4.491  11.412 -0.0186 -0.1882 -2.1581
 2084SOL    HW217712   3.803   4.402  11.309  1.3278 -1.0699  0.2105
 2085SOL     OW17713   0.340   4.640   0.774 -0.6636 -0.4628  0.2050
 2085SOL    HW117714   0.297   0.002   0.796 -0.7060 -0.3763 -0.2043
 2085SOL    HW217715   0.263   4.590   0.746 -0.6596 -1.6066  2.2947
 2086SOL     OW17716   1.168   1.133   3.720 -0.2262 -0.1882 -0.1363
 2086SOL    HW117717   1.249   1.101   3.680 -0.1254 -1.3199  0.9495
 2086SOL    HW217718   1.108   1.064   3.691  0.3254 -1.0277  0.6921
 2087SOL     OW17719   2.916   2.898   7.427 -0.5076 -0.2018 -0.1483
 2087SOL    HW117720   2.925   2.819   7.375  0.4086 -1.6875  2.2348
 2087SOL    HW217721   3.008   2.915   7.448 -0.9351  1.0283  0.7449
 2088SOL     OW17722   3.223   3.472   6.466  0.6881  0.0232  0.0419
 2088SOL    HW117723   3.259   3.508   6.547  1.2586 -1.5346  0.4825
 2088SOL    HW217724   3.186   3.389   6.496 -0.3431  0.3721 -0.2693
 2089SOL     OW17725   3.821   3.770   7.988  0.3606  0.3764  0.8004
 2089SOL    HW117726   3.836   3.726   8.072 -1.8325 -1.7673  0.0858
 2089SOL    HW217727   3.731   3.801   7.994  0.5079  1.3985 -2.6887
 2090SOL     OW17728   2.160   0.478  10.950  0.2902  0.1857  0.5671
 2090SOL    HW117729   2.177   0.500  11.041 -1.1169  2.0193  0.3817
 2090SOL    HW217730   2.101   0.402  10.957 -1.1797  1.3774  1.0662
 2091SOL     OW17731   1.255   4.189   2.848 -0.2742  0.1275  0.3077
 2091SOL    HW117732   1.293   4.123   2.906  1.7686  1.1175  0.0972
 2091SOL    HW217733   1.318   4.261   2.852 -0.4363  0.2889  0.0243
 2092SOL     OW17734   4.345   2.153  16.775  0.8079 -0.3814 -0.0400
 2092SOL    HW117735   4.403   2.222  16.744  2.3600 -1.9405 -0.5810
 2092SOL    HW217736   4.372   2.093  16.706  1.3400 -1.4644  1.1182
 2093SOL     OW17737   3.764   3.502   6.769 -0.3165 -0.3259 -0.2577
 2093SOL    HW117738   3.746   3.408   6.778  2.0487 -0.4815  3.1691
 2093SOL    HW217739   3.826   3.505   6.842 -0.2746 -0.2900 -0.2951
 2094SOL     OW17740   2.223   3.796  10.309  0.9874  0.4138  0.2770
 2094SOL    HW117741   2.168   3.770  10.235  0.5613  2.6249 -0.2094
 2094SOL    HW217742   2.289   3.850  10.266  1.4442 -1.4966 -1.4110
 2095SOL     OW17743   2.270   1.540   8.965  0.0467 -0.9030 -0.2154
 2095SOL    HW117744   2.308   1.582   9.042  2.8065 -1.9490 -1.0165
 2095SOL    HW217745   2.270   1.605   8.895  1.2244  0.4585  1.0731
 2096SOL     OW17746   4.002   1.214  16.618 -0.3825 -0.0337 -0.1289
 2096SOL    HW117747   3.918   1.205  16.574 -1.5498  4.0901  1.2613
 2096SOL    HW217748   4.056   1.240  16.543  0.5880 -1.6156  0.0263
 2097SOL     OW17749   3.726   2.324  14.910  0.4796  0.3553 -0.1458
 2097SOL    HW117750   3.796   2.376  14.951  0.5061 -0.7073  1.1482
 2097SOL    HW217751   3.743   2.242  14.956 -1.0751  1.1273  1.8072
 2098SOL     OW17752   3.676   3.901   8.311  0.4390  0.0149  0.8319
 2098SOL    HW117753   3.769   3.909   8.288  0.0415  0.3318 -0.6621
 2098SOL    HW217754   3.632   3.936   8.233  0.4423 -1.2824  0.2508
 2099SOL     OW17755   3.162   1.013   2.628 -0.2812  0.2588 -0.0643
 2099SOL    HW117756   3.155   1.104   2.657  0.3886  0.4519 -0.5082
 2099SOL    HW217757   3.108   1.015   2.549  2.8556 -1.1005 -2.2208
 2100SOL     OW17758   2.508   3.136   7.966 -0.8501 -0.7263 -0.5303
 2100SOL    HW117759   2.519   3.123   8.060 -0.4074  0.2886 -0.4449
 2100SOL    HW217760   2.439   3.202   7.957 -2.0685 -1.7186  1.6777
 2101SOL     OW17761   2.591   1.189  11.848  0.3122 -0.2796 -0.2833
 2101SOL    HW117762   2.515   1.221  11.799 -0.0831  0.0749  0.5542
 2101SOL    HW217763   2.569   1.178  11.941 -0.1275 -1.2880 -0.5109
 2102SOL     OW17764   3.955   2.577  12.585  0.0460 -0.7506 -0.3014
 2102SOL    HW117765   3.996   2.518  12.648  0.0959  0.0934  0.4444
 2102SOL    HW217766   3.867   2.596  12.619 -0.1382 -1.0778 -0.5796
 2103SOL     OW17767   4.223   3.432  17.479 -0.4355  0.3780 -0.7915
 2103SOL    HW117768   4.240   3.368  17.548  1.5322  0.2161 -1.4410
 2103SOL    HW217769   4.312   3.429  17.444  0.0183 -1.1048  0.4943
 2104SOL     OW17770   0.401   2.456  17.573 -0.1453  0.3952 -0.4358
 2104SOL    HW117771   0.426   2.425  17.485 -0.8586  3.1620 -1.6002
 2104SOL    HW217772   0.352   2.381  17.606 -0.4277  1.7047  2.0935
 2105SOL     OW17773   2.901   2.809   9.091 -0.2498  0.4709 -0.1679
 2105SOL    HW117774   2.995   2.825   9.086 -0.3560  1.7099  1.4963
 2105SOL    HW217775   2.893   2.720   9.056 -0.2657  1.2149 -2.0245
 2106SOL     OW17776   2.160   0.596   4.928  0.1015  0.1276 -0.4747
 2106SOL    HW117777   2.093   0.615   4.862 -1.6555 -1.2204  0.8961
 2106SOL    HW217778   2.156   0.500   4.925  1.6568  0.0778 -0.9212
 2107SOL     OW17779   4.572   1.640  11.806 -0.4212 -0.1336 -0.0154
 2107SOL    HW117780   4.606   1.553  11.829 -0.4712 -0.0702  0.3017
 2107SOL    HW217781   4.653   1.689  11.792 -0.4005  0.4309  2.0672
 2108SOL     OW17782   2.815   1.850   8.120 -0.3834  0.2487  0.3013
 2108SOL    HW117783   2.849   1.938   8.106 -0.6658 -0.2825 -3.6041
 2108SOL    HW217784   2.862   1.798   8.055 -1.1489  0.1635 -0.1779
 2109SOL     OW17785   0.789   3.792   1.938  0.2158 -0.0554 -1.0727
 2109SOL    HW117786   0.765   3.881   1.965 -1.2900 -1.8102  3.4035
 2109SOL    HW217787   0.718   3.744   1.981  0.2003  0.6819 -0.2707
 2110SOL     OW17788   2.266   3.902   1.194  0.0072  0.4650  0.3000
 2110SOL    HW117789   2.196   3.839   1.177 -0.2432  1.3291 -1.9583
 2110SOL    HW217790   2.255   3.968   1.125  0.1828  0.8526  0.6467
 2111SOL     OW17791   1.422   2.770  15.143  0.4199  0.5713  0.2101
 2111SOL    HW117792   1.428   2.765  15.238  0.0402 -0.1551  0.1952
 2111SOL    HW217793   1.390   2.860  15.133 -1.4056 -0.2230 -1.1585
 2112SOL     OW17794   0.650   3.160   7.624 -0.8714  0.4328  0.0822
 2112SOL    HW117795   0.567   3.199   7.654 -2.0597 -2.4028  0.4315
 2112SOL    HW217796   0.680   3.131   7.710 -0.8602  4.0383  1.3124
 2113SOL     OW17797   2.158   4.276   7.414  1.2301  0.4355 -0.1645
 2113SOL    HW117798   2.071   4.276   7.453  1.1135 -2.3120 -0.4164
 2113SOL    HW217799   2.181   4.369   7.413  0.0019  0.7406  0.5188
 2114SOL     OW17800   4.443   0.964   6.553  0.3492  0.3581 -1.1904
 2114SOL    HW117801   4.509   0.895   6.549 -0.9041 -1.0766  2.3953
 2114SOL    HW217802   4.460   1.011   6.635 -1.7605 -0.6423 -0.1948
 2115SOL     OW17803   0.362   3.898  17.561 -0.4881 -0.0517  0.2335
 2115SOL    HW117804   0.446   3.901  17.607  0.4687 -1.0399 -1.4607
 2115SOL    HW217805   0.352   3.987  17.525 -0.8594 -0.7605 -1.4051
 2116SOL     OW17806   3.458   3.595  15.438 -0.5233  0.3205  0.2939
 2116SOL    HW117807   3.380   3.549  15.408 -2.4306  2.6518  1.6806
 2116SOL    HW217808   3.457   3.594  15.533 -3.1309 -0.1912  0.2615
 2117SOL     OW17809   0.536   2.147   2.879  0.2784 -0.3218 -0.7883
 2117SOL    HW117810   0.513   2.109   2.794 -0.9278  0.2075 -0.6996
 2117SOL    HW217811   0.621   2.183   2.850 -0.2076  1.4224 -0.0554
 2118SOL     OW17812   3.675   1.905  16.957 -0.0187 -0.1963 -0.0106
 2118SOL    HW117813   3.728   1.933  17.031  1.5397 -1.7932 -0.5560
 2118SOL    HW217814   3.591   1.910  17.004 -0.7746 -3.1318 -1.0625
 2119SOL     OW17815   2.987   0.387  15.480  0.1953 -0.6269 -0.2111
 2119SOL    HW117816   3.045   0.321  15.519  0.5814 -0.1144  0.0887
 2119SOL    HW217817   2.909   0.333  15.473  1.0091 -1.3739 -3.6912
 2120SOL     OW17818   1.755   0.519   6.067 -0.0992 -0.2220  0.1527
 2120SOL    HW117819   1.696   0.580   6.022  2.4906 -0.4507 -3.5630
 2120SOL    HW217820   1.703   0.439   6.076  1.3828 -1.3275 -1.0867
 2121SOL     OW17821   3.421   3.906   7.343  0.2000  0.3592  0.0102
 2121SOL    HW117822   3.446   3.968   7.411  2.0584 -1.1552  0.7192
 2121SOL    HW217823   3.505   3.865   7.321 -0.7193 -0.4866 -1.9718
 2122SOL     OW17824   1.025   2.941   6.583  0.2860 -0.6164 -0.0287
 2122SOL    HW117825   1.055   2.861   6.538 -1.0743 -0.5152 -1.1289
 2122SOL    HW217826   0.935   2.920   6.609  0.4596  0.3026  1.2922
 2123SOL     OW17827   4.112   0.200   6.477  0.1646  0.3612  0.0016
 2123SOL    HW117828   4.110   0.114   6.434  3.0945 -0.7154  2.0287
 2123SOL    HW217829   4.097   0.260   6.404 -2.7554 -0.5765 -0.1673
 2124SOL     OW17830   1.185   4.390   6.479 -0.3896 -0.2438  0.4047
 2124SOL    HW117831   1.153   4.474   6.513  0.1104  0.9206 -1.9732
 2124SOL    HW217832   1.194   4.415   6.387  1.0377 -0.7106  0.4251
 2125SOL     OW17833   1.990   4.210   3.204  0.0758 -0.4309  0.3825
 2125SOL    HW117834   1.936   4.133   3.187 -0.0505 -0.3749  0.5229
 2125SOL    HW217835   1.958   4.231   3.292  0.1961 -0.6475  0.4780
 2126SOL     OW17836   1.985   2.683   8.661 -0.1181 -0.2614  0.4943
 2126SOL    HW117837   2.006   2.754   8.722 -1.1990 -0.3453  0.9558
 2126SOL    HW217838   1.913   2.726   8.616  1.4962  1.1374 -0.7724
 2127SOL     OW17839   2.554   2.800   3.876 -0.0847 -0.7193  0.1046
 2127SOL    HW117840   2.558   2.786   3.971 -2.1423  2.2229  0.6392
 2127SOL    HW217841   2.644   2.806   3.846 -0.4270 -3.2433 -1.4151
 2128SOL     OW17842   4.122   3.576   8.538 -0.1687  0.1614 -0.0562
 2128SOL    HW117843   4.196   3.616   8.586 -1.4027  1.5445  0.7123
 2128SOL    HW217844   4.172   3.537   8.467  2.7082 -0.2468  2.1920
 2129SOL     OW17845   1.143   3.362   9.673  0.8841  0.1147  0.1089
 2129SOL    HW117846   1.085   3.432   9.702  0.6075 -0.5073  1.0570
 2129SOL    HW217847   1.177   3.399   9.592 -0.6876 -1.2733 -1.1972
 2130SOL     OW17848   3.170   0.796   2.174 -0.2444  0.0019 -0.3275
 2130SOL    HW117849   3.179   0.860   2.103 -2.0556  1.6514  0.9494
 2130SOL    HW217850   3.208   0.845   2.246  0.9925 -0.1116 -0.8987
 2131SOL     OW17851   3.843   3.519   9.061 -0.4000  0.9347  0.0883
 2131SOL    HW117852   3.883   3.444   9.104  0.4273  1.0286 -0.4954
 2131SOL    HW217853   3.921   3.574   9.052  0.8477 -0.8307  0.1515
 2132SOL     OW17854   0.681   0.965   3.428  0.3436  0.1155  0.5137
 2132SOL    HW117855   0.686   1.008   3.342 -3.0884 -1.1875 -0.3719
 2132SOL    HW217856   0.762   0.920   3.452  0.7441  1.0197  0.8459
 2133SOL     OW17857   1.150   2.096   3.456 -0.2679 -0.0834  0.3448
 2133SOL    HW117858   1.079   2.137   3.406 -1.1856 -0.3273  1.4325
 2133SOL    HW217859   1.137   2.126   3.546  0.7739 -2.4038  1.2477
 2134SOL     OW17860   3.491   1.451   5.387  0.3503  1.0214 -0.3087
 2134SOL    HW117861   3.545   1.526   5.412  1.9716 -0.7696  1.6666
 2134SOL    HW217862   3.405   1.493   5.380  0.5488  1.4561 -0.1341
 2135SOL     OW17863   4.304   0.306  13.695  0.1009 -0.5087 -0.1446
 2135SOL    HW117864   4.291   0.391  13.736  2.2544 -0.7353  1.0129
 2135SOL    HW217865   4.400   0.305  13.695  0.1104  0.4256  0.9297
 2136SOL     OW17866   4.539   1.019  11.203 -0.3489 -0.5999  0.0215
 2136SOL    HW117867   4.475   0.998  11.134  1.4713 -3.2921 -0.8549
 2136SOL    HW217868   4.623   1.007  11.160  0.7500  1.4797  1.6277
 2137SOL     OW17869   0.801   3.975   5.776 -0.2407 -0.3732 -0.0501
 2137SOL    HW117870   0.839   3.932   5.699 -1.5742  0.7611 -1.3392
 2137SOL    HW217871   0.737   4.032   5.733  1.8588  0.8871 -1.5175
 2138SOL     OW17872   0.309   4.692  13.156 -0.1933 -0.4218  0.2280
 2138SOL    HW117873   0.249   0.030  13.202  0.4789 -1.8860  2.9827
 2138SOL    HW217874   0.364   4.671  13.232 -3.0136 -0.8212  2.1486
 2139SOL     OW17875   0.071   0.204   5.812 -0.0746  0.4283 -0.1858
 2139SOL    HW117876   0.094   0.265   5.883 -3.4226  0.8784  0.5182
 2139SOL    HW217877   0.050   0.261   5.738 -1.6613  1.7564  1.2714
 2140SOL     OW17878   1.033   2.159   7.489 -0.3162  0.6726 -0.0661
 2140SOL    HW117879   0.959   2.146   7.548  1.0639 -0.5335  1.3829
 2140SOL    HW217880   1.003   2.236   7.440 -0.8927 -0.2705 -1.2076
 2141SOL     OW17881   1.618   1.086   5.414 -0.5621 -0.0448  0.6042
 2141SOL    HW117882   1.526   1.082   5.440  0.1075 -2.8434  2.4879
 2141SOL    HW217883   1.646   1.032   5.488 -0.1519 -0.4723  0.1420
 2142SOL     OW17884   0.775   4.582   6.175 -0.0169 -0.1791  0.4568
 2142SOL    HW117885   0.803   4.568   6.084  0.6167 -2.4081  0.9810
 2142SOL    HW217886   0.755   4.493   6.205  1.1791 -1.4443 -2.4513
 2143SOL     OW17887   3.543   2.462  14.436  0.0804  0.4327 -0.0954
 2143SOL    HW117888   3.595   2.541  14.452  0.7018  0.5352 -2.6657
 2143SOL    HW217889   3.455   2.499  14.436  0.9813  2.5195 -1.3653
 2144SOL     OW17890   2.161   0.167   8.782 -0.1113  0.1022 -0.5655
 2144SOL    HW117891   2.097   0.156   8.853  2.5976 -1.8021  1.5595
 2144SOL    HW217892   2.182   0.257   8.808  1.0753 -0.0689 -0.9363
 2145SOL     OW17893   3.102   0.398  14.200  0.1674  0.1168 -0.6691
 2145SOL    HW117894   3.133   0.343  14.128  0.3688 -1.7308  0.8312
 2145SOL    HW217895   3.065   0.472  14.153  0.0565 -0.6040 -1.7099
 2146SOL     OW17896   0.491   2.585   9.109 -0.1400 -0.3480  0.2216
 2146SOL    HW117897   0.552   2.512   9.101 -2.5384 -2.4901  1.5482
 2146SOL    HW217898   0.484   2.622   9.020 -2.4863  0.0205  0.5599
 2147SOL     OW17899   4.250   0.161  17.149 -0.4996 -0.5549  0.1985
 2147SOL    HW117900   4.251   0.195  17.238  0.3041 -0.2146  0.0536
 2147SOL    HW217901   4.215   0.239  17.106  0.9437  0.0941  0.2060
 2148SOL     OW17902   4.483   0.276   3.668 -0.6103  0.2427 -0.2389
 2148SOL    HW117903   4.431   0.336   3.613  2.1763  3.3807  0.5051
 2148SOL    HW217904   4.567   0.266   3.623 -1.4881  2.3256 -2.3696
 2149SOL     OW17905   1.872   4.677  11.880 -0.3056 -0.1101 -0.2422
 2149SOL    HW117906   1.853   4.585  11.860  0.3172 -0.4131  0.5648
 2149SOL    HW217907   1.936   4.690  11.810  0.8107 -1.2226  0.5669
 2150SOL     OW17908   1.684   2.139  12.309  0.2196 -0.1042  0.0114
 2150SOL    HW117909   1.669   2.091  12.391  0.8865 -1.8271 -0.8691
 2150SOL    HW217910   1.668   2.066  12.249  2.3004 -1.1337  0.7307
 2151SOL     OW17911   2.302   2.091   2.524 -0.9864 -0.1390 -0.0679
 2151SOL    HW117912   2.259   2.005   2.530  2.7743 -2.0640 -0.7237
 2151SOL    HW217913   2.231   2.154   2.512  1.1844  2.5011  1.2632
 2152SOL     OW17914   2.560   1.493  14.689  0.2139  0.2550 -0.2468
 2152SOL    HW117915   2.485   1.435  14.671  0.2337 -0.1179  0.8969
 2152SOL    HW217916   2.614   1.437  14.744 -1.7521  0.3756  1.8161
 2153SOL     OW17917   0.177   1.507   7.934  0.1857 -0.0881  0.0629
 2153SOL    HW117918   0.095   1.524   7.982  0.7112  0.0484  0.9228
 2153SOL    HW217919   0.209   1.437   7.991 -1.7039 -0.2646  0.8993
 2154SOL     OW17920   2.279   0.978   0.673  0.1804 -0.0507 -0.4459
 2154SOL    HW117921   2.302   1.068   0.648  0.3100 -0.6813 -2.6166
 2154SOL    HW217922   2.233   0.958   0.591  0.2847 -1.6440 -0.1004
 2155SOL     OW17923   0.393   2.370  11.678 -0.2852 -0.5849 -0.1950
 2155SOL    HW117924   0.468   2.311  11.678  1.8149  2.0787 -1.1254
 2155SOL    HW217925   0.334   2.346  11.749 -0.5555 -2.4864 -1.0788
 2156SOL     OW17926   3.375   2.306  16.246 -0.0660 -0.0301 -0.0893
 2156SOL    HW117927   3.457   2.330  16.204  1.0060  0.5995  2.3767
 2156SOL    HW217928   3.315   2.321  16.173 -1.3488  1.8643  1.3415
 2157SOL     OW17929   2.075   0.526   1.119  0.6621 -0.1370 -0.6220
 2157SOL    HW117930   2.069   0.583   1.043 -0.7241  1.0169  0.3384
 2157SOL    HW217931   2.045   0.443   1.082 -1.8863  0.4033  0.2256
 2158SOL     OW17932   0.005   4.591  14.026  0.4304  0.0511  0.0169
 2158SOL    HW117933   4.698   4.509  13.987  1.3981  0.4576 -1.5523
 2158SOL    HW217934   0.068   4.620  13.960 -0.5972 -2.4270 -2.0347
 2159SOL     OW17935   2.359   1.841   9.907 -1.1060  0.4719  0.1913
 2159SOL    HW117936   2.392   1.816   9.821 -1.5197  3.5807 -0.8341
 2159SOL    HW217937   2.361   1.936   9.910 -0.5527  0.5145 -1.7880
 2160SOL     OW17938   1.541   0.759  16.860  0.2003  0.0843  0.3360
 2160SOL    HW117939   1.605   0.830  16.852 -0.2908  0.5653  0.6937
 2160SOL    HW217940   1.535   0.753  16.955  3.2151 -0.5576  0.4827
 2161SOL     OW17941   4.514   1.289   3.954  0.3426  0.8641  0.2047
 2161SOL    HW117942   4.541   1.323   3.868  0.1034  0.0423 -0.2037
 2161SOL    HW217943   4.441   1.345   3.978  0.2108  1.2358 -1.0322
 2162SOL     OW17944   2.448   2.089   7.009 -0.2479 -0.4903 -0.1309
 2162SOL    HW117945   2.464   2.097   7.103  0.3488  1.7843 -0.4104
 2162SOL    HW217946   2.525   2.056   6.962  0.6556 -1.4988  2.0899
 2163SOL     OW17947   1.418   0.457   6.852  0.2165  0.1117  0.5931
 2163SOL    HW117948   1.488   0.467   6.916  1.3472  1.3576 -0.8342
 2163SOL    HW217949   1.449   0.408   6.776 -0.4332  0.0587  0.3587
 2164SOL     OW17950   4.176   3.507   8.051  0.0863 -0.1671 -0.2094
 2164SOL    HW117951   4.240   3.439   8.028  0.0306  0.1115 -1.2087
 2164SOL    HW217952   4.164   3.562   7.974 -2.8319 -1.1584 -0.4634
 2165SOL     OW17953   3.620   0.889   3.775  0.2918 -0.1853  0.4026
 2165SOL    HW117954   3.652   0.812   3.821 -0.5047 -0.0095  1.2579
 2165SOL    HW217955   3.618   0.959   3.841  1.4639  2.2012 -2.0966
 2166SOL     OW17956   3.868   3.889   0.165 -0.7734 -0.1394 -0.0802
 2166SOL    HW117957   3.880   3.968   0.112  0.7292  0.9415  1.8648
 2166SOL    HW217958   3.776   3.868   0.149 -0.0436 -2.4054 -1.1518
 2167SOL     OW17959   1.916   1.797   9.402 -0.3793 -0.5239  0.7746
 2167SOL    HW117960   1.875   1.856   9.338  1.2518 -2.0233 -1.6616
 2167SOL    HW217961   1.834   1.760   9.435 -0.2713  0.2476  1.8711
 2168SOL     OW17962   4.518   1.875   7.323 -0.2840 -0.2186 -0.1614
 2168SOL    HW117963   4.502   1.780   7.320  1.4156 -0.5207  0.5222
 2168SOL    HW217964   4.595   1.865   7.378 -0.6309 -2.1976 -0.0161
 2169SOL     OW17965   0.858   1.854   5.893  0.3444 -0.0427 -0.1305
 2169SOL    HW117966   0.863   1.828   5.801 -1.4689  1.5088 -0.6500
 2169SOL    HW217967   0.884   1.940   5.860  1.8670 -0.9191 -1.2076
 2170SOL     OW17968   0.643   2.170   8.369 -0.1308 -0.1325 -0.2860
 2170SOL    HW117969   0.597   2.254   8.373 -0.5804 -0.5524  2.6723
 2170SOL    HW217970   0.580   2.115   8.323 -3.6678  0.7795  3.4782
 2171SOL     OW17971   1.266   0.447   4.620 -0.2960 -0.3308 -0.4367
 2171SOL    HW117972   1.341   0.500   4.593  0.6289 -1.6203 -0.4185
 2171SOL    HW217973   1.220   0.427   4.539  0.6637  0.4982 -1.1927
 2172SOL     OW17974   1.775   3.905   8.137 -0.1062  0.6424 -0.6343
 2172SOL    HW117975   1.801   3.959   8.211  1.2751  1.4203 -1.6913
 2172SOL    HW217976   1.765   3.966   8.063 -1.6768  1.9786  0.6610
 2173SOL     OW17977   1.877   3.998  12.546  0.1418  0.6445 -0.1212
 2173SOL    HW117978   1.883   3.923  12.606 -0.3252  0.6106 -0.1166
 2173SOL    HW217979   1.886   3.951  12.463 -0.4434  2.4300 -1.1977
 2174SOL     OW17980   2.904   3.155   8.564 -0.5960  0.1093  0.2602
 2174SOL    HW117981   2.817   3.161   8.604  0.4780  0.4107  2.5017
 2174SOL    HW217982   2.955   3.097   8.620  1.2560 -1.6164 -3.2386
 2175SOL     OW17983   3.161   4.657   3.111  0.0825 -0.0394  0.1939
 2175SOL    HW117984   3.183   4.696   3.026 -2.8240  0.4315 -0.3528
 2175SOL    HW217985   3.133   4.569   3.089 -1.1587  0.4999 -0.3779
 2176SOL     OW17986   3.663   1.233   4.799 -0.1955  0.3789  0.1166
 2176SOL    HW117987   3.729   1.224   4.867 -2.4237 -0.2932  2.2201
 2176SOL    HW217988   3.700   1.184   4.726  0.7149  1.4427 -0.1274
 2177SOL     OW17989   2.589   3.819   6.726 -0.0750  0.0781 -0.0261
 2177SOL    HW117990   2.626   3.890   6.673 -0.5617  0.7115  0.4860
 2177SOL    HW217991   2.523   3.870   6.773 -1.3396 -1.2827 -0.3379
 2178SOL     OW17992   1.030   4.574   6.655 -0.1127 -0.6742 -0.2656
 2178SOL    HW117993   0.949   4.595   6.609 -1.3176  0.4307  2.3415
 2178SOL    HW217994   1.082   4.643   6.615 -0.2623 -0.0382  0.6229
 2179SOL     OW17995   4.368   3.614   3.121 -0.8738 -0.2874 -0.5051
 2179SOL    HW117996   4.459   3.643   3.130 -1.4617  1.8579 -1.3883
 2179SOL    HW217997   4.321   3.697   3.133 -0.0436  0.0813  0.2341
 2180SOL     OW17998   2.644   1.354   5.095  0.4839  0.2994  0.5861
 2180SOL    HW117999   2.688   1.402   5.164  1.4340 -1.4932  1.2379
 2180SOL    HW218000   2.681   1.394   5.016  1.2543 -0.6341  0.4695
 2181SOL     OW18001   0.749   0.365  11.615 -0.5513 -0.8078 -0.2664
 2181SOL    HW118002   0.738   0.459  11.598 -1.1989 -1.0979 -1.4353
 2181SOL    HW218003   0.818   0.371  11.681  1.7970 -1.0402 -2.7107
 2182SOL     OW18004   0.672   1.490   5.609  0.2842  0.1460 -0.1007
 2182SOL    HW118005   0.767   1.490   5.594  0.0848  0.5476 -1.3464
 2182SOL    HW218006   0.656   1.408   5.562 -1.9510  0.7957 -0.4747
 2183SOL     OW18007   3.892   3.670   8.438  0.1067 -0.6638 -0.1343
 2183SOL    HW118008   3.965   3.639   8.491  0.8289 -0.0323 -0.7592
 2183SOL    HW218009   3.874   3.747   8.491  0.6939 -0.0831 -0.7658
 2184SOL     OW18010   0.555   4.567   0.240 -0.0155 -0.3879 -0.3389
 2184SOL    HW118011   0.488   4.618   0.193 -0.7221 -2.4979 -1.6448
 2184SOL    HW218012   0.614   4.544   0.168 -1.9060  0.1472 -2.0683
 2185SOL     OW18013   2.237   0.002   2.159 -0.3876 -0.0101  0.3074
 2185SOL    HW118014   2.316   0.055   2.167  0.0095 -0.9548  2.5301
 2185SOL    HW218015   2.274   4.640   2.128  0.8378  1.3099 -1.8077
 2186SOL     OW18016   3.818   3.428   1.579  0.2530  0.3557 -0.1904
 2186SOL    HW118017   3.727   3.426   1.608  0.3354 -1.3140 -0.0362
 2186SOL    HW218018   3.856   3.493   1.638 -1.4509  0.7844  0.4344
 2187SOL     OW18019   1.470   1.111   1.022  0.4020 -0.5126  0.1209
 2187SOL    HW118020   1.430   1.162   1.092  0.1766 -0.4663 -0.0407
 2187SOL    HW218021   1.400   1.052   0.994  0.4259  0.1916 -1.4355
 2188SOL     OW18022   3.017   4.531   0.235  0.7643 -0.1944 -0.2001
 2188SOL    HW118023   3.099   4.570   0.267  0.9002 -1.4926  1.0232
 2188SOL    HW218024   3.052   4.447   0.205  1.6796  0.7362 -1.7362
 2189SOL     OW18025   0.387   4.637  16.835 -0.1674  0.2699  0.4161
 2189SOL    HW118026   0.331   4.562  16.817 -0.0283  0.3917 -0.5468
 2189SOL    HW218027   0.331   4.676  16.903 -1.3928  2.9736 -2.1521
 2190SOL     OW18028   3.637   2.955  16.528 -0.3759 -0.3023 -0.0772
 2190SOL    HW118029   3.610   3.046  16.513  0.1649 -0.0288  0.5801
 2190SOL    HW218030   3.724   2.949  16.489 -0.7919  0.7750 -1.1804
 2191SOL     OW18031   3.339   2.301  15.192 -0.5072  0.8662  0.0574
 2191SOL    HW118032   3.261   2.299  15.136 -0.1409  0.1893 -0.4300
 2191SOL    HW218033   3.402   2.340  15.132  0.4758 -0.4389  0.2333
 2192SOL     OW18034   4.474   2.225   8.064 -0.2772  0.7427 -0.2058
 2192SOL    HW118035   4.402   2.186   8.114  0.1775 -0.5643 -0.5825
 2192SOL    HW218036   4.494   2.310   8.102  1.7848 -0.5159  1.5102
 2193SOL     OW18037   1.718   1.636   4.692  0.1512  0.4031 -1.0228
 2193SOL    HW118038   1.713   1.631   4.597  2.6403  0.3175 -1.1616
 2193SOL    HW218039   1.630   1.617   4.722 -0.1890  1.0419 -1.6124
 2194SOL     OW18040   4.640   1.355   7.202  0.5048 -0.1712 -0.1983
 2194SOL    HW118041   4.682   1.268   7.201 -1.2935 -1.0451  0.5280
 2194SOL    HW218042   4.550   1.339   7.174  2.3758 -2.0619 -5.1156
 2195SOL     OW18043   1.956   4.295   4.542 -0.2375  0.2155  0.4092
 2195SOL    HW118044   2.049   4.318   4.547  0.0817 -0.8718 -0.6005
 2195SOL    HW218045   1.945   4.211   4.587 -0.5430 -0.5957 -1.1984
 2196SOL     OW18046   2.324   3.362  13.193 -0.2791  0.3156  0.3400
 2196SOL    HW118047   2.390   3.430  13.211  0.5174 -0.8363  1.7477
 2196SOL    HW218048   2.244   3.398  13.231 -1.2881 -1.2141 -0.3533
 2197SOL     OW18049   3.914   0.018  13.944 -0.3333  0.6450  0.2600
 2197SOL    HW118050   3.905   0.113  13.942  0.3540  0.6893 -0.7913
 2197SOL    HW218051   3.827   4.708  13.919 -0.1863  0.9518 -0.6510
 2198SOL     OW18052   0.956   0.454   6.818 -0.4725  0.2565 -0.0675
 2198SOL    HW118053   0.861   0.445   6.831 -0.2504 -0.7006  0.8493
 2198SOL    HW218054   0.980   0.362   6.825  2.6131  1.1071  0.2936
 2199SOL     OW18055   1.843   4.072  12.954  0.3066  0.0056  0.1850
 2199SOL    HW118056   1.909   4.082  12.886 -3.1981  1.4256 -3.0139
 2199SOL    HW218057   1.760   4.092  12.910  0.5748  0.3383 -0.1725
 2200SOL     OW18058   4.433   3.164   5.023  0.0193  0.5904  0.0908
 2200SOL    HW118059   4.422   3.196   5.112 -1.2917 -0.1938  0.2036
 2200SOL    HW218060   4.408   3.074   5.042 -0.0955  0.8779  1.2552
 2201SOL     OW18061   0.558   1.145   9.099  0.7066 -0.0472  0.7213
 2201SOL    HW118062   0.637   1.163   9.048  0.9743 -1.2877  0.7082
 2201SOL    HW218063   0.491   1.175   9.038 -0.0160 -2.2839  0.4469
 2202SOL     OW18064   3.500   0.828   0.769 -0.0809  0.0635  0.3180
 2202SOL    HW118065   3.529   0.865   0.852 -0.7775  2.3911 -0.4742
 2202SOL    HW218066   3.409   0.800   0.778  0.6240 -2.0501  0.8073
 2203SOL     OW18067   1.508   3.352  14.915 -0.5378  0.3272 -0.0140
 2203SOL    HW118068   1.416   3.376  14.927 -0.8649 -1.2375  0.5238
 2203SOL    HW218069   1.546   3.440  14.904 -0.6310  0.1932 -1.3695
 2204SOL     OW18070   3.619   2.591   5.701 -0.3256 -0.3294  0.0027
 2204SOL    HW118071   3.711   2.615   5.711 -0.1794 -1.4268  1.3131
 2204SOL    HW218072   3.583   2.663   5.648  1.0776 -1.7985 -2.9365
 2205SOL     OW18073   3.757   3.371   7.369 -0.0603 -0.0501  0.3567
 2205SOL    HW118074   3.802   3.365   7.285 -1.7218  0.8866 -0.6219
 2205SOL    HW218075   3.688   3.308   7.349 -1.3883  1.0158  1.5911
 2206SOL     OW18076   4.314   2.642   3.203  0.4072 -0.3373  0.4009
 2206SOL    HW118077   4.340   2.706   3.269  0.3628  0.5138 -0.3963
 2206SOL    HW218078   4.387   2.618   3.146  0.2536  0.6450 -0.2012
 2207SOL     OW18079   2.787   1.292  11.708 -0.3660 -0.2251  0.0845
 2207SOL    HW118080   2.723   1.270  11.776 -0.9166 -0.4089 -0.4816
 2207SOL    HW218081   2.864   1.313  11.759 -0.9684 -1.3551  1.4650
 2208SOL     OW18082   2.119   3.966   4.153 -0.5313  0.0144 -0.1039
 2208SOL    HW118083   2.032   3.928   4.142 -0.2248 -0.7544  0.1795
 2208SOL    HW218084   2.156   3.934   4.071 -0.0128 -1.7453  0.8176
 2209SOL     OW18085   2.836   3.398   4.585  0.0069 -0.6976 -0.1519
 2209SOL    HW118086   2.891   3.404   4.662 -0.5046  1.3221  0.0517
 2209SOL    HW218087   2.753   3.380   4.629  1.2693 -0.7901  2.1855
 2210SOL     OW18088   3.532   4.075   4.039 -0.5223 -0.0475 -0.2925
 2210SOL    HW118089   3.603   4.037   4.092 -1.1352 -1.0333 -0.1766
 2210SOL    HW218090   3.487   4.124   4.108  1.4111  1.3993 -0.0468
 2211SOL     OW18091   1.819   0.845   6.226  1.1216 -0.8165  0.5362
 2211SOL    HW118092   1.749   0.891   6.273  0.6252  0.5486 -1.5499
 2211SOL    HW218093   1.797   0.755   6.252 -0.5949 -0.7170 -0.5645
 2212SOL     OW18094   3.456   2.674   8.675 -1.0667 -0.3139 -0.0288
 2212SOL    HW118095   3.472   2.718   8.758 -0.5439  1.3352 -0.9944
 2212SOL    HW218096   3.529   2.702   8.619 -0.3897 -1.4787  0.2914
 2213SOL     OW18097   4.167   2.621   9.951 -0.3431  0.5230  0.2862
 2213SOL    HW118098   4.114   2.549   9.915  0.6992 -0.0895 -0.0106
 2213SOL    HW218099   4.209   2.590  10.031 -2.9352  0.2681  1.5590
 2214SOL     OW18100   4.489   0.631  16.668  0.4240 -0.6638 -0.3835
 2214SOL    HW118101   4.500   0.725  16.652 -3.6826  0.0980  1.3256
 2214SOL    HW218102   4.537   0.624  16.751  5.5454 -2.0124 -3.4480
 2215SOL     OW18103   0.072   3.424  17.413  0.0890 -0.2078  0.1377
 2215SOL    HW118104   0.106   3.472  17.488 -0.2331  0.1031  0.0855
 2215SOL    HW218105   0.081   3.488  17.342 -0.1994 -1.6338 -1.1723
 2216SOL     OW18106   4.689   0.114   3.269  0.1246 -0.1084 -0.2977
 2216SOL    HW118107   4.682   0.018   3.276 -0.8383  0.0747  1.3058
 2216SOL    HW218108   4.620   0.135   3.207  0.6913  0.9840 -0.5489
 2217SOL     OW18109   4.295   2.364   6.805 -0.2609  0.4973 -0.4918
 2217SOL    HW118110   4.378   2.364   6.758 -0.2249 -2.2025 -0.4008
 2217SOL    HW218111   4.266   2.273   6.811  2.4181 -0.1892  1.8698
 2218SOL     OW18112   1.867   4.172  13.456 -0.3573  0.9007 -0.3690
 2218SOL    HW118113   1.919   4.252  13.451  1.9513 -0.4412  1.8802
 2218SOL    HW218114   1.883   4.140  13.367 -1.6609 -0.4330 -0.1277
 2219SOL     OW18115   2.369   1.439   5.171  0.2270 -0.0505 -0.4985
 2219SOL    HW118116   2.365   1.471   5.261  2.0389 -0.0773 -0.4049
 2219SOL    HW218117   2.411   1.513   5.128 -0.7166  1.0214  0.4371
 2220SOL     OW18118   2.003   2.250   2.203 -0.0125 -0.4871 -0.1907
 2220SOL    HW118119   2.064   2.213   2.140 -1.2218  1.3738 -2.4368
 2220SOL    HW218120   1.913   2.237   2.173 -1.2625 -0.6374  3.5168
 2221SOL     OW18121   3.866   3.908  14.758  0.4105  0.4047  0.1467
 2221SOL    HW118122   3.872   3.816  14.732  1.0226  0.0068  1.6686
 2221SOL    HW218123   3.955   3.929  14.787  0.9108 -0.8157 -0.4940
 2222SOL     OW18124   2.742   1.083   6.033 -0.0449  0.1722 -0.4158
 2222SOL    HW118125   2.714   1.171   6.059 -1.3471  0.0894 -1.5148
 2222SOL    HW218126   2.836   1.091   6.020  0.3022  2.0863  3.1269
 2223SOL     OW18127   2.793   0.164   4.590  0.1031  0.1712 -0.2925
 2223SOL    HW118128   2.742   0.087   4.565  0.1283 -0.2209  0.8408
 2223SOL    HW218129   2.773   0.225   4.519 -0.0216 -1.9774 -2.0952
 2224SOL     OW18130   0.838   1.223  13.593 -0.0538  0.3284  0.3712
 2224SOL    HW118131   0.934   1.217  13.599  0.2761  2.9366 -1.8706
 2224SOL    HW218132   0.821   1.140  13.548 -1.6685 -0.4359  2.4157
 2225SOL     OW18133   2.303   0.698   2.215 -0.4992  0.0477 -0.5128
 2225SOL    HW118134   2.352   0.659   2.143 -3.4426 -2.7202 -1.0197
 2225SOL    HW218135   2.316   0.630   2.281  2.7885  1.4178  0.2469
 2226SOL     OW18136   4.131   4.212   6.747 -0.1969  0.0224 -0.1992
 2226SOL    HW118137   4.060   4.150   6.766  0.8261 -1.1471 -0.2094
 2226SOL    HW218138   4.082   4.292   6.728 -1.0961  0.1466  2.5522
 2227SOL     OW18139   0.217   3.858   5.716 -0.0821 -0.0354 -0.1162
 2227SOL    HW118140   0.230   3.939   5.666  1.0541  0.9461  1.7966
 2227SOL    HW218141   0.127   3.832   5.694  0.5036 -1.3802 -0.9354
 2228SOL     OW18142   4.417   0.768  13.381  0.1701 -0.0087  0.2573
 2228SOL    HW118143   4.443   0.811  13.462 -0.6774  0.9950 -0.0013
 2228SOL    HW218144   4.442   0.828  13.311  1.1864 -0.7129  0.0173
 2229SOL     OW18145   2.362   0.635   6.128  0.6794  0.3903 -0.3590
 2229SOL    HW118146   2.295   0.673   6.185 -3.0471 -1.2123 -3.6652
 2229SOL    HW218147   2.347   0.655   6.035  0.6256 -0.1045 -0.4578
 2230SOL     OW18148   3.073   1.280   7.604 -0.2187 -0.1797  0.1834
 2230SOL    HW118149   3.029   1.353   7.647  0.4193  0.4527 -0.2362
 2230SOL    HW218150   3.163   1.301   7.626 -0.0527  2.0870 -2.7399
 2231SOL     OW18151   2.781   2.778   7.880 -0.4731  0.0300  0.2817
 2231SOL    HW118152   2.706   2.736   7.838 -2.4845  1.8631  1.9917
 2231SOL    HW218153   2.858   2.733   7.845  0.8361  0.7615  2.1778
 2232SOL     OW18154   4.581   0.349  13.402  0.1517 -0.5161  0.3182
 2232SOL    HW118155   4.581   0.274  13.461  0.0488 -1.4099 -0.8059
 2232SOL    HW218156   4.635   0.418  13.441 -0.5426  0.0907  0.2019
 2233SOL     OW18157   2.681   1.120   1.493  0.5224 -0.4894 -0.3686
 2233SOL    HW118158   2.609   1.165   1.449  1.4639 -0.7680 -2.2149
 2233SOL    HW218159   2.745   1.187   1.468 -0.4930  0.3733 -0.6521
 2234SOL     OW18160   0.780   1.450  12.241  0.4366 -0.1086  0.1016
 2234SOL    HW118161   0.713   1.507  12.280 -0.1830  0.6056 -1.9604
 2234SOL    HW218162   0.725   1.383  12.199 -0.3893  0.6201  0.0187
 2235SOL     OW18163   3.459   0.087   5.010  0.3134 -0.7148  0.5080
 2235SOL    HW118164   3.546   0.099   4.973 -0.6281  1.0790 -1.1318
 2235SOL    HW218165   3.416   0.032   4.945 -1.3292  1.8376 -0.5954
 2236SOL     OW18166   2.149   1.836   4.879  0.1235 -0.0565  0.1677
 2236SOL    HW118167   2.156   1.870   4.969  0.2992  0.0482  0.1139
 2236SOL    HW218168   2.138   1.743   4.902 -0.6474 -0.4885 -2.0331
 2237SOL     OW18169   2.658   4.414   4.809  0.5533 -0.1061 -0.2264
 2237SOL    HW118170   2.745   4.384   4.781  1.3695  1.3651  0.7120
 2237SOL    HW218171   2.675   4.414   4.903 -1.4523 -2.1524  0.1259
 2238SOL     OW18172   3.667   3.772   5.287  0.6850  0.2694 -0.2525
 2238SOL    HW118173   3.578   3.764   5.320  0.5762  0.3539 -0.5200
 2238SOL    HW218174   3.716   3.789   5.367 -0.8451  1.0217  0.5265
 2239SOL     OW18175   2.644   0.740   9.406 -0.3093 -0.3289  0.2981
 2239SOL    HW118176   2.602   0.664   9.447 -1.1850  2.4634  4.6373
 2239SOL    HW218177   2.711   0.689   9.362  0.1140  1.1734 -0.8136
 2240SOL     OW18178   0.373   1.991   1.541  0.4113 -0.4897 -0.0879
 2240SOL    HW118179   0.373   1.895   1.542 -1.0256 -0.4980 -0.1161
 2240SOL    HW218180   0.448   2.003   1.483 -0.7034  2.0695 -1.0152
 2241SOL     OW18181   1.575   0.693   1.860 -0.1819  0.1529  0.6702
 2241SOL    HW118182   1.490   0.652   1.872 -1.1607  1.2055 -2.7842
 2241SOL    HW218183   1.579   0.679   1.766 -1.6907  1.5254  0.3998
 2242SOL     OW18184   2.157   1.349   4.961  0.0068  0.0654  0.2233
 2242SOL    HW118185   2.109   1.432   4.964  2.2916  1.4156 -0.8129
 2242SOL    HW218186   2.189   1.349   4.871  0.1838  2.7137  0.2951
 2243SOL     OW18187   2.551   4.618   9.643  0.2532  0.3110 -0.2591
 2243SOL    HW118188   2.530   4.605   9.551  0.8119 -0.2907 -0.3039
 2243SOL    HW218189   2.628   4.673   9.648  1.5706 -1.5197 -0.3846
 2244SOL     OW18190   0.283   4.218   5.920 -0.0378  0.6028 -0.0534
 2244SOL    HW118191   0.261   4.301   5.964  0.0847  0.5117  0.1814
 2244SOL    HW218192   0.256   4.244   5.832  2.7100  3.0937 -0.1695
 2245SOL     OW18193   0.573   4.604   1.182 -0.4461 -0.2848  0.4884
 2245SOL    HW118194   0.544   4.572   1.096  0.5075 -0.1205  0.1018
 2245SOL    HW218195   0.667   4.616   1.172 -0.8794  2.5092 -0.3981
 2246SOL     OW18196   1.785   1.569   2.460  0.2184  0.1835  0.2435
 2246SOL    HW118197   1.759   1.650   2.504 -1.5455  0.3498 -1.1034
 2246SOL    HW218198   1.748   1.601   2.378  1.1093 -1.1522 -0.6816
 2247SOL     OW18199   2.727   3.682   4.343  0.1516 -0.5419  0.8940
 2247SOL    HW118200   2.822   3.668   4.346  0.0543 -2.0494 -3.1283
 2247SOL    HW218201   2.732   3.777   4.331 -0.9324 -0.5265  0.6398
 2248SOL     OW18202   2.998   4.635   4.641  0.0092  0.1232 -0.0013
 2248SOL    HW118203   3.020   4.575   4.570  0.7893  0.0927  0.2587
 2248SOL    HW218204   3.047   4.714   4.620  0.5611  0.5105  2.7143
 2249SOL     OW18205   1.036   2.883  15.610 -0.3389 -0.1650 -0.0458
 2249SOL    HW118206   1.010   2.953  15.550 -1.9696  0.3602  1.2831
 2249SOL    HW218207   1.108   2.931  15.650  0.4473  0.4561 -2.1551
 2250SOL     OW18208   4.451   2.809   6.768 -0.4152 -0.3730  0.5536
 2250SOL    HW118209   4.402   2.878   6.811  0.0663  0.0219  0.4723
 2250SOL    HW218210   4.421   2.832   6.680 -2.1979 -2.6675  0.5540
 2251SOL     OW18211   1.002   1.683   8.116  0.3238  0.4306  0.5921
 2251SOL    HW118212   0.991   1.752   8.182 -0.8606  1.7453 -0.9677
 2251SOL    HW218213   1.028   1.723   8.033 -0.4735 -2.1084 -0.8837
 2252SOL     OW18214   2.414   0.390   8.173 -0.3147  0.0354  0.0949
 2252SOL    HW118215   2.335   0.363   8.126 -0.4430  0.2098  0.2097
 2252SOL    HW218216   2.480   0.368   8.107  0.5627 -0.4880  1.1372
 2253SOL     OW18217   1.020   1.934   2.351 -0.6562 -0.2647  0.0435
 2253SOL    HW118218   1.087   1.996   2.322 -1.6331 -0.0346 -1.6832
 2253SOL    HW218219   1.073   1.857   2.374  1.6919  1.4421  0.3409
 2254SOL     OW18220   0.686   3.882   8.353 -0.0069  0.1313 -0.0097
 2254SOL    HW118221   0.709   3.933   8.275  0.4956 -0.0788  0.0009
 2254SOL    HW218222   0.595   3.909   8.367 -0.0515  0.7302 -1.4743
 2255SOL     OW18223   1.738   2.377   6.960 -0.0287 -0.0758  0.3920
 2255SOL    HW118224   1.668   2.441   6.948  0.3504  0.8284  3.0780
 2255SOL    HW218225   1.694   2.296   6.934  0.5310  0.3206 -1.7536
 2256SOL     OW18226   4.194   1.438   0.663  0.1402 -0.1690 -0.1626
 2256SOL    HW118227   4.233   1.523   0.687  2.3583 -1.0290 -0.6955
 2256SOL    HW218228   4.228   1.373   0.723 -0.8248  1.0572  1.7156
 2257SOL     OW18229   0.519   2.293   5.199  0.3074 -0.1135 -0.2857
 2257SOL    HW118230   0.540   2.296   5.106 -1.6796  0.1083 -0.7161
 2257SOL    HW218231   0.545   2.203   5.215  0.6595 -0.3808 -2.4196
 2258SOL     OW18232   3.828   1.188   0.857  0.5982  0.8574  0.0264
 2258SOL    HW118233   3.834   1.199   0.762  0.5940 -2.7523 -0.3975
 2258SOL    HW218234   3.913   1.225   0.880  0.1952  2.3887 -0.9381
 2259SOL     OW18235   2.508   1.308   1.381  0.0639  0.0152  0.2137
 2259SOL    HW118236   2.453   1.320   1.303  0.6139 -3.0025 -0.6437
 2259SOL    HW218237   2.497   1.398   1.410 -0.5024 -0.2276  0.7565
 2260SOL     OW18238   2.530   0.489  12.550 -0.5135 -0.0502 -0.1403
 2260SOL    HW118239   2.602   0.548  12.527 -1.7222  1.4342 -0.1339
 2260SOL    HW218240   2.466   0.508  12.481  2.3387  2.1727 -2.1829
 2261SOL     OW18241   2.373   0.477   0.239  0.2301  0.0504  0.3593
 2261SOL    HW118242   2.340   0.566   0.228 -0.2794 -0.0144  1.2895
 2261SOL    HW218243   2.294   0.436   0.275  0.7539 -0.9175  0.3953
 2262SOL     OW18244   0.133   2.841   8.679 -0.3888 -0.2517  0.3015
 2262SOL    HW118245   0.061   2.827   8.740 -0.4230 -0.1840  0.2768
 2262SOL    HW218246   0.148   2.935   8.690 -3.0849  0.2840 -0.6998
 2263SOL     OW18247   1.112   2.674  11.558 -0.1729  0.0773  0.5550
 2263SOL    HW118248   1.111   2.761  11.599 -0.7900  0.0296  0.6379
 2263SOL    HW218249   1.053   2.691  11.485  1.0671 -2.2580 -0.9806
 2264SOL     OW18250   0.383   4.107  16.538 -0.0362 -0.0636 -0.2093
 2264SOL    HW118251   0.356   4.017  16.554  1.2837 -0.7506 -1.9571
 2264SOL    HW218252   0.474   4.096  16.567  0.2772 -1.0221 -1.5893
 2265SOL     OW18253   2.189   3.747  16.386  0.6080 -0.1000 -0.3481
 2265SOL    HW118254   2.171   3.840  16.400 -0.1770 -0.5516  1.7421
 2265SOL    HW218255   2.104   3.706  16.406  1.1568 -0.4685  1.2799
 2266SOL     OW18256   0.380   0.032   6.670  0.6354 -0.1823 -0.1676
 2266SOL    HW118257   0.430   4.697   6.729 -1.0255 -0.4992  0.9497
 2266SOL    HW218258   0.450   0.078   6.624 -1.0642  1.4236 -1.1574
 2267SOL     OW18259   3.740   1.307   4.270  0.2009 -0.7097 -0.1821
 2267SOL    HW118260   3.832   1.283   4.260  0.5346  0.8321 -0.6960
 2267SOL    HW218261   3.693   1.267   4.196 -1.7487  2.2740 -0.5340
 2268SOL     OW18262   4.351   4.512   3.718 -0.0369 -0.3676  0.4733
 2268SOL    HW118263   4.309   4.431   3.688  1.6410 -0.3710 -1.9276
 2268SOL    HW218264   4.292   4.574   3.675 -1.4022 -0.3615  2.3840
 2269SOL     OW18265   1.469   2.516   0.809  0.4453 -0.2455  0.7391
 2269SOL    HW118266   1.453   2.586   0.872  4.8080  1.0632  0.3748
 2269SOL    HW218267   1.552   2.536   0.767 -0.0632  1.9300  0.7795
 2270SOL     OW18268   3.921   4.598  14.937  0.3297 -0.4077 -0.2538
 2270SOL    HW118269   3.990   4.611  14.872  2.2945 -1.8953  1.5415
 2270SOL    HW218270   3.969   4.630  15.012  2.5570 -0.4014 -1.6717
 2271SOL     OW18271   2.725   1.709   7.793  0.1549 -0.0231  0.7445
 2271SOL    HW118272   2.807   1.715   7.842  1.2598 -0.7746 -1.0143
 2271SOL    HW218273   2.743   1.763   7.716 -0.4266 -1.1481 -0.1913
 2272SOL     OW18274   2.724   1.596   5.940 -0.6789  0.1803  0.0352
 2272SOL    HW118275   2.657   1.607   5.873  1.5786  1.5408 -1.9818
 2272SOL    HW218276   2.807   1.596   5.892 -0.8002  1.8527 -0.1559
 2273SOL     OW18277   3.193   1.515   7.879  0.0655  0.6012 -0.1828
 2273SOL    HW118278   3.243   1.446   7.834 -0.0111  1.1228 -1.0776
 2273SOL    HW218279   3.263   1.578   7.897  1.7560 -1.1456 -0.6313
 2274SOL     OW18280   0.688   0.465   7.892  0.4229  0.0179  0.5165
 2274SOL    HW118281   0.779   0.450   7.918  0.0042 -0.0043  1.9977
 2274SOL    HW218282   0.666   0.389   7.838  1.6345 -0.0718  0.1626
 2275SOL     OW18283   0.782   3.908  15.564  0.1719  0.1334 -0.4047
 2275SOL    HW118284   0.709   3.963  15.593  0.4380  1.1119 -1.5890
 2275SOL    HW218285   0.801   3.958  15.485 -2.7068  1.5271 -0.2068
 2276SOL     OW18286   2.665   1.624   8.969  0.1795  0.8221 -0.2729
 2276SOL    HW118287   2.672   1.585   9.056  2.4569  1.0596 -0.3596
 2276SOL    HW218288   2.736   1.687   8.977 -0.5287  1.5872  0.0778
 2277SOL     OW18289   1.137   4.330   7.093 -0.2659  0.1133 -0.3902
 2277SOL    HW118290   1.092   4.247   7.109  0.3993 -0.0930  0.3746
 2277SOL    HW218291   1.163   4.332   7.000  0.8266 -2.1655 -0.1233
 2278SOL     OW18292   0.468   1.727  11.496  0.2058  0.0617 -0.1721
 2278SOL    HW118293   0.562   1.727  11.478  0.4580 -3.4571  1.1231
 2278SOL    HW218294   0.469   1.655  11.559 -1.1583 -0.0307 -0.2514
 2279SOL     OW18295   1.668   1.253   2.333  0.4265 -0.4035 -0.1294
 2279SOL    HW118296   1.620   1.192   2.389 -2.6707  1.4414 -0.7568
 2279SOL    HW218297   1.632   1.327   2.382  1.6147 -0.4331  0.7797
 2280SOL     OW18298   4.378   0.673   9.358 -0.0496  0.1435  0.6162
 2280SOL    HW118299   4.466   0.686   9.323 -0.9801 -1.3349 -2.2207
 2280SOL    HW218300   4.376   0.739   9.428 -1.7349 -0.1915  0.8934
 2281SOL     OW18301   3.827   2.184   1.389 -0.2931  0.0895  0.2730
 2281SOL    HW118302   3.741   2.146   1.405 -0.1984  0.4164  1.5335
 2281SOL    HW218303   3.823   2.249   1.458  0.7019  0.0114  0.4120
 2282SOL     OW18304   1.025   0.923   8.083  1.1526 -0.4656 -0.2749
 2282SOL    HW118305   0.970   0.999   8.067 -0.0463 -1.4236 -0.7456
 2282SOL    HW218306   1.049   0.887   7.998  0.7124 -0.3543 -0.4442
 2283SOL     OW18307   3.515   1.913   4.484 -0.1144 -0.7047 -0.0301
 2283SOL    HW118308   3.581   1.881   4.423  0.0609  0.0097 -0.2116
 2283SOL    HW218309   3.506   1.837   4.541 -0.9527 -0.7378 -0.2152
 2284SOL     OW18310   3.666   3.216   8.297 -0.0721  0.6521  0.2001
 2284SOL    HW118311   3.670   3.195   8.391  1.5069 -0.0382 -0.0186
 2284SOL    HW218312   3.747   3.266   8.290 -0.2053  0.7327 -0.7277
 2285SOL     OW18313   4.480   1.443   7.903  0.1030 -0.5390 -0.5438
 2285SOL    HW118314   4.452   1.392   7.828  2.3125 -1.9566 -0.4079
 2285SOL    HW218315   4.480   1.533   7.870  0.3113 -0.8894 -1.5075
 2286SOL     OW18316   2.871   0.096   4.217  0.3226  0.0695 -0.8172
 2286SOL    HW118317   2.787   0.061   4.247 -0.2554 -0.2667 -2.8183
 2286SOL    HW218318   2.886   0.061   4.130  0.1715  2.5514 -1.8467
 2287SOL     OW18319   2.219   2.893  15.631  0.0544 -0.1763  0.3756
 2287SOL    HW118320   2.151   2.829  15.606  1.9968 -1.6302 -1.1843
 2287SOL    HW218321   2.268   2.906  15.549  0.4194 -0.1075  0.6061
 2288SOL     OW18322   3.631   2.632  16.169 -0.1935 -0.3116 -0.5846
 2288SOL    HW118323   3.668   2.701  16.114  0.5304  1.3959  2.0023
 2288SOL    HW218324   3.610   2.679  16.250  0.2344 -0.3184 -0.4684
 2289SOL     OW18325   2.804   4.630  11.257 -0.1655  0.1603 -0.2984
 2289SOL    HW118326   2.815   0.002  11.274 -1.2647 -0.0228  1.4265
 2289SOL    HW218327   2.755   4.625  11.175 -1.0288 -4.0058  0.5050
 2290SOL     OW18328   1.698   4.119   7.299 -0.3857  0.3430 -0.3266
 2290SOL    HW118329   1.703   4.034   7.343 -0.7939  0.3007 -0.3615
 2290SOL    HW218330   1.633   4.100   7.232 -1.9827  0.4131  1.1952
 2291SOL     OW18331   0.723   0.464   4.593  0.5684  0.2752 -0.7218
 2291SOL    HW118332   0.663   0.390   4.582 -0.1892  0.8983 -0.7402
 2291SOL    HW218333   0.807   0.421   4.611  0.5279  0.1164 -0.9186
 2292SOL     OW18334   3.670   3.583  17.448 -0.3639  0.3324  0.1403
 2292SOL    HW118335   3.666   3.533  17.367 -0.4514 -1.0389  0.9990
 2292SOL    HW218336   3.758   3.562  17.480 -0.5699  0.8962  1.0941
 2293SOL     OW18337   4.362   1.191   4.341  0.3787  0.1666 -0.1451
 2293SOL    HW118338   4.281   1.157   4.379  0.6491  0.4517  0.6883
 2293SOL    HW218339   4.336   1.179   4.250  0.0228  1.5779 -0.2353
 2294SOL     OW18340   3.916   2.115   3.298 -0.0112  0.2965  0.6387
 2294SOL    HW118341   3.993   2.165   3.272 -3.1957  3.9036 -1.8059
 2294SOL    HW218342   3.893   2.075   3.215 -0.1309  0.3839  0.6295
 2295SOL     OW18343   3.830   0.500   4.407  0.6354  0.1952 -0.1282
 2295SOL    HW118344   3.841   0.460   4.321  0.2785 -0.3228  0.0652
 2295SOL    HW218345   3.907   0.458   4.447  0.6978  2.6576  2.3367
 2296SOL     OW18346   2.965   1.680   3.825 -0.1080 -0.3009 -0.1615
 2296SOL    HW118347   2.881   1.705   3.863 -0.6667 -2.2657 -0.0681
 2296SOL    HW218348   3.005   1.767   3.817  0.5877 -0.6455 -0.4904
 2297SOL     OW18349   4.442   1.832  11.616  0.3277 -0.0140 -0.1809
 2297SOL    HW118350   4.531   1.818  11.584  1.0020 -0.1501  1.7425
 2297SOL    HW218351   4.404   1.890  11.550 -1.4765 -0.5171  0.4026
 2298SOL     OW18352   4.148   1.917  12.698 -0.4843  0.2216 -0.5090
 2298SOL    HW118353   4.225   1.892  12.647 -0.0162 -1.2635  0.9259
 2298SOL    HW218354   4.163   2.003  12.737 -1.4089 -0.1555  0.6881
 2299SOL     OW18355   4.063   3.880  17.319 -0.0133  0.0314 -0.0154
 2299SOL    HW118356   4.107   3.813  17.371  1.4695  1.0004 -0.0306
 2299SOL    HW218357   3.974   3.879  17.354  0.6739 -0.3866  1.7319
 2300SOL     OW18358   0.455   4.619   7.206 -0.4021  0.0103 -0.4328
 2300SOL    HW118359   0.364   4.590   7.217 -0.4567 -0.3864 -2.0230
 2300SOL    HW218360   0.503   4.541   7.181 -1.9986 -0.5030 -1.9202
 2301SOL     OW18361   4.301   2.991   3.873  0.2855 -0.1790  0.5278
 2301SOL    HW118362   4.242   3.005   3.946 -2.4151 -2.3521 -1.2482
 2301SOL    HW218363   4.288   3.076   3.831 -1.6346 -0.2889  0.9067
 2302SOL     OW18364   4.555   1.892  10.656  0.0557  0.5015 -0.0267
 2302SOL    HW118365   4.581   1.863  10.569  1.8751  0.4531  0.5303
 2302SOL    HW218366   4.606   1.973  10.644 -2.2026  2.0457  0.8498
 2303SOL     OW18367   3.022   2.484   6.558  0.1435 -0.0224  0.3458
 2303SOL    HW118368   2.969   2.500   6.637  0.7190  0.0337  0.7177
 2303SOL    HW218369   3.113   2.491   6.587  0.2996  1.7467 -0.6028
 2304SOL     OW18370   2.323   1.377   9.314 -0.2763 -0.1314 -0.1802
 2304SOL    HW118371   2.235   1.354   9.286 -0.6249  1.6205 -0.5264
 2304SOL    HW218372   2.357   1.288   9.321  1.2592  0.4531 -0.0633
 2305SOL     OW18373   0.222   1.083   8.658 -0.1997  0.0828  0.1576
 2305SOL    HW118374   0.173   1.053   8.735 -1.6658 -1.3255 -1.3224
 2305SOL    HW218375   0.275   1.009   8.629 -0.7583 -0.9185  1.6797
 2306SOL     OW18376   4.575   2.389  13.542  0.0006 -0.1237 -0.0659
 2306SOL    HW118377   4.556   2.431  13.626 -0.2780 -2.0087  0.8287
 2306SOL    HW218378   4.637   2.323  13.574  1.3512  2.1022  1.8932
 2307SOL     OW18379   2.730   3.599  11.423  0.1769  0.2422 -0.6505
 2307SOL    HW118380   2.647   3.609  11.376  0.2512 -1.9915 -1.2600
 2307SOL    HW218381   2.717   3.512  11.461 -0.3427 -0.0902 -1.5786
 2308SOL     OW18382   0.077   2.477  13.337 -0.0667  0.1783  0.5087
 2308SOL    HW118383   0.104   2.544  13.274  1.1844 -1.2415 -0.4657
 2308SOL    HW218384   0.058   2.535  13.411  1.8301  2.6114 -0.8983
 2309SOL     OW18385   2.273   2.245   4.533  0.0286  0.1652  0.3701
 2309SOL    HW118386   2.194   2.191   4.530 -0.6345  1.2734 -1.5869
 2309SOL    HW218387   2.250   2.308   4.602  1.2096 -0.1614  1.0718
 2310SOL     OW18388   3.531   0.336   0.199 -0.0496  0.1076 -0.3524
 2310SOL    HW118389   3.555   0.348   0.291  0.1881 -3.0764 -0.0079
 2310SOL    HW218390   3.593   0.386   0.147  0.4212 -2.1162 -1.8955
 2311SOL     OW18391   3.720   2.651  12.678  0.4621  0.4101 -0.4589
 2311SOL    HW118392   3.672   2.572  12.652  1.0488  0.3542 -1.3775
 2311SOL    HW218393   3.710   2.651  12.773 -1.8488  0.9666 -0.6938
 2312SOL     OW18394   4.275   2.336   8.621  1.2721  0.0656 -0.3128
 2312SOL    HW118395   4.319   2.366   8.701  0.1471 -2.2817  1.1908
 2312SOL    HW218396   4.201   2.290   8.662 -0.3972  2.0128 -1.1364
 2313SOL     OW18397   2.426   0.830  15.383  0.7371  0.5872 -0.4889
 2313SOL    HW118398   2.452   0.825  15.291 -2.3106  0.9968 -1.3453
 2313SOL    HW218399   2.356   0.768  15.401  0.4416  1.1265  0.2121
 2314SOL     OW18400   3.599   3.955  12.006 -0.1687  0.2142  0.4155
 2314SOL    HW118401   3.617   3.925  11.917  3.8701  0.6118  1.0613
 2314SOL    HW218402   3.635   4.043  12.001 -0.3264  0.1791 -1.4262
 2315SOL     OW18403   0.285   2.490   8.453 -0.2363  0.4099 -1.0996
 2315SOL    HW118404   0.304   2.512   8.544  0.0623  0.4922 -1.1833
 2315SOL    HW218405   0.199   2.531   8.462  0.8676  2.2394  1.1339
 2316SOL     OW18406   3.115   1.420   2.027  0.6320  0.2829 -0.3033
 2316SOL    HW118407   3.029   1.419   1.984  0.5811  0.7041 -0.2126
 2316SOL    HW218408   3.100   1.438   2.120  1.5402  2.1559 -0.5174
 2317SOL     OW18409   2.182   1.837   6.487  0.1075 -0.6100  0.6525
 2317SOL    HW118410   2.189   1.795   6.573 -1.9837 -1.4849  0.3866
 2317SOL    HW218411   2.223   1.771   6.431 -0.7828  0.9316 -1.7957
 2318SOL     OW18412   3.626   3.891  11.712  0.2583 -0.5494 -0.2530
 2318SOL    HW118413   3.707   3.936  11.688 -1.6262  1.4200 -2.9202
 2318SOL    HW218414   3.619   3.812  11.658 -0.6459 -0.5379 -0.1597
 2319SOL     OW18415   3.501   4.629   2.229  0.3427  0.0975  0.2662
 2319SOL    HW118416   3.581   4.581   2.207  0.0797 -0.5246  0.6342
 2319SOL    HW218417   3.539   4.704   2.275  1.3594 -1.6621  2.3397
 2320SOL     OW18418   1.301   1.169   3.010  0.1404  0.0286 -0.1433
 2320SOL    HW118419   1.303   1.259   3.042 -0.2808 -0.2839  0.7616
 2320SOL    HW218420   1.374   1.137   3.063  0.6592  1.0754 -0.2460
 2321SOL     OW18421   2.265   3.121  17.444 -0.0971  0.0787  0.5634
 2321SOL    HW118422   2.335   3.059  17.466  1.4462  1.0268 -1.7724
 2321SOL    HW218423   2.254   3.084  17.356 -1.0604 -1.0441  1.1512
 2322SOL     OW18424   3.803   0.008  11.954 -0.1948 -0.4442  0.0257
 2322SOL    HW118425   3.880   4.688  11.913 -1.8446 -2.4712 -0.9945
 2322SOL    HW218426   3.816   4.702  12.044  1.3386 -0.2336 -0.1214
 2323SOL     OW18427   1.935   0.960   2.123 -0.0016  0.0397  0.0019
 2323SOL    HW118428   1.884   0.890   2.082 -1.0269  0.8011 -0.0040
 2323SOL    HW218429   2.018   0.935   2.081 -1.2199 -2.0514 -1.1653
 2324SOL     OW18430   3.791   1.366   8.241  0.4362 -0.1834  0.2466
 2324SOL    HW118431   3.749   1.374   8.155  3.0801  0.6331 -0.9627
 2324SOL    HW218432   3.744   1.427   8.297 -0.9069 -0.1711 -0.8945
 2325SOL     OW18433   0.960   1.166   0.956 -0.3100 -0.2199 -0.0880
 2325SOL    HW118434   0.982   1.177   1.049  1.2189  3.3490 -0.8803
 2325SOL    HW218435   0.993   1.247   0.918  0.6835 -1.1641 -1.2452
 2326SOL     OW18436   2.892   3.160  10.754 -0.1989  0.8331  0.4418
 2326SOL    HW118437   2.832   3.140  10.682 -1.2186 -1.1758  1.8257
 2326SOL    HW218438   2.946   3.225  10.710  3.6047 -0.6071  3.0264
 2327SOL     OW18439   1.110   1.716   2.108 -0.4289 -0.0165  0.5483
 2327SOL    HW118440   1.108   1.722   2.203 -0.4005 -2.2434  0.6759
 2327SOL    HW218441   1.204   1.713   2.087 -0.2555 -0.5807  1.3946
 2328SOL     OW18442   3.761   0.046   4.027 -0.2484 -0.4299 -0.5513
 2328SOL    HW118443   3.700   0.055   4.100  0.1125  1.1616 -0.4472
 2328SOL    HW218444   3.787   4.679   4.050  0.5717 -0.7580 -2.7030
 2329SOL     OW18445   2.249   0.710   4.628 -0.4063 -0.3032 -0.7058
 2329SOL    HW118446   2.299   0.676   4.702  1.1631  0.6131 -1.3647
 2329SOL    HW218447   2.159   0.704   4.661 -0.5594 -1.7099 -1.3862
 2330SOL     OW18448   1.667   0.016   8.792  0.0369 -0.4991 -0.2878
 2330SOL    HW118449   1.584   0.054   8.821  0.7040 -0.4108  1.4888
 2330SOL    HW218450   1.672   4.657   8.844 -1.4044  0.1509  0.8563
 2331SOL     OW18451   3.925   0.755   5.722  0.6954 -0.3552 -0.4142
 2331SOL    HW118452   3.969   0.688   5.670 -0.6311 -3.1796  2.0894
 2331SOL    HW218453   3.970   0.835   5.694 -0.5030 -0.2559 -2.0263
 2332SOL     OW18454   1.286   2.220   8.894  0.4797 -0.2276  0.2256
 2332SOL    HW118455   1.296   2.126   8.879  0.4475 -0.2575  0.3829
 2332SOL    HW218456   1.324   2.267   8.820 -2.1513  1.8124  0.1629
 2333SOL     OW18457   3.390   0.376   6.233  0.2974  0.5659  0.6243
 2333SOL    HW118458   3.377   0.394   6.140  2.1165 -0.5954  0.1322
 2333SOL    HW218459   3.348   0.290   6.237  2.4276 -0.5280 -0.4384
 2334SOL     OW18460   4.324   0.256  16.024  0.2927  0.6147 -0.5058
 2334SOL    HW118461   4.360   0.178  16.066 -1.1923 -0.4926 -1.3111
 2334SOL    HW218462   4.406   0.297  15.996  2.4468 -2.1017  1.7477
 2335SOL     OW18463   2.558   0.969   2.777 -0.1460  0.0154  0.3536
 2335SOL    HW118464   2.546   0.969   2.682 -0.1199 -0.9524  0.3480
 2335SOL    HW218465   2.590   0.881   2.795  0.4029 -0.1576 -1.4603
 2336SOL     OW18466   1.629   4.098   8.573 -0.2572  0.0352 -0.1583
 2336SOL    HW118467   1.547   4.067   8.536 -0.6317  1.0225 -0.1713
 2336SOL    HW218468   1.595   4.148   8.648  2.6025  1.1527  0.4306
 2337SOL     OW18469   1.106   4.195   3.822 -0.0843  0.3330  0.2738
 2337SOL    HW118470   1.105   4.270   3.762 -0.3125  1.2043  1.3764
 2337SOL    HW218471   1.200   4.194   3.839  0.0291 -0.7188 -0.3505
 2338SOL     OW18472   0.366   0.384   5.404  0.2554  0.2159  0.2587
 2338SOL    HW118473   0.443   0.357   5.355  1.1695  1.8778  0.7733
 2338SOL    HW218474   0.403   0.354   5.487 -1.3814 -0.7590  0.6454
 2339SOL     OW18475   2.375   1.218   7.976 -0.7654 -0.8222  0.0472
 2339SOL    HW118476   2.362   1.277   8.051 -0.9449  0.0800 -0.6899
 2339SOL    HW218477   2.394   1.280   7.905 -0.4693 -0.4555  0.4419
 2340SOL     OW18478   1.737   0.606  10.815 -0.1837  0.1771  0.0211
 2340SOL    HW118479   1.786   0.530  10.847  0.2865  0.8801  1.0078
 2340SOL    HW218480   1.733   0.662  10.893 -1.3605 -0.3593  0.3407
 2341SOL     OW18481   3.220   1.405  17.308  0.2444  0.6887 -0.2835
 2341SOL    HW118482   3.255   1.475  17.253  0.5041 -0.2645 -1.3304
 2341SOL    HW218483   3.137   1.384  17.264  1.0465  0.2867 -1.5923
 2342SOL     OW18484   3.688   3.554   7.548  0.1934 -0.9096  0.7808
 2342SOL    HW118485   3.733   3.513   7.474 -0.1134 -0.0687  0.1348
 2342SOL    HW218486   3.600   3.573   7.516 -0.0147 -2.5470  0.3804
 2343SOL     OW18487   2.627   0.912  11.922 -0.3070  0.0365  0.5982
 2343SOL    HW118488   2.709   0.868  11.944 -0.8087 -1.2073 -0.0316
 2343SOL    HW218489   2.652   0.984  11.863  1.7803  0.0728  1.5336
 2344SOL     OW18490   4.050   0.762  15.306  0.4557 -0.5184 -0.1797
 2344SOL    HW118491   4.119   0.701  15.331  1.3444  0.0599 -1.2050
 2344SOL    HW218492   3.996   0.718  15.241 -0.2657  0.3460 -0.1766
 2345SOL     OW18493   3.764   4.426   7.158 -0.0207  0.3212  0.0986
 2345SOL    HW118494   3.751   4.340   7.199 -2.1007 -0.4204 -2.1156
 2345SOL    HW218495   3.703   4.471   7.216 -1.6710 -0.2508 -1.1906
 2346SOL     OW18496   1.654   3.298  11.036  0.0745  0.3783  0.2427
 2346SOL    HW118497   1.710   3.331  10.965  0.8144 -0.6780  0.3321
 2346SOL    HW218498   1.581   3.356  11.016 -1.5072 -1.0340  2.0405
 2347SOL     OW18499   1.850   3.841   5.583  0.4372 -0.5452  0.5066
 2347SOL    HW118500   1.799   3.760   5.570 -2.3871  1.4291 -0.7311
 2347SOL    HW218501   1.778   3.901   5.562  0.4278 -1.4749 -2.1322
 2348SOL     OW18502   0.759   3.145   6.858 -0.5781  0.0481  0.2809
 2348SOL    HW118503   0.673   3.181   6.881 -1.0698 -0.4759 -0.7160
 2348SOL    HW218504   0.742   3.056   6.890  0.9443 -0.7209 -1.0752
 2349SOL     OW18505   2.487   3.968   7.406  0.3861  0.2276  0.1919
 2349SOL    HW118506   2.396   3.942   7.424 -0.6049  2.5213 -1.3871
 2349SOL    HW218507   2.480   4.064   7.401  0.2422  0.1838 -0.3811
 2350SOL     OW18508   4.105   2.588   2.360  0.0230 -0.4714 -0.4215
 2350SOL    HW118509   4.042   2.614   2.426  2.0317  0.3030  1.1930
 2350SOL    HW218510   4.056   2.514   2.325  0.4542 -0.1759 -1.6629
 2351SOL     OW18511   0.006   2.552   7.586 -0.4122  0.5449 -0.7516
 2351SOL    HW118512   4.682   2.546   7.502  1.3479 -0.4786 -1.6363
 2351SOL    HW218513   4.682   2.630   7.618 -0.3194 -0.7739  2.6247
 2352SOL     OW18514   4.149   1.690  10.032  0.3118  1.0026  0.0944
 2352SOL    HW118515   4.056   1.713  10.025 -0.1510 -1.0150 -0.3545
 2352SOL    HW218516   4.138   1.605  10.075 -1.4878  1.3906  0.4198
 2353SOL     OW18517   3.172   3.057   7.688 -0.1524  0.3971 -0.5761
 2353SOL    HW118518   3.197   2.980   7.739  0.7375  2.0263  1.4727
 2353SOL    HW218519   3.263   3.082   7.670  0.3528 -2.3619 -1.9708
 2354SOL     OW18520   2.652   0.142   2.049 -0.2506 -0.0865 -0.3811
 2354SOL    HW118521   2.691   0.226   2.073 -1.1177  0.3909 -0.6221
 2354SOL    HW218522   2.563   0.154   2.082  0.4008  2.0665  0.5784
 2355SOL     OW18523   2.761   1.988  17.200 -0.3568  0.2890 -0.2179
 2355SOL    HW118524   2.736   1.927  17.131  1.5343  0.9112 -1.4603
 2355SOL    HW218525   2.819   2.049  17.154  0.1857  0.5735  0.8552
 2356SOL     OW18526   2.832   3.421   9.307 -0.6959 -0.0826  0.1481
 2356SOL    HW118527   2.914   3.424   9.258 -0.9616  2.1329 -0.1859
 2356SOL    HW218528   2.811   3.512   9.282  0.7805 -0.0024 -0.7770
 2357SOL     OW18529   3.852   2.128   8.912  0.1664  0.8229  0.5697
 2357SOL    HW118530   3.797   2.068   8.962  0.2331 -1.3081 -1.9500
 2357SOL    HW218531   3.790   2.184   8.865 -1.3349  0.3410  1.9459
 2358SOL     OW18532   3.925   2.892  16.497 -0.3367  0.1542 -0.5547
 2358SOL    HW118533   4.005   2.943  16.509  0.8457 -1.8601  0.0858
 2358SOL    HW218534   3.915   2.861  16.587  1.6490 -1.9614 -1.0525
 2359SOL     OW18535   2.671   1.578   1.700  0.5858 -0.4023  0.3736
 2359SOL    HW118536   2.653   1.498   1.750  0.2140 -0.4093  0.2311
 2359SOL    HW218537   2.597   1.634   1.725 -1.1599 -1.8005 -1.7200
 2360SOL     OW18538   3.508   0.133   3.831  0.7590 -0.1278  0.2705
 2360SOL    HW118539   3.498   0.193   3.906 -0.5048 -0.0067 -0.0013
 2360SOL    HW218540   3.419   0.126   3.798  0.5133  0.6061  0.7672
 2361SOL     OW18541   2.172   0.741   3.058 -0.1336 -0.0233 -0.0150
 2361SOL    HW118542   2.154   0.807   2.991 -0.0924 -0.0353 -0.0381
 2361SOL    HW218543   2.084   0.728   3.092 -0.2130 -1.8392 -0.9246
 2362SOL     OW18544   2.921   4.495   3.868  0.3055 -0.7298 -0.0477
 2362SOL    HW118545   2.972   4.520   3.945  0.5339 -0.0844 -0.4076
 2362SOL    HW218546   2.916   4.399   3.870  1.6058 -0.8169 -1.5861
 2363SOL     OW18547   1.885   1.003   3.350 -0.1520  0.4343  0.0684
 2363SOL    HW118548   1.873   1.092   3.385 -0.9589  0.2393  0.2679
 2363SOL    HW218549   1.952   0.967   3.409 -1.1774  0.3193  1.1662
 2364SOL     OW18550   1.679   2.137   5.898  0.2789  0.2085  0.1876
 2364SOL    HW118551   1.642   2.178   5.976 -1.9240 -1.4094 -0.0414
 2364SOL    HW218552   1.600   2.136   5.844  0.4574 -0.8302 -0.0555
 2365SOL     OW18553   4.155   2.474   5.272 -0.6496 -0.1574  0.5993
 2365SOL    HW118554   4.060   2.472   5.283 -0.2924 -0.2304  3.6700
 2365SOL    HW218555   4.172   2.389   5.313  2.9479 -0.4989 -1.6633
 2366SOL     OW18556   4.583   2.245  10.810  0.5865  0.1878  0.3336
 2366SOL    HW118557   4.632   2.323  10.834  2.5450 -0.1043 -2.7593
 2366SOL    HW218558   4.621   2.210  10.730  0.0152  0.9801 -0.2800
 2367SOL     OW18559   3.397   3.312   8.625 -0.1813  0.6302 -0.4368
 2367SOL    HW118560   3.345   3.339   8.701 -0.1744  2.3102 -1.0264
 2367SOL    HW218561   3.368   3.379   8.564  1.6887  0.6441 -1.3114
 2368SOL     OW18562   2.990   0.976  15.698  0.0765 -0.0843 -0.0971
 2368SOL    HW118563   2.957   0.914  15.632 -0.1121  3.0813 -2.9737
 2368SOL    HW218564   2.947   1.053  15.660 -0.7021 -0.7022 -0.4956
 2369SOL     OW18565   1.763   4.316   7.761  0.0168 -0.0576  0.0917
 2369SOL    HW118566   1.751   4.394   7.815  2.1468 -0.7121  1.5352
 2369SOL    HW218567   1.694   4.332   7.697 -1.6346  0.4783  2.0002
 2370SOL     OW18568   1.476   0.325   6.604 -0.2948 -0.6454 -0.6555
 2370SOL    HW118569   1.524   0.254   6.646 -1.6467 -0.6131  0.9331
 2370SOL    HW218570   1.525   0.339   6.523 -0.6224 -1.0685 -0.9264
 2371SOL     OW18571   1.089   2.180   8.001  0.1568  0.0382  0.2607
 2371SOL    HW118572   1.108   2.092   8.033  0.7700 -0.1090 -0.4891
 2371SOL    HW218573   1.165   2.192   7.944  1.7131 -0.0967  2.3077
 2372SOL     OW18574   3.711   3.475   3.290  0.2844  0.5691  0.3404
 2372SOL    HW118575   3.650   3.417   3.335 -1.0081 -0.5099 -2.8366
 2372SOL    HW218576   3.792   3.426   3.306 -1.3329 -2.1117  0.3560
 2373SOL     OW18577   4.201   4.524   2.835  0.0893  0.4146  0.0358
 2373SOL    HW118578   4.150   4.571   2.769 -1.1230 -1.2094 -0.1793
 2373SOL    HW218579   4.211   4.599   2.894 -0.3773  0.5148 -0.0188
 2374SOL     OW18580   3.437   1.766   6.600 -0.0147 -0.8118  0.0129
 2374SOL    HW118581   3.447   1.860   6.617  0.0114 -1.0004  1.0828
 2374SOL    HW218582   3.469   1.766   6.510 -1.0498 -0.7531 -0.3587
 2375SOL     OW18583   3.369   0.026   8.177  0.5184 -0.2973  0.2380
 2375SOL    HW118584   3.293   0.026   8.118 -0.6390  0.3231  1.7234
 2375SOL    HW218585   3.323   4.716   8.255 -0.7721  0.5640 -0.1710
 2376SOL     OW18586   2.763   4.016  15.689  0.1987  0.1098  0.7594
 2376SOL    HW118587   2.720   3.961  15.624 -0.1751  0.2099  0.9247
 2376SOL    HW218588   2.731   4.101  15.660 -1.3296 -0.2905  1.2642
 2377SOL     OW18589   4.551   0.204   3.030 -0.9487  0.5242 -0.8133
 2377SOL    HW118590   4.494   0.279   3.047  1.8127  2.1902  0.9660
 2377SOL    HW218591   4.485   0.137   3.014 -2.3826  1.5362  0.8691
 2378SOL     OW18592   2.639   2.218   6.474  0.0026  0.5692  0.2404
 2378SOL    HW118593   2.554   2.238   6.514 -0.2377 -0.7844  0.4248
 2378SOL    HW218594   2.682   2.303   6.473 -3.3839  2.2884  0.7600
 2379SOL     OW18595   4.151   1.377   1.397  0.0937 -0.0011  0.2048
 2379SOL    HW118596   4.120   1.392   1.486  0.4768 -0.3527  0.3989
 2379SOL    HW218597   4.122   1.286   1.385  0.2183  0.1393 -1.1776
 2380SOL     OW18598   1.676   4.533  12.823  0.1919 -0.7122  0.6775
 2380SOL    HW118599   1.650   4.457  12.875  0.4343 -2.8121 -2.3464
 2380SOL    HW218600   1.665   4.608  12.882  1.6127  0.2396 -0.2839
 2381SOL     OW18601   2.091   4.145   1.853  0.2709  0.2231 -0.4431
 2381SOL    HW118602   2.176   4.174   1.885  1.1228  0.4374 -2.8659
 2381SOL    HW218603   2.079   4.064   1.901 -1.4640  0.4653 -0.4682
 2382SOL     OW18604   2.155   2.711   1.577  0.6129  0.4459  0.4891
 2382SOL    HW118605   2.222   2.663   1.528  1.1483  0.7780  0.9020
 2382SOL    HW218606   2.092   2.742   1.512  1.0178 -0.4486 -0.3270
 2383SOL     OW18607   0.169   1.960   8.022  0.0068  0.2322  0.4266
 2383SOL    HW118608   0.189   2.019   7.949  0.0683  1.4565  1.4209
 2383SOL    HW218609   0.253   1.930   8.058 -0.5570 -0.3287  1.2781
 2384SOL     OW18610   1.507   0.270   7.403 -0.7672 -0.5185  0.3067
 2384SOL    HW118611   1.595   0.301   7.384 -1.2094 -1.3684 -3.1405
 2384SOL    HW218612   1.453   0.344   7.430 -1.1396  0.4645 -3.1324
 2385SOL     OW18613   4.639   3.789   8.154 -0.3277  0.4447 -0.3251
 2385SOL    HW118614   4.690   3.722   8.107  0.8578  1.2346 -0.1759
 2385SOL    HW218615   4.657   3.858   8.090  0.9194  0.3384 -0.0984
 2386SOL     OW18616   0.873   1.742   6.965  0.4609 -0.3933 -0.6331
 2386SOL    HW118617   0.917   1.725   7.049  0.0346 -1.9643 -0.7336
 2386SOL    HW218618   0.833   1.656   6.955  0.7997 -0.7363  0.8336
 2387SOL     OW18619   3.212   3.476   1.318 -0.0159  0.2579 -0.0418
 2387SOL    HW118620   3.214   3.406   1.252 -1.0190  1.2279 -1.0978
 2387SOL    HW218621   3.145   3.530   1.277 -1.3848 -2.3551 -1.3005
 2388SOL     OW18622   2.839   3.081  11.002  0.3816 -0.3934 -0.1348
 2388SOL    HW118623   2.885   3.149  11.051  0.8093 -1.5730  1.1084
 2388SOL    HW218624   2.853   3.128  10.920  1.9583 -0.4232  0.1258
 2389SOL     OW18625   2.485   0.717  11.798 -0.4810  0.7197 -0.0099
 2389SOL    HW118626   2.520   0.789  11.849  1.7648  0.8267 -1.6757
 2389SOL    HW218627   2.566   0.680  11.762  0.2563  1.9906  0.3637
 2390SOL     OW18628   1.941   3.872   6.781 -0.4868 -0.2107 -0.5650
 2390SOL    HW118629   2.012   3.931   6.757 -0.8048  0.0814 -0.7801
 2390SOL    HW218630   1.892   3.930   6.840  0.8408  0.6376 -0.3077
 2391SOL     OW18631   1.418   1.839   2.631  0.0806 -0.0123  0.0342
 2391SOL    HW118632   1.421   1.909   2.566  1.1538 -1.1308 -1.0960
 2391SOL    HW218633   1.400   1.757   2.586  1.8695  1.4517 -3.3258
 2392SOL     OW18634   1.260   2.686  13.568  0.3611  0.0580 -0.2199
 2392SOL    HW118635   1.337   2.665  13.620  0.7109  0.2901 -0.6486
 2392SOL    HW218636   1.275   2.775  13.538  1.8233 -0.4230 -0.9215
 2393SOL     OW18637   0.224   1.284  10.935 -0.2456  0.1790 -0.1052
 2393SOL    HW118638   0.225   1.374  10.969  0.3848  0.4102 -0.7205
 2393SOL    HW218639   0.264   1.227  11.000 -1.7475 -1.5736 -0.7398
 2394SOL     OW18640   2.836   2.787  16.941  0.0681 -0.3071  0.3312
 2394SOL    HW118641   2.804   2.861  16.993  1.1606 -1.7226  3.0004
 2394SOL    HW218642   2.870   2.831  16.863  0.8535 -1.1699  0.1890
 2395SOL     OW18643   1.940   0.789   3.716 -0.6452 -0.1055 -0.0281
 2395SOL    HW118644   1.951   0.710   3.663  1.3881  0.5546 -0.5928
 2395SOL    HW218645   1.970   0.855   3.654  0.5085 -0.7700 -0.1815
 2396SOL     OW18646   3.057   1.997   4.916 -0.0823 -0.0441  0.2328
 2396SOL    HW118647   2.998   1.964   4.983 -1.3562  2.3264  0.2962
 2396SOL    HW218648   3.003   2.010   4.838  1.4854 -0.8297 -0.9862
 2397SOL     OW18649   1.156   1.818   6.744 -0.9062 -0.4984  0.8848
 2397SOL    HW118650   1.093   1.746   6.743  1.1317 -2.2800 -0.4274
 2397SOL    HW218651   1.107   1.884   6.792 -0.8360  0.0760  0.1612
 2398SOL     OW18652   3.062   2.923  10.135  0.3293  0.1355 -0.1116
 2398SOL    HW118653   3.105   2.837  10.132 -0.8361 -0.3914 -2.2749
 2398SOL    HW218654   3.047   2.954  10.046 -1.4446  0.6694  0.3672
 2399SOL     OW18655   0.998   1.263   8.381  0.1936 -0.0368 -0.2271
 2399SOL    HW118656   1.057   1.331   8.414 -2.8828  1.8300  1.4281
 2399SOL    HW218657   0.951   1.312   8.313 -2.2712  1.5802  2.6338
 2400SOL     OW18658   1.987   1.352   6.544  0.1980  0.2648 -0.0513
 2400SOL    HW118659   1.968   1.442   6.517 -1.1920  1.1898  3.9095
 2400SOL    HW218660   1.986   1.365   6.639  0.5463 -0.2355  0.0184
 2401SOL     OW18661   1.337   3.775   7.214 -0.1012 -0.7581 -0.1193
 2401SOL    HW118662   1.339   3.762   7.119  1.5157  1.0548 -0.3388
 2401SOL    HW218663   1.279   3.705   7.245 -0.9365 -0.1255 -0.2532
 2402SOL     OW18664   0.053   3.594   8.032  0.0261 -0.1251 -0.3769
 2402SOL    HW118665   0.050   3.502   8.003 -2.1089 -0.6579  1.5331
 2402SOL    HW218666   0.147   3.603   8.044 -0.3830  1.5201  1.4882
 2403SOL     OW18667   2.205   2.580  17.227  0.3569 -0.7738 -0.0279
 2403SOL    HW118668   2.202   2.614  17.138  0.5373  1.0053  0.6348
 2403SOL    HW218669   2.281   2.524  17.220  0.9492  0.1116 -0.6679
 2404SOL     OW18670   4.036   3.013   8.617  0.1858  0.4779 -0.6653
 2404SOL    HW118671   4.075   3.011   8.704  0.0503 -1.5146 -0.6453
 2404SOL    HW218672   3.945   2.989   8.636  0.1050  2.2090  1.1728
 2405SOL     OW18673   0.206   1.775   0.894  0.4616  0.6789  0.2175
 2405SOL    HW118674   0.214   1.834   0.818  0.1605 -0.7980 -0.9745
 2405SOL    HW218675   0.111   1.773   0.908 -0.0589  0.6930 -3.0649
 2406SOL     OW18676   2.350   4.395   7.686 -0.1850  0.4023  0.5218
 2406SOL    HW118677   2.320   4.474   7.640  0.1824 -0.0672 -0.5250
 2406SOL    HW218678   2.269   4.377   7.733 -1.9327 -0.1336 -2.6831
 2407SOL     OW18679   4.161   0.255  16.500 -0.2615  0.1728 -0.4836
 2407SOL    HW118680   4.170   0.267  16.405 -0.9098 -1.9790 -0.8172
 2407SOL    HW218681   4.213   0.327  16.535 -0.2834 -0.0469  0.0095
 2408SOL     OW18682   3.426   3.501  14.763  0.1337  0.2517 -0.2630
 2408SOL    HW118683   3.382   3.445  14.826  0.1743 -0.6113 -1.0065
 2408SOL    HW218684   3.371   3.579  14.772  0.5402  0.6390 -1.0787
 2409SOL     OW18685   2.638   0.876  17.108  0.0818  0.3474 -0.4647
 2409SOL    HW118686   2.593   0.921  17.179  1.4532  1.5674 -0.3695
 2409SOL    HW218687   2.645   0.944  17.041 -2.0112 -0.1523 -1.1823
 2410SOL     OW18688   0.073   3.951   2.312  0.2792 -0.3459  0.0895
 2410SOL    HW118689   0.091   3.879   2.251 -0.0727 -0.4464  0.1032
 2410SOL    HW218690   0.047   3.890   2.381  1.7610  0.0061  0.9507
 2411SOL     OW18691   1.768   0.951   5.029  0.2897 -0.3782 -0.4319
 2411SOL    HW118692   1.776   1.039   5.067 -0.0990 -1.9771  3.2659
 2411SOL    HW218693   1.860   0.925   5.027  0.1320 -0.7536 -2.5614
 2412SOL     OW18694   1.559   2.361   6.068  0.2041  0.0215  0.6477
 2412SOL    HW118695   1.493   2.424   6.097  3.4299  3.3015  0.8040
 2412SOL    HW218696   1.585   2.410   5.990 -1.8626  1.4467  0.8640
 2413SOL     OW18697   3.117   0.709   6.103 -0.5580  0.1032  0.3161
 2413SOL    HW118698   3.040   0.719   6.048  0.0238  0.3635 -0.4613
 2413SOL    HW218699   3.094   0.758   6.182  1.0514 -1.3025  1.6740
 2414SOL     OW18700   1.862   3.661   0.205  0.2424  1.3376 -0.4415
 2414SOL    HW118701   1.913   3.584   0.228  0.4857  1.2686 -1.2204
 2414SOL    HW218702   1.787   3.614   0.168  2.2364 -2.4618  0.4234
 2415SOL     OW18703   1.402   4.148   6.223 -0.1230 -0.5649  0.3283
 2415SOL    HW118704   1.444   4.234   6.213  2.4960 -1.6674  1.6871
 2415SOL    HW218705   1.309   4.171   6.225  0.3215  1.2732  0.1157
 2416SOL     OW18706   1.415   1.590   2.506  0.1483 -0.0038 -0.4757
 2416SOL    HW118707   1.442   1.591   2.414  0.0834  2.1626 -0.4854
 2416SOL    HW218708   1.441   1.504   2.537 -2.5229 -1.1285 -1.4280
 2417SOL     OW18709   2.900   2.372  14.981  0.0217 -0.4688 -0.0659
 2417SOL    HW118710   2.860   2.459  14.980  0.9686 -0.0443 -0.7739
 2417SOL    HW218711   2.834   2.317  14.938  0.3367  0.4456 -1.7061
 2418SOL     OW18712   1.278   1.269  10.683  0.1439 -0.0392  0.4439
 2418SOL    HW118713   1.309   1.179  10.668  0.6653  0.3929 -1.1386
 2418SOL    HW218714   1.301   1.310  10.600 -0.7961  0.8498  0.6290
 2419SOL     OW18715   3.963   3.982   7.904 -0.0862 -0.5812  0.1167
 2419SOL    HW118716   4.057   3.965   7.910  0.4841  2.8656  1.1452
 2419SOL    HW218717   3.921   3.899   7.925  1.4347 -1.1148  1.0202
 2420SOL     OW18718   2.816   2.876  16.315  0.8539 -0.1310  0.0999
 2420SOL    HW118719   2.903   2.912  16.333 -0.2012  2.2788  0.3844
 2420SOL    HW218720   2.790   2.860  16.406 -0.6571 -1.4866 -0.5821
 2421SOL     OW18721   3.717   0.127   0.040 -0.0813  0.1222  0.2353
 2421SOL    HW118722   3.732   0.170   0.124  0.2299  1.9328 -0.7528
 2421SOL    HW218723   3.771   0.047   0.043 -1.6598 -0.8986  1.4804
 2422SOL     OW18724   0.548   1.411   8.622 -0.3420 -0.1746  0.5491
 2422SOL    HW118725   0.460   1.448   8.618 -0.6100 -0.7777  0.8866
 2422SOL    HW218726   0.601   1.490   8.622  0.5284 -0.7602 -0.8767
 2423SOL     OW18727   0.776   1.181   8.946  0.0414 -0.1935  0.6073
 2423SOL    HW118728   0.755   1.273   8.928  0.4682 -0.4533 -1.2408
 2423SOL    HW218729   0.754   1.152   8.858  3.2044 -0.8780  0.0132
 2424SOL     OW18730   1.320   3.706  13.024  0.2200 -0.1324  1.0131
 2424SOL    HW118731   1.272   3.771  12.973  0.7602 -1.2838 -0.9389
 2424SOL    HW218732   1.280   3.621  13.009 -2.3489  0.6253  3.6094
 2425SOL     OW18733   2.450   4.325   6.217 -0.4936  0.3127  0.4620
 2425SOL    HW118734   2.473   4.239   6.253  1.3322  0.3568 -0.5913
 2425SOL    HW218735   2.369   4.337   6.266 -0.3077  0.2932  0.7715
 2426SOL     OW18736   2.815   2.779  15.387  0.0360 -0.2433  0.7861
 2426SOL    HW118737   2.893   2.834  15.381  1.6171 -2.5197  0.9242
 2426SOL    HW218738   2.774   2.830  15.458 -1.6397 -2.6395  1.5492
 2427SOL     OW18739   4.441   0.627  11.916  0.3236 -0.4314 -0.1317
 2427SOL    HW118740   4.482   0.696  11.864 -3.5541  2.5381  0.7416
 2427SOL    HW218741   4.398   0.581  11.844 -2.2899  1.8277 -0.0341
 2428SOL     OW18742   1.583   1.803  11.190  0.2436  0.5370 -0.3568
 2428SOL    HW118743   1.563   1.811  11.097 -0.7941 -3.1132 -0.4211
 2428SOL    HW218744   1.624   1.888  11.210 -2.4064  1.5216  0.8440
 2429SOL     OW18745   1.233   2.127   5.413  0.6544  0.2950  0.5590
 2429SOL    HW118746   1.209   2.182   5.338  1.3669 -3.1859 -2.2316
 2429SOL    HW218747   1.292   2.069   5.364  0.3616  0.6186 -0.1817
 2430SOL     OW18748   3.151   4.091  11.684 -0.3745 -0.2750 -0.8174
 2430SOL    HW118749   3.151   4.180  11.650 -1.5556  0.3033  0.7464
 2430SOL    HW218750   3.195   4.048  11.610 -0.5628 -2.1816  0.1832
 2431SOL     OW18751   3.724   1.409  16.233 -0.1258 -0.4886  0.2592
 2431SOL    HW118752   3.747   1.408  16.326  0.5903  0.7953  0.0994
 2431SOL    HW218753   3.633   1.439  16.230  0.3469  1.1904  2.6542
 2432SOL     OW18754   3.437   2.011   5.773 -0.0556  0.2416  0.1793
 2432SOL    HW118755   3.470   2.031   5.686  1.1433  2.4646  1.1373
 2432SOL    HW218756   3.521   2.011   5.820 -0.0614 -0.0623  0.1881
 2433SOL     OW18757   1.183   1.893  15.214  0.0374  0.5870 -0.0457
 2433SOL    HW118758   1.266   1.926  15.180  0.2022  0.0018 -0.2137
 2433SOL    HW218759   1.204   1.910  15.306 -0.3301  1.0533 -0.0450
 2434SOL     OW18760   3.109   2.472   4.139  0.2098 -0.5380 -0.3001
 2434SOL    HW118761   3.132   2.504   4.052 -1.0725 -0.0215 -0.4571
 2434SOL    HW218762   3.103   2.378   4.124 -2.2394 -0.4355  0.0759
 2435SOL     OW18763   2.439   4.710   9.392 -0.0938  0.3140 -0.8332
 2435SOL    HW118764   2.397   0.037   9.321  0.6781  0.4779 -1.1803
 2435SOL    HW218765   2.524   4.688   9.355 -0.2663 -1.8153 -0.0021
 2436SOL     OW18766   1.491   0.835   6.405 -0.4518  0.3451  0.5721
 2436SOL    HW118767   1.564   0.815   6.465 -0.2986 -3.4658 -0.8647
 2436SOL    HW218768   1.438   0.864   6.480 -0.5007 -0.2370  0.7678
 2437SOL     OW18769   2.215   1.861   3.588  0.5083  0.2606 -0.2619
 2437SOL    HW118770   2.224   1.956   3.578  3.2254  0.1111  0.7629
 2437SOL    HW218771   2.140   1.846   3.531 -0.0880  1.5501  0.1824
 2438SOL     OW18772   2.521   2.588   6.027  0.2007  1.0597 -0.8979
 2438SOL    HW118773   2.443   2.614   6.075  1.5679  2.2596  0.6436
 2438SOL    HW218774   2.490   2.609   5.939  1.9682  1.4925 -1.4158
 2439SOL     OW18775   1.020   3.956   0.136  0.0019 -0.4007 -0.3585
 2439SOL    HW118776   0.993   4.048   0.146 -1.5272 -0.5637 -3.0192
 2439SOL    HW218777   0.936   3.918   0.113 -0.3340  0.0821  0.0725
 2440SOL     OW18778   1.636   3.753  17.441 -0.5525  0.1650 -0.3310
 2440SOL    HW118779   1.579   3.817  17.399 -0.5492  0.5807  0.2907
 2440SOL    HW218780   1.655   3.800  17.522  3.1350  0.8915 -1.6269
 2441SOL     OW18781   1.060   0.178  12.656  0.5581  0.4083  0.7856
 2441SOL    HW118782   0.991   0.137  12.604 -0.0645 -0.6389  2.4163
 2441SOL    HW218783   1.126   0.201  12.591 -0.2804 -0.9264 -0.5435
 2442SOL     OW18784   2.301   1.663   4.173  0.0149  0.3555 -0.3181
 2442SOL    HW118785   2.335   1.734   4.228 -0.5245  0.2704  0.1161
 2442SOL    HW218786   2.216   1.701   4.150 -0.0944  0.5355  0.3751
 2443SOL     OW18787   2.820   3.683   3.590  0.5048  0.3469 -0.5025
 2443SOL    HW118788   2.762   3.679   3.666  1.7442  1.4977  0.5050
 2443SOL    HW218789   2.769   3.717   3.517 -0.8161 -0.7503 -0.0879
 2444SOL     OW18790   3.849   0.609  16.563  0.4664 -0.8318 -0.2448
 2444SOL    HW118791   3.868   0.521  16.529  0.0219 -1.6944  1.7630
 2444SOL    HW218792   3.791   0.591  16.636  1.3659  0.1015  0.7076
 2445SOL     OW18793   2.761   0.937   8.744  0.2117 -0.6258 -0.6048
 2445SOL    HW118794   2.786   0.903   8.830  3.0506  0.5928 -0.9599
 2445SOL    HW218795   2.676   0.978   8.763  1.1743  1.1281 -0.1201
 2446SOL     OW18796   4.338   2.770   0.373 -0.0061  0.0109 -0.2930
 2446SOL    HW118797   4.262   2.746   0.426 -1.8000  1.9152 -2.0230
 2446SOL    HW218798   4.307   2.750   0.284  2.0795 -0.7323 -0.8457
 2447SOL     OW18799   1.663   0.030   5.757 -0.5634 -0.3536  0.6396
 2447SOL    HW118800   1.757   0.021   5.744 -0.5453  0.4962  0.2087
 2447SOL    HW218801   1.640   0.104   5.702  0.3962 -1.1317 -0.7957
 2448SOL     OW18802   1.739   4.493   2.289  0.0956  0.0096 -0.3202
 2448SOL    HW118803   1.783   4.506   2.373 -1.8228 -0.0341  0.6953
 2448SOL    HW218804   1.655   4.531   2.316  1.1121  0.0035  2.9029
 2449SOL     OW18805   1.240   3.752   3.218  0.3655 -0.2162  0.7140
 2449SOL    HW118806   1.279   3.676   3.261  0.9704 -1.1422 -1.4782
 2449SOL    HW218807   1.184   3.707   3.155 -0.0140  0.6772  0.4069
 2450SOL     OW18808   4.704   0.499   2.781  0.0188  0.1726  0.6904
 2450SOL    HW118809   4.651   0.534   2.709  0.4096  0.1208  0.3772
 2450SOL    HW218810   4.640   0.491   2.852 -2.8263  0.6230 -1.8008
 2451SOL     OW18811   3.492   3.896  15.607 -0.1134 -0.0793 -0.2727
 2451SOL    HW118812   3.547   3.850  15.671 -0.4251 -1.2234 -0.8387
 2451SOL    HW218813   3.408   3.853  15.601 -0.5313  0.9619 -1.7798
 2452SOL     OW18814   3.548   3.759   6.651 -0.5156  0.0626 -0.7682
 2452SOL    HW118815   3.456   3.781   6.662 -0.7846 -0.7855 -1.3783
 2452SOL    HW218816   3.544   3.704   6.573  2.4895  0.2036 -1.0264
 2453SOL     OW18817   0.790   3.734  12.807 -0.0724 -0.5725  0.0497
 2453SOL    HW118818   0.711   3.760  12.759  0.8710 -2.0007 -2.2656
 2453SOL    HW218819   0.754   3.707  12.891 -0.3968  0.7058  0.3065
 2454SOL     OW18820   3.880   3.689   5.550  0.3990  0.3392 -0.0379
 2454SOL    HW118821   3.909   3.625   5.485 -2.3313  0.9830 -1.8873
 2454SOL    HW218822   3.948   3.756   5.555  1.2713 -0.3896 -2.2272
 2455SOL     OW18823   0.014   1.358   7.529 -0.1905  0.3699  0.2524
 2455SOL    HW118824   4.663   1.322   7.581 -1.9410  2.3031 -0.8334
 2455SOL    HW218825   0.025   1.293   7.460  1.0099  3.1275 -2.1682
 2456SOL     OW18826   2.912   3.583   6.136 -0.0326  0.0656  0.1144
 2456SOL    HW118827   2.828   3.538   6.125  0.8378 -1.6935  0.6099
 2456SOL    HW218828   2.940   3.550   6.221 -1.0679  1.8864  1.1562
 2457SOL     OW18829   2.940   3.652   8.930 -0.1178  0.0104  0.0636
 2457SOL    HW118830   3.032   3.672   8.943  1.0163 -3.3029 -2.7854
 2457SOL    HW218831   2.918   3.702   8.852  0.4099  0.0759 -0.0430
 2458SOL     OW18832   3.145   3.751   4.053  0.8077 -0.3052 -0.3710
 2458SOL    HW118833   3.190   3.802   3.986  1.1315 -0.0291  0.0589
 2458SOL    HW218834   3.142   3.808   4.130 -0.3725 -0.0297 -0.6335
 2459SOL     OW18835   4.589   2.149   5.352  0.3368 -0.6494 -0.3860
 2459SOL    HW118836   4.593   2.187   5.264  1.0624 -1.6597 -0.7852
 2459SOL    HW218837   4.673   2.103   5.345  0.3153 -1.0610  1.9648
 2460SOL     OW18838   2.947   1.050   4.029 -0.2581  0.1747  0.5385
 2460SOL    HW118839   3.008   1.060   4.102 -0.3122  0.8645  0.4887
 2460SOL    HW218840   2.989   1.111   3.970  0.1161 -0.6978 -0.1033
 2461SOL     OW18841   1.868   1.392  12.537  0.5732  0.5931 -0.3720
 2461SOL    HW118842   1.960   1.417  12.541  0.6655  0.3212 -0.8986
 2461SOL    HW218843   1.868   1.344  12.620  2.2693  1.1016 -0.0932
 2462SOL     OW18844   0.633   0.420   7.341 -0.5526 -0.0026  0.2122
 2462SOL    HW118845   0.614   0.513   7.329  0.9559  0.6013  2.4367
 2462SOL    HW218846   0.663   0.390   7.255  0.3870 -2.2962  1.3341
 2463SOL     OW18847   1.504   0.346   1.008  0.0122  0.0447  0.3886
 2463SOL    HW118848   1.410   0.355   0.998  0.2238 -0.5664 -2.1706
 2463SOL    HW218849   1.521   0.415   1.073  0.6261 -1.1272  1.4753
 2464SOL     OW18850   1.907   3.030  16.869  0.4981 -1.3097  0.0199
 2464SOL    HW118851   1.923   3.109  16.921  0.5892 -0.4233 -1.3315
 2464SOL    HW218852   1.983   2.976  16.886  1.8510  0.5777 -0.0034
 2465SOL     OW18853   1.402   2.601   8.829 -0.0730 -0.2443  0.0918
 2465SOL    HW118854   1.337   2.626   8.895 -0.6586 -0.2865 -0.4631
 2465SOL    HW218855   1.465   2.672   8.840 -0.1565 -0.0817 -0.4388
 2466SOL     OW18856   1.269   3.461   5.216 -0.2588  0.2840 -0.0640
 2466SOL    HW118857   1.231   3.375   5.198  3.0443 -0.5797 -2.8603
 2466SOL    HW218858   1.209   3.512   5.161 -0.3938  0.5103  0.2941
 2467SOL     OW18859   1.305   1.206   2.117  0.4569  0.5186 -0.5146
 2467SOL    HW118860   1.401   1.198   2.121  0.2657 -0.5349  1.9741
 2467SOL    HW218861   1.304   1.193   2.022 -0.9789 -0.8075 -0.3135
 2468SOL     OW18862   1.855   1.090   2.605  0.3470 -0.3807 -0.3970
 2468SOL    HW118863   1.935   1.037   2.599  0.6906 -0.0437  1.2862
 2468SOL    HW218864   1.787   1.023   2.602  1.4088 -1.4320 -1.4381
 2469SOL     OW18865   1.955   2.268   6.048  0.1097 -0.0302 -0.3166
 2469SOL    HW118866   1.955   2.182   6.007  1.5358 -0.0047 -0.3894
 2469SOL    HW218867   2.042   2.259   6.088  0.6665 -0.4295 -1.6149
 2470SOL     OW18868   1.293   4.098  10.264  0.2582 -0.3566 -0.5357
 2470SOL    HW118869   1.365   4.155  10.239  0.1490  0.7995  1.8122
 2470SOL    HW218870   1.302   4.088  10.359  1.7838 -0.0464 -0.6423
 2471SOL     OW18871   0.449   3.115   1.796 -0.4115 -0.0286  0.1575
 2471SOL    HW118872   0.544   3.119   1.805 -0.3029 -2.3652 -0.1135
 2471SOL    HW218873   0.443   3.031   1.750  2.5143 -0.1773  0.0554
 2472SOL     OW18874   3.353   3.242  13.000 -0.5379 -0.0949  0.2048
 2472SOL    HW118875   3.359   3.227  13.094  3.8032  1.2412  0.1395
 2472SOL    HW218876   3.336   3.336  12.991  0.3522 -0.1427 -2.0196
 2473SOL     OW18877   1.062   0.460   3.746 -0.6781 -0.4838  0.2349
 2473SOL    HW118878   1.123   0.472   3.673  0.8614  4.0127  2.2617
 2473SOL    HW218879   1.085   0.369   3.765 -0.7542 -0.8690 -1.4931
 2474SOL     OW18880   0.986   4.107   7.000 -0.0774  0.6594  0.1879
 2474SOL    HW118881   1.051   4.069   6.941  0.4165  2.2420 -0.2835
 2474SOL    HW218882   0.929   4.158   6.942  0.4854  1.6804  0.5461
 2475SOL     OW18883   0.351   1.452   1.820 -0.9280 -0.0655  0.4694
 2475SOL    HW118884   0.427   1.429   1.874  1.2272 -1.1800 -3.0134
 2475SOL    HW218885   0.284   1.454   1.888 -1.3271 -1.7595  0.1385
 2476SOL     OW18886   1.920   3.984  16.941 -1.3508  0.2592  0.5442
 2476SOL    HW118887   1.871   4.014  17.017  1.5333  2.1886  1.6138
 2476SOL    HW218888   1.996   3.946  16.986 -1.1554 -1.8418 -1.5514
 2477SOL     OW18889   2.167   2.778   8.486  0.4643  0.1955  0.2537
 2477SOL    HW118890   2.159   2.873   8.494  0.9843  0.0768  2.1043
 2477SOL    HW218891   2.118   2.748   8.562 -0.5998  2.6179  0.4972
 2478SOL     OW18892   1.490   2.240   2.021 -0.1632  0.0691 -0.1718
 2478SOL    HW118893   1.458   2.150   2.009 -0.5970  0.0999  0.7291
 2478SOL    HW218894   1.419   2.292   1.985  0.1593  0.8125  0.2715
 2479SOL     OW18895   0.404   4.711   0.046  0.2912 -0.5553 -0.2851
 2479SOL    HW118896   0.414   0.035  17.650  0.6856 -2.8162 -1.4675
 2479SOL    HW218897   0.361   0.053   0.103  2.6703  0.4491  0.4175
 2480SOL     OW18898   2.076   4.566   1.330  0.1048 -0.0218  0.3093
 2480SOL    HW118899   2.081   4.487   1.276  0.4447 -0.3585  0.8299
 2480SOL    HW218900   2.015   4.622   1.283  0.0687  0.4430  0.9155
 2481SOL     OW18901   1.935   0.183   1.789 -0.2971  0.0958 -0.0521
 2481SOL    HW118902   2.024   0.165   1.820 -0.1464  1.2982  0.2227
 2481SOL    HW218903   1.924   0.273   1.818  0.3651  0.6417 -1.5005
 2482SOL     OW18904   1.286   0.429  11.149  0.1808  0.1401  0.2253
 2482SOL    HW118905   1.265   0.396  11.236 -0.9542  0.8272  0.2092
 2482SOL    HW218906   1.380   0.440  11.160  0.2197  0.4878 -0.4553
 2483SOL     OW18907   3.049   0.209   4.614 -0.6861  0.3735  0.0870
 2483SOL    HW118908   2.956   0.185   4.618 -0.6371  0.3592  1.0627
 2483SOL    HW218909   3.058   0.246   4.702  0.9675 -0.0824  0.1026
 2484SOL     OW18910   2.869   4.388   4.214 -0.4860 -0.1617  0.7897
 2484SOL    HW118911   2.801   4.359   4.154  0.5889  3.6783 -2.2756
 2484SOL    HW218912   2.806   4.433   4.271 -0.6642  0.9967 -0.3243
 2485SOL     OW18913   3.739   2.998   7.426 -0.1280  0.0480 -0.2382
 2485SOL    HW118914   3.768   3.049   7.350 -0.5799  0.0325 -0.4161
 2485SOL    HW218915   3.673   3.063   7.450  2.1265  3.3291 -2.8081
 2486SOL     OW18916   3.416   3.630   4.331 -0.4736  0.7367 -0.3367
 2486SOL    HW118917   3.462   3.599   4.409  0.1291 -0.5300 -1.1815
 2486SOL    HW218918   3.431   3.725   4.335 -2.2525  1.0486 -1.1388
 2487SOL     OW18919   1.758   4.591   6.139  0.4488 -0.2565 -1.0090
 2487SOL    HW118920   1.804   4.623   6.217 -1.6391 -0.4377  0.2721
 2487SOL    HW218921   1.835   4.605   6.084 -0.4162  1.3989 -1.7752
 2488SOL     OW18922   0.070   4.042   5.900  0.0506  0.6650 -0.4997
 2488SOL    HW118923   0.134   3.981   5.863 -1.0354 -1.4138  1.0899
 2488SOL    HW218924   0.146   4.094   5.928 -0.8969  2.0080 -0.4175
 2489SOL     OW18925   4.704   0.435   0.856 -0.0311  0.5694  0.0534
 2489SOL    HW118926   0.031   0.502   0.905 -0.2420  1.0210 -0.3608
 2489SOL    HW218927   4.695   0.466   0.766  0.9795  0.7697  0.0155
 2490SOL     OW18928   0.721   3.462   2.825  0.2879 -0.1571 -0.1585
 2490SOL    HW118929   0.754   3.458   2.915  1.4061 -0.7848 -0.5999
 2490SOL    HW218930   0.671   3.382   2.811  1.1401 -0.7917  0.4071
 2491SOL     OW18931   3.903   0.905   8.202  0.0099 -0.4147  0.0002
 2491SOL    HW118932   3.823   0.929   8.248 -0.5589 -1.2616 -0.5478
 2491SOL    HW218933   3.890   0.812   8.187 -2.5706  0.1119 -1.0460
 2492SOL     OW18934   1.294   4.213   4.072 -0.0438  0.1254  0.0109
 2492SOL    HW118935   1.212   4.243   4.112  0.0332  0.6105 -0.1902
 2492SOL    HW218936   1.318   4.135   4.122  3.2558  0.8922 -0.3868
 2493SOL     OW18937   0.827   2.135   7.654 -0.2191 -0.3426  0.0601
 2493SOL    HW118938   0.733   2.151   7.655 -0.0574  0.4860  1.8991
 2493SOL    HW218939   0.830   2.045   7.686 -1.2029  0.1169  1.4503
 2494SOL     OW18940   3.206   1.672   7.252 -0.5737  0.5164 -0.6855
 2494SOL    HW118941   3.111   1.678   7.251 -0.4855  2.3817  0.5784
 2494SOL    HW218942   3.218   1.632   7.166  0.4844 -1.1778  0.2617
 2495SOL     OW18943   1.390   0.351   5.121 -0.4433 -0.3329 -0.1494
 2495SOL    HW118944   1.390   0.340   5.216  0.1036 -0.3445 -0.1492
 2495SOL    HW218945   1.343   0.434   5.119 -0.9078 -0.6023 -0.4149
 2496SOL     OW18946   2.087   1.014   4.676  0.2230 -0.5565  0.2476
 2496SOL    HW118947   2.143   1.038   4.602 -1.8004 -0.6305 -1.3179
 2496SOL    HW218948   2.035   0.941   4.643 -1.2988  0.2838  0.7828
 2497SOL     OW18949   2.263   4.561   2.641  0.0899  0.4651 -0.1226
 2497SOL    HW118950   2.288   4.524   2.725  0.7287 -0.5094 -0.7523
 2497SOL    HW218951   2.173   4.589   2.659  0.6604  0.4656  2.5797
 2498SOL     OW18952   3.177   2.331   3.739  0.0367  0.0475 -0.4917
 2498SOL    HW118953   3.233   2.362   3.668 -0.1375  2.2694  0.3495
 2498SOL    HW218954   3.182   2.405   3.799 -0.6706 -1.4920  1.4573
 2499SOL     OW18955   0.485   3.437   4.618  0.3439  0.4083  0.2259
 2499SOL    HW118956   0.421   3.486   4.670  0.6286  0.7587  0.2413
 2499SOL    HW218957   0.527   3.385   4.686 -3.6118 -3.0424  0.0319
 2500SOL     OW18958   1.685   4.435   8.792  0.1179 -0.5612 -0.4072
 2500SOL    HW118959   1.618   4.375   8.760  0.5537 -1.6297  0.6712
 2500SOL    HW218960   1.728   4.360   8.833 -0.1368 -0.5853 -0.1818
 2501SOL     OW18961   4.669   3.768   7.745 -0.0587  0.0808 -0.4781
 2501SOL    HW118962   4.683   3.779   7.839 -2.6725  1.8246 -0.2851
 2501SOL    HW218963   0.015   3.832   7.720 -0.9516  1.9486  1.8842
 2502SOL     OW18964   0.454   4.242   1.880 -0.0993  0.4137  0.3488
 2502SOL    HW118965   0.372   4.292   1.883  0.9264  2.1653 -0.5349
 2502SOL    HW218966   0.444   4.207   1.791  0.0825  0.8445  0.1572
 2503SOL     OW18967   0.472   0.184   3.863 -0.0700 -0.1408  0.2311
 2503SOL    HW118968   0.435   0.097   3.881  0.7181 -0.7087 -0.9044
 2503SOL    HW218969   0.434   0.238   3.932  0.9267  1.0305 -0.1519
 2504SOL     OW18970   0.046   2.323   0.888  0.3740 -0.2330 -0.0472
 2504SOL    HW118971   4.718   2.400   0.860  0.4861  0.1191  0.7463
 2504SOL    HW218972   0.123   2.365   0.924  0.5662  0.7668 -1.5998
 2505SOL     OW18973   0.909   1.112   6.007  0.3480  0.4892  0.5172
 2505SOL    HW118974   0.908   1.205   5.985  0.6526 -0.6687 -4.4911
 2505SOL    HW218975   0.951   1.113   6.093 -1.0628 -0.6268  1.2246
 2506SOL     OW18976   0.981   0.467  11.753  0.0848 -0.6481  0.1769
 2506SOL    HW118977   1.055   0.479  11.694  1.1173  0.4076  1.6661
 2506SOL    HW218978   0.995   0.538  11.816  0.7989 -0.2771 -0.4025
 2507SOL     OW18979   4.263   2.238   1.040 -0.1133 -0.1860 -0.6909
 2507SOL    HW118980   4.231   2.309   1.095 -1.2722 -1.1247 -0.1386
 2507SOL    HW218981   4.259   2.163   1.100  1.3318 -0.0430 -0.4066
 2508SOL     OW18982   1.696   3.478   2.922  0.0777  0.3431  0.0466
 2508SOL    HW118983   1.616   3.451   2.877  2.0114 -3.8163 -0.8626
 2508SOL    HW218984   1.745   3.527   2.855  0.5832  0.9612  0.8689
 2509SOL     OW18985   2.662   4.578   2.960 -0.5518 -0.6080 -0.3590
 2509SOL    HW118986   2.712   4.646   3.005 -1.6182 -0.3753  0.4721
 2509SOL    HW218987   2.663   4.512   3.030 -1.2232 -1.0237 -0.7433
 2510SOL     OW18988   0.984   2.635  13.048  0.4756  0.1521  0.6438
 2510SOL    HW118989   1.077   2.639  13.027  0.3501 -1.3794 -0.1720
 2510SOL    HW218990   0.971   2.718  13.094  1.5509 -0.1251  1.4520
 2511SOL     OW18991   4.190   4.437   6.140 -0.0586  0.1202 -0.4016
 2511SOL    HW118992   4.193   4.424   6.235  0.3654 -0.4870 -0.4917
 2511SOL    HW218993   4.101   4.465   6.122 -0.0617  0.1837 -0.2881
 2512SOL     OW18994   0.241   1.732  11.128 -0.1416  0.2563  0.6176
 2512SOL    HW118995   0.225   1.638  11.125  0.9297  0.1461 -2.0112
 2512SOL    HW218996   0.214   1.749  11.218  0.3005 -0.7559  0.9376
 2513SOL     OW18997   0.045   4.408   3.800  0.1114 -0.6195  0.6675
 2513SOL    HW118998   0.079   4.433   3.715  0.2198  0.9231  1.1665
 2513SOL    HW218999   0.007   4.492   3.827  0.4749 -0.7506  1.5984
 2514SOL     OW19000   2.589   2.911   6.601  0.4803 -0.3931 -0.1457
 2514SOL    HW119001   2.502   2.885   6.631 -0.3007 -1.0440 -2.9918
 2514SOL    HW219002   2.562   2.976   6.537  1.5490 -1.0900 -1.2994
 2515SOL     OW19003   0.150   4.451   6.115  0.1642 -0.0209 -0.2132
 2515SOL    HW119004   0.106   4.507   6.052 -1.4119 -0.1269  0.7771
 2515SOL    HW219005   0.129   4.496   6.197  0.6140 -0.6426  0.2388
 2516SOL     OW19006   3.893   3.824   8.652  0.1953  0.2357  0.5640
 2516SOL    HW119007   3.950   3.806   8.726 -0.4868  3.3586  1.8417
 2516SOL    HW219008   3.808   3.836   8.695  0.1845  1.0765  0.3064
 2517SOL     OW19009   0.702   2.397   7.249  0.4408 -0.4497 -0.2516
 2517SOL    HW119010   0.629   2.389   7.310  1.0785  2.5828  0.9220
 2517SOL    HW219011   0.762   2.449   7.302 -0.4546 -1.6231  1.8911
 2518SOL     OW19012   2.491   4.418  17.553  0.2347 -0.0914 -0.7089
 2518SOL    HW119013   2.481   4.383  17.641 -0.2677  0.4234 -0.5664
 2518SOL    HW219014   2.578   4.379  17.543  0.6204 -0.0956  2.7641
 2519SOL     OW19015   0.785   2.408   1.374  0.1376  0.0691  0.6442
 2519SOL    HW119016   0.815   2.328   1.418 -1.3655 -0.4844  0.6535
 2519SOL    HW219017   0.812   2.394   1.284  0.7347  0.8099  0.7141
 2520SOL     OW19018   0.519   0.444   1.326 -0.3840  0.1863  0.0859
 2520SOL    HW119019   0.444   0.486   1.283  1.7841  1.0085 -2.9126
 2520SOL    HW219020   0.470   0.366   1.351 -0.3007 -0.8473 -3.0604
 2521SOL     OW19021   1.963   1.231   2.087  0.3520  0.0512 -0.1016
 2521SOL    HW119022   1.957   1.272   2.174  1.2771  0.1450 -0.0779
 2521SOL    HW219023   1.968   1.139   2.113 -0.5300 -0.3056 -1.2204
 2522SOL     OW19024   1.247   4.383  10.255  0.3090  0.2192  0.4825
 2522SOL    HW119025   1.202   4.413  10.176 -0.2160  1.9696  1.4385
 2522SOL    HW219026   1.249   4.288  10.242 -2.2287  0.0325  1.4118
 2523SOL     OW19027   2.221   1.327   4.448  0.2789 -0.7072  0.0666
 2523SOL    HW119028   2.230   1.232   4.439 -0.4069 -0.5521 -2.2441
 2523SOL    HW219029   2.269   1.354   4.370  1.6699  0.9271  1.4967
 2524SOL     OW19030   1.391   0.269   5.658  0.5101  0.6564 -0.2276
 2524SOL    HW119031   1.359   0.333   5.722  0.9404  0.0529  0.6056
 2524SOL    HW219032   1.334   0.199   5.692  2.2593 -0.0485  1.2691
 2525SOL     OW19033   0.584   4.099  15.478 -0.0898 -0.0809 -0.4639
 2525SOL    HW119034   0.657   4.116  15.419 -0.5100 -3.1302 -1.8176
 2525SOL    HW219035   0.567   4.190  15.503  1.2750  0.0367  0.0477
 2526SOL     OW19036   3.737   3.644   2.761 -0.3331  0.2355 -0.3812
 2526SOL    HW119037   3.763   3.598   2.841 -2.1372  0.9616  0.6347
 2526SOL    HW219038   3.817   3.692   2.743  0.2297 -0.4109  0.3555
 2527SOL     OW19039   0.886   1.740   1.015  0.9252 -0.0173 -0.1236
 2527SOL    HW119040   0.854   1.653   0.989  1.6737  0.5221 -2.8921
 2527SOL    HW219041   0.810   1.786   1.052  1.5001 -0.8354  2.0334
 2528SOL     OW19042   3.912   2.863   8.007  0.2177  0.1872  0.1092
 2528SOL    HW119043   3.941   2.947   7.970 -1.5246  0.2860 -1.0105
 2528SOL    HW219044   3.868   2.883   8.089 -0.8140 -1.4201 -0.0674
 2529SOL     OW19045   4.705   4.077  10.238  0.7915  0.0560 -0.1781
 2529SOL    HW119046   0.029   4.037  10.312  1.4403 -0.2152 -0.7256
 2529SOL    HW219047   0.009   4.167  10.260  0.1371 -0.0318  0.9310
 2530SOL     OW19048   4.313   2.248   6.486  0.0378 -0.0579 -0.2662
 2530SOL    HW119049   4.397   2.269   6.528 -0.0318  0.3346 -0.3258
 2530SOL    HW219050   4.262   2.218   6.561 -1.9454  2.4017 -0.6151
 2531SOL     OW19051   0.421   1.196   4.712 -0.1969  0.1333 -0.4353
 2531SOL    HW119052   0.433   1.109   4.676  0.4431  0.1891 -0.3712
 2531SOL    HW219053   0.488   1.255   4.676 -0.0034  0.5675  0.6478
 2532SOL     OW19054   2.149   1.337   3.577 -0.4080  0.2985 -0.0280
 2532SOL    HW119055   2.136   1.428   3.606  0.6552 -0.2461  2.1549
 2532SOL    HW219056   2.225   1.348   3.519  0.8948 -3.2349  1.0305
 2533SOL     OW19057   1.588   2.998   5.837  0.0671 -0.0306  0.2257
 2533SOL    HW119058   1.550   3.063   5.897 -1.5504 -1.0540  0.3019
 2533SOL    HW219059   1.549   3.015   5.751  3.3445  1.3680 -0.9990
 2534SOL     OW19060   2.273   3.207   0.411  0.1793  0.9407 -0.4727
 2534SOL    HW119061   2.179   3.222   0.421  0.1907 -0.0640  1.0366
 2534SOL    HW219062   2.308   3.295   0.398 -1.9830  2.4051  3.5276
 2535SOL     OW19063   1.221   4.602   7.558  0.3532  0.0050  0.0735
 2535SOL    HW119064   1.230   4.517   7.514 -2.7300 -0.2642 -0.0501
 2535SOL    HW219065   1.146   4.647   7.521  0.6595  0.8903  0.5372
 2536SOL     OW19066   4.484   3.770   5.255 -0.2393 -0.1838 -0.1631
 2536SOL    HW119067   4.480   3.775   5.351  2.0131 -1.8262  0.0022
 2536SOL    HW219068   4.436   3.848   5.229  0.4492  1.0111  2.0936
 2537SOL     OW19069   3.022   3.589  14.835  0.5550 -0.7287 -0.3112
 2537SOL    HW119070   3.001   3.645  14.761  2.3586  0.1638 -0.1400
 2537SOL    HW219071   3.113   3.617  14.848  0.9920 -1.8387 -0.9290
 2538SOL     OW19072   3.604   0.267   7.777 -0.4491  0.0331  0.6427
 2538SOL    HW119073   3.582   0.206   7.707  0.8890 -0.2739  0.5029
 2538SOL    HW219074   3.579   0.213   7.852 -1.8868 -0.7370 -0.3785
 2539SOL     OW19075   2.853   3.991   2.339  0.0666 -0.7715  0.4059
 2539SOL    HW119076   2.879   3.902   2.363  1.0076 -1.0778 -1.7500
 2539SOL    HW219077   2.759   3.980   2.355 -0.1516  1.4074  0.6679
 2540SOL     OW19078   1.186   2.874   2.503 -0.3125  0.0568  0.4083
 2540SOL    HW119079   1.129   2.948   2.483 -0.7927 -0.1251  1.0823
 2540SOL    HW219080   1.187   2.820   2.424 -3.2916 -0.2387  0.5730
 2541SOL     OW19081   2.837   4.374   5.909 -0.0519 -0.6186  0.1254
 2541SOL    HW119082   2.832   4.289   5.953 -4.9221 -0.4833 -0.1706
 2541SOL    HW219083   2.928   4.370   5.878  1.0355 -1.2075  3.3857
 2542SOL     OW19084   1.082   2.387   2.658  0.2947 -0.4093  0.3923
 2542SOL    HW119085   1.052   2.427   2.576 -2.7441 -0.7585  1.3445
 2542SOL    HW219086   1.173   2.383   2.628  0.8475  0.9875  1.8940
 2543SOL     OW19087   1.194   3.966  11.421 -0.2447 -0.5097 -0.3873
 2543SOL    HW119088   1.226   4.025  11.490  0.9351  0.2809 -1.6105
 2543SOL    HW219089   1.154   4.039  11.374 -1.4021 -0.5395  0.5410
 2544SOL     OW19090   2.061   0.104   3.823  0.1561 -0.3510 -0.1106
 2544SOL    HW119091   2.018   0.069   3.745  0.7645  1.3675 -1.2202
 2544SOL    HW219092   1.988   0.091   3.884 -0.8745 -0.3320 -1.3490
 2545SOL     OW19093   2.255   3.981   9.756 -0.0375  0.8969  0.4692
 2545SOL    HW119094   2.263   4.052   9.819 -0.9275  1.0251  0.4431
 2545SOL    HW219095   2.166   3.945   9.765 -0.1987  1.0934 -0.3339
 2546SOL     OW19096   3.515   3.997  11.447 -0.5162  0.1342 -0.7276
 2546SOL    HW119097   3.571   4.001  11.370 -1.9137  3.3464 -1.5802
 2546SOL    HW219098   3.527   3.906  11.472 -0.8403  0.3475  0.2035
 2547SOL     OW19099   4.180   2.544   4.360 -0.6725  0.1725  0.1384
 2547SOL    HW119100   4.266   2.582   4.376 -1.1435  0.8560  1.0855
 2547SOL    HW219101   4.140   2.612   4.307  0.1283 -0.8263 -1.7681
 2548SOL     OW19102   3.208   1.575  16.148  0.8830  1.0089  0.1936
 2548SOL    HW119103   3.148   1.536  16.212  1.5823  0.7653  0.6988
 2548SOL    HW219104   3.200   1.515  16.074  1.0316  0.9065  0.2605
 2549SOL     OW19105   4.024   4.458  10.365  0.3211  0.0062  0.2410
 2549SOL    HW119106   4.077   4.532  10.333  1.3465 -0.9599 -0.3070
 2549SOL    HW219107   4.039   4.398  10.292 -1.4294  0.0752 -0.1725
 2550SOL     OW19108   4.528   1.484   0.660 -0.0823  0.4861 -0.1528
 2550SOL    HW119109   4.457   1.540   0.693  0.2524 -1.0679  3.1867
 2550SOL    HW219110   4.505   1.397   0.692 -1.4237  0.3923 -1.3513
 2551SOL     OW19111   1.334   3.719   6.949 -0.1125  0.0132 -0.2153
 2551SOL    HW119112   1.425   3.746   6.954 -0.2079  0.1978  0.6441
 2551SOL    HW219113   1.329   3.683   6.861 -1.5571  0.6731 -0.3961
 2552SOL     OW19114   1.674   3.485   6.242 -0.5917  0.0573  0.2277
 2552SOL    HW119115   1.579   3.481   6.241 -0.5911  0.2342 -1.1963
 2552SOL    HW219116   1.693   3.537   6.164 -1.9855 -0.0365 -0.1677
 2553SOL     OW19117   0.766   1.757   9.514  0.5568  0.1039  0.5742
 2553SOL    HW119118   0.835   1.819   9.539  1.0289 -0.0142 -0.4741
 2553SOL    HW219119   0.805   1.670   9.509  0.2237  0.0063 -0.2739
 2554SOL     OW19120   3.933   3.934   7.604  0.2954 -0.2885  0.5325
 2554SOL    HW119121   3.980   3.988   7.667  1.8937  1.3047 -2.0497
 2554SOL    HW219122   4.000   3.920   7.538  0.5706 -1.4949  1.0708
 2555SOL     OW19123   2.513   3.090   9.365  0.4102 -0.3268 -0.7820
 2555SOL    HW119124   2.492   3.111   9.274 -0.8863 -0.7274 -0.5667
 2555SOL    HW219125   2.530   3.180   9.394 -0.2158 -0.2517 -0.6502
 2556SOL     OW19126   2.814   1.091   4.571 -0.4261  0.3627 -0.1216
 2556SOL    HW119127   2.873   1.029   4.529 -0.1248 -2.0609  3.8177
 2556SOL    HW219128   2.839   1.080   4.663 -0.7501 -1.9733 -0.3203
 2557SOL     OW19129   4.643   2.997  15.964  0.2960 -0.4329  0.3302
 2557SOL    HW119130   4.570   3.017  16.022 -0.1161  1.1494 -0.7415
 2557SOL    HW219131   4.689   3.081  15.968 -1.0115  0.2666  0.5767
 2558SOL     OW19132   0.637   2.826   4.404  0.2143 -0.0743  0.8606
 2558SOL    HW119133   0.660   2.744   4.449 -2.8900 -0.2522  2.1262
 2558SOL    HW219134   0.554   2.795   4.367  1.1828  0.7064 -1.9576
 2559SOL     OW19135   1.699   3.735   7.732  0.7382  0.1326 -0.7014
 2559SOL    HW119136   1.652   3.793   7.791  2.6455 -1.1266  2.0363
 2559SOL    HW219137   1.641   3.659   7.735 -0.1798  0.7798 -2.0097
 2560SOL     OW19138   4.340   4.580   6.543  0.2449  0.5995  0.2453
 2560SOL    HW119139   4.283   4.532   6.482  1.0809 -0.9525  0.6797
 2560SOL    HW219140   4.350   4.664   6.499  0.9965  1.3320  1.8061
 2561SOL     OW19141   1.811   0.496   4.435 -0.5451  0.2925 -0.1521
 2561SOL    HW119142   1.843   0.415   4.394 -0.7625 -0.4466  1.1203
 2561SOL    HW219143   1.795   0.474   4.527 -0.1137 -1.2858 -0.4462
 2562SOL     OW19144   4.457   3.809   8.902  0.4217 -0.7830  0.3471
 2562SOL    HW119145   4.533   3.753   8.893  1.8341  1.0980  0.4961
 2562SOL    HW219146   4.405   3.770   8.972 -2.2522  1.1116 -0.5813
 2563SOL     OW19147   0.431   1.636  14.470 -0.2745 -0.0184 -0.3503
 2563SOL    HW119148   0.360   1.621  14.408 -0.7656  1.1042 -0.0612
 2563SOL    HW219149   0.396   1.704  14.528 -0.6876 -1.1682  0.7719
 2564SOL     OW19150   4.144   2.618   6.136  0.0488  0.4592 -0.1641
 2564SOL    HW119151   4.199   2.696   6.133  1.8354 -0.8056 -0.1420
 2564SOL    HW219152   4.187   2.582   6.214 -0.9718  1.0303  0.6646
 2565SOL     OW19153   0.318   0.348   6.226 -0.6151  0.4114 -0.4004
 2565SOL    HW119154   0.412   0.361   6.237 -0.2900 -1.8436 -0.5627
 2565SOL    HW219155   0.302   0.378   6.137  1.2375  0.1063 -0.8133
 2566SOL     OW19156   2.647   4.313   3.984  0.0102  0.1586  0.8771
 2566SOL    HW119157   2.559   4.285   3.960  1.7876 -1.1463 -4.1947
 2566SOL    HW219158   2.711   4.267   3.930 -0.9992  0.1060 -0.2590
 2567SOL     OW19159   0.035   0.679   4.612 -0.1508  0.5622 -0.5486
 2567SOL    HW119160   0.123   0.654   4.583 -1.0878 -2.1231 -1.1102
 2567SOL    HW219161   0.025   0.763   4.568 -3.4905 -0.8478 -2.4602
 2568SOL     OW19162   3.553   3.511   1.594  0.4421 -0.0457 -0.2953
 2568SOL    HW119163   3.461   3.493   1.617  0.8069 -1.7099 -0.1055
 2568SOL    HW219164   3.551   3.467   1.508 -1.1379  2.1589 -1.3900
 2569SOL     OW19165   4.590   2.186   7.809  0.2820 -0.2862  0.0485
 2569SOL    HW119166   4.541   2.240   7.871  2.2029  1.5765 -0.0630
 2569SOL    HW219167   4.623   2.114   7.863 -2.5662 -2.3096 -0.8686
 2570SOL     OW19168   0.877   0.176  14.671 -0.0079  0.0406 -0.5926
 2570SOL    HW119169   0.941   0.107  14.653 -1.2907 -1.2391 -0.2761
 2570SOL    HW219170   0.925   0.254  14.645 -0.2709  1.0595  1.9607
 2571SOL     OW19171   3.895   1.368   1.946  0.0237 -0.2041 -0.1152
 2571SOL    HW119172   3.847   1.437   1.992  3.1812  0.1150  2.6786
 2571SOL    HW219173   3.823   1.342   1.888 -0.5350  0.2853  0.3690
 2572SOL     OW19174   4.488   0.950   9.551 -0.0358  0.3477  0.2759
 2572SOL    HW119175   4.428   1.025   9.557 -0.8545 -0.2458 -0.5020
 2572SOL    HW219176   4.447   0.895   9.617 -2.2780  0.0574 -1.3561
 2573SOL     OW19177   3.372   3.674   3.786  1.1200 -0.1912  0.1620
 2573SOL    HW119178   3.393   3.759   3.749  3.2736  0.0254  1.9016
 2573SOL    HW219179   3.352   3.706   3.874 -2.1050 -0.2681 -0.5376
 2574SOL     OW19180   1.627   1.096  16.974 -0.3902 -0.8588 -0.1238
 2574SOL    HW119181   1.638   1.100  17.069 -1.2263 -0.2670 -0.0480
 2574SOL    HW219182   1.540   1.125  16.949 -0.2407 -0.4281 -0.1441
 2575SOL     OW19183   2.649   1.470  14.417 -0.1358  0.3809  0.0974
 2575SOL    HW119184   2.615   1.480  14.506 -0.6349 -1.3075  0.1123
 2575SOL    HW219185   2.577   1.422  14.377 -0.3717 -0.3118  1.3486
 2576SOL     OW19186   0.105   2.407  10.896 -1.4921 -0.3927 -0.0331
 2576SOL    HW119187   0.128   2.361  10.976  0.7284  1.5266  0.4280
 2576SOL    HW219188   0.177   2.469  10.889  0.1056 -2.3991 -1.8351
 2577SOL     OW19189   1.561   1.432   5.204 -0.7372 -0.1993  0.5908
 2577SOL    HW119190   1.602   1.463   5.123 -1.0456 -1.0694  0.0984
 2577SOL    HW219191   1.591   1.488   5.275  0.8419  1.6070 -1.4937
 2578SOL     OW19192   1.482   0.280  15.848 -0.0519  0.8956  1.0288
 2578SOL    HW119193   1.528   0.360  15.876  0.3227  1.0017  0.0927
 2578SOL    HW219194   1.440   0.314  15.769  0.2078 -0.0793  0.4694
 2579SOL     OW19195   0.994   1.822   6.470  0.0501  0.1901 -0.2273
 2579SOL    HW119196   1.069   1.866   6.511 -2.4034  0.7759  3.6694
 2579SOL    HW219197   1.024   1.781   6.389 -0.4507  0.9427 -0.7895
 2580SOL     OW19198   4.478   0.685   4.540 -0.3583 -0.5087  0.7907
 2580SOL    HW119199   4.535   0.757   4.568 -1.0430  0.8074 -1.2265
 2580SOL    HW219200   4.536   0.611   4.522 -1.0874 -1.0751  0.7387
 2581SOL     OW19201   1.833   0.437   3.357 -0.8800  0.3254  0.5309
 2581SOL    HW119202   1.812   0.357   3.310 -1.0635  0.8501 -0.2954
 2581SOL    HW219203   1.766   0.500   3.329  1.0758  1.2962 -2.0344
 2582SOL     OW19204   2.974   0.397   1.983 -0.3331 -0.3981  0.6897
 2582SOL    HW119205   3.053   0.356   2.018 -0.5319 -2.0674 -0.7793
 2582SOL    HW219206   2.996   0.371   1.893 -0.9716 -2.0573  1.0198
 2583SOL     OW19207   2.081   2.467   7.311  0.3811 -0.6931 -0.7247
 2583SOL    HW119208   1.995   2.496   7.281 -0.8974 -0.9176  2.7000
 2583SOL    HW219209   2.057   2.388   7.360 -0.7945  0.7848  1.1053
 2584SOL     OW19210   3.876   0.364  12.533  0.3783 -0.6040  0.0228
 2584SOL    HW119211   3.848   0.285  12.579  1.9219  0.2231  2.4297
 2584SOL    HW219212   3.794   0.411  12.522 -0.0295 -1.2318  0.4235
 2585SOL     OW19213   2.932   3.539   7.307  0.2376 -0.3822  0.0358
 2585SOL    HW119214   2.993   3.511   7.375 -1.6482 -0.3437  1.7615
 2585SOL    HW219215   2.909   3.451   7.277  0.1606 -0.5188  0.4928
 2586SOL     OW19216   0.687   0.755   4.511  0.2687 -0.1575  0.2099
 2586SOL    HW119217   0.763   0.744   4.454 -0.0346 -0.5791 -0.1059
 2586SOL    HW219218   0.675   0.661   4.525  1.8392 -0.1325  1.7409
 2587SOL     OW19219   2.219   2.637   7.039 -0.6822 -0.0753 -0.0314
 2587SOL    HW119220   2.150   2.700   7.017 -1.0049 -0.7510 -0.9481
 2587SOL    HW219221   2.300   2.688   7.036 -2.0984  2.0470 -1.6238
 2588SOL     OW19222   4.556   3.157   1.384  0.2998 -0.1603 -0.0320
 2588SOL    HW119223   4.644   3.186   1.359 -0.0297 -0.6103 -1.6850
 2588SOL    HW219224   4.575   3.150   1.478  1.0992 -0.6564 -0.2295
 2589SOL     OW19225   3.859   1.173   7.595 -0.5738  0.0133 -0.1961
 2589SOL    HW119226   3.876   1.232   7.669 -1.2654 -0.6882  0.5261
 2589SOL    HW219227   3.835   1.243   7.533  1.4345  1.4600  0.6430
 2590SOL     OW19228   3.752   0.351   7.571 -0.4681 -0.5262  0.1662
 2590SOL    HW119229   3.785   0.278   7.518 -0.2356 -0.1483 -0.2127
 2590SOL    HW219230   3.697   0.313   7.640 -0.8385 -0.6073 -0.1700
 2591SOL     OW19231   2.053   0.646  10.279 -0.5119  0.5521  0.4884
 2591SOL    HW119232   2.036   0.664  10.372 -1.5309 -0.6404  0.5352
 2591SOL    HW219233   2.056   0.735  10.244 -0.9143  0.7670  0.9901
 2592SOL     OW19234   1.673   2.866   2.175 -0.2150 -0.0695  0.3141
 2592SOL    HW119235   1.581   2.842   2.164 -0.9164  3.1480 -0.7885
 2592SOL    HW219236   1.675   2.957   2.146 -1.5134 -0.4934 -1.0666
 2593SOL     OW19237   0.843   2.894   5.909  0.1191 -0.0784  0.3717
 2593SOL    HW119238   0.937   2.896   5.891 -0.0617 -1.2998 -0.6828
 2593SOL    HW219239   0.846   2.941   5.992  0.5553  1.5059 -0.5451
 2594SOL     OW19240   0.299   3.329  12.912  0.5353  0.1124  0.1265
 2594SOL    HW119241   0.254   3.381  12.845  0.6968 -0.2965 -0.2992
 2594SOL    HW219242   0.295   3.393  12.982 -0.3948  2.4227 -2.0280
 2595SOL     OW19243   3.887   1.096   2.858 -0.4516  0.1572  0.0305
 2595SOL    HW119244   3.936   1.140   2.788  0.8463 -0.6752  0.4243
 2595SOL    HW219245   3.900   1.003   2.843  1.4284  0.5669 -0.8992
 2596SOL     OW19246   3.071   1.074   4.276  0.0851  0.1154  0.4899
 2596SOL    HW119247   3.115   1.131   4.340  0.9951  0.9481 -0.8549
 2596SOL    HW219248   3.119   0.993   4.293  1.5379  0.6735 -0.8489
 2597SOL     OW19249   1.084   3.440  15.546 -0.3913 -0.4925 -0.0024
 2597SOL    HW119250   1.062   3.411  15.458  0.3024  0.6102 -0.5443
 2597SOL    HW219251   1.030   3.518  15.556  1.1561  0.5248  0.4871
 2598SOL     OW19252   2.575   4.086   4.252 -0.7773 -0.5515  0.0683
 2598SOL    HW119253   2.529   4.166   4.277 -0.1968 -0.3567  0.5246
 2598SOL    HW219254   2.501   4.030   4.230 -0.5836 -0.3054 -1.2050
 2599SOL     OW19255   3.320   1.324   7.633 -0.0033 -0.3745  0.2866
 2599SOL    HW119256   3.327   1.358   7.543 -1.4046 -0.0835  0.2769
 2599SOL    HW219257   3.367   1.240   7.636  0.5079 -0.0857  0.3164
 2600SOL     OW19258   2.221   0.260   4.053  0.8393 -0.2266 -0.0692
 2600SOL    HW119259   2.283   0.203   4.008  0.3641 -0.2348 -0.7135
 2600SOL    HW219260   2.225   0.333   3.990  0.0433 -0.6591 -0.6184
 2601SOL     OW19261   4.018   0.631  16.355 -0.8737  0.4242 -0.0920
 2601SOL    HW119262   3.984   0.601  16.440 -1.2076  1.9595  0.3165
 2601SOL    HW219263   3.946   0.591  16.307 -0.0093 -0.0854 -0.9444
 2602SOL     OW19264   2.309   0.298  12.758 -0.2517  0.0049  0.2881
 2602SOL    HW119265   2.269   0.220  12.721 -0.5209 -0.0938  0.7945
 2602SOL    HW219266   2.292   0.365  12.691  1.9717 -0.3922 -0.6760
 2603SOL     OW19267   2.216   3.697   4.720 -0.4273  0.0203  0.5367
 2603SOL    HW119268   2.288   3.667   4.774  1.1608  1.7172 -0.6238
 2603SOL    HW219269   2.146   3.643   4.757 -2.0591  1.0252 -1.0124
 2604SOL     OW19270   3.018   0.635   7.633  0.0470  0.2746  0.2250
 2604SOL    HW119271   3.046   0.545   7.649  1.1600  0.5146 -0.3728
 2604SOL    HW219272   3.033   0.651   7.540 -0.0946  0.1523  0.1820
 2605SOL     OW19273   3.744   2.224  10.506  0.0440 -0.3523 -0.4782
 2605SOL    HW119274   3.674   2.274  10.464  0.9658  0.7551 -0.7067
 2605SOL    HW219275   3.754   2.267  10.592  0.5663 -0.8820 -0.2690
 2606SOL     OW19276   2.918   0.854  15.417  0.0680  0.5800 -0.1781
 2606SOL    HW119277   2.924   0.760  15.431 -2.5274  0.2617 -1.1892
 2606SOL    HW219278   2.994   0.860  15.360  0.1300 -1.0417 -0.2513
 2607SOL     OW19279   4.294   0.748   3.429  0.1195  0.4396 -0.3230
 2607SOL    HW119280   4.272   0.782   3.516  0.7910 -2.5273  1.0224
 2607SOL    HW219281   4.208   0.718   3.399  0.4611 -0.2742 -0.5996
 2608SOL     OW19282   3.247   0.847   4.034 -0.1303 -0.0381  0.2496
 2608SOL    HW119283   3.254   0.806   3.948  0.7437  0.1322  0.2385
 2608SOL    HW219284   3.254   0.940   4.012  2.2954  0.2588  2.3049
 2609SOL     OW19285   0.913   2.381  17.085 -0.4438 -0.3472  0.8125
 2609SOL    HW119286   0.926   2.427  17.002  1.1014 -2.3065 -0.0499
 2609SOL    HW219287   0.996   2.410  17.124 -1.5793  1.7012  1.7159
 2610SOL     OW19288   4.630   4.264   9.173 -0.3745 -0.5321 -0.0508
 2610SOL    HW119289   4.661   4.188   9.124 -0.7608 -0.5538 -0.2588
 2610SOL    HW219290   4.543   4.238   9.206 -0.9722  0.8402 -0.5546
 2611SOL     OW19291   1.628   3.509   3.447  1.3717  0.5997  0.0053
 2611SOL    HW119292   1.634   3.472   3.359 -1.3232 -0.3845  0.2256
 2611SOL    HW219293   1.700   3.461   3.486  0.2764 -0.8084  0.3016
 2612SOL     OW19294   1.558   3.670  10.829  0.6336 -0.3174  0.1787
 2612SOL    HW119295   1.499   3.709  10.764  0.1887  0.2070  0.8865
 2612SOL    HW219296   1.515   3.590  10.858 -0.3126 -0.1398 -0.7436
 2613SOL     OW19297   3.040   4.282   8.366 -0.3834 -0.4662 -0.2425
 2613SOL    HW119298   3.126   4.262   8.329 -1.1520 -1.3385 -1.5680
 2613SOL    HW219299   3.040   4.249   8.456  0.8306  3.3095  1.1441
 2614SOL     OW19300   4.635   4.274  10.872 -0.4734 -0.0784 -0.4200
 2614SOL    HW119301   4.597   4.271  10.959 -1.6142 -0.1272 -0.9164
 2614SOL    HW219302   4.672   4.362  10.878 -3.2311  1.2676 -2.9090
 2615SOL     OW19303   1.662   0.463   2.570  0.6114  0.1068 -0.1814
 2615SOL    HW119304   1.577   0.460   2.525  1.0251  1.9059 -1.0911
 2615SOL    HW219305   1.652   0.397   2.638 -0.8921 -0.4852 -0.9664
 2616SOL     OW19306   1.354   2.774   3.834  0.6478  0.0228  0.4424
 2616SOL    HW119307   1.287   2.833   3.800  1.3954  1.3577  1.3081
 2616SOL    HW219308   1.429   2.828   3.808  0.3441  0.9018  1.4364
 2617SOL     OW19309   3.118   0.852   6.364 -0.2108 -0.1668  0.2894
 2617SOL    HW119310   3.180   0.881   6.431  0.6069 -1.2276 -0.0223
 2617SOL    HW219311   3.116   0.762   6.398  1.4531 -0.2303  0.1931
 2618SOL     OW19312   0.135   4.576   7.746 -0.4717 -0.7723  0.1850
 2618SOL    HW119313   0.081   4.514   7.697 -1.0095 -2.0795  2.4619
 2618SOL    HW219314   0.083   4.582   7.826 -0.3759 -0.5972  0.2331
 2619SOL     OW19315   3.955   4.681   5.887 -0.3309 -0.3400 -0.9885
 2619SOL    HW119316   4.043   4.662   5.856  0.2603  0.6768  0.1163
 2619SOL    HW219317   3.900   4.687   5.808 -1.3493  0.9386 -0.1768
 2620SOL     OW19318   3.927   4.036   7.058  0.4558  0.2050 -0.7021
 2620SOL    HW119319   3.857   4.070   7.114  0.9321  2.3345 -1.3870
 2620SOL    HW219320   4.005   4.071   7.102  0.6760  1.2483 -1.9344
 2621SOL     OW19321   1.186   2.049   4.037  0.4472 -0.5009  0.0536
 2621SOL    HW119322   1.166   2.142   4.052  1.8384 -0.1616 -0.2554
 2621SOL    HW219323   1.256   2.035   4.100  2.6731  2.6571 -1.7151
 2622SOL     OW19324   3.817   4.383  10.509  0.6760 -0.5784  0.0918
 2622SOL    HW119325   3.782   4.470  10.527  2.1071 -0.1607  0.8645
 2622SOL    HW219326   3.890   4.407  10.452 -0.9111  3.0095 -0.4329
 2623SOL     OW19327   1.499   3.533   4.928 -0.1927 -0.4307 -0.1965
 2623SOL    HW119328   1.442   3.490   4.864 -0.2210  0.3358 -0.6975
 2623SOL    HW219329   1.584   3.512   4.890 -0.4807 -2.8971  0.5412
 2624SOL     OW19330   0.713   2.308   2.213 -0.0851 -0.0555 -0.8844
 2624SOL    HW119331   0.700   2.263   2.296  0.5469  1.2587 -0.0585
 2624SOL    HW219332   0.627   2.295   2.172  0.0603 -2.1596 -0.4832
 2625SOL     OW19333   2.668   2.508   4.171 -0.4756  0.1861  0.0923
 2625SOL    HW119334   2.629   2.505   4.259  0.6255 -0.0596  0.5649
 2625SOL    HW219335   2.759   2.491   4.194  0.1980  1.5766 -1.5409
 2626SOL     OW19336   0.325   3.191   6.735  0.0610 -0.3773 -0.0734
 2626SOL    HW119337   0.299   3.145   6.815 -0.6727  1.1599  0.5739
 2626SOL    HW219338   0.418   3.212   6.744  0.0443 -0.7353  0.9918
 2627SOL     OW19339   2.031   0.537   2.166  0.0219 -0.3367 -0.6286
 2627SOL    HW119340   2.016   0.563   2.257  0.0352 -1.4344 -0.3022
 2627SOL    HW219341   2.113   0.582   2.147  0.2762  0.4469  2.2414
 2628SOL     OW19342   1.008   1.683   3.632 -0.0492 -0.0048 -0.0740
 2628SOL    HW119343   1.034   1.600   3.592  1.3704 -0.0901  1.0446
 2628SOL    HW219344   0.941   1.702   3.566  0.9194  0.3781 -0.9476
 2629SOL     OW19345   2.970   2.484   4.538  0.6550 -0.1333  0.1448
 2629SOL    HW119346   3.004   2.569   4.510  0.6886 -0.1269  0.2052
 2629SOL    HW219347   2.964   2.433   4.458  1.6976 -0.7976  0.4874
 2630SOL     OW19348   0.505   1.315  13.053  0.0064  0.2398 -0.4206
 2630SOL    HW119349   0.584   1.281  13.011  0.0588 -0.6434  0.4026
 2630SOL    HW219350   0.538   1.308  13.143 -1.4186  3.9560  0.4108
 2631SOL     OW19351   0.384   4.310  17.127  0.2429  0.4386 -0.3540
 2631SOL    HW119352   0.336   4.228  17.140  0.5299  0.4926  1.0794
 2631SOL    HW219353   0.348   4.375  17.187  0.8485  1.3294 -0.9513
 2632SOL     OW19354   0.243   0.137   4.244  0.1632 -0.1002 -0.5671
 2632SOL    HW119355   0.282   0.127   4.331 -1.6676 -1.0089  0.1304
 2632SOL    HW219356   0.205   0.225   4.239 -1.5887 -0.8376 -0.0351
 2633SOL     OW19357   4.337   4.223   2.382  0.7031 -0.1632 -0.4640
 2633SOL    HW119358   4.362   4.204   2.291 -0.3714  1.7612 -1.1790
 2633SOL    HW219359   4.388   4.162   2.434  0.2257  0.6919  0.9885
 2634SOL     OW19360   0.425   2.547   6.947  0.2719 -0.0865  0.3491
 2634SOL    HW119361   0.366   2.622   6.956 -0.6737 -0.8652  0.5833
 2634SOL    HW219362   0.387   2.502   6.872  1.7452 -3.3554  1.5538
 2635SOL     OW19363   0.017   1.652   0.660  0.7588 -0.3570  0.3427
 2635SOL    HW119364   4.677   1.586   0.627  1.1303 -0.2645 -0.5532
 2635SOL    HW219365   4.685   1.690   0.730  1.6274  2.4436 -0.5283
 2636SOL     OW19366   3.607   4.226  15.472  0.0516  0.5636 -0.1155
 2636SOL    HW119367   3.702   4.227  15.484  0.1098 -1.3835 -0.3966
 2636SOL    HW219368   3.579   4.135  15.480 -0.0031  0.5284 -0.6578
 2637SOL     OW19369   3.135   3.449   8.760  0.1236 -0.3948  0.1368
 2637SOL    HW119370   3.081   3.432   8.683  0.4181  2.8480 -0.7786
 2637SOL    HW219371   3.169   3.538   8.752  0.9088 -0.9413 -2.6251
 2638SOL     OW19372   4.456   2.052   1.900  0.0650  0.4968 -0.8284
 2638SOL    HW119373   4.512   2.038   1.976  0.1925 -1.6803 -1.3225
 2638SOL    HW219374   4.459   1.968   1.854  0.6177  0.3962 -0.6031
 2639SOL     OW19375   2.706   0.734  16.293  0.3468 -1.0475 -0.2842
 2639SOL    HW119376   2.734   0.760  16.381 -0.5536 -2.6858  0.4878
 2639SOL    HW219377   2.620   0.695  16.305 -0.0403 -0.3907 -0.9050
 2640SOL     OW19378   1.295   1.930   3.281 -0.2235  0.0571 -0.2851
 2640SOL    HW119379   1.276   1.989   3.353  0.7958 -2.4132  2.0252
 2640SOL    HW219380   1.215   1.877   3.279  0.1182 -0.4534 -0.4129
 2641SOL     OW19381   4.339   1.901  15.656 -0.2015 -0.4103 -0.3765
 2641SOL    HW119382   4.314   1.880  15.746 -0.3250  0.5072 -0.1948
 2641SOL    HW219383   4.334   1.818  15.608 -0.8606 -0.4411 -0.2496
 2642SOL     OW19384   4.160   2.604  14.542  0.4013 -0.0839 -0.1512
 2642SOL    HW119385   4.122   2.561  14.465  0.1387  1.9531 -1.1377
 2642SOL    HW219386   4.210   2.670  14.495  0.7608  0.6852  1.3033
 2643SOL     OW19387   1.175   3.233   5.104 -0.2728  0.1189 -0.7881
 2643SOL    HW119388   1.110   3.164   5.108  0.0024 -0.1661 -1.2574
 2643SOL    HW219389   1.255   3.181   5.094  0.1469  0.9529 -1.7944
 2644SOL     OW19390   3.440   2.456   7.544  0.6408  0.3818  0.1555
 2644SOL    HW119391   3.499   2.385   7.569 -0.5307 -0.8334 -0.5016
 2644SOL    HW219392   3.438   2.512   7.621 -1.1366 -1.5749  1.5380
 2645SOL     OW19393   1.491   4.326   5.563 -0.2858  0.7307  0.1981
 2645SOL    HW119394   1.569   4.380   5.551  0.4267 -0.5045 -0.7421
 2645SOL    HW219395   1.459   4.359   5.647 -0.2903  0.2006  0.4023
 2646SOL     OW19396   0.509   3.621  11.066 -0.4289  0.2212  0.3648
 2646SOL    HW119397   0.452   3.596  10.994 -0.9172 -0.3277  0.9401
 2646SOL    HW219398   0.504   3.540  11.117  0.6357  0.6898  1.2062
 2647SOL     OW19399   4.404   2.015  11.445 -0.2405  0.4897 -0.2884
 2647SOL    HW119400   4.382   2.094  11.395 -0.5062  0.9425  0.5565
 2647SOL    HW219401   4.468   1.977  11.384 -0.0277 -0.4846  0.5472
 2648SOL     OW19402   1.489   1.367   8.054  0.2080  0.0325  0.1252
 2648SOL    HW119403   1.439   1.287   8.066  2.0590 -1.5711 -2.9022
 2648SOL    HW219404   1.563   1.336   8.002 -1.0290  1.8432 -2.6800
 2649SOL     OW19405   4.472   1.913   8.173 -0.0246  0.2590 -0.2714
 2649SOL    HW119406   4.487   1.823   8.202  1.9981  0.5890 -0.3196
 2649SOL    HW219407   4.393   1.938   8.221 -0.4930 -0.5484 -0.6271
 2650SOL     OW19408   0.213   4.581   3.294 -0.4104 -0.2258 -0.6256
 2650SOL    HW119409   0.167   4.516   3.241 -0.1363 -1.3302  0.4913
 2650SOL    HW219410   0.300   4.571   3.256 -0.6812 -2.1398 -0.7516
 2651SOL     OW19411   0.207   0.554   8.553  0.2297 -0.6211  0.6351
 2651SOL    HW119412   0.267   0.611   8.601  1.1963 -0.2289 -1.0396
 2651SOL    HW219413   0.269   0.539   8.482 -1.9244  1.8696 -1.7518
 2652SOL     OW19414   0.415   0.848   5.493  0.5774  0.7064  0.3288
 2652SOL    HW119415   0.429   0.821   5.584  0.6452  1.0920  0.4312
 2652SOL    HW219416   0.362   0.774   5.464  3.2828 -1.0215 -0.2492
 2653SOL     OW19417   3.512   2.993   3.680 -0.2626 -0.2587 -0.0654
 2653SOL    HW119418   3.460   2.914   3.698 -1.1532  0.6287  1.2614
 2653SOL    HW219419   3.568   2.961   3.609  1.3552  0.1950  1.0302
 2654SOL     OW19420   4.293   3.541   8.324  0.4669 -0.0233  0.1232
 2654SOL    HW119421   4.257   3.548   8.236  0.1217  0.5099  0.3052
 2654SOL    HW219422   4.351   3.616   8.332  0.7079 -0.2608  0.6291
 2655SOL     OW19423   0.883   3.356   4.336 -0.2535  0.6683 -0.1743
 2655SOL    HW119424   0.895   3.417   4.263 -0.2288  0.6661 -0.1720
 2655SOL    HW219425   0.967   3.311   4.339 -0.1429  0.9007  0.1732
 2656SOL     OW19426   3.976   2.259   3.877 -0.0815  0.3468 -0.4435
 2656SOL    HW119427   3.954   2.203   3.803 -1.8702 -0.3945  0.6539
 2656SOL    HW219428   4.021   2.322   3.821 -2.9428  2.0800 -0.7735
 2657SOL     OW19429   1.478   2.677   9.546 -0.5208  0.1015 -0.7654
 2657SOL    HW119430   1.403   2.707   9.597  1.2175  1.6235  0.8995
 2657SOL    HW219431   1.508   2.760   9.508  0.0033  0.5935  0.7124
 2658SOL     OW19432   0.363   1.046   4.096  0.4408 -0.2770  0.4841
 2658SOL    HW119433   0.282   0.999   4.116 -1.1198  1.6621 -1.4076
 2658SOL    HW219434   0.425   0.995   4.148  0.2819 -0.9235  0.0406
 2659SOL     OW19435   3.008   0.133  14.520 -0.3538  0.0505 -0.3872
 2659SOL    HW119436   2.941   0.200  14.508 -0.6052 -0.1621 -0.1912
 2659SOL    HW219437   3.052   0.129  14.435 -0.0577 -1.7492 -0.1430
 2660SOL     OW19438   1.687   2.959  12.014 -0.2719 -0.2138 -0.6721
 2660SOL    HW119439   1.682   2.924  12.103  0.1364 -0.0553 -0.5859
 2660SOL    HW219440   1.596   2.969  11.985  0.5968 -1.6939 -3.9650
 2661SOL     OW19441   4.035   0.361   4.983 -0.5388 -0.1760 -0.3989
 2661SOL    HW119442   4.054   0.455   4.976 -3.0306  0.3628 -0.0263
 2661SOL    HW219443   3.955   0.356   4.932 -0.0149  2.8599 -1.5364
 2662SOL     OW19444   2.671   1.735   6.169  0.4798  0.0480  0.1708
 2662SOL    HW119445   2.680   1.681   6.091  0.1927  0.1837  0.0470
 2662SOL    HW219446   2.763   1.764   6.173  0.8307 -1.1746  0.9821
 2663SOL     OW19447   2.025   2.851  17.130  0.6068 -0.0766  0.6215
 2663SOL    HW119448   2.031   2.873  17.223  1.0922  0.3064  0.5006
 2663SOL    HW219449   2.066   2.765  17.138  1.0242  0.1285  0.7034
 2664SOL     OW19450   0.710   3.979   8.109 -0.3635 -0.2124  0.0197
 2664SOL    HW119451   0.665   3.948   8.030 -0.8069  1.5081 -0.4093
 2664SOL    HW219452   0.673   4.067   8.115 -3.1779 -1.4080 -0.0190
 2665SOL     OW19453   1.477   3.068  12.891  0.1737 -0.1194  0.3137
 2665SOL    HW119454   1.398   3.026  12.857  0.8684 -1.6548  0.5585
 2665SOL    HW219455   1.492   3.149  12.843 -2.0033  1.2339  1.9222
 2666SOL     OW19456   2.301   3.315   3.795  0.5039  0.3100  0.0038
 2666SOL    HW119457   2.344   3.230   3.802  2.3711  1.2473 -0.1603
 2666SOL    HW219458   2.234   3.284   3.734  1.6723 -0.2313 -0.9956
 2667SOL     OW19459   3.491   0.679   3.067 -0.4386 -0.2618  0.1828
 2667SOL    HW119460   3.485   0.731   3.147  0.0007 -2.3166  1.5443
 2667SOL    HW219461   3.532   0.739   3.004 -0.6824  0.3871  0.6487
 2668SOL     OW19462   0.288   0.060   2.831  0.1840 -0.9259  0.1914
 2668SOL    HW119463   0.250   0.019   2.753 -0.2169 -0.2534  0.0369
 2668SOL    HW219464   0.215   0.047   2.892  0.3058 -0.5727  0.4148
 2669SOL     OW19465   2.271   1.032   9.752 -0.4829  0.0460 -0.0479
 2669SOL    HW119466   2.261   1.125   9.771  0.3306  0.1954 -0.3755
 2669SOL    HW219467   2.351   1.049   9.702 -0.5436 -0.0379 -0.1732
 2670SOL     OW19468   2.943   1.465   7.741 -0.4333 -0.5984 -0.0088
 2670SOL    HW119469   2.872   1.433   7.798  0.6212 -0.8879  1.1439
 2670SOL    HW219470   3.018   1.480   7.799 -0.4291  0.4501 -0.2989
 2671SOL     OW19471   2.365   2.065   8.568 -0.0290 -1.2180  0.9193
 2671SOL    HW119472   2.447   2.088   8.523 -1.7386  3.6601  0.2878
 2671SOL    HW219473   2.322   2.149   8.586  0.5006 -0.1618 -2.6059
 2672SOL     OW19474   3.821   0.188   6.272  0.7055 -0.0693  0.7951
 2672SOL    HW119475   3.746   0.143   6.231  0.7019 -1.2551  2.1181
 2672SOL    HW219476   3.892   0.145   6.224 -1.5478 -0.7524 -1.9532
 2673SOL     OW19477   4.198   3.036  16.178  0.0412 -0.2521  0.0180
 2673SOL    HW119478   4.293   3.044  16.188 -0.1062 -0.5304  1.6211
 2673SOL    HW219479   4.192   2.994  16.092 -0.0323  1.3278 -0.7441
 2674SOL     OW19480   1.983   3.556   4.819  0.6390  0.5316  0.0119
 2674SOL    HW119481   2.033   3.478   4.793 -1.5023 -0.3468 -1.5077
 2674SOL    HW219482   1.931   3.522   4.892 -0.1782  1.0227 -0.3389
 2675SOL     OW19483   0.294   0.178  16.075  0.5915  0.1937  0.3591
 2675SOL    HW119484   0.218   0.206  16.025  1.4599  0.5557 -0.7638
 2675SOL    HW219485   0.281   0.084  16.083 -2.4110  0.4678 -1.2843
 2676SOL     OW19486   3.183   0.429  16.713 -0.3134 -0.3516 -0.2010
 2676SOL    HW119487   3.160   0.403  16.802  0.6275  0.3278  0.2401
 2676SOL    HW219488   3.241   0.357  16.690 -1.6862 -0.8475 -2.1455
 2677SOL     OW19489   2.516   2.205   1.376 -0.2149 -0.8922  0.2002
 2677SOL    HW119490   2.508   2.190   1.471  0.3552 -0.3409  0.3352
 2677SOL    HW219491   2.608   2.195   1.352 -0.4261  1.3805 -1.4963
 2678SOL     OW19492   2.356   2.545   0.501 -0.1038  0.4702  0.4142
 2678SOL    HW119493   2.399   2.606   0.440 -2.1565  1.6080  0.1109
 2678SOL    HW219494   2.301   2.494   0.442  0.9426 -1.4534  1.1348
 2679SOL     OW19495   2.112   3.588   9.688  0.0136  0.0583  0.2531
 2679SOL    HW119496   2.122   3.661   9.628  0.3459 -1.6516 -1.7876
 2679SOL    HW219497   2.023   3.597   9.722 -0.4796  0.0579 -1.0328
 2680SOL     OW19498   4.481   0.268   7.091  0.2929  0.6417  0.4110
 2680SOL    HW119499   4.550   0.249   7.027  0.2149  1.0903  0.1884
 2680SOL    HW219500   4.425   0.191   7.096  0.8616  0.1751 -0.3226
 2681SOL     OW19501   2.075   0.136   5.142 -0.4720  0.4207  0.3476
 2681SOL    HW119502   2.044   0.057   5.186 -0.6925 -0.0802 -0.7290
 2681SOL    HW219503   2.170   0.135   5.158 -0.7569 -1.5667  1.9206
 2682SOL     OW19504   4.698   1.889   2.797 -0.3990  0.1748 -0.0640
 2682SOL    HW119505   0.031   1.913   2.871 -2.1411 -0.7903  1.5355
 2682SOL    HW219506   0.014   1.948   2.731 -0.3418 -0.4824 -0.6243
 2683SOL     OW19507   0.461   3.482   5.617  0.7748  0.0860  0.0174
 2683SOL    HW119508   0.495   3.569   5.599 -1.7160  1.6131  2.7519
 2683SOL    HW219509   0.540   3.432   5.638  1.0952  0.7610  0.4016
 2684SOL     OW19510   0.527   2.110   9.571  0.7967  0.1630 -0.6730
 2684SOL    HW119511   0.616   2.086   9.543  0.6348 -2.6956  1.2347
 2684SOL    HW219512   0.484   2.115   9.485 -1.0778 -1.1559  0.1959
 2685SOL     OW19513   4.569   4.217  17.604 -0.5045 -0.0992  0.1067
 2685SOL    HW119514   4.490   4.188  17.649  0.6802 -0.5533  1.8661
 2685SOL    HW219515   4.563   4.310  17.621  2.2026  0.1767 -0.5222
 2686SOL     OW19516   4.050   4.372  15.464 -0.3732 -0.4321 -0.1438
 2686SOL    HW119517   4.130   4.418  15.490 -0.6448 -0.1581  0.2054
 2686SOL    HW219518   4.026   4.422  15.386  0.2650  0.0590 -0.0171
 2687SOL     OW19519   4.311   3.215   9.823 -0.7134 -0.2971 -0.8098
 2687SOL    HW119520   4.337   3.140   9.876 -0.1098 -0.4397 -1.3020
 2687SOL    HW219521   4.347   3.288   9.873 -0.9569 -0.5792 -0.2288
 2688SOL     OW19522   2.299   1.818   8.527  0.2473 -0.7851  0.1763
 2688SOL    HW119523   2.390   1.788   8.522  0.1022 -0.8935 -1.6714
 2688SOL    HW219524   2.309   1.913   8.522  0.9703 -0.8116  1.0697
 2689SOL     OW19525   3.167   4.600   5.232 -0.7018  0.0488  0.4905
 2689SOL    HW119526   3.174   4.603   5.136 -1.0077  0.3765  0.4750
 2689SOL    HW219527   3.122   4.682   5.254 -0.5454  0.1631  0.3825
 2690SOL     OW19528   1.556   3.998   3.152  0.0446  0.0440  0.4578
 2690SOL    HW119529   1.584   3.910   3.176  0.6014  0.1193  0.0606
 2690SOL    HW219530   1.462   3.977   3.150  0.7098 -3.0158  1.6781
 2691SOL     OW19531   0.162   3.183   4.486  0.0827  0.2560 -0.1724
 2691SOL    HW119532   0.209   3.253   4.441 -1.5001  2.0344  0.9035
 2691SOL    HW219533   0.177   3.106   4.431  1.5012 -0.5267  1.3480
 2692SOL     OW19534   0.375   1.806   8.559 -0.5868 -0.4834 -0.4531
 2692SOL    HW119535   0.325   1.883   8.531 -3.4159 -2.5826 -1.1134
 2692SOL    HW219536   0.453   1.845   8.599 -0.5570 -1.7574  0.7275
 2693SOL     OW19537   2.179   0.682   5.594  0.1651  0.7074 -0.3799
 2693SOL    HW119538   2.170   0.594   5.558  0.0816 -1.0150  3.7488
 2693SOL    HW219539   2.102   0.719   5.550 -0.7184  1.6002  1.8581
 2694SOL     OW19540   0.972   4.673   7.485  0.2340  0.7693 -0.2222
 2694SOL    HW119541   0.934   4.642   7.567  1.7613  0.2299  0.2813
 2694SOL    HW219542   0.900   4.662   7.423  0.0554 -2.1720  0.4922
 2695SOL     OW19543   3.960   3.872   8.239 -0.5033 -0.3888  0.2577
 2695SOL    HW119544   4.048   3.854   8.204 -0.7215 -0.8011 -0.0675
 2695SOL    HW219545   3.956   3.796   8.297 -0.8000 -0.2933  0.3582
 2696SOL     OW19546   1.669   0.221   5.539  0.8218 -0.6145 -0.2998
 2696SOL    HW119547   1.651   0.155   5.473 -3.1395 -0.0091  0.1782
 2696SOL    HW219548   1.585   0.266   5.548  0.9936 -0.1689 -0.8983
 2697SOL     OW19549   3.797   4.357   7.513  0.0334  0.3555  0.6730
 2697SOL    HW119550   3.795   4.346   7.608 -0.1654  0.3146  0.6635
 2697SOL    HW219551   3.770   4.272   7.479 -0.0584 -0.2971  2.3808
 2698SOL     OW19552   0.591   3.676   7.473  0.0688 -0.6994  0.6725
 2698SOL    HW119553   0.517   3.732   7.450  0.5884 -0.4318 -0.3568
 2698SOL    HW219554   0.643   3.677   7.392 -0.4505 -0.5392  0.3437
 2699SOL     OW19555   0.835   1.647   2.210 -0.3401  0.2606  0.2275
 2699SOL    HW119556   0.826   1.737   2.180 -0.6571  0.6073  1.3601
 2699SOL    HW219557   0.917   1.623   2.166 -0.7825 -1.0649  0.1154
 2700SOL     OW19558   4.568   2.058   3.109  0.4407 -0.6983  0.4428
 2700SOL    HW119559   4.626   1.982   3.116  2.8860  0.9241 -1.8772
 2700SOL    HW219560   4.580   2.100   3.194 -1.2294 -1.4927  1.0582
 2701SOL     OW19561   1.903   2.001   5.418  0.2001 -0.2084  0.3250
 2701SOL    HW119562   1.984   1.978   5.373  0.9485  1.3707  0.8707
 2701SOL    HW219563   1.887   2.084   5.373  0.9091  0.2880  0.9917
 2702SOL     OW19564   3.612   0.228   4.502 -0.1398 -0.0952  0.3878
 2702SOL    HW119565   3.586   0.318   4.485 -1.3278 -0.6220 -0.6703
 2702SOL    HW219566   3.526   0.189   4.518  0.6476 -1.3676  1.5484
 2703SOL     OW19567   0.151   3.537   0.492 -0.3021 -0.3029  0.3015
 2703SOL    HW119568   0.125   3.447   0.474 -0.1300 -0.4218  0.6399
 2703SOL    HW219569   0.133   3.541   0.586 -1.1992  1.7594  0.0495
 2704SOL     OW19570   0.051   4.093   8.539 -0.3232 -0.2577 -0.0829
 2704SOL    HW119571   0.127   4.052   8.582 -0.7372 -0.4546  0.4564
 2704SOL    HW219572   0.021   4.153   8.606 -0.1643 -2.6098  2.0900
 2705SOL     OW19573   2.868   3.856   3.173  0.3106 -0.2649 -0.0275
 2705SOL    HW119574   2.796   3.794   3.169  0.3820 -0.3346 -0.2173
 2705SOL    HW219575   2.857   3.913   3.097  1.6498  0.0039 -0.0157
 2706SOL     OW19576   3.788   3.610   0.529  0.4738 -0.5366  0.5567
 2706SOL    HW119577   3.738   3.683   0.493  1.5899 -0.7586 -1.4496
 2706SOL    HW219578   3.865   3.655   0.565  2.5374 -0.8411 -3.5577
 2707SOL     OW19579   3.985   3.782   0.644  0.8507  0.1637 -0.0703
 2707SOL    HW119580   3.978   3.828   0.560  1.6272  1.1396  0.3998
 2707SOL    HW219581   4.069   3.820   0.673  0.8123  0.6944 -0.6588
 2708SOL     OW19582   4.664   4.341   8.702  0.4800  0.7424  0.2532
 2708SOL    HW119583   4.607   4.319   8.776 -1.5710 -1.0771 -1.8394
 2708SOL    HW219584   4.602   4.393   8.651 -2.9492 -0.9189  2.7262
 2709SOL     OW19585   1.596   4.135  11.563 -0.3610 -0.0439  0.0242
 2709SOL    HW119586   1.600   4.146  11.468  1.6388 -1.2817 -0.0488
 2709SOL    HW219587   1.596   4.039  11.565 -2.7471  0.0041  1.4468
 2710SOL     OW19588   2.317   3.742   8.046  0.0376 -0.2533 -0.4277
 2710SOL    HW119589   2.403   3.722   8.083  0.0832  0.9506  0.1175
 2710SOL    HW219590   2.343   3.787   7.966  2.0804 -1.2753 -0.3300
 2711SOL     OW19591   4.114   1.047   3.495  0.8361 -0.2968  0.0790
 2711SOL    HW119592   4.096   0.960   3.531 -2.2239 -0.7029 -2.4581
 2711SOL    HW219593   4.028   1.055   3.453  0.2236  1.3080  1.6046
 2712SOL     OW19594   1.949   2.279   1.722  0.1447  0.4024 -0.2188
 2712SOL    HW119595   1.880   2.248   1.664 -1.6787  3.6203  0.2390
 2712SOL    HW219596   1.923   2.369   1.738  0.2793  0.3751  0.1572
 2713SOL     OW19597   3.515   3.147   5.793  0.1882  0.4796 -0.1562
 2713SOL    HW119598   3.588   3.103   5.749 -0.4912 -1.2882  0.4811
 2713SOL    HW219599   3.555   3.227   5.826 -1.6878  1.4847 -0.3475
 2714SOL     OW19600   4.632   3.900   0.076  0.4742 -0.0337 -0.8424
 2714SOL    HW119601   4.716   3.855   0.084  0.0586 -0.3617  1.7048
 2714SOL    HW219602   4.651   3.935  17.677  0.5775 -0.0699 -0.8344
 2715SOL     OW19603   2.673   0.527   8.787 -0.2682 -0.6939 -0.0806
 2715SOL    HW119604   2.616   0.452   8.804  1.2303 -1.4668  1.5949
 2715SOL    HW219605   2.638   0.563   8.706  1.5596 -0.0054 -0.5547
 2716SOL     OW19606   3.393   0.456  11.427  0.3350 -0.0383 -0.0249
 2716SOL    HW119607   3.404   0.543  11.390 -1.0778  0.3728  0.5515
 2716SOL    HW219608   3.359   0.477  11.514  0.0674 -0.0021 -0.1385
 2717SOL     OW19609   2.574   1.207   4.494 -0.4221  0.4041  0.5342
 2717SOL    HW119610   2.650   1.168   4.537 -1.9850 -2.9059  0.2751
 2717SOL    HW219611   2.544   1.253   4.573  0.7608  0.2614  1.0725
 2718SOL     OW19612   3.147   3.734   5.417 -0.1359 -0.3444 -0.4960
 2718SOL    HW119613   3.141   3.657   5.473  0.9473 -0.1094 -0.0572
 2718SOL    HW219614   3.068   3.781   5.446  1.3245  1.0279  1.2482
 2719SOL     OW19615   3.155   1.062   8.535 -0.2841 -0.3512  0.0810
 2719SOL    HW119616   3.205   1.004   8.592 -0.8111  0.8836  1.7694
 2719SOL    HW219617   3.185   1.026   8.451  1.1044 -1.0832  0.8872
 2720SOL     OW19618   1.736   3.810   7.079 -0.3733  0.4149 -0.5077
 2720SOL    HW119619   1.709   3.745   7.015 -0.4701 -1.1843  1.1429
 2720SOL    HW219620   1.765   3.748   7.146 -0.5781 -1.4246 -2.1510
 2721SOL     OW19621   0.334   0.874   8.517 -0.2903  0.4428  0.3696
 2721SOL    HW119622   0.380   0.794   8.544 -0.7390  0.0150 -0.1385
 2721SOL    HW219623   0.414   0.916   8.487  1.6161 -1.0832  3.3857
 2722SOL     OW19624   2.441   0.967   6.932 -0.1249 -0.2100 -0.8686
 2722SOL    HW119625   2.427   1.058   6.959  0.5041 -1.0903  2.3759
 2722SOL    HW219626   2.356   0.936   6.962  0.8286 -0.5981  1.4221
 2723SOL     OW19627   2.853   4.206  11.574  0.2424  0.2338  0.2551
 2723SOL    HW119628   2.785   4.238  11.515 -1.7114  0.3577  2.5832
 2723SOL    HW219629   2.887   4.131  11.526 -0.7610  0.5829 -1.0144
 2724SOL     OW19630   4.127   0.281   9.896  0.2034 -0.0231 -0.1688
 2724SOL    HW119631   4.041   0.273   9.936  1.0451 -0.5388  1.5444
 2724SOL    HW219632   4.124   0.347   9.826  1.0264  0.8894  0.6546
 2725SOL     OW19633   2.626   4.434  15.740  0.0397  0.1402  0.2348
 2725SOL    HW119634   2.639   4.401  15.829  1.9117  1.7771  0.5819
 2725SOL    HW219635   2.551   4.491  15.754 -1.3732 -1.3812 -1.1465
 2726SOL     OW19636   2.153   3.010   4.930 -0.5040  0.1601 -0.5953
 2726SOL    HW119637   2.120   2.949   4.864 -1.6439 -0.1829  0.2780
 2726SOL    HW219638   2.143   2.955   5.008  0.3142 -0.4698 -0.9317
 2727SOL     OW19639   2.104   2.865   2.567 -0.6032  0.0282  0.3934
 2727SOL    HW119640   2.180   2.909   2.529 -0.8316 -1.7942 -2.2098
 2727SOL    HW219641   2.071   2.940   2.616  0.9811  1.0543 -0.1044
 2728SOL     OW19642   0.314   1.499  10.291  0.1459 -0.6148 -0.2858
 2728SOL    HW119643   0.368   1.471  10.217  1.2749 -1.5964  0.9117
 2728SOL    HW219644   0.372   1.487  10.367  2.2050 -0.4318 -1.8395
 2729SOL     OW19645   2.319   0.976   6.643  0.7336  0.2612  0.3089
 2729SOL    HW119646   2.298   0.967   6.551 -1.6558  2.9628  0.5993
 2729SOL    HW219647   2.412   0.964   6.666  1.3999  1.2064 -1.8992
 2730SOL     OW19648   1.446   0.423   9.749 -0.6660 -0.0427  0.4025
 2730SOL    HW119649   1.394   0.427   9.829 -1.4071  0.0830 -0.0834
 2730SOL    HW219650   1.417   0.507   9.713 -1.9225 -1.0098 -0.8601
 2731SOL     OW19651   0.662   2.132  16.667 -0.2480 -0.6109  0.1001
 2731SOL    HW119652   0.605   2.073  16.619 -1.1302  0.2155  0.1302
 2731SOL    HW219653   0.700   2.180  16.592 -0.1386  2.1986  1.9387
 2732SOL     OW19654   3.089   3.467   7.530  0.6547  0.4449 -0.0797
 2732SOL    HW119655   3.091   3.538   7.595 -0.3209 -0.4136  0.8941
 2732SOL    HW219656   3.057   3.394   7.584 -1.4924  0.5177 -1.2591
 2733SOL     OW19657   1.349   3.488   8.601 -0.4325 -0.1882  0.3118
 2733SOL    HW119658   1.434   3.513   8.638  0.5702 -0.5328 -1.7048
 2733SOL    HW219659   1.339   3.400   8.638 -1.3311  0.9255  2.7058
 2734SOL     OW19660   0.306   0.440   5.975 -0.2692  0.5890  0.8432
 2734SOL    HW119661   0.362   0.505   5.932  0.3799  0.6084  1.7109
 2734SOL    HW219662   0.217   0.453   5.942 -0.4766 -1.3507  0.6870
 2735SOL     OW19663   3.110   1.780  12.789 -0.4587 -0.1197 -0.3976
 2735SOL    HW119664   3.190   1.727  12.793  0.3450  1.1877  0.9857
 2735SOL    HW219665   3.136   1.871  12.774  0.5243 -0.5338 -1.2280
 2736SOL     OW19666   0.900   0.630   6.623  0.2316 -0.0281 -0.6945
 2736SOL    HW119667   0.994   0.645   6.606 -0.3156 -1.5495 -5.0526
 2736SOL    HW219668   0.898   0.562   6.691  1.4369 -0.9302 -1.5541
 2737SOL     OW19669   3.117   2.531  12.663 -0.0031 -0.2318 -0.4823
 2737SOL    HW119670   3.084   2.577  12.740 -0.3036 -1.4864  0.1445
 2737SOL    HW219671   3.210   2.553  12.653  0.1822  0.0757  1.8879
 2738SOL     OW19672   1.800   1.056   4.336  0.0240 -0.1415 -0.2046
 2738SOL    HW119673   1.868   1.124   4.336  0.0768 -0.1903  2.8186
 2738SOL    HW219674   1.736   1.118   4.369  0.1161 -0.5431  0.7380
 2739SOL     OW19675   2.985   0.526  10.033  0.1852 -0.4328  0.1656
 2739SOL    HW119676   3.043   0.515   9.958  0.8825 -1.3994  0.8513
 2739SOL    HW219677   3.016   0.610  10.069 -0.7082 -0.4156  0.9035
 2740SOL     OW19678   2.701   4.659  13.852  0.3376  0.0403  0.1048
 2740SOL    HW119679   2.635   0.005  13.835 -1.0003 -1.0704  0.9001
 2740SOL    HW219680   2.647   4.580  13.852  1.6420 -0.8587 -1.1314
 2741SOL     OW19681   3.743   1.821   2.743 -1.1118 -0.1871 -0.4274
 2741SOL    HW119682   3.770   1.908   2.772 -1.3894 -0.3364  0.2535
 2741SOL    HW219683   3.749   1.849   2.651 -3.5471 -0.7530 -0.7573
 2742SOL     OW19684   2.406   1.281  14.621  0.6939  0.1130 -0.0317
 2742SOL    HW119685   2.390   1.218  14.690  1.0136  0.4526  0.3505
 2742SOL    HW219686   2.374   1.242  14.539 -1.0331  0.2842  0.5595
 2743SOL     OW19687   0.712   1.568   2.911 -0.1277 -0.4899  0.0015
 2743SOL    HW119688   0.781   1.589   2.848 -0.3344  0.0422 -0.0506
 2743SOL    HW219689   0.708   1.473   2.899 -1.7872 -0.2970 -1.0115
 2744SOL     OW19690   3.633   2.359   7.309 -0.1603  0.1395 -0.6199
 2744SOL    HW119691   3.661   2.439   7.354 -0.7448 -0.5398  0.9442
 2744SOL    HW219692   3.619   2.300   7.383 -1.3146  0.6940 -0.4033
 2745SOL     OW19693   2.822   0.952   9.449 -0.5047 -0.1378  0.3919
 2745SOL    HW119694   2.757   0.885   9.430  0.2883 -0.8991  0.3798
 2745SOL    HW219695   2.763   1.022   9.477 -0.1250  0.0286  0.7773
 2746SOL     OW19696   4.118   0.352  15.855  0.9200 -0.1910  0.1467
 2746SOL    HW119697   4.208   0.345  15.886  1.2367 -1.0855 -0.9920
 2746SOL    HW219698   4.137   0.396  15.772 -0.3180 -0.9002 -0.5273
 2747SOL     OW19699   0.647   2.042   5.186  0.2022 -0.3444 -0.2447
 2747SOL    HW119700   0.646   1.954   5.224 -0.3572 -0.8640 -1.4684
 2747SOL    HW219701   0.612   2.018   5.101 -3.1335 -1.5447  1.4797
 2748SOL     OW19702   2.653   2.199   1.927  0.1785 -0.1778 -0.6676
 2748SOL    HW119703   2.562   2.224   1.940  0.4165 -0.2958  1.2320
 2748SOL    HW219704   2.694   2.284   1.907 -0.4460  0.2550 -0.0787
 2749SOL     OW19705   3.539   1.581   5.758 -0.3406  0.2924 -0.0779
 2749SOL    HW119706   3.522   1.504   5.813 -0.7050  0.4830  0.0806
 2749SOL    HW219707   3.501   1.654   5.808  1.4666  0.7001  0.7018
 2750SOL     OW19708   3.853   4.275   8.412  0.4196  0.2685 -0.2469
 2750SOL    HW119709   3.855   4.357   8.363 -0.4976  1.8177  2.2801
 2750SOL    HW219710   3.854   4.218   8.335 -3.4407  0.1327 -0.1921
 2751SOL     OW19711   2.304   3.805   8.696 -0.3183  0.2309 -0.1626
 2751SOL    HW119712   2.232   3.854   8.657  0.6295  0.8975 -1.0887
 2751SOL    HW219713   2.381   3.857   8.673  1.3958 -1.7600  1.1385
 2752SOL     OW19714   2.688   3.357   4.927  0.4037 -0.4995  0.7459
 2752SOL    HW119715   2.691   3.453   4.931  2.0767 -0.5304  0.1332
 2752SOL    HW219716   2.671   3.331   4.837 -1.4377 -1.0059  1.2296
 2753SOL     OW19717   1.902   2.913   1.961 -0.1039  0.4504 -0.6083
 2753SOL    HW119718   1.875   2.899   1.870 -3.1080 -2.1696  0.7066
 2753SOL    HW219719   1.821   2.884   2.002  0.2193  1.2742  0.6234
 2754SOL     OW19720   1.340   3.961  17.047 -0.6123 -0.0116 -0.3910
 2754SOL    HW119721   1.287   3.988  16.973  1.4236 -0.1835 -1.8986
 2754SOL    HW219722   1.417   4.012  17.024  0.6897 -1.0292  1.6552
 2755SOL     OW19723   1.090   0.156   8.155 -0.8507  0.2058 -0.0719
 2755SOL    HW119724   1.168   0.211   8.159 -1.4151  1.0866 -1.0110
 2755SOL    HW219725   1.131   0.073   8.180 -1.0469 -0.0995 -0.7455
 2756SOL     OW19726   1.643   4.435   8.290 -0.4287 -0.0434  0.1009
 2756SOL    HW119727   1.696   4.356   8.302 -0.8770 -0.7001 -2.2010
 2756SOL    HW219728   1.655   4.486   8.370  2.5926 -0.6132  0.0087
 2757SOL     OW19729   0.437   2.627   2.756  0.3450  0.2930 -0.2321
 2757SOL    HW119730   0.365   2.690   2.754  1.8772  2.0117 -1.4900
 2757SOL    HW219731   0.395   2.561   2.701  1.1099  1.0264 -1.6970
 2758SOL     OW19732   2.586   4.565   1.685  0.1347 -0.1276  0.0777
 2758SOL    HW119733   2.582   4.476   1.650  5.1826 -0.6485  0.8285
 2758SOL    HW219734   2.670   4.551   1.729 -0.0660 -0.3839  0.3855
 2759SOL     OW19735   3.006   3.109  12.262 -0.4561 -0.4451 -0.1887
 2759SOL    HW119736   2.988   3.020  12.230 -1.6896 -0.6247  1.0280
 2759SOL    HW219737   2.933   3.125  12.321 -0.7066  0.1711 -0.6634
 2760SOL     OW19738   3.644   0.663  11.297 -0.3222  0.1581 -0.8401
 2760SOL    HW119739   3.674   0.579  11.263  0.6986  0.9275 -1.8586
 2760SOL    HW219740   3.551   0.669  11.275 -0.1509 -0.2951 -1.6865
 2761SOL     OW19741   3.269   0.929  11.631  0.2498 -0.1831  0.5356
 2761SOL    HW119742   3.235   1.013  11.600  0.6126  0.0603  0.7831
 2761SOL    HW219743   3.327   0.907  11.559 -1.1342 -1.8074 -0.0711
 2762SOL     OW19744   1.839   1.011   9.949 -0.4941  0.1637 -0.6233
 2762SOL    HW119745   1.827   0.967   9.865 -1.2913 -2.2027  0.7295
 2762SOL    HW219746   1.916   0.968   9.988  0.0045  0.1002 -1.6800
 2763SOL     OW19747   0.885   1.029   8.490  0.3900  0.0250  0.1148
 2763SOL    HW119748   0.933   1.098   8.444  0.7316 -1.4428 -1.7403
 2763SOL    HW219749   0.928   0.953   8.452  0.9188  1.3576 -1.9435
 2764SOL     OW19750   2.406   1.258   5.415  0.5528  0.2617  0.1467
 2764SOL    HW119751   2.398   1.312   5.336  1.1012 -1.3615 -1.0242
 2764SOL    HW219752   2.335   1.194   5.404  0.5452  0.3442 -0.2881
 2765SOL     OW19753   3.177   3.352  12.256 -0.5115  0.2391  0.1127
 2765SOL    HW119754   3.114   3.282  12.274  0.2284 -0.0123  1.7774
 2765SOL    HW219755   3.113   3.421  12.241 -3.3692 -2.1924  1.1982
 2766SOL     OW19756   2.095   3.255  10.066 -0.1346 -0.6169  0.0345
 2766SOL    HW119757   2.070   3.298   9.985  3.3470  1.9896  0.3146
 2766SOL    HW219758   2.181   3.293  10.086  0.1276 -0.0105 -2.2023
 2767SOL     OW19759   3.354   2.396   3.522  0.1939 -0.5102  0.1078
 2767SOL    HW119760   3.445   2.409   3.495 -0.3516 -0.0336 -1.5284
 2767SOL    HW219761   3.332   2.486   3.544 -1.3844 -0.7004 -0.6514
 2768SOL     OW19762   1.556   0.959  10.178 -0.5109  0.1645 -0.6087
 2768SOL    HW119763   1.621   0.889  10.177  0.0310  0.6687 -0.0158
 2768SOL    HW219764   1.602   1.043  10.182 -0.3147  0.0436 -0.3746
 2769SOL     OW19765   1.442   1.580   2.228 -0.6105 -0.1841  0.1121
 2769SOL    HW119766   1.427   1.635   2.152  2.6170  0.2396 -0.2400
 2769SOL    HW219767   1.537   1.571   2.216 -0.5234  1.9927 -0.8725
 2770SOL     OW19768   3.536   0.232  12.751 -0.1510 -0.6219  0.0109
 2770SOL    HW119769   3.487   0.242  12.833  0.9540 -1.0204  0.7171
 2770SOL    HW219770   3.600   0.166  12.776 -2.7739 -2.6098  1.4502
 2771SOL     OW19771   1.065   2.406  12.447  0.0513 -0.1666 -0.2727
 2771SOL    HW119772   1.031   2.334  12.394  1.0329  0.0223 -1.1621
 2771SOL    HW219773   1.150   2.369  12.470  0.8280  2.3064  0.8927
 2772SOL     OW19774   4.554   4.380  11.658 -0.4636  0.0860 -0.5442
 2772SOL    HW119775   4.597   4.453  11.701 -2.8574  0.5250  1.0996
 2772SOL    HW219776   4.616   4.306  11.659 -0.6948 -0.1183 -1.0939
 2773SOL     OW19777   2.726   2.585  14.934  0.5861  0.6769  0.0873
 2773SOL    HW119778   2.660   2.551  14.874  1.7682 -0.6982 -0.4167
 2773SOL    HW219779   2.696   2.675  14.945 -1.0189  0.1081  0.3651
 2774SOL     OW19780   4.161   3.060   8.852  0.4956 -0.1481 -0.7789
 2774SOL    HW119781   4.212   3.141   8.848  0.7095 -0.2022  1.2378
 2774SOL    HW219782   4.139   3.062   8.945  1.6779 -2.8511 -0.4593
 2775SOL     OW19783   3.067   2.167   4.136 -0.2603 -0.1633  0.5447
 2775SOL    HW119784   3.148   2.127   4.104 -1.1258  0.6259 -2.6880
 2775SOL    HW219785   2.996   2.117   4.097 -0.2682 -0.4214  0.8950
 2776SOL     OW19786   4.663   4.305   5.132 -0.1323 -0.0937  0.0186
 2776SOL    HW119787   4.673   4.212   5.111  0.1444  0.3147 -1.6033
 2776SOL    HW219788   4.713   4.307   5.214 -1.5716  1.6081  0.8629
 2777SOL     OW19789   2.674   2.931   2.750 -0.6336  0.2197  0.2363
 2777SOL    HW119790   2.606   2.998   2.756  0.7386  1.5956  0.2580
 2777SOL    HW219791   2.724   2.944   2.830  1.0979  1.5610 -1.0780
 2778SOL     OW19792   1.377   3.781   8.068 -0.1644  0.1701  0.2657
 2778SOL    HW119793   1.409   3.792   8.157  1.0824 -0.0663 -0.1442
 2778SOL    HW219794   1.458   3.765   8.019 -1.0468  2.2650 -1.8902
 2779SOL     OW19795   2.872   1.270  15.372  0.4345  0.5506  0.2161
 2779SOL    HW119796   2.798   1.327  15.351 -0.4030 -0.4122  0.5521
 2779SOL    HW219797   2.885   1.261  15.467 -0.4280  0.6223  0.3488
 2780SOL     OW19798   2.608   4.437   5.793  0.2265 -0.7731 -0.3009
 2780SOL    HW119799   2.573   4.372   5.854 -3.1017  2.6484  1.3861
 2780SOL    HW219800   2.701   4.425   5.813  0.2899 -0.4729 -0.4131
 2781SOL     OW19801   2.884   1.850   3.386 -0.0329 -0.1881  0.2027
 2781SOL    HW119802   2.879   1.772   3.441 -0.4345 -2.6078 -3.2457
 2781SOL    HW219803   2.952   1.903   3.428  1.5515 -2.0066 -0.0757
 2782SOL     OW19804   1.554   0.917   3.010  0.0437 -0.3644  0.2788
 2782SOL    HW119805   1.554   1.008   3.038  1.4669 -0.9309  2.1267
 2782SOL    HW219806   1.476   0.905   2.956 -0.5415  3.2633  0.3549
 2783SOL     OW19807   4.551   3.595   6.499  0.0166 -0.2729 -0.4871
 2783SOL    HW119808   4.547   3.586   6.404 -1.1358 -1.6394 -0.3146
 2783SOL    HW219809   4.613   3.666   6.510 -0.3851 -0.2937  1.9332
 2784SOL     OW19810   0.915   1.213   6.535  0.3659  0.1479  0.0013
 2784SOL    HW119811   0.907   1.289   6.592 -0.6087  1.3498 -1.7682
 2784SOL    HW219812   0.906   1.251   6.448 -0.0644 -0.3118 -0.1558
 2785SOL     OW19813   0.723   1.454   7.021  0.4024  0.4128  0.1166
 2785SOL    HW119814   0.771   1.373   7.006 -1.2495 -0.6083  0.2815
 2785SOL    HW219815   0.701   1.439   7.113 -0.2799 -0.7446 -0.2324
 2786SOL     OW19816   2.341   2.882   4.389  0.2317 -0.1557  0.4652
 2786SOL    HW119817   2.429   2.884   4.351 -0.0251 -1.0839 -0.1780
 2786SOL    HW219818   2.315   2.790   4.381  2.0414 -0.6045 -0.3029
 2787SOL     OW19819   2.010   0.686   9.298  0.3102  0.1023 -0.2827
 2787SOL    HW119820   2.091   0.691   9.349  0.7376 -2.1132 -0.7132
 2787SOL    HW219821   2.010   0.763   9.242  0.3007  0.7295  0.5802
 2788SOL     OW19822   0.005   3.529   4.017  0.1525  0.2918 -0.0630
 2788SOL    HW119823   4.674   3.575   3.952  1.1968  1.1241 -0.3046
 2788SOL    HW219824   0.002   3.595   4.086 -2.6207  0.5625 -0.4543
 2789SOL     OW19825   2.211   4.640   5.815 -0.5673 -0.4933 -0.3484
 2789SOL    HW119826   2.184   4.721   5.859 -1.7865  0.0604 -2.1226
 2789SOL    HW219827   2.239   4.595   5.895 -0.1824  2.6773  1.3091
 2790SOL     OW19828   1.118   1.601   1.793  0.5648 -0.1735 -0.3787
 2790SOL    HW119829   1.097   1.586   1.885  0.0129  1.4084 -0.2344
 2790SOL    HW219830   1.207   1.568   1.788  1.0906  1.5333 -2.3172
 2791SOL     OW19831   4.323   1.798   5.073 -0.5121  0.0577 -0.0926
 2791SOL    HW119832   4.372   1.879   5.057 -0.5179  0.7907  3.7968
 2791SOL    HW219833   4.271   1.782   4.994  0.4563 -0.8332 -0.5607
 2792SOL     OW19834   1.755   0.909  16.819 -0.2960  0.6122 -0.2149
 2792SOL    HW119835   1.744   0.985  16.875 -0.1378 -0.6048  1.4742
 2792SOL    HW219836   1.814   0.937  16.749 -1.2865 -2.1172 -2.1478
 2793SOL     OW19837   3.488   2.356   2.967  0.5774  0.0372 -0.1703
 2793SOL    HW119838   3.516   2.412   2.895 -0.4095 -1.4479 -1.7093
 2793SOL    HW219839   3.573   2.348   3.011 -0.2991 -0.1625  1.4921
 2794SOL     OW19840   4.372   1.555  13.443 -0.2274 -0.4780  0.4614
 2794SOL    HW119841   4.287   1.555  13.486 -0.1083 -1.1014  0.6951
 2794SOL    HW219842   4.353   1.592  13.357  2.4813 -1.8682 -0.7248
 2795SOL     OW19843   3.156   0.564   3.315 -0.2088 -0.2184 -0.3293
 2795SOL    HW119844   3.097   0.517   3.373  2.1523 -0.0982  2.1958
 2795SOL    HW219845   3.243   0.545   3.351 -0.3201  0.6728  0.4087
 2796SOL     OW19846   0.309   4.114   5.585 -0.6130 -0.6460  0.9192
 2796SOL    HW119847   0.265   4.096   5.502 -1.7702  3.1419  0.7105
 2796SOL    HW219848   0.251   4.178   5.627 -1.1290  0.3447 -1.2754
 2797SOL     OW19849   4.308   3.328  10.741  0.0206 -0.4919 -0.2826
 2797SOL    HW119850   4.360   3.271  10.796 -0.4280 -2.9122 -2.3755
 2797SOL    HW219851   4.376   3.346  10.676 -0.3240  0.3234 -0.4316
 2798SOL     OW19852   3.562   4.134  13.134 -0.1261  0.2388  0.0298
 2798SOL    HW119853   3.510   4.188  13.194  2.0536  0.3930  1.7605
 2798SOL    HW219854   3.560   4.058  13.192 -0.4582  0.0158 -0.2759
 2799SOL     OW19855   1.913   1.005   7.652  0.1438 -0.9606 -0.1165
 2799SOL    HW119856   1.887   0.995   7.743 -0.8641  2.6858 -0.0036
 2799SOL    HW219857   2.006   1.025   7.667 -0.5619  0.9642  1.6679
 2800SOL     OW19858   0.841   2.431   2.503 -0.3506  0.2445  0.2202
 2800SOL    HW119859   0.875   2.411   2.590  0.3193  0.4367  0.0015
 2800SOL    HW219860   0.770   2.367   2.498  2.0206 -2.1275 -2.9159
 2801SOL     OW19861   1.519   3.490  13.210  0.3313 -0.5736 -0.2944
 2801SOL    HW119862   1.569   3.569  13.231  1.5332 -1.0938 -1.1450
 2801SOL    HW219863   1.518   3.492  13.114  1.0730  1.2433 -0.2689
 2802SOL     OW19864   0.713   4.526  12.253 -0.7266  0.6345 -0.3361
 2802SOL    HW119865   0.671   4.610  12.234 -2.2391  0.1886  1.0263
 2802SOL    HW219866   0.805   4.548  12.240 -0.7484  1.9216  1.7036
 2803SOL     OW19867   3.583   0.105  14.213 -0.1612 -0.3788 -0.3478
 2803SOL    HW119868   3.581   0.074  14.122 -2.5624  1.9256 -1.0798
 2803SOL    HW219869   3.671   0.141  14.217 -1.1385  1.9946 -0.4732
 2804SOL     OW19870   3.209   1.189  11.534 -0.0782  0.3243  0.4630
 2804SOL    HW119871   3.140   1.238  11.489 -0.6187  2.1055  3.2113
 2804SOL    HW219872   3.287   1.236  11.508  0.4265 -1.0580 -0.5458
 2805SOL     OW19873   0.698   4.157   5.992  0.6048 -0.3479 -0.1378
 2805SOL    HW119874   0.668   4.091   5.929 -0.3356 -1.4942  1.5125
 2805SOL    HW219875   0.631   4.150   6.061  1.2380  0.4038  0.5479
 2806SOL     OW19876   0.947   3.904  11.206 -0.2711 -0.1862  0.1393
 2806SOL    HW119877   0.856   3.929  11.188 -1.0553 -1.3771  2.4890
 2806SOL    HW219878   0.985   3.979  11.251 -0.3215  0.6960 -1.2792
 2807SOL     OW19879   4.138   3.806   3.715 -1.0805  0.5329  0.3112
 2807SOL    HW119880   4.065   3.850   3.673 -1.2496 -0.8160 -0.8009
 2807SOL    HW219881   4.095   3.737   3.766 -0.5684 -0.5140 -0.6737
 2808SOL     OW19882   4.184   4.047  16.669  0.7505  0.0036 -0.0649
 2808SOL    HW119883   4.248   4.101  16.714  2.2945 -0.3328 -1.8680
 2808SOL    HW219884   4.231   4.031  16.587  1.9618  0.4278  0.5428
 2809SOL     OW19885   1.299   1.417   3.734 -0.0136 -0.1628  0.2434
 2809SOL    HW119886   1.284   1.438   3.826  1.0051  0.8265  0.1847
 2809SOL    HW219887   1.269   1.326   3.738  1.4426 -0.6856 -0.5042
 2810SOL     OW19888   1.646   0.589   7.594  0.7349 -0.0974 -0.2048
 2810SOL    HW119889   1.665   0.551   7.508  0.8865  0.0430 -0.2333
 2810SOL    HW219890   1.727   0.639   7.597 -0.5774  1.8831  2.0399
 2811SOL     OW19891   0.395   0.345   5.110  0.1505  0.1382  0.5779
 2811SOL    HW119892   0.466   0.347   5.174 -0.3413 -1.7818  1.1931
 2811SOL    HW219893   0.334   0.278   5.141 -0.6488  1.0288  0.9248
 2812SOL     OW19894   0.466   2.219   5.695  0.1556 -0.5709 -0.3724
 2812SOL    HW119895   0.542   2.181   5.651  2.4022  5.0398 -1.3718
 2812SOL    HW219896   0.396   2.161   5.667 -1.6209  1.4146 -0.0974
 2813SOL     OW19897   0.602   4.590   8.756  0.3513  0.4237 -0.2578
 2813SOL    HW119898   0.621   4.574   8.849  1.2163  2.1619 -0.1288
 2813SOL    HW219899   0.665   4.661   8.744  2.0270 -1.2099 -1.1263
 2814SOL     OW19900   3.638   0.438   7.286  0.2819  0.0426 -0.2258
 2814SOL    HW119901   3.637   0.471   7.376  1.5220 -0.6977  0.0568
 2814SOL    HW219902   3.547   0.410   7.284 -0.0464  0.8807  2.8450
 2815SOL     OW19903   1.226   4.186   1.877 -0.5639  0.4054  0.1204
 2815SOL    HW119904   1.303   4.153   1.830 -1.9764 -2.9321  0.1612
 2815SOL    HW219905   1.177   4.222   1.803 -1.0748 -1.4928 -0.4566
 2816SOL     OW19906   1.138   3.587   5.882  0.4448 -0.0428  0.2846
 2816SOL    HW119907   1.048   3.561   5.861  0.7971 -1.0000 -0.0873
 2816SOL    HW219908   1.158   3.520   5.948 -0.2142  0.1757  0.7078
 2817SOL     OW19909   1.427   3.479   2.273 -0.0696 -0.3432  0.2152
 2817SOL    HW119910   1.363   3.539   2.236  0.5198  1.4061  2.0520
 2817SOL    HW219911   1.396   3.474   2.364  0.3294 -0.2946  0.3549
 2818SOL     OW19912   1.486   2.553  14.771  0.1612  0.0868 -0.5429
 2818SOL    HW119913   1.533   2.600  14.701 -0.2624  0.7661 -0.3681
 2818SOL    HW219914   1.539   2.475  14.788  0.6256  0.0998 -1.9309
 2819SOL     OW19915   0.512   3.248  17.629  0.0256  0.0182 -0.3009
 2819SOL    HW119916   0.432   3.202  17.653 -0.6572  1.3541 -0.0145
 2819SOL    HW219917   0.571   3.174  17.620 -2.1615 -1.7624  0.1997
 2820SOL     OW19918   4.404   1.806   8.573 -0.4516  0.3835  0.1065
 2820SOL    HW119919   4.450   1.770   8.498  2.2352  1.7008  1.1261
 2820SOL    HW219920   4.481   1.808   8.630 -0.0542 -0.3499 -0.4064
 2821SOL     OW19921   0.929   0.531   7.131 -0.3194  0.0369  0.4751
 2821SOL    HW119922   0.861   0.466   7.112 -1.1311  1.0215 -0.0254
 2821SOL    HW219923   1.009   0.480   7.122  0.2929  1.1579 -0.3254
 2822SOL     OW19924   0.064   0.924  13.489 -0.1172  0.1017 -0.4373
 2822SOL    HW119925   0.153   0.958  13.475  0.4930 -0.9130  1.0189
 2822SOL    HW219926   0.050   0.882  13.404 -2.0510 -0.0051 -0.0720
 2823SOL     OW19927   2.607   0.816  10.713  0.1233 -0.3398 -0.4223
 2823SOL    HW119928   2.694   0.776  10.716  0.3266  0.2220  1.2953
 2823SOL    HW219929   2.552   0.740  10.698  1.0314 -0.9817 -0.5198
 2824SOL     OW19930   2.376   0.018   7.314  0.2445  0.2048  0.0866
 2824SOL    HW119931   2.295   0.013   7.264 -0.8910 -4.6591  2.4044
 2824SOL    HW219932   2.423   0.068   7.247 -0.7607  0.8089 -0.1664
 2825SOL     OW19933   3.152   3.138   0.604 -0.4510  0.0748  0.2472
 2825SOL    HW119934   3.165   3.051   0.641  0.0045 -0.6055 -1.5127
 2825SOL    HW219935   3.114   3.118   0.518 -1.3540  2.5365  0.0624
 2826SOL     OW19936   0.298   4.278   8.798  0.4135  0.2537  0.4660
 2826SOL    HW119937   0.299   4.184   8.783 -1.7414  0.3448 -0.2825
 2826SOL    HW219938   0.251   4.299   8.879 -0.0131  1.6293 -0.1421
 2827SOL     OW19939   1.853   4.236   2.569 -0.1396 -0.2280 -0.4374
 2827SOL    HW119940   1.941   4.202   2.557  0.3027  1.2064 -1.1701
 2827SOL    HW219941   1.857   4.326   2.537 -0.3720 -1.0869 -2.9057
 2828SOL     OW19942   1.978   0.793   8.344 -0.0192  0.4447  0.6509
 2828SOL    HW119943   1.943   0.878   8.368  0.4789  0.6148  0.7788
 2828SOL    HW219944   2.073   0.807   8.352  0.1252  0.5719 -1.1425
 2829SOL     OW19945   1.488   1.881   8.946  0.1172 -0.5782  0.1906
 2829SOL    HW119946   1.560   1.923   8.993  1.2256 -0.7599 -1.3842
 2829SOL    HW219947   1.519   1.790   8.953 -0.8583 -0.8309  1.3570
 2830SOL     OW19948   3.279   4.485   6.946  0.2535 -0.0976 -0.9877
 2830SOL    HW119949   3.320   4.437   6.875  0.6372 -1.0030 -0.1556
 2830SOL    HW219950   3.212   4.420   6.967 -0.0428 -0.2634 -2.4475
 2831SOL     OW19951   1.184   2.234   6.536  0.5362  0.4732  0.4162
 2831SOL    HW119952   1.089   2.241   6.528  0.5905 -0.2401 -0.8752
 2831SOL    HW219953   1.203   2.167   6.602 -0.0535 -1.2780 -1.2004
 2832SOL     OW19954   1.628   0.376  10.585 -0.0703  0.2157 -0.1902
 2832SOL    HW119955   1.542   0.356  10.621  0.1847 -1.3644 -0.4418
 2832SOL    HW219956   1.677   0.355  10.664  1.6783  1.7126 -0.8881
 2833SOL     OW19957   4.647   1.914  11.313 -0.2107 -0.0680 -0.2941
 2833SOL    HW119958   0.009   1.954  11.337  0.1371 -0.5236 -0.7225
 2833SOL    HW219959   4.627   1.946  11.225  2.2068 -1.6785 -1.4181
 2834SOL     OW19960   0.407   0.913  10.611  0.0826 -0.2524 -0.2412
 2834SOL    HW119961   0.397   0.843  10.675 -0.1823  0.2287  0.2405
 2834SOL    HW219962   0.384   0.991  10.661  2.4155  0.2742 -0.0130
 2835SOL     OW19963   4.223   4.578  13.412  0.0799 -0.5805 -0.5387
 2835SOL    HW119964   4.309   4.613  13.387 -0.9424  3.2919  1.4051
 2835SOL    HW219965   4.183   4.659  13.443  3.0922  0.1876  1.3255
 2836SOL     OW19966   0.550   1.412   3.681  0.0067  0.2993  0.0532
 2836SOL    HW119967   0.551   1.316   3.680 -0.0054  0.3316 -2.6664
 2836SOL    HW219968   0.580   1.446   3.597 -0.0662  1.0659  0.3358
 2837SOL     OW19969   2.632   3.674   0.668 -0.0918 -0.3203  0.0283
 2837SOL    HW119970   2.715   3.631   0.646  0.7997 -0.0318  2.8255
 2837SOL    HW219971   2.653   3.745   0.607 -1.2853 -1.5306 -1.8020
 2838SOL     OW19972   2.923   4.683   6.817  0.9557  0.1331  0.0279
 2838SOL    HW119973   2.901   4.669   6.909  0.7555  0.3414  0.0129
 2838SOL    HW219974   3.019   4.687   6.824  0.9714  1.3388 -0.8890
 2839SOL     OW19975   4.651   0.726   3.270  0.3187 -0.1296 -0.2705
 2839SOL    HW119976   4.645   0.758   3.180 -2.1688  1.7168  0.5665
 2839SOL    HW219977   0.001   0.663   3.260  1.3524  0.8262  1.1824
 2840SOL     OW19978   1.926   4.554   1.595  0.6262 -0.4235 -0.0408
 2840SOL    HW119979   1.987   4.503   1.541  1.6219  2.4628 -1.6319
 2840SOL    HW219980   1.956   4.547   1.685 -0.9450 -0.7403  0.4603
 2841SOL     OW19981   3.873   4.149   6.163 -0.4117 -0.1297 -0.7025
 2841SOL    HW119982   3.954   4.183   6.124  0.2850 -0.4500  0.4624
 2841SOL    HW219983   3.826   4.126   6.083 -0.4971 -0.5739 -0.5239
 2842SOL     OW19984   3.460   2.182  12.838 -0.3783 -0.4641 -0.4994
 2842SOL    HW119985   3.393   2.246  12.862  1.0565  0.3964  1.2545
 2842SOL    HW219986   3.411   2.106  12.808  0.0159  0.1955 -2.8402
 2843SOL     OW19987   4.359   0.102  13.221 -0.2869  0.6235  0.3683
 2843SOL    HW119988   4.432   0.043  13.238 -1.1650 -0.0617  1.7935
 2843SOL    HW219989   4.310   0.106  13.303  1.3654 -2.7259  1.5309
 2844SOL     OW19990   2.088   3.933   5.474  0.0229  0.0945 -0.1620
 2844SOL    HW119991   2.134   3.861   5.431  2.5227  3.1970 -2.7050
 2844SOL    HW219992   2.016   3.894   5.524  3.2376 -1.5012  3.2562
 2845SOL     OW19993   4.264   2.436   4.803 -0.0999 -0.5455 -0.0176
 2845SOL    HW119994   4.225   2.488   4.873  1.0032  0.0235  0.1736
 2845SOL    HW219995   4.334   2.493   4.772  0.0624 -0.3232  0.7743
 2846SOL     OW19996   0.544   1.497   4.210 -0.5389  0.1665 -0.6517
 2846SOL    HW119997   0.502   1.525   4.291 -1.3274  1.8897 -1.6670
 2846SOL    HW219998   0.608   1.564   4.187  0.2544 -0.4604 -0.2745
 2847SOL     OW19999   0.470   3.772   3.557  0.6573 -0.3730 -0.2321
 2847SOL    HW120000   0.556   3.744   3.589  1.7115  1.9032 -1.1125
 2847SOL    HW220001   0.474   3.714   3.480  2.1148 -0.2922 -0.2288
 2848SOL     OW20002   2.258   1.503   5.716  0.6771  0.2870  0.8544
 2848SOL    HW120003   2.196   1.494   5.788 -0.4936  0.9278 -0.0844
 2848SOL    HW220004   2.296   1.415   5.727  0.7745  0.4953  2.2357
 2849SOL     OW20005   3.152   3.988  13.107 -0.1612 -0.0463 -0.0844
 2849SOL    HW120006   3.156   4.063  13.167  1.6430 -0.2098  0.0039
 2849SOL    HW220007   3.229   4.016  13.057  1.5997 -1.4732  1.8446
 2850SOL     OW20008   1.204   3.370  10.712  0.1760  0.2737 -0.2149
 2850SOL    HW120009   1.129   3.373  10.652 -0.8701 -0.7235  1.0444
 2850SOL    HW220010   1.165   3.395  10.795  0.2341 -0.5121  0.0512
 2851SOL     OW20011   1.172   1.712   2.380  0.2603 -0.2012  0.4663
 2851SOL    HW120012   1.129   1.660   2.448  2.0984 -0.2088  1.6271
 2851SOL    HW220013   1.262   1.681   2.382 -0.1764 -1.4554  0.2480
 2852SOL     OW20014   2.043   0.067   2.622  0.6908  0.2129  0.2107
 2852SOL    HW120015   1.949   0.056   2.634  1.2697  0.5900  4.8700
 2852SOL    HW220016   2.047   0.069   2.526 -1.5918 -1.3532  0.0817
 2853SOL     OW20017   2.964   0.476  10.863  0.1483 -0.2352 -0.1634
 2853SOL    HW120018   3.026   0.480  10.936  2.1351  0.7942 -1.8842
 2853SOL    HW220019   3.014   0.412  10.813 -0.3351 -1.1788  0.5860
 2854SOL     OW20020   0.714   4.623   5.450  0.4628  0.3723 -0.6537
 2854SOL    HW120021   0.791   4.662   5.407  0.2451  1.3815 -0.1285
 2854SOL    HW220022   0.748   4.570   5.523  1.5249  1.4564 -0.3572
 2855SOL     OW20023   4.275   1.672   3.128  0.0514 -0.0886 -0.0190
 2855SOL    HW120024   4.242   1.599   3.076  1.8240 -1.0568  0.2248
 2855SOL    HW220025   4.370   1.668   3.125 -0.0588 -2.4691  0.1689
 2856SOL     OW20026   1.855   4.198   4.295 -0.2302 -0.1480  0.3536
 2856SOL    HW120027   1.836   4.127   4.355  2.8988 -2.3044 -1.2034
 2856SOL    HW220028   1.946   4.210   4.322 -0.2773  1.5978 -0.2155
 2857SOL     OW20029   3.169   0.842   4.399 -0.1589  0.8153  0.3717
 2857SOL    HW120030   3.104   0.856   4.468 -0.7053  0.9681 -0.1682
 2857SOL    HW220031   3.235   0.800   4.453 -0.2808  0.6731  0.4107
 2858SOL     OW20032   0.112   4.680   5.942 -0.0550  0.3115  0.4444
 2858SOL    HW120033   0.103   0.019   5.869  2.8359  0.4227  0.2105
 2858SOL    HW220034   0.190   4.714   5.984  1.0637 -0.1894 -1.2632
 2859SOL     OW20035   3.895   2.481   4.481 -0.2687 -0.5670 -0.0571
 2859SOL    HW120036   3.947   2.441   4.551 -0.7670 -1.0533  0.0271
 2859SOL    HW220037   3.967   2.503   4.422 -0.4927  0.2807 -0.0157
 2860SOL     OW20038   3.357   2.378   8.293  0.0689 -0.0924  0.0787
 2860SOL    HW120039   3.407   2.349   8.370  0.2654 -0.7941 -0.3104
 2860SOL    HW220040   3.271   2.372   8.334 -0.2768  1.2176 -0.4526
 2861SOL     OW20041   4.528   3.492   7.800  0.0327  0.0887 -0.3423
 2861SOL    HW120042   4.555   3.567   7.853  0.8782 -1.9982  2.1900
 2861SOL    HW220043   4.494   3.540   7.725  0.5427  2.6247  1.0517
 2862SOL     OW20044   2.223   0.214   2.394  0.1874  0.3004  0.4440
 2862SOL    HW120045   2.142   0.229   2.346 -0.2880 -0.2664  1.0590
 2862SOL    HW220046   2.228   0.118   2.396 -0.8036  0.2388 -0.6666
 2863SOL     OW20047   2.872   4.240   6.369 -0.3624 -0.2850  0.4087
 2863SOL    HW120048   2.801   4.176   6.360 -1.2103  0.5771  0.9288
 2863SOL    HW220049   2.944   4.199   6.321 -0.7913  1.4973 -1.7612
 2864SOL     OW20050   2.252   3.439   9.039 -0.3600 -0.6569  1.0702
 2864SOL    HW120051   2.239   3.534   9.041 -0.0175 -0.5840 -0.3744
 2864SOL    HW220052   2.180   3.412   9.096 -1.4175 -3.9715 -1.8385
 2865SOL     OW20053   4.252   0.095   2.633  0.5491  0.7179 -0.2991
 2865SOL    HW120054   4.249   0.138   2.719  0.1492  0.9000 -0.4034
 2865SOL    HW220055   4.309   0.161   2.594  1.3677  0.2673  0.1500
 2866SOL     OW20056   0.857   3.718   2.241  0.1678  0.0086  0.2682
 2866SOL    HW120057   0.831   3.792   2.296 -3.0332 -0.8248 -0.0902
 2866SOL    HW220058   0.826   3.745   2.154 -1.9904  0.6200  1.2289
 2867SOL     OW20059   4.187   4.650   6.946  0.6749 -0.0077 -0.5636
 2867SOL    HW120060   4.158   4.703   6.872 -3.0050 -0.8577  0.2692
 2867SOL    HW220061   4.210   4.720   7.008 -0.0484  0.4367 -0.7949
 2868SOL     OW20062   0.756   0.729  12.336  0.3722 -0.0611 -0.3270
 2868SOL    HW120063   0.785   0.646  12.375 -0.3831 -0.0391  0.2871
 2868SOL    HW220064   0.686   0.694  12.281  0.3024 -0.5663  0.0766
 2869SOL     OW20065   1.008   3.494  13.675 -0.1126 -0.3522  0.1543
 2869SOL    HW120066   1.103   3.480  13.674  0.0354  0.7659 -1.1223
 2869SOL    HW220067   0.990   3.504  13.581 -0.4509 -3.2470 -0.0745
 2870SOL     OW20068   1.089   3.432   3.831  0.4239 -0.4603 -0.3141
 2870SOL    HW120069   1.087   3.456   3.923 -0.5031 -0.3352 -0.3681
 2870SOL    HW220070   1.049   3.345   3.839 -1.6807  0.7242  1.8286
 2871SOL     OW20071   1.122   0.350   4.381 -0.3192  0.2141 -0.1017
 2871SOL    HW120072   1.121   0.311   4.294 -0.6142  0.7483 -0.3383
 2871SOL    HW220073   1.048   0.411   4.380  1.8865  2.9262 -1.4977
 2872SOL     OW20074   0.956   3.573   4.040 -0.1298  0.1128 -0.0061
 2872SOL    HW120075   0.882   3.574   4.099  0.8382  0.4302  1.2006
 2872SOL    HW220076   0.929   3.627   3.966  0.3310 -0.4689 -0.6039
 2873SOL     OW20077   3.255   3.712   5.034  0.2667 -0.3330 -0.1667
 2873SOL    HW120078   3.309   3.635   5.022 -0.3874 -0.8323  0.0610
 2873SOL    HW220079   3.310   3.790   5.026 -0.6810  0.2547 -0.9525
 2874SOL     OW20080   3.514   3.571   6.916 -0.5988  0.5179  0.7422
 2874SOL    HW120081   3.589   3.607   6.869 -0.8333 -1.7516 -1.3352
 2874SOL    HW220082   3.542   3.610   7.000 -1.1176  0.3259  1.0072
 2875SOL     OW20083   1.632   0.803   7.315 -0.0518  0.4869 -0.3158
 2875SOL    HW120084   1.595   0.849   7.390 -0.3724 -1.7134  0.8812
 2875SOL    HW220085   1.716   0.846   7.329 -0.6462  1.2175  1.0173
 2876SOL     OW20086   1.187   1.067   6.001 -0.1124 -0.4181  0.2958
 2876SOL    HW120087   1.223   1.091   6.086  2.4572 -0.4633 -0.7850
 2876SOL    HW220088   1.185   1.157   5.970 -1.6751  0.0261  1.6895
 2877SOL     OW20089   0.848   4.250   8.089  0.5408  0.2444  0.2933
 2877SOL    HW120090   0.871   4.208   8.172  1.8457  0.5070  0.0605
 2877SOL    HW220091   0.882   4.194   8.019 -0.3801 -0.1017  0.1137
 2878SOL     OW20092   1.068   3.920   6.207 -0.0296 -0.4044 -0.4182
 2878SOL    HW120093   1.016   4.000   6.213 -0.7299 -0.8694 -0.2554
 2878SOL    HW220094   1.044   3.897   6.117 -2.0387  2.4100 -0.5819
 2879SOL     OW20095   1.768   1.230   1.568  0.0402 -0.1074  0.3833
 2879SOL    HW120096   1.783   1.195   1.657  0.8552 -0.7903 -0.0183
 2879SOL    HW220097   1.834   1.299   1.577 -0.6011  0.4019  1.2314
 2880SOL     OW20098   1.228   2.932  12.825  0.4719  0.4330 -0.5556
 2880SOL    HW120099   1.245   2.842  12.854  1.9124  0.6913 -0.6015
 2880SOL    HW220100   1.139   2.945  12.860  0.4088  2.8571 -1.6023
 2881SOL     OW20101   3.514   1.320  12.349  0.3984 -0.2913 -0.1222
 2881SOL    HW120102   3.549   1.239  12.389  0.4792  0.5982  1.6365
 2881SOL    HW220103   3.586   1.350  12.293 -0.5971  2.8771  0.3270
 2882SOL     OW20104   2.735   0.648  11.665 -0.2315  0.1235 -0.3197
 2882SOL    HW120105   2.712   0.575  11.608  1.3200  0.3612 -1.2530
 2882SOL    HW220106   2.762   0.608  11.747  0.3964 -0.4931 -0.8316
 2883SOL     OW20107   1.508   0.958  17.553  0.0673  0.0255  0.0281
 2883SOL    HW120108   1.457   0.882  17.583  0.4212  0.2826  1.2586
 2883SOL    HW220109   1.553   1.000  17.626 -2.7143  2.0862  0.5791
 2884SOL     OW20110   2.258   1.816   7.526  0.4397 -0.0769  0.4204
 2884SOL    HW120111   2.346   1.845   7.550  0.4659  0.9764 -0.8812
 2884SOL    HW220112   2.210   1.851   7.601 -1.7167  0.0434 -0.9923
 2885SOL     OW20113   2.174   2.188  17.395 -0.4352 -1.0630  0.1856
 2885SOL    HW120114   2.101   2.138  17.431 -0.7913 -0.5209  0.2154
 2885SOL    HW220115   2.230   2.112  17.376  2.3908  1.0837 -0.0553
 2886SOL     OW20116   4.581   2.847   0.324  0.3856 -0.2045  0.6861
 2886SOL    HW120117   4.603   2.787   0.252 -0.5425 -0.9259  0.9952
 2886SOL    HW220118   4.487   2.837   0.338  0.3628 -2.0432 -0.7990
 2887SOL     OW20119   2.039   0.322   0.649  0.0457 -0.2177  0.5989
 2887SOL    HW120120   1.997   0.309   0.564 -0.0051  2.1519  0.2717
 2887SOL    HW220121   2.048   0.416   0.664 -1.7202  0.1737 -0.8186
 2888SOL     OW20122   3.346   4.192   5.527 -0.3031  0.2910  0.3801
 2888SOL    HW120123   3.321   4.268   5.474 -2.1721  1.0255  2.3192
 2888SOL    HW220124   3.262   4.145   5.534  0.7788 -1.4195  1.9464
 2889SOL     OW20125   4.090   4.010  15.085 -0.2022 -0.1161 -0.2298
 2889SOL    HW120126   4.060   4.097  15.111  0.6426 -0.0436  0.5088
 2889SOL    HW220127   4.043   3.948  15.141  0.9892 -1.5550 -0.8058
 2890SOL     OW20128   3.547   0.008   0.867 -0.1240  0.0005  0.5827
 2890SOL    HW120129   3.633   0.031   0.833  0.1222 -3.1377 -0.8600
 2890SOL    HW220130   3.567   4.662   0.932 -1.6952  0.4027  1.4996
 2891SOL     OW20131   3.930   1.459  13.833  0.4693 -0.3536  0.3663
 2891SOL    HW120132   3.905   1.517  13.905 -1.1952 -0.9891  0.2858
 2891SOL    HW220133   3.872   1.384  13.845  1.1345 -0.6080  2.0188
 2892SOL     OW20134   4.630   3.321   5.765 -0.3907 -0.1564  0.0778
 2892SOL    HW120135   4.698   3.282   5.711 -3.1253 -1.1437 -2.6665
 2892SOL    HW220136   4.558   3.338   5.704  0.2219 -0.3580 -0.7024
 2893SOL     OW20137   4.276   0.972   4.657  0.1672 -0.3825  0.4901
 2893SOL    HW120138   4.274   0.905   4.588 -0.9882 -1.2214  1.3337
 2893SOL    HW220139   4.313   0.931   4.735  0.0100 -1.9979 -0.2941
 2894SOL     OW20140   3.456   0.854   5.787  0.1264 -0.0361 -0.3674
 2894SOL    HW120141   3.464   0.758   5.792  2.7914  0.1489 -0.9387
 2894SOL    HW220142   3.533   0.874   5.734 -0.5816 -0.5390 -1.5833
 2895SOL     OW20143   2.316   1.951  17.369  0.1005  0.4198  0.5336
 2895SOL    HW120144   2.394   1.978  17.418 -1.2756  0.0327  2.9109
 2895SOL    HW220145   2.283   1.876  17.420 -0.1835  0.3626  0.2640
 2896SOL     OW20146   0.562   3.268   7.033  0.1361 -0.3072  0.7867
 2896SOL    HW120147   0.478   3.310   7.047  0.5644  0.7515  0.2070
 2896SOL    HW220148   0.622   3.333   7.069  0.6790  0.8944 -2.2672
 2897SOL     OW20149   0.429   3.235  14.264 -0.0800 -0.1357  0.1794
 2897SOL    HW120150   0.496   3.200  14.205 -0.1422 -0.7671  0.4813
 2897SOL    HW220151   0.372   3.158  14.267 -0.1177 -0.1134  0.0285
 2898SOL     OW20152   2.965   1.064  12.046  0.1580  0.4843 -0.4464
 2898SOL    HW120153   2.916   0.982  12.036  0.1603  0.3490  0.6302
 2898SOL    HW220154   2.983   1.088  11.955 -1.5004  0.2971 -0.8265
 2899SOL     OW20155   3.981   2.767   8.935 -0.2364 -0.1337  0.3291
 2899SOL    HW120156   3.985   2.835   9.002 -2.1963 -1.2222  1.5469
 2899SOL    HW220157   4.069   2.766   8.898 -0.6250  1.3393 -0.6463
 2900SOL     OW20158   0.188   0.430  13.200 -0.2523  0.1705 -0.1472
 2900SOL    HW120159   0.106   0.472  13.173  1.4419  2.2792 -1.9279
 2900SOL    HW220160   0.252   0.454  13.134  0.8125 -2.0272  0.1118
 2901SOL     OW20161   2.227   4.554   3.196 -0.0001 -0.1421 -0.0697
 2901SOL    HW120162   2.210   4.460   3.194  0.4123 -0.2163 -0.1776
 2901SOL    HW220163   2.230   4.564   3.291  1.4312 -1.7554  0.0510
 2902SOL     OW20164   1.933   0.213   6.724  0.0253 -0.0303  0.4959
 2902SOL    HW120165   2.024   0.226   6.697 -1.0590 -0.0861 -3.2397
 2902SOL    HW220166   1.876   0.283   6.692 -2.0733 -1.5952  0.8443
 2903SOL     OW20167   4.342   3.987   8.596  0.3502  0.4116 -0.3956
 2903SOL    HW120168   4.354   4.019   8.507  0.8541 -1.2070 -0.9107
 2903SOL    HW220169   4.407   4.024   8.657  1.8916 -2.9675  0.0047
 2904SOL     OW20170   1.734   3.086   3.992  0.5902  0.0163 -0.0768
 2904SOL    HW120171   1.666   3.083   3.924 -0.6716 -2.0575  1.2545
 2904SOL    HW220172   1.750   2.993   4.008  0.2207 -0.1324 -0.5610
 2905SOL     OW20173   0.544   3.090   7.356  0.7518  0.2199 -0.3319
 2905SOL    HW120174   0.567   3.175   7.319  0.6647  0.2473 -0.3223
 2905SOL    HW220175   0.575   3.098   7.446 -0.9429 -0.7772  0.3460
 2906SOL     OW20176   4.479   4.613  13.351 -0.4011 -0.0505 -0.2794
 2906SOL    HW120177   4.566   4.644  13.376 -0.5427  1.3769 -1.5273
 2906SOL    HW220178   4.498   4.519  13.345  0.7667  0.1783 -0.1814
 2907SOL     OW20179   4.167   0.098   9.368 -0.1888 -0.0490 -0.0189
 2907SOL    HW120180   4.230   0.108   9.296  1.3793  1.1695  1.4949
 2907SOL    HW220181   4.204   0.019   9.408 -2.7722 -0.8170  0.8164
 2908SOL     OW20182   1.692   0.203   4.193  0.3459  0.0179 -0.2428
 2908SOL    HW120183   1.696   0.262   4.117 -1.5422  0.7318  0.2128
 2908SOL    HW220184   1.682   0.115   4.155 -2.0428  0.1832  0.0128
 2909SOL     OW20185   3.099   0.571   5.289  0.3733 -0.2119  0.0363
 2909SOL    HW120186   3.098   0.663   5.260  1.2637 -1.0121 -2.5912
 2909SOL    HW220187   3.067   0.522   5.213  0.2193 -1.3439  0.8285
 2910SOL     OW20188   2.917   1.437  14.452  0.0069 -0.3378  0.3264
 2910SOL    HW120189   2.826   1.439  14.423 -0.2904 -1.1102  1.2149
 2910SOL    HW220190   2.919   1.458  14.545 -2.1714  1.9297 -0.1385
 2911SOL     OW20191   3.572   3.744  17.656 -0.6157  0.1297 -0.0528
 2911SOL    HW120192   3.603   3.695   0.045  0.4376  3.3788  1.5798
 2911SOL    HW220193   3.600   3.681  17.589  2.3528  1.2112  0.1599
 2912SOL     OW20194   3.979   4.596   3.422  0.7312 -0.4377 -0.1893
 2912SOL    HW120195   3.913   4.557   3.365  1.7150 -1.6672 -0.4785
 2912SOL    HW220196   4.053   4.537   3.414  2.1546  1.3280 -0.1720
 2913SOL     OW20197   2.906   2.016   2.476 -0.0824  0.3171  0.3828
 2913SOL    HW120198   2.999   2.037   2.471  0.1787 -1.1639 -0.6909
 2913SOL    HW220199   2.885   2.017   2.570 -1.4683 -1.4351  0.0903
 2914SOL     OW20200   1.009   0.107   8.929 -0.8943  0.5958 -0.2651
 2914SOL    HW120201   1.070   0.043   8.966 -2.3886  0.0343  1.2106
 2914SOL    HW220202   1.070   0.181   8.930  1.0420 -1.0309  1.6493
 2915SOL     OW20203   1.163   4.620  13.358 -0.4740  0.4450 -0.5308
 2915SOL    HW120204   1.160   4.683  13.430 -2.6775 -0.6343  0.3344
 2915SOL    HW220205   1.224   4.655  13.294  0.8341  1.2380  1.1655
 2916SOL     OW20206   0.126   3.927  11.643 -0.5145  0.1653 -0.2829
 2916SOL    HW120207   0.204   3.871  11.650 -0.1085  0.9374  1.3109
 2916SOL    HW220208   0.069   3.857  11.612 -1.3047  0.9988 -0.7180
 2917SOL     OW20209   1.439   3.032   4.030 -0.6276  0.3547 -1.0654
 2917SOL    HW120210   1.383   3.096   4.075  0.9332  2.6887 -2.4515
 2917SOL    HW220211   1.370   2.977   3.993  0.6254 -1.0378 -1.2999
 2918SOL     OW20212   1.524   1.054   9.889  0.1427 -0.0635 -0.5713
 2918SOL    HW120213   1.599   1.002   9.859 -0.2101 -0.3168 -1.0151
 2918SOL    HW220214   1.487   1.011   9.966  2.4361 -3.2389 -1.2143
 2919SOL     OW20215   3.157   2.897   7.192 -0.3627  0.4933  0.8342
 2919SOL    HW120216   3.145   2.977   7.141 -1.0622  0.1677  0.4893
 2919SOL    HW220217   3.230   2.921   7.249  3.3689 -1.8464 -2.9338
 2920SOL     OW20218   1.018   0.092   1.864  0.0836  0.5974  0.0520
 2920SOL    HW120219   1.022   0.112   1.958 -1.4165  2.5998 -0.2832
 2920SOL    HW220220   1.092   0.141   1.828  0.4518  1.0285  1.3842
 2921SOL     OW20221   2.374   4.003   4.856  0.0861  0.4103 -0.3977
 2921SOL    HW120222   2.366   4.098   4.841  0.4987  0.5182  0.0524
 2921SOL    HW220223   2.283   3.983   4.874  0.7755 -0.2059  2.3322
 2922SOL     OW20224   0.702   0.682   1.909  0.1155 -0.5562  0.0585
 2922SOL    HW120225   0.628   0.624   1.928 -0.0175 -0.9450 -1.6681
 2922SOL    HW220226   0.774   0.627   1.879  2.0141  2.0799 -0.2106
 2923SOL     OW20227   2.946   1.964   5.399  0.0635 -0.0506  0.5199
 2923SOL    HW120228   2.903   1.895   5.451 -0.1043  0.2376  0.7626
 2923SOL    HW220229   2.951   2.039   5.458  1.1282  0.2852  0.0040
 2924SOL     OW20230   3.167   4.021   8.836 -0.0977  0.1670  0.0349
 2924SOL    HW120231   3.177   4.089   8.902 -0.7452  0.4444 -0.1546
 2924SOL    HW220232   3.146   4.073   8.759 -2.7839 -0.1118  0.5930
 2925SOL     OW20233   2.853   4.158  16.843 -0.3268 -0.0873  0.3802
 2925SOL    HW120234   2.835   4.232  16.785 -0.7253  1.4518  2.4271
 2925SOL    HW220235   2.945   4.150  16.819 -0.3326  0.6095  0.1160
 2926SOL     OW20236   0.579   1.542   6.641 -0.2755  0.2899 -0.1398
 2926SOL    HW120237   0.496   1.587   6.627  0.4407  1.4913 -0.5610
 2926SOL    HW220238   0.638   1.612   6.668  0.5053 -0.5255  0.2614
 2927SOL     OW20239   0.078   0.681  15.053  0.1142 -0.5206  0.1654
 2927SOL    HW120240   0.156   0.675  14.997 -0.6967  1.1603 -1.1476
 2927SOL    HW220241   0.030   0.726  14.983 -0.0176 -0.8619  0.0365
 2928SOL     OW20242   2.301   0.923   7.509  0.3727 -0.9894 -0.2434
 2928SOL    HW120243   2.261   1.000   7.469  1.0249 -0.3733  0.2854
 2928SOL    HW220244   2.386   0.955   7.537 -0.5661 -0.6017  2.1688
 2929SOL     OW20245   3.737   3.365   8.836  0.4227  0.0790 -0.4138
 2929SOL    HW120246   3.700   3.422   8.768 -2.3960  0.5785  1.5191
 2929SOL    HW220247   3.788   3.420   8.895 -1.2984  1.5444 -0.2998
 2930SOL     OW20248   3.721   2.051   4.051 -0.4529 -0.0227  0.2451
 2930SOL    HW120249   3.751   1.979   3.995 -1.2024  1.5586 -2.1533
 2930SOL    HW220250   3.631   2.022   4.064 -0.2414 -0.5498  0.5453
 2931SOL     OW20251   0.117   2.579   6.782  0.1676 -0.2130  0.6320
 2931SOL    HW120252   0.082   2.514   6.843  1.3099 -1.4297  0.0153
 2931SOL    HW220253   0.061   2.656   6.794  0.8954  0.7950 -2.4721
 2932SOL     OW20254   3.720   2.429   8.725 -0.2769  0.5399  0.1057
 2932SOL    HW120255   3.703   2.335   8.721  0.9930  0.3880 -2.5297
 2932SOL    HW220256   3.807   2.430   8.766  0.7166  0.4993 -1.9826
 2933SOL     OW20257   2.218   2.991   3.282  0.2617  0.2863 -0.2258
 2933SOL    HW120258   2.258   3.010   3.367 -0.1309  2.0278 -0.4151
 2933SOL    HW220259   2.182   2.905   3.303  0.7778  0.0109 -0.4844
 2934SOL     OW20260   2.945   0.570   1.126  0.1052 -0.1958 -0.0873
 2934SOL    HW120261   2.874   0.601   1.182 -0.1636 -2.2600  0.7018
 2934SOL    HW220262   2.896   0.503   1.078  0.7186 -0.9855  0.4023
 2935SOL     OW20263   1.441   2.289  16.217  0.0823  0.2244  0.0361
 2935SOL    HW120264   1.347   2.286  16.199 -0.1684 -1.8171  1.6968
 2935SOL    HW220265   1.446   2.339  16.299 -0.8455 -0.7848  0.6991
 2936SOL     OW20266   4.357   3.063   7.802 -0.2036 -0.6834  0.2662
 2936SOL    HW120267   4.426   3.047   7.866  0.6645  2.6102  0.1297
 2936SOL    HW220268   4.330   2.972   7.789 -2.3018  0.0945 -0.8664
 2937SOL     OW20269   0.009   4.379   4.142  0.1419 -0.0682 -0.1899
 2937SOL    HW120270   0.086   4.435   4.152  0.4695 -0.3058 -1.4328
 2937SOL    HW220271   4.673   4.435   4.090 -0.7758 -3.2906 -2.6638
 2938SOL     OW20272   0.838   0.914  13.867 -0.0860  0.1156 -0.2788
 2938SOL    HW120273   0.913   0.855  13.865 -1.0994 -1.1538 -0.3690
 2938SOL    HW220274   0.896   0.988  13.888  0.8103  1.2044 -6.4242
 2939SOL     OW20275   1.716   3.553   4.191  0.3903 -0.2509 -0.4865
 2939SOL    HW120276   1.651   3.567   4.122  0.8151 -0.2794 -0.8943
 2939SOL    HW220277   1.699   3.460   4.204 -2.2407  0.4580  1.0077
 2940SOL     OW20278   0.281   2.220   2.434  0.7331 -0.2007 -0.1469
 2940SOL    HW120279   0.242   2.141   2.470 -0.0947  0.0257 -0.5580
 2940SOL    HW220280   0.358   2.188   2.387 -0.0734  0.1537 -1.7274
 2941SOL     OW20281   3.457   1.072  12.564 -0.4919  0.3951  0.0836
 2941SOL    HW120282   3.480   0.995  12.512 -0.2623  1.1744 -0.9488
 2941SOL    HW220283   3.547   1.099  12.580  0.0196 -2.0446  1.3360
 2942SOL     OW20284   1.653   3.548   0.117  0.1006  0.7562 -0.1143
 2942SOL    HW120285   1.568   3.549   0.073 -0.0771 -1.2672  0.1612
 2942SOL    HW220286   1.641   3.465   0.164  2.5556  0.1850 -0.5240
 2943SOL     OW20287   2.458   0.244   3.052  0.6570  0.8705  0.2186
 2943SOL    HW120288   2.550   0.263   3.073  1.1132 -1.7990  0.6139
 2943SOL    HW220289   2.461   0.148   3.051 -2.0438  0.8226 -2.0029
 2944SOL     OW20290   1.037   4.094   3.099  0.1170 -0.2315 -0.2818
 2944SOL    HW120291   1.030   4.050   3.183 -1.5926 -0.3303 -0.4812
 2944SOL    HW220292   0.964   4.052   3.053 -0.3227  1.2572 -0.9677
 2945SOL     OW20293   0.694   3.619   0.241 -0.0850  1.1423  0.7257
 2945SOL    HW120294   0.768   3.603   0.181 -1.5499  1.7319 -1.2431
 2945SOL    HW220295   0.726   3.691   0.294  0.6242  2.0661 -0.9472
 2946SOL     OW20296   0.609   0.142   0.449  0.3765  0.7731 -0.1698
 2946SOL    HW120297   0.602   0.047   0.455  0.4350  0.6784 -1.4997
 2946SOL    HW220298   0.580   0.150   0.358  1.4494 -0.4632 -0.6251
 2947SOL     OW20299   3.968   3.338   9.210 -0.1790  0.0464 -0.0875
 2947SOL    HW120300   3.937   3.397   9.279  0.1588  1.9079 -1.5340
 2947SOL    HW220301   3.991   3.261   9.262  1.4988  1.6980  1.6428
 2948SOL     OW20302   3.804   4.294   0.448 -0.8221  0.3315  0.5917
 2948SOL    HW120303   3.844   4.244   0.519 -0.1423  0.7450  0.5014
 2948SOL    HW220304   3.783   4.378   0.489 -0.1816  0.6370  0.2863
 2949SOL     OW20305   4.056   1.645   6.076  0.3171 -0.0161 -0.0040
 2949SOL    HW120306   3.984   1.648   6.013  0.7019  2.7564 -0.3212
 2949SOL    HW220307   4.089   1.732   6.053 -3.0197  1.5233  0.9940
 2950SOL     OW20308   0.821   1.583  11.932 -0.1548 -0.4500 -0.6014
 2950SOL    HW120309   0.766   1.512  11.965  0.5161 -1.0010 -0.6551
 2950SOL    HW220310   0.832   1.570  11.838 -2.6232  0.5201 -1.0193
 2951SOL     OW20311   1.329   1.021   5.309 -0.0562 -0.1554 -0.4401
 2951SOL    HW120312   1.322   0.948   5.247 -0.0400  1.4012 -2.3004
 2951SOL    HW220313   1.334   1.092   5.244 -1.5582 -0.4929 -0.9284
 2952SOL     OW20314   0.539   1.163  10.395 -0.6062  0.1267  0.4882
 2952SOL    HW120315   0.631   1.142  10.376  0.0424  1.2731  2.3555
 2952SOL    HW220316   0.493   1.092  10.351  0.9783 -2.0218  2.2926
 2953SOL     OW20317   3.028   3.858  14.167 -0.4502 -0.2535 -0.1099
 2953SOL    HW120318   3.053   3.951  14.165  2.0420 -0.8998  0.7892
 2953SOL    HW220319   2.950   3.871  14.220 -0.7514 -0.7508 -0.4388
 2954SOL     OW20320   0.447   0.119  14.011  0.1309 -0.0569  0.2659
 2954SOL    HW120321   0.426   0.164  14.093  0.7472 -1.1625  1.0344
 2954SOL    HW220322   0.365   0.107  13.964  0.1121 -0.8377  0.5056
 2955SOL     OW20323   2.684   0.582   8.462  0.3125  0.0455  0.6592
 2955SOL    HW120324   2.730   0.499   8.449  0.8033  0.4606 -0.2827
 2955SOL    HW220325   2.596   0.550   8.446 -0.3504  1.1429  2.1684
 2956SOL     OW20326   1.265   4.147   7.780  0.4206 -0.0488 -0.6228
 2956SOL    HW120327   1.249   4.057   7.808 -0.8156 -0.9054 -4.0675
 2956SOL    HW220328   1.316   4.135   7.700  0.5648  1.9353 -0.8253
 2957SOL     OW20329   2.996   3.139   5.542 -0.6358  0.7685 -0.2942
 2957SOL    HW120330   3.071   3.198   5.550 -0.2898  0.0217  2.0573
 2957SOL    HW220331   3.023   3.111   5.455 -0.9117 -2.4246  0.6485
 2958SOL     OW20332   0.129   1.842   4.080 -0.7478  0.3301  0.4525
 2958SOL    HW120333   0.101   1.753   4.060  1.4571 -0.2570  0.0045
 2958SOL    HW220334   0.055   1.865   4.137 -1.6361 -0.3468 -0.4291
 2959SOL     OW20335   4.263   0.726   2.920 -0.3821  0.3825  0.2709
 2959SOL    HW120336   4.271   0.794   2.853 -1.6264  1.4127  1.1739
 2959SOL    HW220337   4.184   0.746   2.971 -0.1648  0.4217  0.5864
 2960SOL     OW20338   2.763   0.329   0.687  0.2842 -0.0068 -0.2681
 2960SOL    HW120339   2.679   0.360   0.654  0.9118  2.1974  0.1312
 2960SOL    HW220340   2.785   0.244   0.651  0.0357 -0.4897  0.7285
 2961SOL     OW20341   3.187   0.772  16.701 -0.2430 -0.0518  0.6790
 2961SOL    HW120342   3.273   0.730  16.702 -0.0237  0.3875 -0.5157
 2961SOL    HW220343   3.142   0.710  16.643  0.6470  1.6639 -1.8416
 2962SOL     OW20344   3.964   4.293   4.078  0.0788  0.1678  0.5780
 2962SOL    HW120345   4.050   4.324   4.048 -1.4115  0.9566 -2.8709
 2962SOL    HW220346   3.944   4.232   4.007  1.5570 -0.1746  0.4496
 2963SOL     OW20347   3.161   2.288  14.936  0.1170  0.5959  0.3221
 2963SOL    HW120348   3.068   2.308  14.937 -0.1647 -0.6476 -1.1227
 2963SOL    HW220349   3.153   2.197  14.964  0.2932  0.3677 -0.3648
 2964SOL     OW20350   3.811   1.252   3.778 -0.2911  0.0939 -0.5565
 2964SOL    HW120351   3.812   1.347   3.771  0.6599  0.0587 -0.8938
 2964SOL    HW220352   3.899   1.239   3.744  0.2025 -0.3577  0.9114
 2965SOL     OW20353   3.952   4.320  12.973  0.4490 -0.4951  1.1794
 2965SOL    HW120354   4.019   4.376  13.012  1.5685  0.3430 -1.9200
 2965SOL    HW220355   3.896   4.302  13.048 -1.2923  0.6434  0.1454
 2966SOL     OW20356   1.885   2.961   9.544  0.6852 -0.0211  0.2893
 2966SOL    HW120357   1.891   2.897   9.474  0.5407 -0.8073  0.9941
 2966SOL    HW220358   1.977   2.983   9.555  0.5188  1.0099 -0.4210
 2967SOL     OW20359   2.760   1.497   8.456  0.4297 -0.0237 -0.3342
 2967SOL    HW120360   2.813   1.558   8.509  1.0055 -0.0186 -0.9158
 2967SOL    HW220361   2.776   1.415   8.502 -0.5951 -0.0168  0.0313
 2968SOL     OW20362   4.276   0.154  12.188  0.2733  0.0753 -0.0474
 2968SOL    HW120363   4.203   0.136  12.247  1.4130 -0.3890  1.2144
 2968SOL    HW220364   4.286   0.249  12.191  0.0106  0.1341 -1.0437
 2969SOL     OW20365   0.265   3.603  12.902 -0.0681  0.1430 -0.6115
 2969SOL    HW120366   0.191   3.633  12.954 -0.5222  1.2470 -1.8939
 2969SOL    HW220367   0.307   3.688  12.892 -2.0843  1.0246 -1.6906
 2970SOL     OW20368   3.545   2.481   2.364 -0.0406 -0.1225 -0.3156
 2970SOL    HW120369   3.601   2.539   2.415  1.2419 -1.1889 -0.5048
 2970SOL    HW220370   3.501   2.437   2.436 -0.0730  0.1121 -0.1916
 2971SOL     OW20371   3.107   1.866  15.940 -0.4119 -0.5457  0.6246
 2971SOL    HW120372   3.106   1.826  15.853 -0.3793 -1.8120  1.2024
 2971SOL    HW220373   3.163   1.808  15.990  0.4239 -1.0059 -0.8564
 2972SOL     OW20374   0.450   3.211  10.534  0.1739 -0.1235 -0.3379
 2972SOL    HW120375   0.467   3.284  10.474 -1.5763  1.9612  1.7142
 2972SOL    HW220376   0.495   3.151  10.474  0.3752 -0.4335  0.1204
 2973SOL     OW20377   0.866   1.128   7.714  0.0316  0.2302  0.9070
 2973SOL    HW120378   0.783   1.176   7.712  1.5120  2.8501  2.9019
 2973SOL    HW220379   0.852   1.048   7.662 -0.0417  0.5249  0.4774
 2974SOL     OW20380   3.205   2.421   6.135  0.2065  0.0659 -0.0709
 2974SOL    HW120381   3.206   2.406   6.041  1.4334  0.1757 -0.0743
 2974SOL    HW220382   3.297   2.412   6.159  0.2036  0.1734 -0.0207
 2975SOL     OW20383   4.607   3.027   3.039 -0.3411 -0.3458 -0.0304
 2975SOL    HW120384   4.610   3.031   3.134 -0.7503  1.9224 -0.1166
 2975SOL    HW220385   4.652   2.943   3.024 -1.2764 -0.8502 -0.0167
 2976SOL     OW20386   3.387   1.275   1.457 -0.2890  0.6548  0.3658
 2976SOL    HW120387   3.387   1.207   1.391  1.9727  1.9241 -0.9283
 2976SOL    HW220388   3.462   1.248   1.510  0.9355  0.8958 -1.2527
 2977SOL     OW20389   1.767   1.906   5.629  0.0654 -0.3651  0.2331
 2977SOL    HW120390   1.822   1.941   5.558 -0.2480 -1.4709 -0.5550
 2977SOL    HW220391   1.824   1.852   5.684  0.6274  0.5152  0.5245
 2978SOL     OW20392   4.221   4.009   6.311  0.2150  0.5082  0.8837
 2978SOL    HW120393   4.224   4.080   6.375 -1.4411  2.4828 -1.2520
 2978SOL    HW220394   4.313   3.983   6.325  1.0461  1.3868 -2.9640
 2979SOL     OW20395   4.530   1.075   8.089  0.6513  0.0439 -0.7157
 2979SOL    HW120396   4.603   1.014   8.082  0.0767 -0.6399 -0.7670
 2979SOL    HW220397   4.561   1.122   8.166  1.2624  0.0789 -0.9781
 2980SOL     OW20398   4.091   2.788   2.833  0.1445 -0.3190  0.0440
 2980SOL    HW120399   4.092   2.696   2.862 -2.2705 -1.1373 -2.5153
 2980SOL    HW220400   4.029   2.819   2.899  0.1710 -2.0118  0.8698
 2981SOL     OW20401   0.383   3.207   9.706  0.3400 -0.2031  0.2460
 2981SOL    HW120402   0.295   3.171   9.701  0.6186 -0.6646 -1.4279
 2981SOL    HW220403   0.398   3.183   9.797  0.4633 -2.8705 -0.4753
 2982SOL     OW20404   3.792   1.706   1.825 -0.0844 -0.7217 -0.3639
 2982SOL    HW120405   3.884   1.683   1.836 -0.1788 -0.9335 -0.0101
 2982SOL    HW220406   3.777   1.773   1.891 -0.7303  0.4943 -1.7497
 2983SOL     OW20407   3.639   2.641   6.734  0.6733 -0.2574 -0.0504
 2983SOL    HW120408   3.612   2.731   6.750  1.5248 -0.1200  0.5997
 2983SOL    HW220409   3.572   2.591   6.782 -0.0213 -0.0429 -0.8013
 2984SOL     OW20410   1.036   2.742   7.820 -0.3321 -0.3146  0.2753
 2984SOL    HW120411   1.066   2.829   7.847  1.0884 -0.7161  0.0088
 2984SOL    HW220412   0.983   2.718   7.896 -1.2609 -1.2229 -0.6547
 2985SOL     OW20413   1.220   1.019   4.858 -0.0837  0.1436 -0.6513
 2985SOL    HW120414   1.221   0.924   4.852 -0.8885 -0.0586  2.6067
 2985SOL    HW220415   1.313   1.031   4.878  0.0851 -4.0901  0.9970
 2986SOL     OW20416   2.033   0.320   8.994 -0.2135 -0.4369  0.5017
 2986SOL    HW120417   1.998   0.233   9.014 -1.2363 -0.5495 -1.7039
 2986SOL    HW220418   2.058   0.353   9.080 -1.8327  1.0450  0.4265
 2987SOL     OW20419   0.377   3.388   1.339 -0.1094  0.4493 -0.0918
 2987SOL    HW120420   0.328   3.468   1.356  0.8036  1.5254 -2.5121
 2987SOL    HW220421   0.399   3.364   1.429 -0.8328 -0.7279 -0.2255
 2988SOL     OW20422   1.305   3.744   6.080 -0.0027 -0.3352 -0.3874
 2988SOL    HW120423   1.229   3.800   6.095 -0.1994 -0.2903 -1.5012
 2988SOL    HW220424   1.377   3.802   6.104 -0.2732 -0.3321  0.4153
 2989SOL     OW20425   1.105   4.371   2.061 -0.2704  0.0201 -0.1766
 2989SOL    HW120426   1.150   4.316   1.995 -1.6244 -1.1515 -0.1221
 2989SOL    HW220427   1.043   4.426   2.014  0.6454  0.2542 -1.1344
 2990SOL     OW20428   0.331   1.324   2.261  0.7635  0.3545  0.4054
 2990SOL    HW120429   0.351   1.401   2.314  1.9437  1.2049 -1.2667
 2990SOL    HW220430   0.393   1.319   2.188  1.8964 -0.4436  1.4333
 2991SOL     OW20431   0.698   3.327   3.427  0.9818 -0.4747  0.3751
 2991SOL    HW120432   0.781   3.307   3.384  1.4709  0.8532  0.6788
 2991SOL    HW220433   0.740   3.356   3.508  0.4119  0.6326  0.2715
 2992SOL     OW20434   3.722   4.488   3.966  0.0756 -0.2892 -0.0203
 2992SOL    HW120435   3.775   4.431   4.022 -0.7783 -1.0494  0.0004
 2992SOL    HW220436   3.646   4.432   3.953 -0.9617  0.6821  1.8370
 2993SOL     OW20437   4.386   1.291   7.186 -0.1376 -0.3805 -0.4413
 2993SOL    HW120438   4.335   1.213   7.206 -1.3461  1.1825  2.7200
 2993SOL    HW220439   4.321   1.332   7.129 -0.0222 -0.4059 -0.5902
 2994SOL     OW20440   0.723   3.873   4.660 -0.1719 -0.0531  0.3490
 2994SOL    HW120441   0.699   3.960   4.628  1.2201 -0.2025 -1.1275
 2994SOL    HW220442   0.799   3.848   4.607 -0.0627 -0.9065  0.9135
 2995SOL     OW20443   2.126   0.999   2.573  0.5245 -0.1048  0.3144
 2995SOL    HW120444   2.145   0.923   2.629 -1.1533  0.4331  1.6227
 2995SOL    HW220445   2.134   0.969   2.482 -0.1461  1.4174 -0.2379
 2996SOL     OW20446   3.262   0.765  14.113 -0.8346 -0.3644  0.3141
 2996SOL    HW120447   3.326   0.756  14.183  1.0914  0.6246 -1.3209
 2996SOL    HW220448   3.269   0.861  14.110  0.6503 -0.4805 -0.0130
 2997SOL     OW20449   3.785   3.447   3.792  0.0754  0.4199  0.1473
 2997SOL    HW120450   3.714   3.426   3.853 -0.4983  1.0189 -0.3155
 2997SOL    HW220451   3.780   3.378   3.726  2.0181 -1.0448  1.5232
 2998SOL     OW20452   3.498   3.137   4.051 -0.5838 -0.3672  0.0017
 2998SOL    HW120453   3.506   3.160   3.958 -2.8164  0.3588 -0.0254
 2998SOL    HW220454   3.572   3.184   4.091 -0.5726  1.6427 -2.3183
 2999SOL     OW20455   0.082   2.518   3.051  0.0738 -0.5052  0.5805
 2999SOL    HW120456   0.044   2.431   3.043 -2.8073  0.6131  2.2541
 2999SOL    HW220457   0.167   2.490   3.086  1.7245  0.5909 -2.5365
 3000SOL     OW20458   2.738   0.221  17.658  0.0627 -0.0414 -0.2334
 3000SOL    HW120459   2.647   0.247  17.673 -0.2770 -1.3773 -0.0235
 3000SOL    HW220460   2.784   0.299   0.003  0.2173 -0.6286  0.9304
 3001SOL     OW20461   1.069   1.108   2.919  0.1777 -0.6722  0.3658
 3001SOL    HW120462   1.068   1.194   2.877  0.5887  0.1882  2.1352
 3001SOL    HW220463   1.151   1.118   2.967  0.4569 -0.6115 -0.1272
 3002SOL     OW20464   2.596   3.570   5.448 -0.2100 -0.4261  0.2259
 3002SOL    HW120465   2.651   3.493   5.437  1.3156  0.6037  0.6777
 3002SOL    HW220466   2.664   3.635   5.468 -0.2334 -0.8850  1.8148
 3003SOL     OW20467   2.081   2.292   2.458 -0.5826 -0.1734  0.1564
 3003SOL    HW120468   2.045   2.276   2.371  0.2179  0.5997 -0.3127
 3003SOL    HW220469   2.100   2.386   2.461  0.2163 -0.3371  0.2292
 3004SOL     OW20470   3.232   0.365   0.357  0.2168 -0.4297  0.5824
 3004SOL    HW120471   3.294   0.343   0.287  2.9715  2.7510  2.0364
 3004SOL    HW220472   3.246   0.295   0.421  0.7010 -2.0269 -1.2769
 3005SOL     OW20473   1.884   0.698   9.929 -0.1852 -0.4982  1.0190
 3005SOL    HW120474   1.855   0.747   9.852  0.8973 -1.7235 -0.1598
 3005SOL    HW220475   1.949   0.645   9.885 -0.7920  2.5310 -3.5374
 3006SOL     OW20476   2.494   1.486  10.362  0.6996 -0.3462  0.2834
 3006SOL    HW120477   2.516   1.438  10.283  0.5180 -1.6570  1.0204
 3006SOL    HW220478   2.431   1.429  10.406 -0.5248  0.7130 -0.1042
 3007SOL     OW20479   0.889   4.523   2.864 -0.1526 -0.3067 -0.3190
 3007SOL    HW120480   0.850   4.502   2.949  1.5674 -0.7509  0.3539
 3007SOL    HW220481   0.967   4.467   2.871 -0.0670 -0.3446 -1.4441
 3008SOL     OW20482   3.728   3.337   5.824  0.0318  0.4087 -1.2080
 3008SOL    HW120483   3.740   3.360   5.916  2.7701 -1.6395 -1.0689
 3008SOL    HW220484   3.803   3.284   5.799  0.3359 -0.2768  1.1930
 3009SOL     OW20485   3.535   1.839   5.027 -0.2021 -0.2094  0.2574
 3009SOL    HW120486   3.471   1.909   5.013 -0.8975 -0.8948 -0.0010
 3009SOL    HW220487   3.483   1.771   4.985 -1.4587 -0.1521  1.6877
 3010SOL     OW20488   0.874   1.919  17.532 -0.8896  0.4854 -0.9139
 3010SOL    HW120489   0.792   1.968  17.536 -0.5187  0.9511  1.1448
 3010SOL    HW220490   0.848   1.827  17.521 -2.2247  0.8604 -0.9438
 3011SOL     OW20491   0.391   2.301   9.205 -0.0979 -0.6854  0.8659
 3011SOL    HW120492   0.486   2.309   9.201 -0.0890 -1.5652 -0.4859
 3011SOL    HW220493   0.364   2.320   9.116 -2.6188  0.5110  1.8903
 3012SOL     OW20494   2.027   2.777   3.725  0.4318 -0.0694 -0.3700
 3012SOL    HW120495   2.053   2.685   3.721  3.1157  0.6987 -0.8787
 3012SOL    HW220496   2.082   2.813   3.794  1.6251 -0.4453 -1.1250
 3013SOL     OW20497   4.703   0.658  15.768  0.0668  0.1451 -0.2816
 3013SOL    HW120498   4.684   0.706  15.687  1.0951  2.1096  0.6325
 3013SOL    HW220499   4.615   0.663  15.805  0.9887  0.3645  1.8497
 3014SOL     OW20500   4.193   0.932   5.093 -0.5938 -0.4980 -0.0896
 3014SOL    HW120501   4.233   1.019   5.092  1.0976 -1.2987 -1.7193
 3014SOL    HW220502   4.110   0.960   5.053  0.9893 -0.0230 -3.0180
 3015SOL     OW20503   2.522   0.165   0.882  0.4995  0.5452  0.0985
 3015SOL    HW120504   2.524   0.249   0.927 -0.3076  0.1246  0.9124
 3015SOL    HW220505   2.612   0.136   0.896  0.8478  1.5313 -0.1331
 3016SOL     OW20506   3.925   1.272   7.837  0.5139 -0.0365  0.3673
 3016SOL    HW120507   4.000   1.332   7.828 -0.0404 -0.0449 -4.3636
 3016SOL    HW220508   3.955   1.201   7.893  0.3753 -1.3701 -1.2430
 3017SOL     OW20509   1.406   0.096  16.621 -0.4540  0.5752 -0.1675
 3017SOL    HW120510   1.482   0.099  16.562  0.0926  0.1565  0.5164
 3017SOL    HW220511   1.341   0.050  16.568 -0.5186  1.2497 -0.6737
 3018SOL     OW20512   1.291   1.126  10.084 -0.5218  0.2434 -0.0498
 3018SOL    HW120513   1.239   1.085  10.015  1.6666 -0.9639 -0.9892
 3018SOL    HW220514   1.325   1.204  10.042 -0.2542  1.3953  2.2950
 3019SOL     OW20515   1.610   1.607   7.737 -0.4191  0.2609  0.0043
 3019SOL    HW120516   1.671   1.629   7.667 -1.1878 -0.9962 -1.0537
 3019SOL    HW220517   1.557   1.543   7.690  0.2810  1.5369 -2.5435
 3020SOL     OW20518   3.186   0.349   3.961 -0.2823 -0.2688 -0.1749
 3020SOL    HW120519   3.166   0.256   3.954  1.3215 -0.5834 -0.5747
 3020SOL    HW220520   3.225   0.365   4.047 -0.4491  0.8148 -0.2954
 3021SOL     OW20521   0.919   4.415   4.683  0.2992  0.3209  0.0314
 3021SOL    HW120522   1.009   4.445   4.692  0.4668  0.0558 -0.6971
 3021SOL    HW220523   0.892   4.374   4.765 -2.2062 -0.2334 -1.0370
 3022SOL     OW20524   3.866   3.493   6.449  0.1292  0.1496 -0.3194
 3022SOL    HW120525   3.937   3.460   6.504  0.2729  0.1632 -0.4959
 3022SOL    HW220526   3.902   3.487   6.360  1.4637  3.2506  0.0174
 3023SOL     OW20527   1.118   1.211  10.979 -0.1153  0.4333  0.1303
 3023SOL    HW120528   1.170   1.270  11.032  0.1080  1.0103 -0.7397
 3023SOL    HW220529   1.122   1.138  11.041 -0.0475 -0.1891 -0.6084
 3024SOL     OW20530   3.422   4.630  11.047 -0.3542 -0.1050 -0.0740
 3024SOL    HW120531   3.449   4.607  10.958 -0.6928 -0.3109 -0.1235
 3024SOL    HW220532   3.503   4.603  11.090 -0.3310  0.9003  0.5088
 3025SOL     OW20533   1.559   1.411   2.898 -0.6800 -0.6852 -0.4020
 3025SOL    HW120534   1.596   1.336   2.945  0.1857  0.0346  0.0686
 3025SOL    HW220535   1.642   1.450   2.869  0.2056 -2.5665 -0.3993
 3026SOL     OW20536   3.682   1.231  13.350  0.3265 -0.0422  0.1071
 3026SOL    HW120537   3.773   1.203  13.360  0.6534  0.0927 -2.5420
 3026SOL    HW220538   3.672   1.186  13.267 -0.4517 -1.4562  0.9623
 3027SOL     OW20539   2.712   2.461  12.870 -0.3165 -0.0143 -0.3514
 3027SOL    HW120540   2.653   2.527  12.907 -0.6136 -0.6371  0.2688
 3027SOL    HW220541   2.654   2.406  12.817 -1.3384 -0.9610  1.7540
 3028SOL     OW20542   4.646   2.808   4.803 -0.2316 -0.5824  0.1045
 3028SOL    HW120543   0.010   2.819   4.761 -0.5532  1.6071  0.0226
 3028SOL    HW220544   4.608   2.893   4.780 -0.0362 -1.5306 -3.6042
 3029SOL     OW20545   3.322   2.966   0.391  0.3094 -0.0647 -0.2701
 3029SOL    HW120546   3.232   2.934   0.396  1.5154 -3.3957  0.1883
 3029SOL    HW220547   3.362   2.918   0.463 -0.1967  1.0768  0.7765
 3030SOL     OW20548   3.697   0.427  12.880  0.3009 -0.3036  0.5523
 3030SOL    HW120549   3.644   0.428  12.960 -2.4426  0.9616 -1.2776
 3030SOL    HW220550   3.659   0.356  12.827 -0.0814  0.8209 -0.6790
 3031SOL     OW20551   0.953   4.304   5.240  0.2025  0.4017 -0.0330
 3031SOL    HW120552   1.005   4.383   5.257  0.0104  0.5684 -0.2154
 3031SOL    HW220553   0.894   4.307   5.315  1.9086 -1.5396  1.4138
 3032SOL     OW20554   0.429   3.300  13.555 -0.2662  0.2743 -0.5308
 3032SOL    HW120555   0.382   3.361  13.498  0.2599 -1.0610 -2.4086
 3032SOL    HW220556   0.390   3.319  13.640  1.7887  0.2220  0.4213
 3033SOL     OW20557   1.775   2.461   5.554 -0.0380 -0.5470  0.3789
 3033SOL    HW120558   1.782   2.532   5.618  0.9671  0.8794 -1.2859
 3033SOL    HW220559   1.821   2.388   5.596  0.6225 -0.7895 -0.7787
 3034SOL     OW20560   3.344   2.612   4.625  0.1096 -0.0169  0.0069
 3034SOL    HW120561   3.305   2.615   4.537 -0.6281 -0.1565  0.3308
 3034SOL    HW220562   3.439   2.601   4.620  0.0765  0.7400 -2.3945
 3035SOL     OW20563   2.858   0.209   8.026  0.0027 -0.2889  0.2961
 3035SOL    HW120564   2.908   0.176   8.101  0.2268  0.5016  0.4877
 3035SOL    HW220565   2.922   0.272   7.994 -0.5174 -0.1004 -0.3770
 3036SOL     OW20566   0.062   0.278   2.600  0.0236  0.8655 -0.3382
 3036SOL    HW120567   4.719   0.320   2.657  2.1632  1.8155  1.3825
 3036SOL    HW220568   0.004   0.207   2.572  1.6933 -1.0321  0.9327
 3037SOL     OW20569   0.306   0.829   7.602  0.2220 -0.5702 -0.0299
 3037SOL    HW120570   0.389   0.828   7.650  0.6197  0.1980 -0.7071
 3037SOL    HW220571   0.335   0.815   7.512 -0.0598 -0.1567 -0.1824
 3038SOL     OW20572   4.398   4.034   3.892  0.3931 -0.1989 -0.7220
 3038SOL    HW120573   4.390   3.991   3.807 -1.8280 -0.4449 -0.3924
 3038SOL    HW220574   4.484   4.074   3.874  1.5457 -1.9148  0.9829
 3039SOL     OW20575   4.519   4.644   6.928  0.0309  0.3818 -0.6286
 3039SOL    HW120576   4.474   4.573   6.883  0.3017  0.3093 -0.7859
 3039SOL    HW220577   4.504   0.001   6.875 -3.2862  0.8511  1.0149
 3040SOL     OW20578   1.890   4.021  13.228  0.6765 -0.7896  0.0755
 3040SOL    HW120579   1.848   4.022  13.142 -1.9860  2.5628  1.4216
 3040SOL    HW220580   1.844   3.951  13.275  0.7493  1.0013  2.8386
 3041SOL     OW20581   3.234   4.663   8.442 -0.1274  0.4448  0.9163
 3041SOL    HW120582   3.267   4.597   8.503  0.2520 -0.5901 -0.4161
 3041SOL    HW220583   3.182   4.718   8.501 -1.1135 -0.3771  0.8009
 3042SOL     OW20584   0.844   3.582   9.688 -0.0078  0.2266  0.1001
 3042SOL    HW120585   0.816   3.491   9.695  0.0967  0.1647 -0.3231
 3042SOL    HW220586   0.769   3.628   9.726 -0.0997  0.9779 -0.9973
 3043SOL     OW20587   1.021   2.936  11.639  0.3242  0.1868  0.1382
 3043SOL    HW120588   0.984   2.907  11.722  0.0877  0.4208  0.1158
 3043SOL    HW220589   1.064   3.016  11.671  1.0915 -0.0586 -0.2745
 3044SOL     OW20590   1.085   0.203  13.377  0.3383  0.4675  0.0985
 3044SOL    HW120591   1.168   0.157  13.364  0.6812  0.7053  1.5365
 3044SOL    HW220592   1.077   0.233  13.286  3.1055 -0.2443 -0.3832
 3045SOL     OW20593   2.637   2.611  15.308 -0.9932 -0.5037 -0.0278
 3045SOL    HW120594   2.634   2.646  15.219  2.6813 -0.1298 -0.0045
 3045SOL    HW220595   2.715   2.657  15.340 -0.0582 -1.4444 -0.9765
 3046SOL     OW20596   1.917   0.574   5.130 -0.1002  0.2071 -0.3865
 3046SOL    HW120597   1.842   0.515   5.143  1.5406 -2.1038 -1.3720
 3046SOL    HW220598   1.895   0.658   5.169 -2.9061 -0.3015 -0.8743
 3047SOL     OW20599   0.830   2.552   2.096  0.0853  0.8938 -0.5180
 3047SOL    HW120600   0.789   2.482   2.147  1.5188  1.7696  1.8713
 3047SOL    HW220601   0.768   2.564   2.025  0.2118  1.4629 -0.5371
 3048SOL     OW20602   0.760   1.856   2.074  0.1107 -0.4623 -0.2416
 3048SOL    HW120603   0.804   1.857   1.989  1.5162 -3.2914  0.4282
 3048SOL    HW220604   0.672   1.826   2.054  0.3055 -0.0208 -1.7367
 3049SOL     OW20605   3.360   0.863   9.269 -0.1337 -0.3845  0.2802
 3049SOL    HW120606   3.285   0.918   9.243  0.4893  0.4926  0.3573
 3049SOL    HW220607   3.422   0.935   9.278 -0.0726 -0.3891 -0.0788
 3050SOL     OW20608   3.916   3.897   6.350  0.4163  0.3818  0.0869
 3050SOL    HW120609   3.891   3.912   6.441  0.6764 -3.0853  0.6950
 3050SOL    HW220610   4.004   3.933   6.342  0.5868  0.0896  0.6891
 3051SOL     OW20611   0.374   2.288   4.704 -0.3389  0.4332 -0.0925
 3051SOL    HW120612   0.365   2.297   4.799 -4.2557  0.6817 -0.4914
 3051SOL    HW220613   0.284   2.266   4.681 -0.1654 -1.4944  1.0608
 3052SOL     OW20614   2.649   2.001  16.051 -0.1328 -0.4158  0.1781
 3052SOL    HW120615   2.625   1.935  16.116 -1.3905  0.5009  0.6475
 3052SOL    HW220616   2.577   1.981  15.991 -0.7645 -0.0650  0.8272
 3053SOL     OW20617   4.464   4.428  15.290  0.1994 -0.1247 -0.2350
 3053SOL    HW120618   4.460   4.370  15.214  0.9194  0.4431 -0.6990
 3053SOL    HW220619   4.378   4.430  15.332  0.6632 -0.6526  0.7287
 3054SOL     OW20620   2.708   2.246   2.348 -0.0827 -0.6080 -0.1339
 3054SOL    HW120621   2.710   2.315   2.415 -1.3763 -0.4527 -0.2633
 3054SOL    HW220622   2.779   2.275   2.291  0.3237 -1.1374  0.1030
 3055SOL     OW20623   1.959   1.388   7.291  0.0046  0.6132  0.3132
 3055SOL    HW120624   1.910   1.384   7.373  0.8693  0.2093  0.8024
 3055SOL    HW220625   1.999   1.475   7.292  0.4616  0.4029  0.2441
 3056SOL     OW20626   3.815   0.319   5.988 -0.0804 -0.0008 -0.0634
 3056SOL    HW120627   3.865   0.330   5.906 -1.5353  0.1063 -0.9349
 3056SOL    HW220628   3.728   0.288   5.963  0.1905 -0.4687 -0.4413
 3057SOL     OW20629   3.940   1.090  13.306  0.3788 -0.3749  0.2290
 3057SOL    HW120630   4.028   1.051  13.303 -0.7295 -2.8144 -1.3839
 3057SOL    HW220631   3.933   1.111  13.213 -0.5222  0.5199  0.5074
 3058SOL     OW20632   4.056   2.790  11.486 -0.1432 -0.3239  0.2019
 3058SOL    HW120633   4.119   2.732  11.444  0.9878  2.2717 -1.6786
 3058SOL    HW220634   4.013   2.722  11.539  2.4495  1.1514  4.1568
 3059SOL     OW20635   3.348   4.706  16.021  0.1936  0.1159 -0.2613
 3059SOL    HW120636   3.417   0.041  15.989 -0.7090  1.0035 -0.6343
 3059SOL    HW220637   3.323   4.668  15.936 -0.8641  0.7536 -0.2401
 3060SOL     OW20638   2.051   2.885  13.916  0.1571  0.1418 -0.2693
 3060SOL    HW120639   2.004   2.836  13.849 -1.0156  2.1623 -0.9223
 3060SOL    HW220640   2.003   2.867  13.997  0.0407 -2.2641 -0.9027
 3061SOL     OW20641   0.325   1.521   8.317 -0.2809  0.4102  0.3503
 3061SOL    HW120642   0.307   1.611   8.344  1.0566  0.5079  0.9314
 3061SOL    HW220643   0.262   1.472   8.369 -1.0454 -0.8418 -1.7429
 3062SOL     OW20644   2.574   4.031  15.358  0.0630 -0.1542  0.0236
 3062SOL    HW120645   2.561   4.126  15.351 -1.9002 -0.3425  0.9981
 3062SOL    HW220646   2.656   4.018  15.405 -0.0249  0.7184  0.4157
 3063SOL     OW20647   3.350   1.052   5.356 -0.2392  0.2730  0.0821
 3063SOL    HW120648   3.376   1.122   5.415  1.4065 -0.3126  0.0605
 3063SOL    HW220649   3.431   1.009   5.328 -0.3550 -0.4126  0.7879
 3064SOL     OW20650   4.439   2.204  16.189 -0.4841 -0.0981  1.1630
 3064SOL    HW120651   4.489   2.276  16.227 -1.7478  0.4994  1.7024
 3064SOL    HW220652   4.395   2.170  16.267 -1.1531 -0.6537  0.5404
 3065SOL     OW20653   2.403   3.756   5.899  0.2028  0.2268 -0.3166
 3065SOL    HW120654   2.366   3.714   5.977  0.0715  1.3210  0.2066
 3065SOL    HW220655   2.457   3.690   5.855  0.2512  0.6081 -0.8266
 3066SOL     OW20656   1.549   3.604   8.315 -0.5000 -0.3352 -0.0362
 3066SOL    HW120657   1.633   3.574   8.350 -0.9357  1.1851  2.3312
 3066SOL    HW220658   1.572   3.609   8.223 -0.6740  3.4777  0.1491
 3067SOL     OW20659   2.821   2.477   8.450  0.0393  0.0859 -0.0248
 3067SOL    HW120660   2.742   2.521   8.480 -0.3253 -0.9960  0.5904
 3067SOL    HW220661   2.883   2.500   8.519  2.0159 -1.6882 -1.1963
 3068SOL     OW20662   1.670   3.325   7.468 -0.5464 -0.1278 -0.4431
 3068SOL    HW120663   1.653   3.232   7.478  2.9956 -0.9676 -2.2272
 3068SOL    HW220664   1.604   3.352   7.404 -1.5225 -2.2297 -0.3076
 3069SOL     OW20665   1.922   0.601   3.104 -0.1913  0.5775 -0.2621
 3069SOL    HW120666   1.834   0.591   3.139  1.5435 -2.7038  3.0985
 3069SOL    HW220667   1.909   0.579   3.011 -2.9068  2.9201 -0.4294
 3070SOL     OW20668   3.585   0.578  14.419 -0.6536 -0.5517 -0.0640
 3070SOL    HW120669   3.666   0.528  14.420 -1.0177 -1.1359  2.0232
 3070SOL    HW220670   3.601   0.621  14.503  1.5509 -0.0592 -0.7598
 3071SOL     OW20671   2.113   3.875  10.048  0.1092 -0.4913 -0.2394
 3071SOL    HW120672   2.048   3.927  10.001 -1.1571 -1.6039  0.2842
 3071SOL    HW220673   2.074   3.788  10.051 -0.5867 -0.1855 -0.6176
 3072SOL     OW20674   1.967   4.603   7.626 -0.0745 -0.6969 -0.3239
 3072SOL    HW120675   1.920   4.648   7.697  2.0613  0.4774  0.3413
 3072SOL    HW220676   2.041   4.663   7.612 -0.4798 -0.1312 -0.0774
 3073SOL     OW20677   2.727   1.699   4.237  0.3509 -0.3506  0.2985
 3073SOL    HW120678   2.726   1.609   4.270  0.2941 -0.3605  0.2696
 3073SOL    HW220679   2.690   1.739   4.316  2.3520  2.8026 -0.3432
 3074SOL     OW20680   1.820   1.380   7.506 -0.3852  0.1327 -0.1132
 3074SOL    HW120681   1.854   1.437   7.574  2.1981 -1.8946  0.2993
 3074SOL    HW220682   1.732   1.372   7.545 -0.7355 -0.0900 -0.9477
 3075SOL     OW20683   0.948   2.587   4.155  0.5237 -0.1011 -0.8108
 3075SOL    HW120684   0.924   2.675   4.127 -1.0678 -0.3523 -0.2803
 3075SOL    HW220685   1.030   2.602   4.201  1.4111  0.3906 -2.5980
 3076SOL     OW20686   4.546   0.025  15.203 -0.0711  0.2395 -0.4763
 3076SOL    HW120687   4.575   0.060  15.119  0.1822  0.2842 -0.3726
 3076SOL    HW220688   4.460   4.710  15.182 -0.0067 -0.7894  1.0180
 3077SOL     OW20689   1.759   0.662   5.673 -0.5852  0.6419  0.0532
 3077SOL    HW120690   1.784   0.573   5.651 -1.5176  1.0266 -2.4939
 3077SOL    HW220691   1.826   0.710   5.624 -0.5269  0.8813  0.3653
 3078SOL     OW20692   1.338   1.600  11.231 -0.2609  0.7366  0.5251
 3078SOL    HW120693   1.402   1.670  11.219 -0.0772  0.0490 -2.3541
 3078SOL    HW220694   1.300   1.621  11.317 -1.2813  1.7140 -0.1573
 3079SOL     OW20695   2.470   4.162   8.290 -0.3997  0.6290 -0.1714
 3079SOL    HW120696   2.470   4.174   8.195  0.4996  0.4185 -0.1947
 3079SOL    HW220697   2.420   4.235   8.325  1.7377  0.3495  3.4008
 3080SOL     OW20698   2.763   0.155   3.225 -0.1995  0.3056 -0.2291
 3080SOL    HW120699   2.718   0.071   3.229 -1.6513  0.9953 -1.6718
 3080SOL    HW220700   2.797   0.140   3.137 -0.7866  1.8827 -0.7359
 3081SOL     OW20701   4.299   4.577   9.450 -0.8401 -0.2958 -0.4884
 3081SOL    HW120702   4.275   4.578   9.357 -2.9319  3.1812  0.0812
 3081SOL    HW220703   4.379   4.525   9.442  0.1829  1.4197 -1.3574
 3082SOL     OW20704   4.661   4.621   5.306 -0.3185 -0.4073  0.1100
 3082SOL    HW120705   4.680   4.659   5.392  2.7393  0.8227 -1.1219
 3082SOL    HW220706   0.027   4.586   5.290 -0.1126 -0.3015  1.0001
 3083SOL     OW20707   3.919   4.392  10.897  0.4095  0.3412 -0.8513
 3083SOL    HW120708   4.012   4.381  10.876  0.5480  0.8082 -0.4551
 3083SOL    HW220709   3.927   4.421  10.987 -0.0769  0.7662 -0.9493
 3084SOL     OW20710   1.725   0.752  10.157  0.3097 -0.1196  0.2655
 3084SOL    HW120711   1.773   0.757  10.074 -0.6905 -0.8576 -0.3630
 3084SOL    HW220712   1.783   0.692  10.204 -0.9110 -1.9267 -0.5379
 3085SOL     OW20713   1.944   0.983  10.433  0.6274  0.5719  0.6502
 3085SOL    HW120714   2.015   1.017  10.488 -0.3115  1.6499  1.1953
 3085SOL    HW220715   1.991   0.902  10.413 -0.6864  0.2459 -1.1423
 3086SOL     OW20716   4.239   1.097   2.960  0.0338  0.4627  0.2268
 3086SOL    HW120717   4.294   1.065   3.031  1.1863  2.2503  0.1305
 3086SOL    HW220718   4.258   1.025   2.900 -0.7964 -0.5100  1.1138
 3087SOL     OW20719   2.531   0.855   5.935  0.5119 -0.5285 -0.3213
 3087SOL    HW120720   2.548   0.852   6.029 -1.0926 -1.7037 -0.0648
 3087SOL    HW220721   2.441   0.823   5.933 -0.0112  0.8681  0.4790
 3088SOL     OW20722   2.482   3.435   8.828  0.9710 -0.7286  0.0761
 3088SOL    HW120723   2.394   3.444   8.864  1.3776  3.2332  0.0544
 3088SOL    HW220724   2.537   3.451   8.905 -1.1782 -1.0189  1.6905
 3089SOL     OW20725   3.359   2.039   5.023 -0.1152 -0.4747  0.5179
 3089SOL    HW120726   3.290   2.103   5.006 -2.0516 -2.8613 -0.6479
 3089SOL    HW220727   3.327   2.003   5.106 -3.1256  0.5645 -0.1756
 3090SOL     OW20728   1.120   3.345   7.210  0.3202 -0.1921  0.1243
 3090SOL    HW120729   1.067   3.313   7.137  1.1845  2.7538 -1.7634
 3090SOL    HW220730   1.206   3.304   7.212 -0.8068 -2.5125  1.5742
 3091SOL     OW20731   3.761   3.774   5.941 -0.2229 -0.2073 -0.0928
 3091SOL    HW120732   3.738   3.705   5.878 -0.8589  0.1860 -0.2991
 3091SOL    HW220733   3.700   3.749   6.010 -1.2911  1.6303 -0.3527
 3092SOL     OW20734   0.084   2.249  16.039 -0.2007  0.2054  0.2509
 3092SOL    HW120735   0.009   2.249  15.980  1.5116 -2.1622 -1.9283
 3092SOL    HW220736   0.151   2.223  15.976 -0.3031  0.9991 -0.1768
 3093SOL     OW20737   2.781   1.350  16.724  0.2025  0.4135 -0.1728
 3093SOL    HW120738   2.845   1.375  16.791  0.5675  0.3771 -0.5082
 3093SOL    HW220739   2.696   1.357  16.768  0.5311  0.0555  0.5176
 3094SOL     OW20740   1.339   1.443   7.149  0.3289 -0.1506 -0.2590
 3094SOL    HW120741   1.319   1.351   7.131  1.8902 -0.9666  2.2359
 3094SOL    HW220742   1.423   1.428   7.191  0.4449  0.0438 -0.4245
 3095SOL     OW20743   3.521   0.344  14.710 -0.5345 -0.2659  0.2367
 3095SOL    HW120744   3.476   0.265  14.681 -0.4485 -0.5424  0.8740
 3095SOL    HW220745   3.473   0.409  14.658  0.2788  0.4013  0.3143
 3096SOL     OW20746   0.004   3.890   1.244  0.1881  0.5926 -0.0641
 3096SOL    HW120747   4.665   3.937   1.186  1.3763  2.4959  0.2073
 3096SOL    HW220748   0.040   3.961   1.297 -1.5800  1.8531 -0.5732
 3097SOL     OW20749   3.360   0.068   6.112  0.0481  0.2373 -0.3230
 3097SOL    HW120750   3.284   0.047   6.059  0.4348  1.2007 -1.2613
 3097SOL    HW220751   3.345   0.015   6.191 -0.3222 -1.0527 -1.2765
 3098SOL     OW20752   0.347   0.326   2.799 -0.3283  0.1551  0.6473
 3098SOL    HW120753   0.287   0.339   2.725  2.4956 -0.7254 -1.8129
 3098SOL    HW220754   0.335   0.233   2.815 -0.3334 -0.5185 -3.1189
 3099SOL     OW20755   0.833   1.622   8.367  0.1520  0.0170 -0.1894
 3099SOL    HW120756   0.889   1.641   8.443 -1.6628 -0.2703  1.2245
 3099SOL    HW220757   0.837   1.704   8.319  0.8522  0.8873  1.3448
 3100SOL     OW20758   2.135   3.311   6.513 -0.1084  0.3466  0.1443
 3100SOL    HW120759   2.113   3.239   6.573  0.0867  0.0391 -0.1548
 3100SOL    HW220760   2.141   3.382   6.577 -1.1996 -0.1329  0.7856
 3101SOL     OW20761   1.706   4.485   0.819  0.4320  0.5413 -0.2934
 3101SOL    HW120762   1.720   4.579   0.831  0.9129  0.4225  0.0486
 3101SOL    HW220763   1.790   4.462   0.778  0.1520  0.6108 -0.9070
 3102SOL     OW20764   3.142   4.154   1.686 -0.5934 -0.0689 -0.3998
 3102SOL    HW120765   3.224   4.118   1.718  0.1446 -0.8889 -3.2183
 3102SOL    HW220766   3.144   4.244   1.717  0.7456 -0.3666  0.3667
 3103SOL     OW20767   1.229   3.518   9.007 -0.1642 -0.4149 -0.5668
 3103SOL    HW120768   1.199   3.562   9.087 -0.6771  0.3879 -1.2002
 3103SOL    HW220769   1.182   3.570   8.942 -0.9517 -0.3426  0.0544
 3104SOL     OW20770   1.500   3.815   8.468  0.3781  0.1569  0.3718
 3104SOL    HW120771   1.423   3.779   8.513  1.5570 -0.8196  1.6273
 3104SOL    HW220772   1.509   3.740   8.410 -0.1944  0.4072 -0.0379
 3105SOL     OW20773   0.284   4.518  14.656 -0.0553 -0.1313  0.5430
 3105SOL    HW120774   0.315   4.559  14.737 -0.6381  0.7151  0.3521
 3105SOL    HW220775   0.331   4.565  14.588 -0.3756  0.4763  0.7354
 3106SOL     OW20776   1.510   0.562   0.012  0.2083  0.6123  0.3097
 3106SOL    HW120777   1.569   0.490   0.032  1.4180  1.0592 -1.6424
 3106SOL    HW220778   1.560   0.637   0.043  1.4702 -0.1566  0.1266
 3107SOL     OW20779   1.486   2.237   0.778 -0.8231 -0.0371  1.0098
 3107SOL    HW120780   1.473   2.332   0.780 -0.6002 -0.0033  0.8573
 3107SOL    HW220781   1.552   2.234   0.708 -2.2112  1.9670 -0.3827
 3108SOL     OW20782   0.975   0.652   5.472 -0.0297  0.1269  0.1969
 3108SOL    HW120783   1.066   0.627   5.458  0.2535  0.3288  1.6667
 3108SOL    HW220784   0.987   0.740   5.506 -1.8379  1.0418 -1.5636
 3109SOL     OW20785   1.775   4.499   4.206 -0.1913  0.0819 -0.0864
 3109SOL    HW120786   1.780   4.455   4.291  0.9389  0.9079  0.2789
 3109SOL    HW220787   1.861   4.541   4.200 -0.7550  1.1506 -0.7149
 3110SOL     OW20788   3.676   0.545  16.785 -0.4331  0.2011  0.1389
 3110SOL    HW120789   3.608   0.481  16.762 -0.0203 -0.4244  0.6826
 3110SOL    HW220790   3.630   0.574  16.864  0.2376 -0.3606  0.7294
 3111SOL     OW20791   3.731   3.404   6.111 -0.6800  0.0115  0.4015
 3111SOL    HW120792   3.708   3.333   6.171 -4.2585  1.6575  1.0363
 3111SOL    HW220793   3.643   3.440   6.100 -0.3490  0.6288 -0.2352
 3112SOL     OW20794   1.356   1.359   4.363  0.2094  0.3469  0.1787
 3112SOL    HW120795   1.381   1.420   4.293 -1.8197  0.9290 -0.0259
 3112SOL    HW220796   1.320   1.283   4.318  0.8983  0.0802  0.0737
 3113SOL     OW20797   4.557   2.950   3.917 -0.3650  0.2953 -0.3838
 3113SOL    HW120798   4.582   2.864   3.883  0.0518 -0.1701  1.0911
 3113SOL    HW220799   4.467   2.952   3.886 -0.1934  3.6315 -0.7425
 3114SOL     OW20800   3.649   1.625  12.239 -0.7980 -0.4275 -0.0097
 3114SOL    HW120801   3.678   1.534  12.242 -0.7628 -0.4511 -1.1068
 3114SOL    HW220802   3.708   1.655  12.308 -0.1810 -1.4089 -0.1228
 3115SOL     OW20803   0.286   3.875   5.983  1.0058  0.0628 -0.4988
 3115SOL    HW120804   0.288   3.804   6.047  0.9699 -0.3027 -0.9065
 3115SOL    HW220805   0.284   3.833   5.898  0.9205  0.6579 -0.7936
 3116SOL     OW20806   4.336   1.848   3.730 -0.2830 -0.2102  0.3868
 3116SOL    HW120807   4.366   1.826   3.642 -0.4600  1.1907 -0.0233
 3116SOL    HW220808   4.408   1.904   3.759 -0.0159 -1.7812  2.8119
 3117SOL     OW20809   1.313   1.568  14.367 -0.2819  0.7503 -0.1570
 3117SOL    HW120810   1.400   1.606  14.358  0.1076 -0.0039  0.4475
 3117SOL    HW220811   1.323   1.492  14.309 -0.2216  1.3563 -0.9409
 3118SOL     OW20812   0.543   2.002   4.002  0.4982 -0.0297 -0.0160
 3118SOL    HW120813   0.526   2.067   4.069 -0.8428  0.6991 -1.0639
 3118SOL    HW220814   0.486   1.933   4.037 -4.0902  3.8080 -0.0154
 3119SOL     OW20815   2.850   2.746   5.474 -0.2620  0.4055  0.5939
 3119SOL    HW120816   2.892   2.733   5.559 -3.2532  2.2267  2.3333
 3119SOL    HW220817   2.802   2.825   5.499 -1.4865 -1.0542  2.8684
 3120SOL     OW20818   2.408   3.370   6.018 -0.1879 -0.1681 -0.0353
 3120SOL    HW120819   2.344   3.331   5.957  0.0211  0.1926 -0.4856
 3120SOL    HW220820   2.357   3.443   6.051  1.0227 -0.3643  2.2796
 3121SOL     OW20821   1.477   1.712   7.410 -0.7175 -0.5589  0.2638
 3121SOL    HW120822   1.545   1.775   7.385 -1.1348 -0.8867 -1.6486
 3121SOL    HW220823   1.431   1.773   7.468 -0.0482 -0.9994  1.2566
 3122SOL     OW20824   0.050   3.096   0.995  0.1966 -0.0148 -0.0224
 3122SOL    HW120825   0.082   3.020   0.947  0.2808 -0.6179  0.9808
 3122SOL    HW220826   0.088   3.085   1.082 -0.6436  0.4093  0.4061
 3123SOL     OW20827   2.408   1.674   3.698  0.5599  0.5076 -0.6245
 3123SOL    HW120828   2.373   1.758   3.669 -0.1824  0.3259 -0.2641
 3123SOL    HW220829   2.338   1.649   3.758  2.1697  0.2511  1.1441
 3124SOL     OW20830   2.750   0.765   1.827  0.3428 -0.8290 -0.1084
 3124SOL    HW120831   2.775   0.715   1.905  0.5012 -1.5374 -0.6173
 3124SOL    HW220832   2.716   0.850   1.857  0.4679 -0.8838  0.1849
 3125SOL     OW20833   4.144   2.057   2.680  0.1399  0.2905 -0.3131
 3125SOL    HW120834   4.079   2.098   2.738  0.5150  1.6218 -0.8227
 3125SOL    HW220835   4.172   2.131   2.626  0.4147 -0.5201 -1.2630
 3126SOL     OW20836   0.306   0.757   4.902 -0.2903 -0.1021 -0.8486
 3126SOL    HW120837   0.392   0.790   4.931 -0.3670 -0.8006  0.1755
 3126SOL    HW220838   0.321   0.663   4.898 -1.0164 -0.2174 -0.7461
 3127SOL     OW20839   2.649   1.657   1.163 -0.2779  0.4955 -0.5067
 3127SOL    HW120840   2.600   1.644   1.244 -1.6633  2.9356 -0.9257
 3127SOL    HW220841   2.647   1.750   1.140 -2.3810 -0.0944 -2.6871
 3128SOL     OW20842   0.802   3.654   5.419 -0.1468 -0.0996  0.6547
 3128SOL    HW120843   0.758   3.569   5.419 -0.5675  0.1112  1.7777
 3128SOL    HW220844   0.893   3.623   5.420  0.3882  1.4095 -1.1224
 3129SOL     OW20845   4.207   4.348  15.107  0.3522 -0.6352  0.3075
 3129SOL    HW120846   4.181   4.358  15.015  0.0011  2.6551  0.7608
 3129SOL    HW220847   4.152   4.416  15.147  2.1791  1.0333 -0.0351
 3130SOL     OW20848   4.387   3.334   8.460 -0.0731 -0.6895  0.0469
 3130SOL    HW120849   4.357   3.400   8.398 -0.6085 -1.1351 -0.1619
 3130SOL    HW220850   4.440   3.274   8.406 -0.5975 -0.5866 -0.5750
 3131SOL     OW20851   4.170   3.169   8.221  0.0180 -0.3697 -0.3243
 3131SOL    HW120852   4.143   3.148   8.131 -0.3198  0.8047 -0.4874
 3131SOL    HW220853   4.248   3.113   8.222 -0.6514 -1.2790  2.0776
 3132SOL     OW20854   1.454   0.271   8.444  0.0399 -0.2724 -0.2969
 3132SOL    HW120855   1.544   0.301   8.429  0.2781 -0.7892  0.0885
 3132SOL    HW220856   1.456   0.177   8.462 -0.2704 -0.3956 -0.8852
 3133SOL     OW20857   3.316   1.524   8.939  0.2840 -0.2293  0.1515
 3133SOL    HW120858   3.271   1.453   8.985  0.1557 -0.2389  0.0093
 3133SOL    HW220859   3.304   1.589   9.008  0.7173 -0.1951  0.1950
 3134SOL     OW20860   1.644   0.474   8.094  0.9710  0.0823  0.3394
 3134SOL    HW120861   1.590   0.395   8.095 -1.5050  1.7581 -1.7971
 3134SOL    HW220862   1.657   0.490   8.001 -0.4752 -0.9878 -0.0585
 3135SOL     OW20863   3.333   1.625   6.789 -0.0988 -0.1381 -0.5903
 3135SOL    HW120864   3.365   1.540   6.759  1.1122 -0.0459  0.5082
 3135SOL    HW220865   3.376   1.688   6.731 -1.3478 -0.7082 -2.1627
 3136SOL     OW20866   1.229   0.711  13.107  0.3649 -0.0554  0.2381
 3136SOL    HW120867   1.290   0.646  13.142  0.8007  0.4801  0.4760
 3136SOL    HW220868   1.214   0.769  13.181 -3.2593  0.0518 -0.5726
 3137SOL     OW20869   3.672   4.629   7.606 -0.1915  0.1587 -0.0532
 3137SOL    HW120870   3.737   4.568   7.643  1.0503  2.6590  1.9328
 3137SOL    HW220871   3.590   4.594   7.641 -0.9803  2.9894  0.8699
 3138SOL     OW20872   1.891   0.717   7.645 -0.0361 -0.3320  0.1702
 3138SOL    HW120873   1.985   0.729   7.639 -0.1809  0.7111 -0.0466
 3138SOL    HW220874   1.873   0.810   7.639 -3.1929 -0.7709  2.8138
 3139SOL     OW20875   4.376   3.893  13.338 -0.2791  0.1179  0.3494
 3139SOL    HW120876   4.405   3.827  13.401 -1.5791 -1.6992 -0.9722
 3139SOL    HW220877   4.311   3.846  13.285 -0.4520  1.1834 -0.3807
 3140SOL     OW20878   3.697   4.047   3.195 -0.5797 -0.0695 -1.0045
 3140SOL    HW120879   3.668   4.012   3.279 -2.0797  2.9196 -0.2720
 3140SOL    HW220880   3.692   3.977   3.131 -1.7815  0.2211 -1.2191
 3141SOL     OW20881   1.991   3.167   3.924  0.1240  0.2523 -0.0043
 3141SOL    HW120882   2.032   3.211   3.998 -2.4711 -0.4577  1.8468
 3141SOL    HW220883   1.903   3.154   3.960  0.6738  4.1990  2.7022
 3142SOL     OW20884   3.688   3.535  10.197 -0.2460 -0.1101  0.2247
 3142SOL    HW120885   3.629   3.500  10.130 -1.1372  1.2291  0.3121
 3142SOL    HW220886   3.720   3.616  10.157 -0.8637 -1.2046 -2.5276
 3143SOL     OW20887   1.926   0.179   4.877 -0.0709  0.2050  0.6049
 3143SOL    HW120888   1.961   0.153   4.962  1.2688  1.3880  0.4137
 3143SOL    HW220889   1.918   0.086   4.853 -1.7898  0.7562 -0.9959
 3144SOL     OW20890   2.411   3.508   0.650  0.1038 -1.1355 -1.2866
 3144SOL    HW120891   2.464   3.586   0.664 -3.2584  0.9714 -0.3553
 3144SOL    HW220892   2.433   3.454   0.726 -2.0617  2.3950  1.8124
 3145SOL     OW20893   4.534   1.710   7.830  0.2907  0.0178 -0.1982
 3145SOL    HW120894   4.573   1.773   7.890  0.1477 -0.6946  0.6524
 3145SOL    HW220895   4.598   1.709   7.759 -0.0946  0.3594 -0.5552
 3146SOL     OW20896   4.703   3.100   5.519 -0.6575  0.4243 -0.2277
 3146SOL    HW120897   0.032   3.084   5.599  1.6554 -1.1265 -1.9945
 3146SOL    HW220898   0.049   3.134   5.460  0.0459 -1.0811 -0.2775
 3147SOL     OW20899   4.310   0.950   8.187  0.1980 -0.0203  0.2322
 3147SOL    HW120900   4.387   0.964   8.131 -0.2544 -0.7781 -0.5795
 3147SOL    HW220901   4.289   0.858   8.168 -0.2584 -0.0487  0.8885
 3148SOL     OW20902   3.846   4.226  13.228 -0.1557  0.4101  0.6230
 3148SOL    HW120903   3.760   4.191  13.205  1.3367 -1.2760 -2.3725
 3148SOL    HW220904   3.824   4.271  13.310 -0.5522 -0.4320  0.9810
 3149SOL     OW20905   2.069   3.555   3.539 -0.1740 -0.4917 -0.3278
 3149SOL    HW120906   2.109   3.484   3.490 -1.5242 -1.9960  0.7468
 3149SOL    HW220907   2.028   3.605   3.468 -2.4855 -3.3611 -1.0282
 3150SOL     OW20908   2.987   1.294  11.383  0.3219  0.4758 -0.2640
 3150SOL    HW120909   2.905   1.284  11.333  1.5063 -2.3481 -1.5919
 3150SOL    HW220910   2.973   1.383  11.417 -3.1582  0.5213 -1.7899
 3151SOL     OW20911   2.083   3.047   6.602  0.7883 -0.6877  0.4818
 3151SOL    HW120912   2.066   2.970   6.656 -0.5847  0.3934  1.5941
 3151SOL    HW220913   2.177   3.042   6.619  0.7620 -1.8512  0.2801
 3152SOL     OW20914   2.476   2.683   7.017 -0.4599  0.3269 -0.0484
 3152SOL    HW120915   2.543   2.647   7.075 -0.2307  3.0019  1.3811
 3152SOL    HW220916   2.495   2.636   6.936  0.7316  1.2241 -0.2949
 3153SOL     OW20917   1.580   4.694   1.034  0.2882  0.1425 -0.0199
 3153SOL    HW120918   1.664   0.007   1.003  0.8969 -1.8165 -0.5127
 3153SOL    HW220919   1.532   0.054   1.052  1.3860  0.5148  1.1695
 3154SOL     OW20920   1.299   2.055   6.696 -0.4596  0.1173 -0.0713
 3154SOL    HW120921   1.273   1.964   6.707  2.9648 -0.9517 -0.7941
 3154SOL    HW220922   1.391   2.051   6.724  0.5814  1.1090 -3.3541
 3155SOL     OW20923   2.616   2.570   4.614 -0.1625 -0.7471 -0.2887
 3155SOL    HW120924   2.670   2.634   4.567 -2.5252 -0.5253 -2.7131
 3155SOL    HW220925   2.630   2.491   4.562  0.8696 -2.1472  2.0954
 3156SOL     OW20926   0.885   0.472   4.333 -0.5882  0.4144 -0.4086
 3156SOL    HW120927   0.817   0.478   4.266  0.9134 -0.8992 -2.0591
 3156SOL    HW220928   0.893   0.565   4.352  0.2425  0.0345  1.0545
 3157SOL     OW20929   1.296   0.923  10.992  0.7877  0.7759 -0.8830
 3157SOL    HW120930   1.372   0.888  10.945  0.9668  1.9448 -1.4633
 3157SOL    HW220931   1.317   0.920  11.085  0.2410  0.2605 -0.7781
 3158SOL     OW20932   0.999   4.672   4.281 -0.2583  0.3163 -0.0929
 3158SOL    HW120933   1.060   0.009   4.327  0.9472  0.8213 -2.3353
 3158SOL    HW220934   0.995   4.601   4.345 -1.1018  0.5936  0.1677
 3159SOL     OW20935   3.139   1.018  16.580 -0.3828 -0.5401  0.1854
 3159SOL    HW120936   3.182   1.058  16.504 -3.9427  1.3574 -0.8011
 3159SOL    HW220937   3.176   0.930  16.587 -0.5437 -0.5388  1.0271
 3160SOL     OW20938   0.448   3.505  17.566  0.0928 -0.0978 -0.2488
 3160SOL    HW120939   0.475   3.419  17.599 -0.4080 -1.0928 -2.4073
 3160SOL    HW220940   0.363   3.504  17.609 -0.1131 -1.2781 -0.6665
 3161SOL     OW20941   3.648   0.214  11.660  0.4058 -0.3305 -0.0953
 3161SOL    HW120942   3.590   0.142  11.683  0.8014 -0.4683  0.4742
 3161SOL    HW220943   3.645   0.266  11.741  1.1963 -2.1287  1.0751
 3162SOL     OW20944   3.833   4.016   2.857 -0.0803 -0.5855  0.5141
 3162SOL    HW120945   3.876   3.963   2.791  0.1808 -0.1830  0.3585
 3162SOL    HW220946   3.792   3.950   2.913 -0.6264 -0.3156  0.4282
 3163SOL     OW20947   4.355   0.368   3.102 -0.1154 -0.3762  0.0340
 3163SOL    HW120948   4.262   0.381   3.121  0.5540  1.5203  2.0762
 3163SOL    HW220949   4.387   0.356   3.192  1.6885 -4.1896 -1.0968
 3164SOL     OW20950   1.642   1.643   5.393  0.0673  0.4023 -0.4882
 3164SOL    HW120951   1.676   1.729   5.367  2.2398 -0.0911  0.7715
 3164SOL    HW220952   1.723   1.609   5.432 -0.5147  2.0965  2.1934
 3165SOL     OW20953   0.756   2.639   7.881  0.5711  0.0882  0.2484
 3165SOL    HW120954   0.809   2.561   7.869 -0.7264 -0.5120 -1.5471
 3165SOL    HW220955   0.696   2.622   7.954  0.8999  1.3178  0.7969
 3166SOL     OW20956   3.273   0.596   5.045 -0.0468 -0.1113 -0.1722
 3166SOL    HW120957   3.289   0.594   5.140 -1.5471 -1.0562  0.0504
 3166SOL    HW220958   3.265   0.690   5.025  1.5949  0.4605  1.8621
 3167SOL     OW20959   3.277   0.480   8.400 -0.4626  0.1546  0.1678
 3167SOL    HW120960   3.322   0.477   8.485  1.2987 -0.5307 -0.7727
 3167SOL    HW220961   3.325   0.404   8.366 -2.9529 -0.5533 -1.7224
 3168SOL     OW20962   2.790   1.545   7.097 -0.8875  0.0682 -0.0391
 3168SOL    HW120963   2.715   1.580   7.146 -0.9286  0.4188 -0.3462
 3168SOL    HW220964   2.757   1.494   7.023 -1.4973  0.2248  0.1228
 3169SOL     OW20965   0.073   1.156   7.772  0.1203 -0.2700  0.3979
 3169SOL    HW120966   0.165   1.133   7.783  0.0873 -1.8151 -2.4822
 3169SOL    HW220967   0.059   1.235   7.824  3.0302  1.7454 -1.9094
 3170SOL     OW20968   3.257   2.054   8.293 -0.1981 -0.2103  0.6590
 3170SOL    HW120969   3.286   2.090   8.377  1.1077  0.3130 -0.0156
 3170SOL    HW220970   3.295   1.966   8.287 -2.0229 -0.8652 -1.1015
 3171SOL     OW20971   3.718   2.558   4.149 -0.3968 -0.4977 -0.2490
 3171SOL    HW120972   3.726   2.462   4.148  1.7491 -0.3375  0.0428
 3171SOL    HW220973   3.711   2.563   4.054 -1.1609 -0.3276 -0.1793
 3172SOL     OW20974   4.612   2.553   7.146  0.3237  0.5207  0.1667
 3172SOL    HW120975   4.690   2.511   7.109  0.0318  0.1943 -0.0791
 3172SOL    HW220976   4.580   2.596   7.067  0.4296  0.9919  0.3805
 3173SOL     OW20977   1.797   0.385   6.916 -0.2600 -0.1350  0.6423
 3173SOL    HW120978   1.769   0.468   6.955 -1.2266 -0.5227  0.7855
 3173SOL    HW220979   1.776   0.399   6.824 -3.4042 -1.0629  1.1863
 3174SOL     OW20980   3.218   2.111  16.028 -0.1209  0.3144  0.0467
 3174SOL    HW120981   3.270   2.071  16.097  0.3862 -0.5625 -0.8335
 3174SOL    HW220982   3.183   2.032  15.984  1.7609 -0.4834  0.0004
 3175SOL     OW20983   3.036   2.571   8.606  0.7265  0.6842  0.0905
 3175SOL    HW120984   3.085   2.646   8.571  0.2296  1.4159  0.9769
 3175SOL    HW220985   2.981   2.612   8.672 -0.4523  0.8572 -0.9914
 3176SOL     OW20986   3.906   4.095   6.769  0.4158 -0.3635 -0.4675
 3176SOL    HW120987   3.830   4.065   6.719 -0.9553  2.3442  0.0038
 3176SOL    HW220988   3.874   4.084   6.858  1.9351 -1.0917 -0.0191
 3177SOL     OW20989   3.281   2.507   3.013 -0.0347 -0.1323 -0.0153
 3177SOL    HW120990   3.345   2.439   2.994  1.5682  0.4792  3.0390
 3177SOL    HW220991   3.304   2.542   3.099  0.4041  2.6024 -1.2481
 3178SOL     OW20992   0.518   3.484   6.751 -0.3315 -0.7573 -0.9230
 3178SOL    HW120993   0.588   3.490   6.816 -0.7895 -1.1062 -0.4029
 3178SOL    HW220994   0.536   3.398   6.713 -0.0749 -0.7972 -0.7135
 3179SOL     OW20995   1.343   1.781   5.471 -0.2321  0.3994  0.4693
 3179SOL    HW120996   1.377   1.724   5.540  1.5066  0.6235 -0.2037
 3179SOL    HW220997   1.428   1.820   5.450  0.6785 -2.5089 -1.2346
 3180SOL     OW20998   0.934   1.136   1.561  0.6018 -0.2407  0.9223
 3180SOL    HW120999   0.950   1.216   1.510 -1.9261  0.0543  0.5775
 3180SOL    HW221000   1.024   1.103   1.550  0.2887 -0.6729 -0.3706
 3181SOL     OW21001   1.056   4.553   2.520 -0.8856 -0.1162  0.5279
 3181SOL    HW121002   1.049   4.553   2.616  1.9704 -0.4310  0.7436
 3181SOL    HW221003   0.993   4.486   2.492  0.4526 -1.5868  1.0030
 3182SOL     OW21004   0.520   4.358  12.172 -0.4108  0.4239  0.3727
 3182SOL    HW121005   0.596   4.408  12.201 -0.7689  3.1696 -3.3947
 3182SOL    HW221006   0.448   4.421  12.174  0.5152  1.5117 -0.2291
 3183SOL     OW21007   2.810   1.838   7.535  0.1397  0.8120  0.7101
 3183SOL    HW121008   2.730   1.852   7.484  1.8924  0.5106 -2.1549
 3183SOL    HW221009   2.865   1.766   7.503 -1.2287 -1.2659  3.0201
 3184SOL     OW21010   0.043   1.175   3.209 -0.4348 -0.5240  0.1419
 3184SOL    HW121011   4.717   1.258   3.221  0.2900  0.0813 -1.1653
 3184SOL    HW221012   0.029   1.147   3.299 -1.4657 -0.6755 -0.0578
 3185SOL     OW21013   2.569   4.221   7.445 -0.1470 -0.2211  0.1179
 3185SOL    HW121014   2.614   4.264   7.518 -0.6292 -1.4941  1.1577
 3185SOL    HW221015   2.641   4.172   7.405 -0.0606 -2.0862  2.5603
 3186SOL     OW21016   4.214   2.053   3.960 -0.4581  0.1564 -0.3650
 3186SOL    HW121017   4.188   2.100   3.881 -2.0495 -1.3078 -0.7257
 3186SOL    HW221018   4.177   2.114   4.023 -0.2041 -1.3958  1.2732
 3187SOL     OW21019   4.007   0.584   2.105 -0.4747  0.4584  0.3235
 3187SOL    HW121020   3.930   0.528   2.113  0.2793 -0.7750 -1.0349
 3187SOL    HW221021   4.079   0.522   2.096 -2.2632 -1.3849 -1.4189
 3188SOL     OW21022   1.105   4.206   7.513 -0.1539 -0.2437 -0.3871
 3188SOL    HW121023   1.075   4.118   7.537 -0.6607  0.2755  0.9079
 3188SOL    HW221024   1.096   4.246   7.599 -2.6228 -0.9587 -0.3121
 3189SOL     OW21025   0.963   0.498  13.294  0.0879 -0.4643  0.0626
 3189SOL    HW121026   1.011   0.447  13.229 -1.2733 -0.3562 -1.0247
 3189SOL    HW221027   0.906   0.442  13.348  0.1502 -0.9661 -0.3936
 3190SOL     OW21028   2.918   4.472   2.239  0.3508  0.0418  0.4001
 3190SOL    HW121029   2.832   4.443   2.270  1.0379 -0.7450  1.5427
 3190SOL    HW221030   2.898   4.540   2.174 -0.2280 -1.5585 -1.1276
 3191SOL     OW21031   2.170   1.725  13.159 -0.3060 -0.0153  0.0069
 3191SOL    HW121032   2.175   1.814  13.125 -0.3417 -0.6146 -1.6110
 3191SOL    HW221033   2.260   1.700  13.138  0.5755  0.1765  3.5182
 3192SOL     OW21034   1.496   4.584   7.916  0.6642  0.3224 -0.3126
 3192SOL    HW121035   1.451   4.505   7.885  0.9506  0.8824 -2.1816
 3192SOL    HW221036   1.438   4.653   7.883  0.0002  0.4888  1.2205
 3193SOL     OW21037   0.298   2.108   9.353 -0.6975 -0.1671  0.1822
 3193SOL    HW121038   0.214   2.150   9.334 -1.2382 -1.9370 -1.3072
 3193SOL    HW221039   0.359   2.180   9.334  1.8332 -2.7879 -1.6147
 3194SOL     OW21040   2.262   0.392   9.707  0.4337  0.3116  0.3484
 3194SOL    HW121041   2.298   0.346   9.783  3.4161 -0.1834 -1.3763
 3194SOL    HW221042   2.193   0.333   9.680 -1.9619  2.9819  0.6113
 3195SOL     OW21043   2.072   0.595   9.753  0.0476  0.8246  0.3954
 3195SOL    HW121044   2.149   0.542   9.731 -1.7501 -0.8497 -1.8123
 3195SOL    HW221045   2.106   0.680   9.723 -0.0712 -0.0155 -2.1343
 3196SOL     OW21046   2.290   1.069   8.596 -0.2344 -0.1286  0.4830
 3196SOL    HW121047   2.243   1.009   8.538 -0.1996  0.0119  0.3069
 3196SOL    HW221048   2.383   1.077   8.572 -0.2465 -2.2626 -0.2772
 3197SOL     OW21049   3.917   0.094  12.247  0.1879  0.2340 -0.2436
 3197SOL    HW121050   3.849   0.161  12.241 -0.4107 -0.1719  1.9656
 3197SOL    HW221051   3.981   0.159  12.276 -1.4219  1.9462 -0.5351
 3198SOL     OW21052   3.336   2.017   9.420  0.2716  0.3553 -0.1552
 3198SOL    HW121053   3.317   2.030   9.513  0.2476 -2.8331  0.2633
 3198SOL    HW221054   3.250   1.983   9.393 -0.2079  1.2775  0.2099
 3199SOL     OW21055   0.606   2.268   4.940 -0.3163 -0.2367 -0.3277
 3199SOL    HW121056   0.567   2.189   4.901  1.7592 -2.6478  2.5589
 3199SOL    HW221057   0.700   2.256   4.930 -0.1237  1.1346 -0.1486
 3200SOL     OW21058   0.385   3.781  11.300 -0.0913 -0.0512 -0.0525
 3200SOL    HW121059   0.424   3.716  11.242  0.7278  0.1116  0.3121
 3200SOL    HW221060   0.461   3.812  11.349  1.0051  1.4886 -2.6828
 3201SOL     OW21061   2.108   1.162   5.795 -0.5843 -0.2614  0.4271
 3201SOL    HW121062   2.061   1.083   5.770  0.4355 -0.2818 -1.4804
 3201SOL    HW221063   2.182   1.128   5.844  0.6502  1.5056 -0.2039
 3202SOL     OW21064   3.853   4.496   8.240 -0.6206  0.4597 -0.1690
 3202SOL    HW121065   3.887   4.538   8.161  1.3017  2.3526  1.6617
 3202SOL    HW221066   3.764   4.526   8.257 -1.2931 -0.3284 -2.3221
 3203SOL     OW21067   2.377   1.226   0.900  0.4554 -0.0330 -0.1790
 3203SOL    HW121068   2.448   1.167   0.926 -0.3901 -1.9412 -2.2113
 3203SOL    HW221069   2.336   1.233   0.986  0.1705  1.5568 -0.4481
 3204SOL     OW21070   1.800   3.769   4.784 -0.1597 -0.0776  0.1609
 3204SOL    HW121071   1.876   3.711   4.787  0.5451  0.8876  0.7298
 3204SOL    HW221072   1.747   3.742   4.860 -0.5335 -2.0525 -0.8016
 3205SOL     OW21073   3.694   0.634   5.785  0.0875 -0.0969  0.1027
 3205SOL    HW121074   3.702   0.555   5.731 -0.0632 -0.5769  0.7884
 3205SOL    HW221075   3.781   0.673   5.776  0.6657 -1.4715 -0.3292
 3206SOL     OW21076   1.046   1.447   4.343  0.4702 -0.1129  0.3316
 3206SOL    HW121077   1.126   1.396   4.348  1.0529  0.6290 -1.3564
 3206SOL    HW221078   1.083   1.532   4.318 -1.9327  0.4217 -1.4891
 3207SOL     OW21079   0.642   1.692   9.093  0.1832 -0.2556 -0.2603
 3207SOL    HW121080   0.558   1.646   9.087  0.1536 -0.3788  1.3440
 3207SOL    HW221081   0.630   1.755   9.163  0.3877  0.1233 -0.5662
 3208SOL     OW21082   1.175   3.275  11.270  0.3490  0.0478 -0.8374
 3208SOL    HW121083   1.099   3.284  11.214  0.7036 -1.4613 -1.5603
 3208SOL    HW221084   1.153   3.196  11.319 -2.2939  0.3415 -1.5906
 3209SOL     OW21085   1.875   2.292   2.653  0.2680  0.2205  0.0198
 3209SOL    HW121086   1.910   2.305   2.564  0.1669 -3.7873 -0.6245
 3209SOL    HW221087   1.935   2.348   2.701 -0.0548  2.0856 -1.7606
 3210SOL     OW21088   3.069   4.192   8.625  0.3219 -0.7003  0.7396
 3210SOL    HW121089   3.059   4.288   8.621  1.1619 -0.7000 -1.2967
 3210SOL    HW221090   2.988   4.171   8.672 -0.4659  0.2886 -0.1687
 3211SOL     OW21091   2.125   1.326   0.757 -0.5968 -0.2843 -0.6317
 3211SOL    HW121092   2.075   1.370   0.825 -1.6756 -0.4802 -1.2877
 3211SOL    HW221093   2.196   1.278   0.800 -0.5813 -0.8346 -1.2646
 3212SOL     OW21094   3.192   2.889   3.710 -0.2565 -0.2922  0.5022
 3212SOL    HW121095   3.099   2.909   3.698  0.1105  0.8291 -0.4361
 3212SOL    HW221096   3.226   2.945   3.780  1.0638 -0.8424  0.3021
 3213SOL     OW21097   4.350   2.067   0.607 -0.3576 -0.6678 -0.0113
 3213SOL    HW121098   4.359   2.036   0.697  0.1750 -1.8558 -0.4721
 3213SOL    HW221099   4.270   2.119   0.611 -0.2683 -0.4636 -0.9067
 3214SOL     OW21100   1.483   1.406   7.649 -0.0345 -1.1641  0.1019
 3214SOL    HW121101   1.486   1.330   7.708  1.3345 -1.5357 -0.4267
 3214SOL    HW221102   1.394   1.413   7.616  0.0779 -2.3432 -0.4779
 3215SOL     OW21103   3.762   2.673  15.513 -0.6581  0.4033  0.8226
 3215SOL    HW121104   3.719   2.678  15.598  0.2939  2.0797  1.2017
 3215SOL    HW221105   3.836   2.732  15.527 -1.1596  1.0080  0.8909
 3216SOL     OW21106   3.571   2.379   5.526 -0.6391 -0.3617  0.1403
 3216SOL    HW121107   3.623   2.459   5.541 -1.8228  0.1161  1.7313
 3216SOL    HW221108   3.623   2.336   5.459 -0.9191 -0.3644 -0.0710
 3217SOL     OW21109   3.969   1.775   5.506 -0.1621  0.5718  0.1628
 3217SOL    HW121110   3.981   1.826   5.586  3.8726 -0.2414  0.0702
 3217SOL    HW221111   3.966   1.686   5.542  2.4950  0.0858 -0.7782
 3218SOL     OW21112   0.026   0.674  12.952 -0.4526 -0.3162 -0.1719
 3218SOL    HW121113   4.712   0.632  13.030  3.1967  0.9534  2.1524
 3218SOL    HW221114   0.115   0.686  12.983 -1.2787  2.2426  1.2656
 3219SOL     OW21115   0.615   0.565  17.297  0.3666 -0.0726 -0.2333
 3219SOL    HW121116   0.560   0.627  17.249  1.6821  0.3152 -1.2394
 3219SOL    HW221117   0.662   0.628  17.350 -2.3650  1.9982 -0.2851
 3220SOL     OW21118   3.765   2.828  10.604 -0.7870 -0.0839 -0.4075
 3220SOL    HW121119   3.695   2.766  10.625  0.6896 -0.8554  2.3413
 3220SOL    HW221120   3.718   2.904  10.571  3.8110  1.1012 -4.2013
 3221SOL     OW21121   2.318   3.067   6.168 -0.1033  0.2185  0.2429
 3221SOL    HW121122   2.239   3.088   6.218 -1.2376  0.8869 -1.8009
 3221SOL    HW221123   2.321   2.972   6.179  1.2163  0.3272  0.8399
 3222SOL     OW21124   1.020   4.420  11.012 -0.2840  0.3435 -0.2101
 3222SOL    HW121125   1.017   4.462  10.926 -1.7854  1.1474  0.2298
 3222SOL    HW221126   0.969   4.340  11.001  0.3867  0.0297 -1.0039
 3223SOL     OW21127   0.537   0.197  15.767 -0.0300 -0.5345 -0.1640
 3223SOL    HW121128   0.574   0.109  15.765 -1.4241 -1.0702 -2.5685
 3223SOL    HW221129   0.544   0.219  15.860 -0.0287 -0.6827 -0.1297
 3224SOL     OW21130   2.129   3.336   3.411 -0.5994  0.3070  0.6158
 3224SOL    HW121131   2.221   3.314   3.397 -0.4584  1.5540 -0.4646
 3224SOL    HW221132   2.111   3.298   3.497 -0.4275  0.2322  0.6174
 3225SOL     OW21133   0.808   2.575   5.874 -0.5090  0.0522 -0.8102
 3225SOL    HW121134   0.779   2.663   5.897  0.5286  0.1336  0.1904
 3225SOL    HW221135   0.797   2.535   5.961  0.3665 -2.1634 -1.7100
 3226SOL     OW21136   0.162   4.190   9.663 -0.4635  0.3669  0.1237
 3226SOL    HW121137   0.190   4.130   9.732 -1.6368  0.9549  1.1208
 3226SOL    HW221138   0.083   4.229   9.702  0.8144  2.3764  0.6860
 3227SOL     OW21139   4.489   2.761   4.496  0.5508 -0.4674  0.3950
 3227SOL    HW121140   4.565   2.788   4.444  0.3689 -0.2586  0.2351
 3227SOL    HW221141   4.427   2.738   4.427 -0.9201  3.1167  0.5313
 3228SOL     OW21142   1.512   4.496  17.204 -0.1368  0.2429 -0.3307
 3228SOL    HW121143   1.453   4.558  17.161 -1.7724 -1.3670 -0.3927
 3228SOL    HW221144   1.583   4.550  17.240 -1.8073  3.5265 -1.9279
 3229SOL     OW21145   0.096   3.796   3.036  0.1007  0.3079 -0.0044
 3229SOL    HW121146   0.146   3.874   3.060  0.0254  0.8467 -1.5952
 3229SOL    HW221147   0.065   3.843   2.958  0.6846  1.6401  0.5589
 3230SOL     OW21148   2.935   1.680  13.845 -0.5045  1.0287 -0.2462
 3230SOL    HW121149   3.001   1.749  13.832  0.6888 -0.2332 -0.9481
 3230SOL    HW221150   2.879   1.718  13.912 -1.0572  2.2793 -1.4272
 3231SOL     OW21151   3.848   2.210  11.665  0.0922  0.0345 -0.0680
 3231SOL    HW121152   3.823   2.119  11.649  0.1405  0.0997 -0.5063
 3231SOL    HW221153   3.910   2.225  11.594  1.0366 -2.5551  0.2055
 3232SOL     OW21154   2.099   2.661  15.606 -0.3374 -0.3026  0.0625
 3232SOL    HW121155   2.023   2.615  15.570 -2.7536  3.8349 -0.0751
 3232SOL    HW221156   2.127   2.597  15.672  0.3720  1.9299  1.9084
 3233SOL     OW21157   0.889   3.675  15.607  0.2883 -0.0269 -0.6106
 3233SOL    HW121158   0.872   3.765  15.580  0.1509  0.9642  2.7491
 3233SOL    HW221159   0.878   3.625  15.526  0.0782  0.2732 -0.7680
 3234SOL     OW21160   0.064   3.194   9.946  0.2323  0.2700 -0.2810
 3234SOL    HW121161   0.160   3.189   9.952  0.1861 -0.8356 -0.4151
 3234SOL    HW221162   0.053   3.280   9.905  1.2653  0.7380  0.4189
 3235SOL     OW21163   0.703   3.699   5.930 -0.7343 -0.6371 -0.7328
 3235SOL    HW121164   0.708   3.760   6.004 -0.9857 -2.9866  1.2087
 3235SOL    HW221165   0.712   3.763   5.859 -0.1473  1.2205  0.9966
 3236SOL     OW21166   0.061   1.786   3.772 -0.2130 -0.0867  0.0354
 3236SOL    HW121167   0.092   1.831   3.850  2.2021 -2.1480  0.2403
 3236SOL    HW221168   0.014   1.851   3.720 -1.5275 -0.2674  0.9829
 3237SOL     OW21169   2.011   3.046   0.974 -0.4862  0.0238 -0.1872
 3237SOL    HW121170   2.027   3.068   0.882  0.6358 -0.8801 -0.1994
 3237SOL    HW221171   2.031   2.953   0.976 -0.3173  0.0198 -1.8895
 3238SOL     OW21172   2.775   0.852   3.945 -0.3275 -0.9792  0.2823
 3238SOL    HW121173   2.802   0.816   4.030 -1.9579 -1.8884  0.4003
 3238SOL    HW221174   2.833   0.928   3.952 -0.5559 -0.7257 -0.6218
 3239SOL     OW21175   2.762   2.861  12.900  0.2025  0.0572  0.3958
 3239SOL    HW121176   2.710   2.938  12.925 -0.5525  0.2701 -1.8066
 3239SOL    HW221177   2.827   2.901  12.843  0.7526  1.6213  2.0993
 3240SOL     OW21178   2.018   4.611   3.049 -0.3982  0.2053  0.1374
 3240SOL    HW121179   2.103   4.588   3.085 -0.9435 -0.9762  0.6649
 3240SOL    HW221180   1.969   4.627   3.130  0.4114  0.9767  0.4643
 3241SOL     OW21181   2.013   0.872  16.007 -0.8702 -0.2961  0.3995
 3241SOL    HW121182   1.953   0.802  15.980 -2.2368  0.9898  0.0787
 3241SOL    HW221183   1.947   0.939  16.027 -2.0937 -1.5168  0.4676
 3242SOL     OW21184   2.380   3.294   5.426 -0.7127  0.8859 -0.1386
 3242SOL    HW121185   2.313   3.359   5.446 -0.1189  1.4317  0.0774
 3242SOL    HW221186   2.461   3.340   5.451 -1.2004  1.3579  0.5569
 3243SOL     OW21187   2.807   2.009   6.146  0.5576  0.5576  0.7841
 3243SOL    HW121188   2.835   1.927   6.186  2.9371 -0.0262 -2.0716
 3243SOL    HW221189   2.897   2.041   6.136  0.9582 -0.9157 -0.2170
 3244SOL     OW21190   3.550   1.870   9.351 -0.0313  0.0706  0.2724
 3244SOL    HW121191   3.601   1.901   9.426 -2.0407  1.0441  1.2440
 3244SOL    HW221192   3.478   1.931   9.363  0.9219  0.8288  2.1687
 3245SOL     OW21193   1.031   2.071   5.734 -0.0778 -0.6179 -0.4066
 3245SOL    HW121194   1.117   2.057   5.696 -0.9269 -0.9279 -2.2027
 3245SOL    HW221195   0.993   2.127   5.666  2.7808 -0.0747 -1.5539
 3246SOL     OW21196   4.315   2.099   8.324  0.2661  0.0900  0.7106
 3246SOL    HW121197   4.275   2.070   8.406  0.3347 -2.2684 -0.1006
 3246SOL    HW221198   4.397   2.138   8.355 -0.2017  1.8154 -0.1839
 3247SOL     OW21199   4.221   4.301   4.379 -0.3942  0.2874  0.2916
 3247SOL    HW121200   4.269   4.360   4.320 -0.1757 -0.0109  0.1682
 3247SOL    HW221201   4.285   4.239   4.416  0.4187  2.0558  1.8037
 3248SOL     OW21202   1.045   2.920  15.132  0.3106  0.0120 -0.2798
 3248SOL    HW121203   1.044   2.827  15.110 -2.1217  0.1863 -0.8765
 3248SOL    HW221204   1.139   2.937  15.134  0.0722  1.3347  0.2344
 3249SOL     OW21205   2.436   1.000   7.816 -0.4578 -0.4561  0.7801
 3249SOL    HW121206   2.419   1.067   7.881 -0.7457 -0.0519  0.2861
 3249SOL    HW221207   2.483   0.941   7.875 -1.5425  0.9078  3.0091
 3250SOL     OW21208   4.152   3.543   1.730  0.2699 -0.1815  0.7699
 3250SOL    HW121209   4.149   3.516   1.638  3.0621 -0.7315  0.8361
 3250SOL    HW221210   4.169   3.462   1.777 -1.0267 -0.8926  0.0107
 3251SOL     OW21211   2.610   1.874  10.906  0.4189  0.0027 -0.4435
 3251SOL    HW121212   2.681   1.811  10.893  0.2489 -0.1508 -0.6234
 3251SOL    HW221213   2.642   1.954  10.862  2.0877 -0.9101 -0.9135
 3252SOL     OW21214   4.380   2.922   5.143  0.0381  0.7974  0.4456
 3252SOL    HW121215   4.309   2.939   5.204  1.2158 -0.2341  2.0866
 3252SOL    HW221216   4.458   2.924   5.198 -0.4650  0.6697  1.1570
 3253SOL     OW21217   0.058   4.265  16.390  0.2119  0.3864  0.4282
 3253SOL    HW121218   0.050   4.281  16.484 -2.7036 -1.5384  0.4953
 3253SOL    HW221219   0.098   4.345  16.358  0.6950 -0.3332 -0.7695
 3254SOL     OW21220   2.985   2.972  15.828  0.2317 -0.1584 -0.0396
 3254SOL    HW121221   2.948   2.905  15.886 -0.6213  0.1285 -0.2541
 3254SOL    HW221222   2.908   3.028  15.817 -0.2944 -0.8429  0.1010
 3255SOL     OW21223   4.045   3.116   7.957  0.1664  0.1912  0.0945
 3255SOL    HW121224   3.977   3.156   7.903 -1.2082  0.9474  2.4148
 3255SOL    HW221225   4.125   3.158   7.925 -0.1189  0.4728 -0.2443
 3256SOL     OW21226   2.067   3.086   0.681 -0.0335  0.0818 -0.5330
 3256SOL    HW121227   2.070   3.130   0.596  0.3068  0.5775 -0.2681
 3256SOL    HW221228   2.078   2.992   0.670  0.0924  0.3840 -2.9986
 3257SOL     OW21229   2.952   4.575   7.846  0.3264  0.1443 -0.1162
 3257SOL    HW121230   2.880   4.571   7.909  0.2718 -0.4856 -0.2210
 3257SOL    HW221231   2.899   4.569   7.767  2.7119  1.2548 -1.7960
 3258SOL     OW21232   0.428   1.122   6.446  0.4757 -0.2052  0.1698
 3258SOL    HW121233   0.359   1.080   6.497 -0.5082  0.3481 -0.7269
 3258SOL    HW221234   0.506   1.101   6.498  1.6670  0.2003 -1.4648
 3259SOL     OW21235   2.891   0.016   3.018  0.7117 -0.0993  0.6250
 3259SOL    HW121236   2.969   0.059   3.053  2.1471 -0.8876 -1.5567
 3259SOL    HW221237   2.910   0.016   2.924 -2.8952  1.9310 -0.1064
 3260SOL     OW21238   4.406   0.767   8.974 -0.0680  0.1834  0.4263
 3260SOL    HW121239   4.454   0.848   8.992  0.5628  0.1703 -1.1896
 3260SOL    HW221240   4.318   0.792   9.000 -0.1361  0.6631 -0.2616
 3261SOL     OW21241   0.595   0.048   5.247  0.3445 -0.2259  0.2124
 3261SOL    HW121242   0.534   4.713   5.200 -0.2397 -1.1389  2.0529
 3261SOL    HW221243   0.620   4.719   5.325  1.9454 -0.8005 -0.6657
 3262SOL     OW21244   2.587   2.134   6.214  0.3099  0.8694  0.1049
 3262SOL    HW121245   2.669   2.090   6.190  0.3435  1.4335 -0.8236
 3262SOL    HW221246   2.608   2.150   6.305  1.3716 -0.3517  0.0715
 3263SOL     OW21247   0.915   2.498   8.349 -0.1357  0.2495 -0.5749
 3263SOL    HW121248   1.009   2.516   8.343 -0.4868  2.9003  1.7544
 3263SOL    HW221249   0.921   2.425   8.287  1.3427 -0.1809  0.0770
 3264SOL     OW21250   3.619   0.382   0.464  0.0781 -0.0075 -0.2744
 3264SOL    HW121251   3.684   0.337   0.518  2.2307  0.5254 -2.4723
 3264SOL    HW221252   3.594   0.450   0.526  0.7578 -0.8178  0.8891
 3265SOL     OW21253   3.328   4.143   9.825  0.0847 -0.2954 -0.4112
 3265SOL    HW121254   3.310   4.192   9.905  1.6807 -1.9415  0.9443
 3265SOL    HW221255   3.334   4.053   9.857  0.7025 -0.4470 -0.9387
 3266SOL     OW21256   0.361   1.121  10.771  0.3192  0.4448 -0.4923
 3266SOL    HW121257   0.290   1.181  10.794  0.2432  1.1179 -2.5880
 3266SOL    HW221258   0.393   1.103  10.860 -4.4177  3.5426  1.8232
 3267SOL     OW21259   1.925   4.438   1.032  0.2666 -0.0193 -0.1131
 3267SOL    HW121260   1.973   4.487   0.964  0.6149  1.9517  1.5564
 3267SOL    HW221261   1.991   4.383   1.074  1.2612  1.1654 -0.1310
 3268SOL     OW21262   2.800   3.674  12.421 -0.9972  0.2344 -0.2909
 3268SOL    HW121263   2.707   3.673  12.400 -0.4865  3.7554 -2.5870
 3268SOL    HW221264   2.796   3.686  12.516  2.3830 -0.6275 -0.0135
 3269SOL     OW21265   1.438   2.789   6.190  0.4017 -0.5894 -0.2988
 3269SOL    HW121266   1.468   2.814   6.278 -1.6814  1.3775 -0.1363
 3269SOL    HW221267   1.518   2.797   6.139  0.8866 -0.0387  0.5411
 3270SOL     OW21268   2.449   0.567   5.312  0.4511 -0.8041  0.1211
 3270SOL    HW121269   2.521   0.560   5.375  1.1891 -0.5071 -0.6900
 3270SOL    HW221270   2.457   0.476   5.283  0.1627 -0.6003 -0.6090
 3271SOL     OW21271   4.716   0.989   8.803  0.1494 -0.0430 -0.2821
 3271SOL    HW121272   4.671   0.950   8.728  0.1759  0.1872 -0.4160
 3271SOL    HW221273   4.652   0.972   8.873 -0.1463  0.4488 -0.4357
 3272SOL     OW21274   1.843   0.038  15.011  0.1061  0.3885 -0.1408
 3272SOL    HW121275   1.782   0.093  15.061  0.5646  0.4054  0.3921
 3272SOL    HW221276   1.883   4.716  15.086 -0.5251 -0.3909 -0.2604
 3273SOL     OW21277   0.977   3.055   4.187  0.0604 -0.7322  0.3039
 3273SOL    HW121278   0.926   3.075   4.265 -0.5592 -1.7437  0.1519
 3273SOL    HW221279   1.063   3.032   4.222  0.4760  0.9466  0.3923
 3274SOL     OW21280   3.959   3.114   9.376  0.1410  0.1078  0.2305
 3274SOL    HW121281   3.916   3.123   9.461 -0.0413  0.2202  0.1255
 3274SOL    HW221282   3.956   3.018   9.368  0.5860 -0.0254  1.5169
 3275SOL     OW21283   3.287   0.135   0.481 -0.1403  0.1558  0.2398
 3275SOL    HW121284   3.357   0.073   0.463  0.5450  1.1596 -0.5545
 3275SOL    HW221285   3.278   0.124   0.576  0.3940 -0.0487  0.2641
 3276SOL     OW21286   4.531   2.782  11.087 -0.0103 -0.8793 -0.3484
 3276SOL    HW121287   4.564   2.725  11.018  1.3563 -0.6929  0.1530
 3276SOL    HW221288   4.465   2.834  11.041  3.3875  3.4138 -0.4254
 3277SOL     OW21289   3.717   1.157   5.902  0.3223 -0.2415 -0.5499
 3277SOL    HW121290   3.636   1.157   5.953  1.4968  2.9215  1.3304
 3277SOL    HW221291   3.698   1.124   5.815  1.4114 -0.2717 -0.7733
 3278SOL     OW21292   0.054   2.377   6.964 -0.6664  0.2963  0.0605
 3278SOL    HW121293   0.105   2.312   7.013  0.2146  1.0842  0.1683
 3278SOL    HW221294   4.696   2.329   6.940 -1.5225  2.1789 -0.8692
 3279SOL     OW21295   1.968   3.234   7.372 -0.0634  0.1137 -1.0193
 3279SOL    HW121296   1.908   3.191   7.433  0.4284 -0.0307 -0.6374
 3279SOL    HW221297   2.049   3.184   7.386  0.5124  1.0583 -0.9881
 3280SOL     OW21298   2.948   1.443  16.548 -0.1220  0.0461 -0.5849
 3280SOL    HW121299   2.882   1.408  16.609  1.4156  0.0680  1.1000
 3280SOL    HW221300   2.955   1.528  16.591 -2.4371  0.3153 -0.7257
 3281SOL     OW21301   1.181   3.832   2.282  0.2473 -0.1315  0.4223
 3281SOL    HW121302   1.197   3.900   2.217  1.2199  2.1671  3.0491
 3281SOL    HW221303   1.186   3.756   2.224  1.5064 -0.2932  0.7555
 3282SOL     OW21304   0.723   0.092  14.895  0.0756 -0.4407 -0.6695
 3282SOL    HW121305   0.814   0.098  14.924  0.1899 -0.5449 -1.0086
 3282SOL    HW221306   0.735   0.097  14.800 -0.2060 -5.0236 -0.9414
 3283SOL     OW21307   2.388   2.730  14.924  0.8403 -0.3121 -0.5550
 3283SOL    HW121308   2.430   2.654  14.965 -0.7306 -0.4038  0.8811
 3283SOL    HW221309   2.301   2.691  14.914  1.4030 -1.5304 -0.6922
 3284SOL     OW21310   0.150   0.719   6.613 -0.0226  0.0973 -0.4133
 3284SOL    HW121311   0.210   0.793   6.626 -0.1914  0.3668 -1.1786
 3284SOL    HW221312   0.141   0.684   6.702 -2.4181 -0.5362 -0.9273
 3285SOL     OW21313   1.955   4.014   1.442  0.3275 -0.6436  0.5288
 3285SOL    HW121314   1.861   4.029   1.430  0.6372  0.7306 -0.1753
 3285SOL    HW221315   1.977   4.087   1.501 -0.0776 -1.2103  1.3783
 3286SOL     OW21316   0.870   0.218   9.232  0.1135  0.0360 -0.2863
 3286SOL    HW121317   0.962   0.204   9.255 -0.3638 -0.0205  1.5184
 3286SOL    HW221318   0.862   0.304   9.191  0.0883  0.6382  0.9832
 3287SOL     OW21319   2.149   2.949   3.933 -0.6134  0.0683  0.3733
 3287SOL    HW121320   2.145   2.957   4.028 -0.3031 -0.3299  0.4169
 3287SOL    HW221321   2.083   3.014   3.907 -0.4881  0.2128  0.4182
 3288SOL     OW21322   2.257   4.509   4.536 -0.1182 -0.1376  0.2353
 3288SOL    HW121323   2.349   4.538   4.529 -0.1207  0.2323  1.7014
 3288SOL    HW221324   2.237   4.550   4.620 -2.0856  1.5896 -1.0838
 3289SOL     OW21325   4.489   3.805   5.532  0.2181 -0.1866  0.4370
 3289SOL    HW121326   4.447   3.889   5.549  0.2110 -0.1629  0.3050
 3289SOL    HW221327   4.568   3.817   5.585 -0.5439  1.5915  1.1459
 3290SOL     OW21328   3.636   1.322   7.829  0.3864  0.7566  0.2650
 3290SOL    HW121329   3.720   1.276   7.827 -0.9349 -1.6367  0.6333
 3290SOL    HW221330   3.592   1.270   7.896 -0.2678  2.3483  1.0810
 3291SOL     OW21331   0.998   2.268   4.709 -0.1242 -0.8421 -0.6049
 3291SOL    HW121332   0.961   2.287   4.623  2.1633 -4.2180 -2.3426
 3291SOL    HW221333   1.092   2.257   4.690  0.4407  1.0146  1.1940
 3292SOL     OW21334   2.430   0.482   6.738  0.0459  0.5887 -0.4004
 3292SOL    HW121335   2.492   0.413   6.761  0.0135  0.4278 -0.8020
 3292SOL    HW221336   2.491   0.555   6.750  1.4457 -0.6806  0.1959
 3293SOL     OW21337   1.173   2.497   0.747 -0.0851 -0.9118  0.0624
 3293SOL    HW121338   1.158   2.584   0.783  0.1133 -0.5952 -0.6187
 3293SOL    HW221339   1.268   2.496   0.751 -0.0261 -0.7315 -1.3898
 3294SOL     OW21340   4.276   0.069  14.824  0.1426  0.1052  0.6048
 3294SOL    HW121341   4.344   0.107  14.769  2.9508 -2.1244  2.5471
 3294SOL    HW221342   4.235   0.004  14.767  1.1845  0.2712 -0.3345
 3295SOL     OW21343   0.089   3.781  10.845  0.1719  0.1611 -0.0664
 3295SOL    HW121344   0.155   3.783  10.776 -1.0997  0.8902 -1.2644
 3295SOL    HW221345   0.008   3.766  10.798 -0.5397 -1.0730  1.5563
 3296SOL     OW21346   2.681   1.494   3.974  0.3118  0.6715 -0.2123
 3296SOL    HW121347   2.681   1.576   4.023  0.6472 -1.0744  2.6910
 3296SOL    HW221348   2.697   1.526   3.885  2.4705  2.4109  0.7961
 3297SOL     OW21349   3.974   2.294   2.631 -0.8400 -0.1278 -0.1146
 3297SOL    HW121350   3.926   2.295   2.548 -0.8695  1.2196 -0.0788
 3297SOL    HW221351   4.061   2.320   2.602 -2.0843  1.4988 -2.3652
 3298SOL     OW21352   1.709   4.634   4.693 -0.3980  0.2809  0.1082
 3298SOL    HW121353   1.715   4.578   4.616  1.0022  2.7631 -1.6112
 3298SOL    HW221354   1.734   4.715   4.648 -1.5140  1.1179  1.0001
 3299SOL     OW21355   0.749   1.947   6.416 -0.4759  0.2201 -0.4869
 3299SOL    HW121356   0.698   1.875   6.380  0.6521 -0.5015 -0.6167
 3299SOL    HW221357   0.835   1.912   6.397 -0.9680 -1.0635 -0.3298
 3300SOL     OW21358   1.513   3.970   1.221  0.1907  0.4011  0.4447
 3300SOL    HW121359   1.586   4.030   1.233 -1.3740  1.8430  2.9873
 3300SOL    HW221360   1.433   4.021   1.237 -0.2518 -0.1354 -0.0508
 3301SOL     OW21361   4.065   1.705  17.649  0.7931 -0.5890  0.1095
 3301SOL    HW121362   4.006   1.779  17.636  3.2971  1.2571 -0.7054
 3301SOL    HW221363   3.995   1.640  17.649  0.1266  0.1423  0.3572
 3302SOL     OW21364   2.670   3.822  16.894 -0.2389  0.4098 -0.0064
 3302SOL    HW121365   2.689   3.729  16.881 -2.2305 -0.2491  1.7842
 3302SOL    HW221366   2.717   3.869  16.825  1.0699 -0.8830 -0.0009
 3303SOL     OW21367   0.200   3.675  16.824 -0.4098 -0.3439 -0.7769
 3303SOL    HW121368   0.245   3.626  16.892  0.0530 -4.0022 -3.6905
 3303SOL    HW221369   0.148   3.735  16.878  2.3192  0.4449  0.9246
 3304SOL     OW21370   2.734   0.921  11.107  0.0316 -0.6177  0.2475
 3304SOL    HW121371   2.725   0.844  11.051  1.7402 -0.7415  0.1460
 3304SOL    HW221372   2.808   0.900  11.165 -0.4515  0.9681  1.4303
 3305SOL     OW21373   1.701   3.318   5.236 -0.2158  0.6200  0.5401
 3305SOL    HW121374   1.668   3.228   5.229 -1.6628  1.1995 -0.2303
 3305SOL    HW221375   1.650   3.353   5.309  0.9628  0.5761  1.3713
 3306SOL     OW21376   1.289   2.360   5.852 -0.5442  0.3923  0.8321
 3306SOL    HW121377   1.305   2.353   5.946  1.4918  3.0764  0.6964
 3306SOL    HW221378   1.197   2.385   5.845 -0.6120 -0.2575 -0.7118
 3307SOL     OW21379   2.086   2.779   6.673 -0.0296  0.0857  0.1472
 3307SOL    HW121380   1.993   2.767   6.692 -0.2977 -1.2575 -2.0419
 3307SOL    HW221381   2.107   2.690   6.700  0.2492  0.6715  1.8607
 3308SOL     OW21382   1.393   0.163  14.713 -0.2820 -0.0068  0.1859
 3308SOL    HW121383   1.379   0.070  14.727 -2.6482  0.3754  0.3146
 3308SOL    HW221384   1.307   0.197  14.736 -1.1871 -0.7524 -2.1057
 3309SOL     OW21385   0.625   0.731   6.217  0.0006  0.2761 -0.1718
 3309SOL    HW121386   0.565   0.696   6.283  0.5229  1.3004  0.8421
 3309SOL    HW221387   0.683   0.776   6.279 -1.6237 -0.5409  1.9452
 3310SOL     OW21388   1.465   4.351   5.844 -0.2299 -0.1704  0.0722
 3310SOL    HW121389   1.538   4.364   5.903 -1.5040  3.9295  0.7351
 3310SOL    HW221390   1.413   4.420   5.885  1.1398  1.1852 -0.4612
 3311SOL     OW21391   2.046   3.921   3.321  0.2635  0.0208 -0.1078
 3311SOL    HW121392   1.964   3.927   3.272  0.4648 -1.9802 -0.6864
 3311SOL    HW221393   2.012   3.903   3.409  1.3915  3.3610  1.0346
 3312SOL     OW21394   2.223   0.947   5.614  0.0860 -0.1699  0.2577
 3312SOL    HW121395   2.239   0.976   5.524 -3.0763 -1.3239 -0.6586
 3312SOL    HW221396   2.211   0.853   5.609  0.3212 -0.1371 -0.8768
 3313SOL     OW21397   3.956   4.198   3.205 -0.9637 -0.0093 -0.1785
 3313SOL    HW121398   3.879   4.152   3.170 -1.2766 -0.9652  1.7259
 3313SOL    HW221399   3.990   4.229   3.122 -1.8934  3.1625  0.6205
 3314SOL     OW21400   0.942   0.496   2.993 -0.5133  0.6205 -0.1694
 3314SOL    HW121401   0.903   0.446   3.065  1.9687 -0.7448  0.2172
 3314SOL    HW221402   0.906   0.454   2.915  0.1006  0.1829 -0.2169
 3315SOL     OW21403   2.621   2.556  14.636  0.3116  0.4572 -0.2255
 3315SOL    HW121404   2.613   2.648  14.663 -1.9570  0.1607  0.1382
 3315SOL    HW221405   2.716   2.544  14.636  0.3404  0.6896 -0.1169
 3316SOL     OW21406   4.565   2.169  15.873 -0.4049  0.2553 -0.4935
 3316SOL    HW121407   4.497   2.184  15.807 -1.4505 -0.1081  0.5004
 3316SOL    HW221408   4.528   2.221  15.945 -1.0251 -0.2139 -0.4761
 3317SOL     OW21409   0.006   1.955   9.467  0.1892 -0.2332  0.3176
 3317SOL    HW121410   0.014   2.049   9.449 -1.1862  0.0218  1.0481
 3317SOL    HW221411   4.644   1.952   9.514 -1.0702  0.6834 -1.8437
 3318SOL     OW21412   1.951   0.833   5.512  0.0525  0.3348 -0.6402
 3318SOL    HW121413   1.972   0.869   5.426  0.6513 -1.9821 -1.4509
 3318SOL    HW221414   1.937   0.915   5.560  2.6503  0.0003  0.6949
 3319SOL     OW21415   3.320   3.139   6.363 -0.6092  0.1839  0.0860
 3319SOL    HW121416   3.333   3.051   6.396 -0.9694  0.2061  0.2903
 3319SOL    HW221417   3.225   3.148   6.357 -0.4369 -0.3153 -3.6412
 3320SOL     OW21418   4.643   0.504   7.162  0.8023  0.1351  0.1816
 3320SOL    HW121419   4.610   0.415   7.150 -0.2680  0.5961 -0.3502
 3320SOL    HW221420   4.637   0.497   7.257 -0.1000 -0.9876  0.0459
 3321SOL     OW21421   2.780   2.135   1.230 -0.0206 -0.2321  0.2567
 3321SOL    HW121422   2.867   2.163   1.260 -0.9860  0.8463  2.0529
 3321SOL    HW221423   2.761   2.220   1.190  0.7483 -0.4790 -0.6061
 3322SOL     OW21424   3.454   3.245   9.057 -0.1653  0.1965  0.5170
 3322SOL    HW121425   3.466   3.296   8.977 -1.9976  2.1220  1.4736
 3322SOL    HW221426   3.543   3.244   9.092 -0.2609 -0.1029  0.7478
 3323SOL     OW21427   2.625   2.215   3.391  0.4773 -0.0351 -0.4506
 3323SOL    HW121428   2.720   2.207   3.393  0.5204  0.7719  1.4889
 3323SOL    HW221429   2.602   2.239   3.302  1.7374  1.1297 -0.4731
 3324SOL     OW21430   0.883   2.445   8.873 -0.4893  0.0943 -0.1380
 3324SOL    HW121431   0.883   2.531   8.831 -0.9510 -0.1143 -0.5725
 3324SOL    HW221432   0.910   2.461   8.963  2.1654  0.9497 -1.0932
 3325SOL     OW21433   0.648   4.541   6.519  0.0846 -1.0524  0.6703
 3325SOL    HW121434   0.697   4.616   6.553 -1.1547  0.8086 -1.5943
 3325SOL    HW221435   0.563   4.542   6.562  0.4382  2.0210  1.2612
 3326SOL     OW21436   4.210   1.164  12.109 -0.5056 -0.1890  0.5138
 3326SOL    HW121437   4.250   1.149  12.023 -2.9297 -0.3813 -0.5604
 3326SOL    HW221438   4.169   1.249  12.093 -2.9145 -0.8985  3.1159
 3327SOL     OW21439   1.651   2.951   7.170  0.1896 -0.4643 -0.1932
 3327SOL    HW121440   1.734   2.910   7.192  0.3946  0.1619  0.2121
 3327SOL    HW221441   1.622   2.983   7.256 -0.7426  0.1195 -0.7306
 3328SOL     OW21442   2.359   2.566   6.459 -0.4521 -0.2647 -0.0233
 3328SOL    HW121443   2.409   2.504   6.406 -1.8580 -1.2234 -0.2346
 3328SOL    HW221444   2.305   2.507   6.513  0.8410 -0.4230  1.1036
 3329SOL     OW21445   1.402   0.861   9.547  0.5612 -0.1038  0.1046
 3329SOL    HW121446   1.310   0.876   9.525  0.0609 -0.8935  1.6248
 3329SOL    HW221447   1.446   0.849   9.463 -0.9815  1.8446 -0.9825
 3330SOL     OW21448   1.278   3.195  16.485 -0.6629  0.0664  0.4950
 3330SOL    HW121449   1.348   3.148  16.531 -0.6439  0.0944  0.4950
 3330SOL    HW221450   1.232   3.225  16.564  1.4419  0.7207  1.4783
 3331SOL     OW21451   0.371   0.731  10.802  0.1643  0.4064 -0.6255
 3331SOL    HW121452   0.420   0.651  10.818  0.6815  0.8872  0.2176
 3331SOL    HW221453   0.288   0.698  10.838  0.8100 -0.8699 -0.3390
 3332SOL     OW21454   3.690   0.534   3.543  0.5594 -0.4210  0.4968
 3332SOL    HW121455   3.632   0.458   3.538  0.2097 -0.0855 -0.5923
 3332SOL    HW221456   3.737   0.524   3.626 -2.3678 -0.8680  2.1104
 3333SOL     OW21457   1.655   2.272  10.377 -0.1622 -0.2234  0.0684
 3333SOL    HW121458   1.686   2.362  10.383  0.8333 -0.6006  0.6002
 3333SOL    HW221459   1.615   2.248  10.461  1.6431 -1.1286  0.6752
 3334SOL     OW21460   1.746   3.343   0.488 -0.4685  0.0575  0.1761
 3334SOL    HW121461   1.683   3.381   0.428 -0.8241 -1.3886 -0.3800
 3334SOL    HW221462   1.736   3.379   0.576  0.7149 -0.6243  0.5961
 3335SOL     OW21463   1.104   3.118   3.492  0.1922  0.3213  0.2164
 3335SOL    HW121464   1.112   3.167   3.575  0.0744 -1.7527  1.4406
 3335SOL    HW221465   1.017   3.083   3.505  0.9355 -1.2581  0.9398
 3336SOL     OW21466   0.666   0.129   6.284  0.3371  0.3832 -0.2006
 3336SOL    HW121467   0.652   0.142   6.190  2.0344 -0.5215 -0.5764
 3336SOL    HW221468   0.707   0.043   6.295  2.1006  0.8881 -2.6795
 3337SOL     OW21469   2.823   2.466   7.536 -0.0480 -0.4264  0.4276
 3337SOL    HW121470   2.871   2.535   7.492 -1.2336 -0.3511 -0.7361
 3337SOL    HW221471   2.889   2.404   7.568  0.6992  0.2944  0.2752
 3338SOL     OW21472   1.811   4.176   5.922 -0.2586  0.0167  0.4755
 3338SOL    HW121473   1.863   4.175   5.842 -1.4097 -0.8221 -0.2586
 3338SOL    HW221474   1.756   4.099   5.909  0.7447 -0.8213  1.2420
 3339SOL     OW21475   3.077   0.628   3.634  0.0374  0.0737 -0.1681
 3339SOL    HW121476   3.144   0.560   3.635 -1.3276 -1.2921 -0.4103
 3339SOL    HW221477   3.040   0.610   3.720  1.2013 -1.0826  0.0923
 3340SOL     OW21478   4.031   2.950   8.346 -0.2872  0.6236 -0.2519
 3340SOL    HW121479   4.048   2.959   8.440  0.2217  0.2670 -0.3092
 3340SOL    HW221480   4.063   3.035   8.318  1.2091  0.7059  1.7203
 3341SOL     OW21481   4.282   0.171   0.719 -0.3873  0.0961  0.1469
 3341SOL    HW121482   4.362   0.185   0.668  0.0716  1.2532  1.1828
 3341SOL    HW221483   4.268   0.251   0.771  0.7334 -0.3098  1.0769
 3342SOL     OW21484   3.734   0.348   5.264  0.5909  0.8337 -0.1121
 3342SOL    HW121485   3.774   0.431   5.289  0.7434  0.2448  1.5901
 3342SOL    HW221486   3.644   0.375   5.245 -0.6259 -1.4693  2.3483
 3343SOL     OW21487   3.828   3.895  15.195  0.4377 -0.5408  0.6635
 3343SOL    HW121488   3.832   3.930  15.285  0.6880 -1.8813  1.1703
 3343SOL    HW221489   3.785   3.810  15.195  0.1415 -0.3871  0.1710
 3344SOL     OW21490   1.169   1.920   0.174 -0.0299 -0.0432 -0.8233
 3344SOL    HW121491   1.108   1.955   0.109  0.5371 -2.0772 -2.4397
 3344SOL    HW221492   1.145   1.828   0.168 -0.6821  0.1639 -1.4181
 3345SOL     OW21493   0.606   0.377   5.859 -0.0334 -0.0363  0.1053
 3345SOL    HW121494   0.566   0.464   5.847 -3.1080 -1.3364  0.9246
 3345SOL    HW221495   0.701   0.387   5.862 -0.0556 -0.3836  1.5113
 3346SOL     OW21496   4.037   0.801   3.602 -0.0147 -0.0773  0.2552
 3346SOL    HW121497   4.054   0.708   3.620  1.2137 -0.1797 -1.5503
 3346SOL    HW221498   3.962   0.796   3.542 -0.4919 -2.9297  1.0806
 3347SOL     OW21499   2.870   4.394   7.633 -0.4648  0.0216  0.1878
 3347SOL    HW121500   2.799   4.444   7.675  0.6785  1.9551 -0.1828
 3347SOL    HW221501   2.842   4.303   7.644  1.9083 -0.6756  0.3850
 3348SOL     OW21502   3.461   1.924  17.127  0.4581  0.0911 -0.1516
 3348SOL    HW121503   3.486   1.995  17.186  0.7285 -1.2642  1.3863
 3348SOL    HW221504   3.410   1.869  17.188 -0.9137  0.3935 -1.0158
 3349SOL     OW21505   0.455   1.807  13.987  0.6605  0.2247 -0.1497
 3349SOL    HW121506   0.547   1.829  13.973  0.6125  0.0938 -0.6657
 3349SOL    HW221507   0.425   1.879  14.042 -1.5291  1.2867 -2.7670
 3350SOL     OW21508   0.283   3.998   6.497  0.1553 -0.7651 -0.1866
 3350SOL    HW121509   0.377   3.998   6.481  0.4792  0.2313  1.6045
 3350SOL    HW221510   0.272   3.904   6.504  0.8082 -0.8777 -0.6741
 3351SOL     OW21511   3.092   4.525   4.093 -0.2715 -0.1195 -0.1686
 3351SOL    HW121512   3.161   4.574   4.138  1.3838 -1.1325 -1.5873
 3351SOL    HW221513   3.039   4.496   4.167  1.2314  0.4005  1.1015
 3352SOL     OW21514   0.867   1.324   2.581  0.7213 -0.5377  0.2286
 3352SOL    HW121515   0.840   1.261   2.648  1.8766  1.0109  2.1592
 3352SOL    HW221516   0.858   1.406   2.631 -1.7701  0.6405 -2.1740
 3353SOL     OW21517   4.661   0.831   6.515  0.2294 -0.0313  0.1729
 3353SOL    HW121518   4.650   0.745   6.476 -4.4420  0.3265  0.6925
 3353SOL    HW221519   0.024   0.812   6.557  0.6808 -1.7257 -1.5167
 3354SOL     OW21520   0.507   2.270   8.130 -0.8082 -0.2477  0.2500
 3354SOL    HW121521   0.486   2.185   8.169  1.8972 -0.7930  0.5194
 3354SOL    HW221522   0.556   2.251   8.050 -1.4114 -1.4297  0.1673
 3355SOL     OW21523   3.435   0.559   5.838  0.3686 -0.1846  0.1884
 3355SOL    HW121524   3.400   0.493   5.897  1.1783 -0.9353 -0.1789
 3355SOL    HW221525   3.525   0.572   5.868 -0.1673  1.4517  1.0876
 3356SOL     OW21526   4.465   1.135  13.056 -0.4959  0.3169  0.1447
 3356SOL    HW121527   4.378   1.098  13.045  1.0780 -2.2764 -3.4818
 3356SOL    HW221528   4.449   1.223  13.022  1.2175  1.3723  2.0282
 3357SOL     OW21529   3.256   4.638   0.269 -0.2783 -0.0574  0.4569
 3357SOL    HW121530   3.299   4.690   0.201  1.3437 -1.3606  0.5028
 3357SOL    HW221531   3.326   4.648   0.333  0.3315  1.2263 -0.4095
 3358SOL     OW21532   1.116   3.567   6.952  0.0262 -0.3099 -0.0542
 3358SOL    HW121533   1.164   3.485   6.938  0.1785 -0.1588 -0.4226
 3358SOL    HW221534   1.191   3.625   6.967 -0.7444  0.9719 -1.1957
 3359SOL     OW21535   3.086   3.363   9.221  0.0803  0.2012 -0.2025
 3359SOL    HW121536   3.120   3.279   9.190 -0.2038  0.2204 -0.5682
 3359SOL    HW221537   3.160   3.422   9.209  1.2894 -1.1499  0.5796
 3360SOL     OW21538   0.587   3.497   3.637 -0.4040  0.0464 -0.0959
 3360SOL    HW121539   0.681   3.478   3.628 -0.5875  0.0332 -2.0447
 3360SOL    HW221540   0.588   3.549   3.717 -0.6254  0.8618 -0.6285
 3361SOL     OW21541   1.308   0.834  10.227  0.1904  0.5695 -0.6017
 3361SOL    HW121542   1.314   0.855  10.321  2.8351 -0.0192 -0.6357
 3361SOL    HW221543   1.386   0.882  10.198 -0.1252  2.3944  1.5508
 3362SOL     OW21544   2.867   0.282   7.600  0.3095  0.2541 -0.5672
 3362SOL    HW121545   2.927   0.308   7.670  1.3235 -2.1568 -0.5430
 3362SOL    HW221546   2.895   0.324   7.519  0.3795 -1.1699 -1.2727
 3363SOL     OW21547   3.808   1.741   6.345  0.1283 -0.1074 -0.0341
 3363SOL    HW121548   3.863   1.664   6.335  0.0508 -0.3398  1.3030
 3363SOL    HW221549   3.860   1.787   6.411 -0.4409 -0.3267  0.5774
 3364SOL     OW21550   1.844   3.069   8.046  0.5164 -0.1135  0.1653
 3364SOL    HW121551   1.830   2.990   8.098 -0.4622 -0.2408 -0.2947
 3364SOL    HW221552   1.878   3.038   7.962  0.7627  1.3490 -0.2636
 3365SOL     OW21553   3.368   2.153   8.566 -0.3019  0.0459 -0.0274
 3365SOL    HW121554   3.454   2.111   8.559  1.0509  2.9396 -0.9524
 3365SOL    HW221555   3.395   2.244   8.560 -0.0518  0.0514  1.0974
 3366SOL     OW21556   1.750   2.094   3.918  0.0114  0.5412 -0.0438
 3366SOL    HW121557   1.672   2.039   3.912  0.4641 -0.1144  0.1029
 3366SOL    HW221558   1.786   2.071   3.833 -1.4942  0.5427 -0.6874
 3367SOL     OW21559   2.365   1.708   2.832  0.0363  0.0932 -1.1353
 3367SOL    HW121560   2.280   1.684   2.795 -0.5916 -1.5795  1.4386
 3367SOL    HW221561   2.421   1.689   2.756  0.8222  0.6048 -0.6819
 3368SOL     OW21562   4.072   4.038   8.620 -0.1925 -0.1903  0.5466
 3368SOL    HW121563   4.026   3.954   8.622 -1.0074  0.2535  0.2286
 3368SOL    HW221564   4.164   4.011   8.628 -0.3995 -0.9313  0.4836
 3369SOL     OW21565   4.657   2.005   3.659  0.1046 -0.4700  0.6242
 3369SOL    HW121566   0.023   2.043   3.650  0.5645 -1.4322  1.0035
 3369SOL    HW221567   4.607   2.087   3.663  0.9085  0.1331 -1.2174
 3370SOL     OW21568   1.845   1.679   3.833  0.5610 -0.3669  0.2701
 3370SOL    HW121569   1.856   1.682   3.928 -0.9030  2.7591  0.3474
 3370SOL    HW221570   1.788   1.752   3.807 -1.5049 -1.6800  1.1128
 3371SOL     OW21571   0.083   4.390  13.368  0.1289 -0.2099  0.3548
 3371SOL    HW121572   4.709   4.375  13.372 -0.0316  0.8264  0.4372
 3371SOL    HW221573   0.107   4.411  13.458  0.9996  1.3339 -0.2285
 3372SOL     OW21574   4.008   2.248   5.444 -0.1243  0.2812  0.0912
 3372SOL    HW121575   4.044   2.159   5.437 -1.8159 -0.4082  0.0021
 3372SOL    HW221576   4.021   2.276   5.534  0.5155  1.2228 -0.2946
 3373SOL     OW21577   0.368   1.103  16.245 -0.3269 -0.2810  0.0605
 3373SOL    HW121578   0.281   1.141  16.237 -0.0836  0.5425  1.3142
 3373SOL    HW221579   0.384   1.080  16.337  1.0584 -0.7954 -0.3010
 3374SOL     OW21580   2.318   0.809   4.331  0.4283  0.2961 -0.3524
 3374SOL    HW121581   2.323   0.762   4.415 -0.5830  0.2627 -0.3214
 3374SOL    HW221582   2.268   0.745   4.281  0.0888  1.1835 -1.1425
 3375SOL     OW21583   3.379   0.596  16.590  0.4038  0.0327 -0.0668
 3375SOL    HW121584   3.310   0.619  16.528  1.1725 -1.1881 -1.3771
 3375SOL    HW221585   3.333   0.525  16.636 -0.3623  0.4199 -0.2447
 3376SOL     OW21586   2.777   1.196   2.507  0.2232 -0.4840 -0.2696
 3376SOL    HW121587   2.843   1.134   2.478  0.9162  0.2112 -0.1810
 3376SOL    HW221588   2.706   1.134   2.523 -0.9855  0.5754 -1.5023
 3377SOL     OW21589   4.338   2.813   7.343 -0.0659  0.0887  0.5452
 3377SOL    HW121590   4.288   2.799   7.262  0.1128 -3.1881  1.0335
 3377SOL    HW221591   4.331   2.908   7.353  0.8528  0.1769  0.3541
 3378SOL     OW21592   3.011   1.123   9.590 -0.2424 -0.1715  0.6398
 3378SOL    HW121593   3.033   1.094   9.678 -1.0003 -0.7800  0.6289
 3378SOL    HW221594   2.934   1.078   9.555  0.7078 -0.2370 -1.3335
 3379SOL     OW21595   3.564   4.228  10.905  0.1202 -0.3111  0.1358
 3379SOL    HW121596   3.588   4.306  10.856  1.0612 -1.4780 -1.2330
 3379SOL    HW221597   3.635   4.227  10.969  1.0486 -0.8625 -0.8969
 3380SOL     OW21598   3.409   3.960   2.544 -0.8886  0.5000 -0.4452
 3380SOL    HW121599   3.481   4.011   2.508 -0.2655  0.7109  1.0903
 3380SOL    HW221600   3.401   3.897   2.472  0.6928  2.2921 -2.1878
 3381SOL     OW21601   2.606   4.643   3.297  0.8434 -0.0598  0.7043
 3381SOL    HW121602   2.558   4.627   3.378  0.0882 -1.9188 -0.1250
 3381SOL    HW221603   2.536   4.647   3.232  1.0234 -0.1765  0.5054
 3382SOL     OW21604   2.457   4.023   6.249  0.4004  0.1014  0.0312
 3382SOL    HW121605   2.473   3.972   6.169 -1.8947 -0.6900  0.1053
 3382SOL    HW221606   2.366   4.011   6.272  0.0130  0.2902 -1.3705
 3383SOL     OW21607   2.444   4.681   3.091  0.0130 -0.1573 -0.1975
 3383SOL    HW121608   2.361   4.648   3.126  0.7032  0.4638  2.0550
 3383SOL    HW221609   2.443   4.620   3.018  0.2070  1.7518 -1.7850
 3384SOL     OW21610   0.692   3.644  11.474  0.2541  0.0819 -0.3850
 3384SOL    HW121611   0.693   3.664  11.380 -1.4963 -0.0197 -0.4249
 3384SOL    HW221612   0.781   3.616  11.497  0.6026  0.1224 -1.6413
 3385SOL     OW21613   4.126   2.154   3.021  0.5723 -0.4638  0.6942
 3385SOL    HW121614   4.174   2.210   3.082  2.1829 -0.2488 -0.7963
 3385SOL    HW221615   4.160   2.181   2.936 -0.0995  0.6519  0.7794
 3386SOL     OW21616   3.972   0.373  13.795  0.2192 -0.3894 -0.1111
 3386SOL    HW121617   3.918   0.365  13.717  0.2358  0.4049 -0.2080
 3386SOL    HW221618   4.042   0.426  13.759  1.5165  0.4570  3.5982
 3387SOL     OW21619   1.559   1.508   3.529 -0.3624  0.4152 -0.0429
 3387SOL    HW121620   1.521   1.496   3.616 -0.1420 -1.5192 -0.2150
 3387SOL    HW221621   1.498   1.574   3.495 -0.2885 -0.1499 -1.2852
 3388SOL     OW21622   3.474   4.427   2.541  0.0034  0.1840  0.0398
 3388SOL    HW121623   3.524   4.349   2.567  0.6264  0.6914  0.3759
 3388SOL    HW221624   3.532   4.497   2.573  1.6257 -0.4738 -1.4513
 3389SOL     OW21625   4.622   1.119  14.833  0.0250 -0.5791  0.1788
 3389SOL    HW121626   4.705   1.103  14.877  1.8909 -0.2013 -3.1399
 3389SOL    HW221627   4.602   1.032  14.800 -1.4787 -0.9489  2.1248
 3390SOL     OW21628   3.495   2.375   6.189  0.2568  0.4464  0.2463
 3390SOL    HW121629   3.549   2.362   6.111  0.9726  1.8588  0.4918
 3390SOL    HW221630   3.559   2.397   6.257  1.4256  2.0929 -1.3886
 3391SOL     OW21631   2.024   4.060   7.212 -0.4798  0.0865  0.0722
 3391SOL    HW121632   1.974   4.137   7.237  0.5734  1.2319 -1.3308
 3391SOL    HW221633   2.110   4.101   7.206 -0.0382 -1.5826 -4.8447
 3392SOL     OW21634   4.062   1.381   5.194  0.6112  0.3139 -0.0379
 3392SOL    HW121635   4.072   1.467   5.233  0.8873 -0.0113  0.6002
 3392SOL    HW221636   3.967   1.376   5.178  0.5538  1.6559 -0.0900
 3393SOL     OW21637   3.947   2.612   6.785 -0.4520 -0.0331 -0.3019
 3393SOL    HW121638   3.994   2.593   6.703  2.5676  1.4281  1.0965
 3393SOL    HW221639   3.871   2.556   6.775 -0.4341  0.1490 -1.4728
 3394SOL     OW21640   4.263   0.111   8.833 -0.1509  0.2268 -0.0551
 3394SOL    HW121641   4.270   0.090   8.927  0.1623 -1.3313 -0.4254
 3394SOL    HW221642   4.355   0.129   8.813 -0.1314 -0.5172 -0.6170
 3395SOL     OW21643   2.730   2.806  10.042  0.0105 -0.1404  0.2662
 3395SOL    HW121644   2.749   2.893  10.077 -0.3495  0.4984 -1.1383
 3395SOL    HW221645   2.789   2.748  10.090 -0.5146 -1.7212 -0.9998
 3396SOL     OW21646   0.255   2.831  16.977  0.2189 -0.7223 -0.6983
 3396SOL    HW121647   0.171   2.876  16.973 -0.6924 -2.5789 -2.2651
 3396SOL    HW221648   0.256   2.811  17.071  0.5924 -0.1844 -0.5857
 3397SOL     OW21649   0.115   2.616   5.452  0.1295 -0.1449  0.1300
 3397SOL    HW121650   0.148   2.539   5.499 -1.1923 -0.3166  0.7665
 3397SOL    HW221651   0.068   2.659   5.523  1.4170 -1.2817  1.6903
 3398SOL     OW21652   2.804   0.403   0.956  0.3757  0.0926  0.0825
 3398SOL    HW121653   2.790   0.339   0.886  1.2283 -0.8543  0.7708
 3398SOL    HW221654   2.712   0.420   0.974  1.0555  2.5934  1.1908
 3399SOL     OW21655   0.204   1.518  14.347 -0.0348 -0.2648 -0.1615
 3399SOL    HW121656   0.144   1.448  14.373 -0.2647 -0.1621 -0.4107
 3399SOL    HW221657   0.286   1.469  14.358 -0.5125 -1.0501 -0.0920
 3400SOL     OW21658   4.452   1.350  12.021 -0.2299  0.7424  0.1494
 3400SOL    HW121659   4.410   1.384  12.100  1.6779  0.9082  1.0799
 3400SOL    HW221660   4.518   1.289  12.054 -2.2103 -2.1716 -1.2673
 3401SOL     OW21661   1.268   0.485  10.549 -0.5026  0.1750 -0.2269
 3401SOL    HW121662   1.334   0.499  10.481  0.9869  0.1059  1.2104
 3401SOL    HW221663   1.303   0.422  10.611 -0.2753 -0.3624 -0.9065
 3402SOL     OW21664   3.655   3.246   4.792 -0.2921 -0.1065  0.4772
 3402SOL    HW121665   3.603   3.166   4.801 -0.7340  0.1666  0.3283
 3402SOL    HW221666   3.587   3.312   4.783 -0.0535 -0.0828 -1.1228
 3403SOL     OW21667   4.401   2.774   6.518 -0.5680 -0.2410  0.3288
 3403SOL    HW121668   4.454   2.710   6.564 -0.4014 -0.0369  0.4213
 3403SOL    HW221669   4.457   2.833   6.468 -1.1137  0.2608  0.3002
 3404SOL     OW21670   0.540   3.220  11.618  0.6961 -0.2952  0.1024
 3404SOL    HW121671   0.463   3.168  11.592  0.9853 -0.0165 -1.3109
 3404SOL    HW221672   0.497   3.304  11.600 -0.9835 -0.9493  1.0773
 3405SOL     OW21673   0.131   0.670  12.668  0.2130  0.4838 -0.0880
 3405SOL    HW121674   0.116   0.720  12.748 -3.4144 -0.2179 -0.3009
 3405SOL    HW221675   0.213   0.703  12.633  0.6729 -1.4481 -0.8305
 3406SOL     OW21676   4.349   2.609  15.266 -0.0025  0.1515  0.5586
 3406SOL    HW121677   4.326   2.695  15.231  0.0948  0.1478  0.4859
 3406SOL    HW221678   4.291   2.603  15.342  2.6364  1.6394  2.7013
 3407SOL     OW21679   0.033   0.554  10.482 -0.3712 -0.6898  0.0783
 3407SOL    HW121680   0.083   0.480  10.448 -0.2789 -1.1395  1.1886
 3407SOL    HW221681   4.665   0.519  10.487 -1.5969  2.2095 -1.7266
 3408SOL     OW21682   1.731   3.363  10.746 -0.1374  0.4225  0.4020
 3408SOL    HW121683   1.639   3.388  10.743 -0.4452 -0.5231  2.3192
 3408SOL    HW221684   1.727   3.268  10.761 -1.4447  0.4651  0.3418
 3409SOL     OW21685   2.872   0.808  11.962  0.5342 -0.0133 -0.3752
 3409SOL    HW121686   2.855   0.713  11.963  1.2693 -0.1518 -0.8706
 3409SOL    HW221687   2.950   0.822  11.908  3.4791  2.0484  4.4564
 3410SOL     OW21688   2.898   3.733   8.150 -0.1046 -0.1733  0.1988
 3410SOL    HW121689   2.868   3.709   8.062  1.5626 -1.6255  0.0284
 3410SOL    HW221690   2.989   3.757   8.134 -0.1016  0.8732  1.7402
 3411SOL     OW21691   1.258   3.194   7.745 -0.3872  0.0147 -0.5368
 3411SOL    HW121692   1.176   3.201   7.697  0.3205 -0.6188 -1.8509
 3411SOL    HW221693   1.257   3.271   7.801  2.4086 -0.6444  0.4564
 3412SOL     OW21694   2.750   2.456   8.123  0.5763 -0.2416 -0.8951
 3412SOL    HW121695   2.663   2.486   8.097 -0.1347 -0.4388  1.2507
 3412SOL    HW221696   2.765   2.402   8.046 -0.5754  1.0106 -1.9944
 3413SOL     OW21697   1.369   2.171   9.700 -0.0412  0.0161  0.3187
 3413SOL    HW121698   1.365   2.266   9.685 -1.3928  0.0873  1.1500
 3413SOL    HW221699   1.455   2.160   9.741 -0.3409 -0.3346  0.8461
 3414SOL     OW21700   0.705   0.917   5.974 -0.2149 -0.5961  0.0761
 3414SOL    HW121701   0.772   0.984   5.968  0.1442 -0.9828 -0.2021
 3414SOL    HW221702   0.690   0.916   6.069 -1.2105  0.3468 -0.0740
 3415SOL     OW21703   2.688   2.703   1.261 -0.0515 -0.2457  0.4765
 3415SOL    HW121704   2.715   2.787   1.296  0.0717  0.2318 -0.7738
 3415SOL    HW221705   2.751   2.688   1.190  0.5137 -0.4057  1.0102
 3416SOL     OW21706   1.202   0.673   9.391  0.5906  0.3371 -0.1324
 3416SOL    HW121707   1.184   0.761   9.425  0.5259  0.2548  0.0422
 3416SOL    HW221708   1.175   0.679   9.299  0.7871  1.1355 -0.1376
 3417SOL     OW21709   0.273   0.172   7.013 -0.2946 -0.5333 -0.4999
 3417SOL    HW121710   0.231   0.088   7.028 -1.3552 -0.1497 -1.3007
 3417SOL    HW221711   0.238   0.210   7.093  0.8518 -5.0409  2.1011
 3418SOL     OW21712   0.504   2.103   7.136  0.3845 -0.5930  0.1543
 3418SOL    HW121713   0.549   2.036   7.085  1.1269 -0.4127  0.5801
 3418SOL    HW221714   0.511   2.177   7.076 -0.2280 -1.2249 -0.7038
 3419SOL     OW21715   3.872   3.454   7.749  0.7954 -0.2432 -0.5837
 3419SOL    HW121716   3.790   3.476   7.704  0.5888  0.7100  0.2506
 3419SOL    HW221717   3.835   3.374   7.786 -0.8415  0.6176 -0.3282
 3420SOL     OW21718   2.346   1.096  14.794  0.6702 -0.2634 -0.1472
 3420SOL    HW121719   2.307   1.038  14.860  0.1513 -0.1901 -0.3910
 3420SOL    HW221720   2.413   1.145  14.842 -0.4571  2.8681 -1.7533
 3421SOL     OW21721   2.722   0.760   3.675  0.5390 -0.0328  0.0450
 3421SOL    HW121722   2.732   0.806   3.759 -0.4762 -0.6042  0.4704
 3421SOL    HW221723   2.724   0.669   3.704 -1.7601 -1.2645 -3.6939
 3422SOL     OW21724   3.545   3.663  11.194  0.4892 -0.1987 -0.2692
 3422SOL    HW121725   3.494   3.582  11.187 -0.6429  0.5203 -0.3054
 3422SOL    HW221726   3.627   3.638  11.153  1.1691  2.1357 -0.3105
 3423SOL     OW21727   4.375   2.057   3.404  0.2025  0.6655  0.2240
 3423SOL    HW121728   4.379   1.970   3.442  1.2267 -0.3887 -2.3100
 3423SOL    HW221729   4.308   2.036   3.340 -0.9244  0.1486  1.5754
 3424SOL     OW21730   0.849   1.845  11.927 -0.0110  0.1847 -0.0831
 3424SOL    HW121731   0.827   1.752  11.916  1.5917 -0.4363  1.9113
 3424SOL    HW221732   0.898   1.837  12.009 -0.3714  1.4360  0.2510
 3425SOL     OW21733   2.057   4.127  11.792 -0.1983 -0.5053  0.3120
 3425SOL    HW121734   2.128   4.066  11.810 -0.5622 -1.7265 -2.3615
 3425SOL    HW221735   2.031   4.094  11.706 -1.7942  0.8647  0.2647
 3426SOL     OW21736   1.637   3.232   7.013 -0.0457 -1.0687  0.0304
 3426SOL    HW121737   1.648   3.159   7.073  1.2465 -1.3603 -0.5539
 3426SOL    HW221738   1.726   3.260   7.034 -0.6402  2.7533 -2.4752
 3427SOL     OW21739   4.395   2.408   8.386  0.3266 -0.0152 -0.3183
 3427SOL    HW121740   4.387   2.363   8.470  1.4999  0.5373  0.0831
 3427SOL    HW221741   4.303   2.422   8.362  0.3175  1.0071  0.3173
 3428SOL     OW21742   4.185   0.382   2.118  0.0212 -0.2116 -0.5506
 3428SOL    HW121743   4.277   0.364   2.097  0.5311 -0.1815  1.7082
 3428SOL    HW221744   4.150   0.296   2.142  0.2738  0.2576  1.4440
 3429SOL     OW21745   2.084   1.260   2.664  0.4226  0.0406 -0.4370
 3429SOL    HW121746   2.118   1.175   2.635  1.2750  0.1909  0.1051
 3429SOL    HW221747   2.092   1.251   2.759 -2.5218 -0.1286 -0.2165
 3430SOL     OW21748   4.352   0.654   4.157  1.2292  0.0989 -0.3583
 3430SOL    HW121749   4.385   0.581   4.104 -1.0532 -2.6218  2.0410
 3430SOL    HW221750   4.266   0.674   4.120  1.8402  0.8913 -1.3541
 3431SOL     OW21751   3.588   0.884   2.839 -0.0675 -0.0385 -0.1420
 3431SOL    HW121752   3.534   0.905   2.915 -0.9859 -3.5062  0.1571
 3431SOL    HW221753   3.534   0.917   2.768 -0.1967  1.2200  0.5453
 3432SOL     OW21754   4.196   4.599   5.240  0.6630 -0.4418  0.0090
 3432SOL    HW121755   4.289   4.582   5.223  1.4553  2.0926  1.7771
 3432SOL    HW221756   4.185   4.687   5.205  0.0126 -0.4069  0.3043
 3433SOL     OW21757   3.125   1.656  17.662 -0.2952  0.3548 -0.4792
 3433SOL    HW121758   3.088   1.624  17.580  2.1427 -0.5546 -1.2145
 3433SOL    HW221759   3.154   1.570   0.004  0.5731  0.4795 -0.9853
 3434SOL     OW21760   1.055   1.709   5.449  0.5743  0.3062  0.9123
 3434SOL    HW121761   1.031   1.721   5.357 -0.4932 -0.3169  1.1110
 3434SOL    HW221762   1.139   1.754   5.451  1.4416 -1.3289  1.0921
 3435SOL     OW21763   2.990   2.666  12.861 -0.2928  0.3493 -0.3135
 3435SOL    HW121764   2.896   2.677  12.849 -0.4395  0.4405  0.9366
 3435SOL    HW221765   3.015   2.757  12.845 -1.2172  0.9335  1.5748
 3436SOL     OW21766   0.557   4.544   0.928 -0.2705 -0.0028 -0.4877
 3436SOL    HW121767   0.629   4.602   0.904 -0.9434  1.5420  1.2315
 3436SOL    HW221768   0.495   4.563   0.858 -2.0170 -2.0827  0.4938
 3437SOL     OW21769   3.450   1.163  10.796  0.7557  0.2763 -0.0328
 3437SOL    HW121770   3.492   1.123  10.872 -1.1660  0.7999  1.3072
 3437SOL    HW221771   3.526   1.179  10.740 -0.2567  0.3240 -1.4023
 3438SOL     OW21772   0.862   4.642   7.210  0.0130  0.2755  0.1841
 3438SOL    HW121773   0.811   4.564   7.190  1.0019 -0.1338 -0.7033
 3438SOL    HW221774   0.930   4.639   7.143 -0.4280 -2.6394 -0.1301
 3439SOL     OW21775   3.136   0.285  16.939  0.1377  0.1958  0.5214
 3439SOL    HW121776   3.217   0.323  16.973  1.3791 -2.4355  0.4873
 3439SOL    HW221777   3.072   0.338  16.987 -0.0323  1.2758 -0.8808
 3440SOL     OW21778   1.054   0.978   7.164  0.0719 -0.4802 -0.0853
 3440SOL    HW121779   0.964   0.984   7.195 -0.4073 -0.2039 -1.5127
 3440SOL    HW221780   1.063   0.889   7.132 -1.2035 -0.3776 -0.7418
 3441SOL     OW21781   1.927   3.311   2.895  0.1563  0.4846 -0.0750
 3441SOL    HW121782   1.965   3.247   2.955  0.9555  0.8054 -0.2522
 3441SOL    HW221783   1.939   3.388   2.949 -1.3056  0.4680  0.2839
 3442SOL     OW21784   0.225   0.267   1.501  0.5081  0.2669  0.2720
 3442SOL    HW121785   0.311   0.272   1.542  0.4374  3.1244  0.0856
 3442SOL    HW221786   0.195   0.176   1.498  1.9285 -0.1579 -1.3836
 3443SOL     OW21787   2.224   2.646   2.895 -0.3103 -0.2046 -0.0210
 3443SOL    HW121788   2.301   2.691   2.930 -0.0398  0.3488 -1.3402
 3443SOL    HW221789   2.216   2.577   2.960 -1.5112 -1.1322 -1.1572
 3444SOL     OW21790   2.773   3.485   8.248  0.4144 -0.1187 -0.1256
 3444SOL    HW121791   2.839   3.416   8.246 -0.3902 -0.8702 -0.7355
 3444SOL    HW221792   2.819   3.555   8.202 -2.3326  2.3365  0.8354
 3445SOL     OW21793   1.284   0.786   9.844 -0.1297  0.0372 -0.2068
 3445SOL    HW121794   1.263   0.720   9.778  0.3988 -1.2964  0.9763
 3445SOL    HW221795   1.378   0.767   9.846 -0.0380  0.4928 -0.1311
 3446SOL     OW21796   0.918   2.783  11.344  0.2094 -0.3384  0.3554
 3446SOL    HW121797   0.858   2.844  11.386 -0.1931  0.2253 -1.0294
 3446SOL    HW221798   0.861   2.706  11.341  0.3815 -0.4560  0.0628
 3447SOL     OW21799   1.617   1.282  12.238 -0.4678  0.5716 -0.3693
 3447SOL    HW121800   1.664   1.237  12.308 -1.2425  1.1522  0.5365
 3447SOL    HW221801   1.586   1.210  12.183  2.1054 -0.0107 -1.0371
 3448SOL     OW21802   2.508   1.214  16.821  0.2043 -0.7109 -0.3747
 3448SOL    HW121803   2.425   1.211  16.774  0.1844  0.6056 -0.3995
 3448SOL    HW221804   2.551   1.132  16.795  0.4331 -1.2798  1.7501
 3449SOL     OW21805   3.660   2.260   2.245  0.0955  0.1695 -0.1594
 3449SOL    HW121806   3.616   2.340   2.274  0.2559  0.1898  0.0312
 3449SOL    HW221807   3.652   2.256   2.150 -0.3171 -1.0670 -0.0781
 3450SOL     OW21808   1.714   1.471   1.244 -0.1632 -0.1803 -0.0403
 3450SOL    HW121809   1.712   1.416   1.166  1.9749 -1.2286  0.6315
 3450SOL    HW221810   1.628   1.449   1.281 -0.2568 -0.3167 -0.3432
 3451SOL     OW21811   1.829   3.350  17.484 -0.0584  0.5135 -0.7876
 3451SOL    HW121812   1.751   3.386  17.442 -2.4094 -2.8805  0.6905
 3451SOL    HW221813   1.843   3.395  17.568 -1.1149  0.8371 -0.7878
 3452SOL     OW21814   1.169   4.396   4.814 -0.5027 -0.0761 -0.3659
 3452SOL    HW121815   1.221   4.442   4.880  0.4006 -0.1455 -1.0367
 3452SOL    HW221816   1.153   4.313   4.859 -1.3513 -1.2112 -2.7725
 3453SOL     OW21817   4.270   1.642   4.419 -0.5178  0.6607  0.1233
 3453SOL    HW121818   4.329   1.609   4.351 -0.7162 -0.1135  0.3343
 3453SOL    HW221819   4.336   1.689   4.470 -0.7940 -0.5056  1.5290
 3454SOL     OW21820   1.637   4.301   3.088  0.0651  0.4633 -0.2039
 3454SOL    HW121821   1.622   4.210   3.115  0.3151  0.6168  0.4493
 3454SOL    HW221822   1.708   4.285   3.026 -1.2976 -0.8345 -1.4377
 3455SOL     OW21823   2.557   3.742   8.199 -0.5579  0.2145 -0.4567
 3455SOL    HW121824   2.604   3.760   8.118  0.8088  0.5883  0.4207
 3455SOL    HW221825   2.568   3.647   8.201 -0.7743  0.1617 -1.8733
 3456SOL     OW21826   2.561   3.411  10.279 -0.1747  0.1914  0.1072
 3456SOL    HW121827   2.641   3.360  10.289 -0.6689 -0.6055 -0.0089
 3456SOL    HW221828   2.568   3.447  10.191  0.5130 -0.9974 -0.3159
 3457SOL     OW21829   2.689   0.885   4.406 -0.1691  0.2612  0.1804
 3457SOL    HW121830   2.609   0.881   4.459  1.0671  0.4868  2.0826
 3457SOL    HW221831   2.721   0.959   4.457 -1.5438  1.4068 -0.6038
 3458SOL     OW21832   2.903   1.323   6.270 -0.2488 -0.6218 -0.0376
 3458SOL    HW121833   2.874   1.274   6.347 -0.2391  0.1997  0.4909
 3458SOL    HW221834   2.828   1.381   6.265 -0.8993 -1.6339 -1.8146
 3459SOL     OW21835   3.401   0.624   2.450  0.2152 -0.1404 -0.5204
 3459SOL    HW121836   3.358   0.607   2.534  0.0467  0.5620 -0.4583
 3459SOL    HW221837   3.329   0.615   2.388  1.2545 -1.0605 -1.5927
 3460SOL     OW21838   0.603   2.365  16.835  0.6646 -0.0248 -0.7060
 3460SOL    HW121839   0.656   2.287  16.817  1.7490  0.6008 -0.2228
 3460SOL    HW221840   0.538   2.367  16.766 -2.0440  1.2556  1.8852
 3461SOL     OW21841   0.667   2.207   2.473  0.1658 -0.5521  0.4875
 3461SOL    HW121842   0.596   2.168   2.525  1.4124 -2.5877  0.6706
 3461SOL    HW221843   0.694   2.124   2.433  0.5601 -0.1780 -0.0159
 3462SOL     OW21844   3.469   0.925  14.831 -0.3932  0.1740 -0.0296
 3462SOL    HW121845   3.440   0.843  14.871 -2.3053  1.5081  1.3033
 3462SOL    HW221846   3.485   0.973  14.912  0.9047  1.2040 -0.9044
 3463SOL     OW21847   2.216   3.640   5.107 -0.2300  0.3035 -0.4504
 3463SOL    HW121848   2.218   3.607   5.197  1.1515 -2.7786 -1.6471
 3463SOL    HW221849   2.222   3.563   5.051 -2.4171  0.1151 -0.4378
 3464SOL     OW21850   2.952   2.471   0.127 -0.2021 -0.4297 -0.5316
 3464SOL    HW121851   3.034   2.520   0.141 -0.0569 -0.9907  0.6358
 3464SOL    HW221852   2.897   2.521   0.188 -0.7440 -0.8618 -0.6691
 3465SOL     OW21853   0.569   1.984   6.605 -0.7353  0.3613  0.2672
 3465SOL    HW121854   0.640   1.955   6.548 -0.5784  1.1203  0.0701
 3465SOL    HW221855   0.578   2.079   6.611  4.4923 -0.1306  0.1865
 3466SOL     OW21856   1.535   1.764   5.641 -0.1204 -0.1598  0.1355
 3466SOL    HW121857   1.519   1.756   5.735 -0.7173  1.3919  0.1567
 3466SOL    HW221858   1.618   1.810   5.630  0.2676 -1.1642 -1.1071
 3467SOL     OW21859   0.411   0.803  12.815  0.0550  0.5402  0.9165
 3467SOL    HW121860   0.380   0.893  12.810 -0.1456  0.4725  0.9378
 3467SOL    HW221861   0.428   0.777  12.725  1.6073  2.1890  0.7264
 3468SOL     OW21862   0.721   0.857   3.098  0.2916  0.1743 -0.1885
 3468SOL    HW121863   0.687   0.779   3.055 -2.1414  0.6687  0.7911
 3468SOL    HW221864   0.640   0.900   3.127 -0.1267 -0.7866  0.0600
 3469SOL     OW21865   0.610   1.623   7.658  0.0398 -0.3544  0.0970
 3469SOL    HW121866   0.586   1.587   7.743 -0.3577  0.1810  0.2143
 3469SOL    HW221867   0.701   1.650   7.672 -0.0926  0.0643  0.1484
 3470SOL     OW21868   4.602   4.203  11.904  0.0405 -0.2413  0.2077
 3470SOL    HW121869   4.646   4.285  11.927  0.4760 -0.0373 -1.4206
 3470SOL    HW221870   4.615   4.200  11.810  1.6801 -2.4325  0.5155
 3471SOL     OW21871   0.902   2.139   8.260  0.0190  0.5275 -0.4666
 3471SOL    HW121872   0.920   2.225   8.298 -0.2599 -0.5215  2.0257
 3471SOL    HW221873   0.810   2.135   8.287  0.1910  1.1938  0.1995
 3472SOL     OW21874   3.378   4.258  11.149 -0.0253  0.6894  0.0676
 3472SOL    HW121875   3.417   4.315  11.083  1.2133 -1.3446 -0.9896
 3472SOL    HW221876   3.316   4.206  11.097  2.0331 -1.1170 -0.5653
 3473SOL     OW21877   4.122   3.483   8.815  0.2359  0.1270  0.1893
 3473SOL    HW121878   4.039   3.521   8.786  0.0718 -1.0746 -0.8831
 3473SOL    HW221879   4.159   3.446   8.735 -1.2187 -1.1286  0.1027
 3474SOL     OW21880   3.682   4.184  16.465  0.1470  0.2672 -0.1918
 3474SOL    HW121881   3.640   4.115  16.415  1.8514  0.2219 -1.5352
 3474SOL    HW221882   3.616   4.223  16.524 -0.5551  1.5846 -1.8441
 3475SOL     OW21883   1.101   0.515  10.843  0.2181  0.2534  0.2580
 3475SOL    HW121884   1.040   0.582  10.874  1.1600  1.0510  0.4020
 3475SOL    HW221885   1.045   0.476  10.776 -1.3638 -0.0147  1.7242
 3476SOL     OW21886   2.339   2.574   8.570  0.7245 -0.2284 -0.4395
 3476SOL    HW121887   2.290   2.493   8.583  0.8075 -0.0701  0.8858
 3476SOL    HW221888   2.273   2.641   8.550  1.5809  0.6347 -0.3590
 3477SOL     OW21889   3.459   3.758   5.919  0.0453  0.1341 -0.0220
 3477SOL    HW121890   3.407   3.721   5.847 -1.2301 -0.8329  1.4054
 3477SOL    HW221891   3.443   3.704   5.996  0.1775  1.5861  1.0108
 3478SOL     OW21892   2.218   4.297   3.141 -0.0168  0.0805 -0.5768
 3478SOL    HW121893   2.129   4.264   3.150  0.0007  0.9525  2.8306
 3478SOL    HW221894   2.267   4.216   3.130 -0.3397 -0.3324  1.0163
 3479SOL     OW21895   2.137   1.075   1.710 -0.3180  0.7002 -0.0781
 3479SOL    HW121896   2.186   0.994   1.698 -1.7379 -0.3632  1.2227
 3479SOL    HW221897   2.202   1.133   1.671 -1.3522  0.3088 -2.4376
 3480SOL     OW21898   1.742   4.654   6.961  0.7789  0.5234  0.2292
 3480SOL    HW121899   1.757   4.719   7.029  0.0132  1.2265 -0.2615
 3480SOL    HW221900   1.748   4.570   7.006 -2.1497  0.6345  0.8458
 3481SOL     OW21901   2.435   2.083   4.209  0.4359 -0.4806  0.0011
 3481SOL    HW121902   2.454   2.004   4.260  3.4949 -1.4514 -2.6633
 3481SOL    HW221903   2.521   2.122   4.192  1.3845 -2.3556  0.5161
 3482SOL     OW21904   4.519   0.622   3.501 -0.3603 -0.0977  1.0354
 3482SOL    HW121905   4.569   0.651   3.425  0.6255 -0.1960  1.6490
 3482SOL    HW221906   4.437   0.667   3.481  0.3645  0.3695 -0.8696
 3483SOL     OW21907   3.429   0.989  11.390  0.0800  0.2244 -0.2917
 3483SOL    HW121908   3.455   1.052  11.456 -0.4052  2.4231 -2.2066
 3483SOL    HW221909   3.395   1.048  11.323  2.2569  0.4297 -1.2304
 3484SOL     OW21910   4.327   0.177   8.020 -0.2015 -0.3219  0.5670
 3484SOL    HW121911   4.310   0.259   7.974 -0.6666  0.0633  1.4216
 3484SOL    HW221912   4.255   0.123   7.986  2.0258 -1.8992 -1.6997
 3485SOL     OW21913   3.185   4.189  17.546  0.3511 -0.4463 -0.1098
 3485SOL    HW121914   3.133   4.110  17.529 -1.6406  0.7184  0.6560
 3485SOL    HW221915   3.159   4.226  17.461  0.9804  1.5594  0.5742
 3486SOL     OW21916   2.811   0.342   4.813 -0.0043  0.0975  0.4867
 3486SOL    HW121917   2.728   0.390   4.812 -0.4344 -0.5712  2.6002
 3486SOL    HW221918   2.797   0.274   4.747 -0.5900 -0.8991  1.6267
 3487SOL     OW21919   3.004   2.770   6.183 -0.4025 -0.4372 -0.5099
 3487SOL    HW121920   3.001   2.677   6.206 -1.7434 -0.9506 -2.7591
 3487SOL    HW221921   2.986   2.808   6.269 -0.3153 -0.3201 -0.5437
 3488SOL     OW21922   1.042   0.861   8.341 -0.2423 -0.3118  0.2806
 3488SOL    HW121923   1.133   0.834   8.348 -0.1660 -0.3887 -1.0417
 3488SOL    HW221924   1.037   0.887   8.249 -0.3843 -3.8984 -0.7286
 3489SOL     OW21925   2.779   3.155   4.148  0.0762 -0.0642 -0.1963
 3489SOL    HW121926   2.818   3.185   4.230  3.6157  0.1027 -1.9299
 3489SOL    HW221927   2.860   3.158   4.097 -0.5553  2.2531 -1.0634
 3490SOL     OW21928   2.407   1.497   8.592  0.1141 -0.3329  0.1301
 3490SOL    HW121929   2.441   1.586   8.585 -0.1816 -0.1231  1.2595
 3490SOL    HW221930   2.486   1.456   8.628 -0.5898 -1.4618  0.3595
 3491SOL     OW21931   3.852   2.103   9.276 -0.2624  0.7288  0.0078
 3491SOL    HW121932   3.793   2.076   9.204  2.3431  0.3612 -1.9763
 3491SOL    HW221933   3.896   2.178   9.237 -0.7206  0.6466 -0.6776
 3492SOL     OW21934   2.359   1.373  12.011 -0.1983 -0.4722  0.3752
 3492SOL    HW121935   2.366   1.376  11.915 -1.3840  0.3580  0.3120
 3492SOL    HW221936   2.372   1.280  12.026 -0.8541 -0.5471  0.5033
 3493SOL     OW21937   0.493   3.682   6.553  0.1081 -0.1667 -0.3060
 3493SOL    HW121938   0.499   3.623   6.628 -2.3752 -3.3743 -2.6136
 3493SOL    HW221939   0.569   3.652   6.505 -0.2125 -3.3589  1.2083
 3494SOL     OW21940   3.541   4.232  12.044  0.3631 -0.6502  0.2876
 3494SOL    HW121941   3.498   4.153  12.077  0.2664 -0.9624 -0.5825
 3494SOL    HW221942   3.571   4.287  12.117  2.9163 -1.1294 -0.3778
 3495SOL     OW21943   3.712   3.871   7.183  0.1434 -0.3939  0.1718
 3495SOL    HW121944   3.785   3.851   7.124  1.6636  0.2367  1.8459
 3495SOL    HW221945   3.665   3.788   7.184 -1.0624  0.3046  0.6170
 3496SOL     OW21946   1.257   2.042   3.031  0.4807  0.1201 -0.4263
 3496SOL    HW121947   1.258   1.999   3.117  2.8794 -0.9418 -1.0092
 3496SOL    HW221948   1.218   2.124   3.060  0.0860 -0.7864  1.6058
 3497SOL     OW21949   2.910   0.912   8.510  0.0255  0.3307  0.4917
 3497SOL    HW121950   2.862   0.918   8.592 -1.9644 -2.4360 -0.4452
 3497SOL    HW221951   2.983   0.973   8.521 -0.1951  0.8708 -1.0360
 3498SOL     OW21952   0.905   4.356   2.401 -0.8593  0.1190 -0.7932
 3498SOL    HW121953   0.833   4.296   2.420 -0.0708 -0.0677  1.5983
 3498SOL    HW221954   0.866   4.422   2.343  0.0324  1.9627  0.6968
 3499SOL     OW21955   2.814   4.394   8.306  0.2425 -0.1352  0.3670
 3499SOL    HW121956   2.793   4.438   8.389  2.3073 -1.0683  1.3625
 3499SOL    HW221957   2.898   4.354   8.325 -0.1016 -0.7724  0.5456
 3500SOL     OW21958   0.563   3.423   5.323 -0.1275  0.0145  0.0401
 3500SOL    HW121959   0.524   3.501   5.283  4.1239  0.2003 -3.7675
 3500SOL    HW221960   0.489   3.363   5.327 -2.3652  2.8542  1.2322
 3501SOL     OW21961   3.207   1.021   8.273  0.0277 -0.3650  0.5606
 3501SOL    HW121962   3.121   1.022   8.231  0.4785  3.3378 -0.2529
 3501SOL    HW221963   3.239   0.941   8.232 -3.0805  0.1043 -2.8120
 3502SOL     OW21964   4.339   4.264   2.768 -1.0751  0.0784  0.5956
 3502SOL    HW121965   4.409   4.286   2.829  0.1373 -4.8341  1.0000
 3502SOL    HW221966   4.278   4.337   2.777 -1.3180 -0.3209  2.3190
 3503SOL     OW21967   3.193   4.126   6.788 -0.0262  0.5374  0.4681
 3503SOL    HW121968   3.241   4.198   6.748  2.2311 -1.5227 -0.5665
 3503SOL    HW221969   3.137   4.170   6.851 -1.4991  1.3788 -1.4203
 3504SOL     OW21970   4.504   0.107   8.745  0.4761 -0.1006  0.1149
 3504SOL    HW121971   4.518   0.076   8.656  0.3568 -1.8839  0.7238
 3504SOL    HW221972   4.591   0.108   8.785  0.0273 -0.4302  1.1197
 3505SOL     OW21973   3.325   3.396  13.912 -0.2247 -0.1075 -0.4772
 3505SOL    HW121974   3.340   3.460  13.843 -1.3369  2.2659  1.4836
 3505SOL    HW221975   3.349   3.440  13.994 -0.7556 -0.8554  0.0773
 3506SOL     OW21976   3.376   3.364   3.177  0.2192  0.0477 -0.0392
 3506SOL    HW121977   3.440   3.410   3.231 -0.5853  2.0680 -0.8027
 3506SOL    HW221978   3.425   3.299   3.126 -0.5845 -2.2434  2.1121
 3507SOL     OW21979   4.058   3.070   6.666 -0.6086 -0.2606 -0.4242
 3507SOL    HW121980   4.002   3.143   6.641  0.3065  0.0174 -1.5966
 3507SOL    HW221981   4.116   3.056   6.592 -0.8480 -0.0919 -0.6413
 3508SOL     OW21982   1.268   4.714   2.135 -0.6248  0.2779 -0.2354
 3508SOL    HW121983   1.317   0.064   2.177  1.7125 -0.4313 -1.7940
 3508SOL    HW221984   1.182   0.034   2.128 -0.3133  1.0428  0.3756
 3509SOL     OW21985   2.128   1.554   9.661  0.3736  0.3735  0.1759
 3509SOL    HW121986   2.172   1.585   9.582 -1.4338 -0.7370 -1.2767
 3509SOL    HW221987   2.204   1.524   9.711  0.0892 -1.8342 -0.6966
 3510SOL     OW21988   0.616   4.479  15.941  0.1474 -0.0835  0.1125
 3510SOL    HW121989   0.696   4.428  15.955 -0.6265 -1.0388  1.0610
 3510SOL    HW221990   0.565   4.404  15.972  0.6599 -0.2204  0.6263
 3511SOL     OW21991   4.499   4.598   8.144 -0.4549 -0.9281  0.4865
 3511SOL    HW121992   4.449   4.680   8.139 -3.3858 -2.7716 -0.5583
 3511SOL    HW221993   4.586   4.634   8.161 -0.8683  0.8319 -1.1612
 3512SOL     OW21994   4.370   0.226   0.092  0.4302  0.1063  0.3740
 3512SOL    HW121995   4.377   0.262   0.180  2.1571 -0.3624  0.4409
 3512SOL    HW221996   4.460   0.219   0.060 -0.7331  0.8365 -3.0280
 3513SOL     OW21997   0.916   2.159   8.871 -0.4075  0.7898 -0.2125
 3513SOL    HW121998   0.937   2.250   8.896  1.3005 -1.0368  5.0282
 3513SOL    HW221999   0.881   2.169   8.783 -2.5385 -0.5609  0.4971
 3514SOL     OW22000   2.479   1.409   3.101 -0.4366  0.7643 -0.1295
 3514SOL    HW122001   2.571   1.398   3.126 -0.1024  1.3777 -1.0969
 3514SOL    HW222002   2.436   1.327   3.127 -0.6214  0.7654 -0.4319
 3515SOL     OW22003   2.129   4.394  11.856 -0.1847 -0.0617  0.3643
 3515SOL    HW122004   2.204   4.383  11.798  1.1240  0.6266  1.9089
 3515SOL    HW222005   2.078   4.315  11.838 -0.6890  0.6257 -1.2168
 3516SOL     OW22006   4.280   3.755   7.320 -0.5778  0.2102 -0.3824
 3516SOL    HW122007   4.359   3.795   7.285 -1.7599  3.1052  0.2180
 3516SOL    HW222008   4.255   3.708   7.240  0.2981  0.3737 -0.7528
 3517SOL     OW22009   1.301   2.987   7.275  0.4330 -0.5875  0.1715
 3517SOL    HW122010   1.264   2.970   7.189  2.5812 -0.2727 -0.8063
 3517SOL    HW222011   1.298   2.900   7.314  1.0063 -0.7253 -0.0981
 3518SOL     OW22012   3.868   0.943   6.039 -0.5672 -0.7025 -0.3841
 3518SOL    HW122013   3.826   0.927   5.954 -0.9695  0.2540 -0.3666
 3518SOL    HW222014   3.797   0.913   6.097  0.0595 -0.2380  0.6134
 3519SOL     OW22015   1.306   2.649   7.680  0.2265 -0.3823  0.0442
 3519SOL    HW122016   1.298   2.712   7.752 -2.1642 -0.0289 -0.5407
 3519SOL    HW222017   1.390   2.610   7.707  0.3044 -0.0913  0.2289
 3520SOL     OW22018   1.480   3.415   7.285 -0.2089  0.4444 -0.7713
 3520SOL    HW122019   1.438   3.365   7.216 -0.5071  0.1659 -0.3920
 3520SOL    HW222020   1.425   3.396   7.361 -0.0578 -1.0331 -1.0214
 3521SOL     OW22021   4.485   0.508  14.426 -0.4827  0.0674  0.1005
 3521SOL    HW122022   4.434   0.475  14.500 -0.4186  0.2024  0.2049
 3521SOL    HW222023   4.571   0.523  14.465  0.2603  2.0249 -2.2631
 3522SOL     OW22024   2.486   4.572  11.174  0.5840 -0.1692 -0.4518
 3522SOL    HW122025   2.500   4.665  11.193  0.7871 -0.5897  1.4997
 3522SOL    HW222026   2.545   4.561  11.100  0.4045  0.0402 -0.6251
 3523SOL     OW22027   4.070   1.139  16.857  0.1571  0.5655 -0.0390
 3523SOL    HW122028   4.068   1.049  16.824 -0.3888  1.2995 -1.9878
 3523SOL    HW222029   4.045   1.196  16.785  0.8816 -1.0719 -1.5752
 3524SOL     OW22030   0.385   0.681   6.389 -0.0166  0.2347 -0.6238
 3524SOL    HW122031   0.301   0.657   6.349 -0.7146 -0.8785  1.4977
 3524SOL    HW222032   0.351   0.746   6.451  0.8798 -0.9467  1.1089
 3525SOL     OW22033   1.641   3.990   4.675 -0.0307 -0.2304 -0.1803
 3525SOL    HW122034   1.554   3.959   4.652  0.1675  0.5557 -2.0049
 3525SOL    HW222035   1.677   3.910   4.712 -0.4955 -1.3423 -2.1315
 3526SOL     OW22036   1.440   1.958   4.448  0.1357  0.1739  0.0686
 3526SOL    HW122037   1.389   1.915   4.516  1.2398 -0.2297  0.6401
 3526SOL    HW222038   1.456   2.048   4.477  0.3361 -0.3502  1.5537
 3527SOL     OW22039   0.494   2.937   8.994  0.2030 -0.1067  0.4355
 3527SOL    HW122040   0.578   2.938   9.039 -0.0307  0.4275  0.8577
 3527SOL    HW222041   0.442   2.997   9.047 -0.6767  0.2271 -0.8001
 3528SOL     OW22042   4.070   1.311  11.908 -0.2619 -0.6998 -0.1784
 3528SOL    HW122043   3.985   1.316  11.950 -0.2425 -0.5196 -0.1586
 3528SOL    HW222044   4.051   1.228  11.864 -1.6841 -0.5662  0.1797
 3529SOL     OW22045   1.473   1.104   6.272 -0.4255 -0.2156 -0.6022
 3529SOL    HW122046   1.517   1.028   6.309  0.4994  0.4798 -0.2634
 3529SOL    HW222047   1.519   1.112   6.189 -0.3878  0.6217 -0.5041
 3530SOL     OW22048   0.667   1.016   5.517 -0.1026 -0.5613  0.2205
 3530SOL    HW122049   0.586   0.966   5.522 -0.9861  1.1619  2.9772
 3530SOL    HW222050   0.695   1.015   5.609 -0.6410  1.5901  0.4098
 3531SOL     OW22051   4.112   0.122   5.122 -0.2673  0.2936 -0.5129
 3531SOL    HW122052   4.097   0.190   5.056  0.6031  1.2893  0.3265
 3531SOL    HW222053   4.021   0.112   5.150  0.1659  0.4880  0.9730
 3532SOL     OW22054   3.411   3.061   4.468  0.2314 -0.7246 -0.0926
 3532SOL    HW122055   3.357   2.988   4.500 -0.6225 -1.0058 -2.1942
 3532SOL    HW222056   3.500   3.024   4.471  0.0292 -1.3059 -1.1441
 3533SOL     OW22057   3.530   3.853   7.910 -0.1835  0.5052 -0.0608
 3533SOL    HW122058   3.582   3.836   7.831  2.2727  2.3146  1.1529
 3533SOL    HW222059   3.443   3.845   7.871  0.5832 -2.9827 -1.0625
 3534SOL     OW22060   4.538   3.024   8.038  0.3555 -0.0724 -0.1254
 3534SOL    HW122061   4.597   2.954   8.011  0.8957 -0.4325  2.0069
 3534SOL    HW222062   4.484   2.972   8.097 -0.2873 -1.1806 -1.6732
 3535SOL     OW22063   2.406   3.920   0.201  0.2918 -0.7686 -0.1655
 3535SOL    HW122064   2.439   3.935   0.112  0.7222 -1.1867 -0.0708
 3535SOL    HW222065   2.488   3.897   0.243  0.9135  1.1361 -0.3013
 3536SOL     OW22066   3.294   3.302   4.594  0.2382  0.1943 -0.5433
 3536SOL    HW122067   3.283   3.284   4.687  1.3330  1.6784 -0.1198
 3536SOL    HW222068   3.349   3.233   4.556 -1.0790 -2.6195  2.6985
 3537SOL     OW22069   4.308   2.588   5.082 -0.9139 -0.1482 -0.4617
 3537SOL    HW122070   4.363   2.635   5.144 -1.0611 -3.0472  1.8597
 3537SOL    HW222071   4.271   2.535   5.152  1.2149 -0.3910  0.4473
 3538SOL     OW22072   1.211   0.031   4.775  0.0967 -0.2745 -0.6041
 3538SOL    HW122073   1.224   0.123   4.796 -2.2703 -0.4579  1.5962
 3538SOL    HW222074   1.273   4.702   4.828  0.9793  0.1205 -1.2730
 3539SOL     OW22075   3.082   4.672   1.925  1.1026  1.0876 -0.3493
 3539SOL    HW122076   3.000   4.656   1.971  0.5974 -1.4631 -2.1402
 3539SOL    HW222077   3.141   4.677   2.001  3.0253  3.1044 -1.9648
 3540SOL     OW22078   2.653   1.917   1.106  0.3307  0.0490 -0.1553
 3540SOL    HW122079   2.711   1.985   1.142  3.6847 -1.5091 -2.6508
 3540SOL    HW222080   2.607   1.971   1.041 -0.5150 -0.0483  0.3587
 3541SOL     OW22081   3.702   3.526   5.157  0.2718  0.7428  0.4679
 3541SOL    HW122082   3.789   3.488   5.149 -0.1041 -0.5676  2.6509
 3541SOL    HW222083   3.717   3.616   5.186 -0.8036  0.1001  3.0421
 3542SOL     OW22084   1.100   0.670   1.040 -0.0399  0.2460  0.2608
 3542SOL    HW122085   1.030   0.732   1.059 -1.1828 -1.1127  0.4702
 3542SOL    HW222086   1.119   0.696   0.950  1.6687 -1.4282  0.1464
 3543SOL     OW22087   4.310   1.318  12.643 -0.5905  0.1674 -0.0053
 3543SOL    HW122088   4.283   1.246  12.587  0.8582  1.2610 -2.1283
 3543SOL    HW222089   4.379   1.286  12.701 -1.2412 -1.1205  0.0372
 3544SOL     OW22090   1.727   1.725  17.235  0.0196  0.3939 -0.5046
 3544SOL    HW122091   1.720   1.798  17.174  0.8526 -0.3665 -1.5086
 3544SOL    HW222092   1.820   1.702  17.224  0.1002  0.3169  0.3264
 3545SOL     OW22093   2.651   3.323   2.502 -0.6607 -0.0885 -0.7144
 3545SOL    HW122094   2.716   3.280   2.446  0.0641  0.0200  0.0442
 3545SOL    HW222095   2.579   3.321   2.439 -1.1722  1.5219 -0.1839
 3546SOL     OW22096   0.654   3.317   8.155 -0.1909  0.2695 -0.2441
 3546SOL    HW122097   0.611   3.252   8.210  2.3379 -0.7730  0.5174
 3546SOL    HW222098   0.611   3.401   8.172 -1.0729 -0.0160 -1.1046
 3547SOL     OW22099   3.437   2.168  16.684  0.2348 -0.0726 -0.1045
 3547SOL    HW122100   3.481   2.224  16.748 -0.9866 -0.4598  1.0824
 3547SOL    HW222101   3.376   2.129  16.747  1.8436 -0.5199  1.1636
 3548SOL     OW22102   4.237   3.916   7.944 -0.8437 -1.0630  0.4660
 3548SOL    HW122103   4.290   3.844   7.909  2.1891  1.0822  0.7027
 3548SOL    HW222104   4.241   3.973   7.868 -0.9359  0.2125  1.4224
 3549SOL     OW22105   3.633   2.688  15.794  0.7802  0.4915 -0.3832
 3549SOL    HW122106   3.583   2.650  15.867  1.5017  0.7113  0.2324
 3549SOL    HW222107   3.720   2.680  15.833  1.0866 -2.1828 -1.6169
 3550SOL     OW22108   2.145   1.976   8.260  0.6831 -0.3790 -0.2883
 3550SOL    HW122109   2.237   1.952   8.270  0.9341  0.6916 -0.0280
 3550SOL    HW222110   2.115   1.901   8.209  0.8020 -0.6649  0.0622
 3551SOL     OW22111   1.893   1.707  16.516 -0.1155 -0.3959 -0.0494
 3551SOL    HW122112   1.938   1.741  16.594 -0.9880  1.2207 -0.2365
 3551SOL    HW222113   1.864   1.622  16.548  0.3423  0.8596  3.6768
 3552SOL     OW22114   3.252   1.297   2.555 -0.1406  0.7548  0.0344
 3552SOL    HW122115   3.293   1.381   2.575 -0.5766  0.9808 -0.0319
 3552SOL    HW222116   3.265   1.280   2.461 -0.5181 -1.5584  0.3951
 3553SOL     OW22117   1.630   0.739   9.063  0.0192 -0.7304 -0.0599
 3553SOL    HW122118   1.640   0.644   9.060  0.6021 -0.6831  0.5215
 3553SOL    HW222119   1.538   0.753   9.038  0.1597 -1.5324 -1.0576
 3554SOL     OW22120   2.364   3.460   4.883 -0.2251 -0.2228  0.5624
 3554SOL    HW122121   2.371   3.435   4.975  0.9075 -0.6332  0.3573
 3554SOL    HW222122   2.351   3.373   4.845  0.5404  0.4217 -1.1694
 3555SOL     OW22123   2.122   3.037   2.133  0.3754  0.1284  0.6540
 3555SOL    HW122124   2.047   2.992   2.093 -1.0529  2.9320  0.2016
 3555SOL    HW222125   2.079   3.115   2.166  0.8746  1.3291 -1.5076
 3556SOL     OW22126   1.641   4.324   6.663  0.0431 -0.2635 -0.2784
 3556SOL    HW122127   1.644   4.241   6.614  0.5157 -0.9183  0.8502
 3556SOL    HW222128   1.595   4.373   6.595  1.1596  0.8096 -0.2463
 3557SOL     OW22129   3.288   3.080  12.761  0.4940  0.5508 -0.5952
 3557SOL    HW122130   3.306   3.116  12.674 -0.4311 -0.0817 -1.0568
 3557SOL    HW222131   3.309   3.148  12.824 -4.8317  1.5244  0.1335
 3558SOL     OW22132   1.091   1.257   6.216 -0.1111 -0.4586 -0.3202
 3558SOL    HW122133   1.135   1.339   6.191  0.4825  0.0063  2.2425
 3558SOL    HW222134   1.005   1.288   6.245 -0.8924 -0.3406 -2.7605
 3559SOL     OW22135   0.397   1.544   2.414  0.0156  0.0464 -0.2559
 3559SOL    HW122136   0.375   1.525   2.505  0.6886  0.8048  0.0635
 3559SOL    HW222137   0.491   1.560   2.423  0.1156 -0.3383 -0.6227
 3560SOL     OW22138   2.350   2.297   6.850 -0.1878  0.5290 -0.1242
 3560SOL    HW122139   2.410   2.252   6.910 -0.0137  3.3046  1.7679
 3560SOL    HW222140   2.281   2.329   6.908 -0.6679 -2.0644  0.7396
 3561SOL     OW22141   0.994   3.900   3.295 -0.2841 -0.5632 -0.4366
 3561SOL    HW122142   1.039   3.933   3.373  0.7793 -1.4882 -0.6594
 3561SOL    HW222143   1.062   3.850   3.250 -2.0738 -0.1579 -3.6622
 3562SOL     OW22144   3.558   0.964   6.909  0.0061 -0.2204  0.0068
 3562SOL    HW122145   3.497   1.030   6.941  0.6268 -1.0674  2.9438
 3562SOL    HW222146   3.560   0.902   6.982  2.9330  1.9399  1.7187
 3563SOL     OW22147   0.206   3.660   8.411  0.3736  0.0407  0.0615
 3563SOL    HW122148   0.161   3.708   8.481  1.1163  1.7877 -0.6660
 3563SOL    HW222149   0.134   3.655   8.347 -1.2134  0.0364  1.8601
 3564SOL     OW22150   1.818   2.937   3.686 -0.0362 -0.2253  0.0485
 3564SOL    HW122151   1.893   2.879   3.698  1.2801  1.6855  1.0483
 3564SOL    HW222152   1.855   2.994   3.619 -0.6283  1.7436  1.4201
 3565SOL     OW22153   3.029   4.478  12.653  0.2012 -0.1194 -0.5912
 3565SOL    HW122154   3.052   4.480  12.560  0.5938 -1.6772 -0.5274
 3565SOL    HW222155   3.109   4.496  12.704  0.0196 -1.2621  0.0846
 3566SOL     OW22156   2.287   0.696   1.215 -0.0148  0.5871  0.1484
 3566SOL    HW122157   2.202   0.663   1.186 -0.1469  0.0221  1.1495
 3566SOL    HW222158   2.346   0.686   1.140  0.4149 -3.5553  1.0515
 3567SOL     OW22159   2.576   0.202   5.003 -0.1627 -0.1190 -0.2043
 3567SOL    HW122160   2.507   0.160   4.952  1.3221  0.4542 -2.7295
 3567SOL    HW222161   2.604   0.271   4.943 -1.0433  1.4370  1.1733
 3568SOL     OW22162   2.660   4.424   5.119  1.0152 -0.3883 -0.5275
 3568SOL    HW122163   2.706   4.385   5.193  0.6434 -3.5524 -1.9456
 3568SOL    HW222164   2.664   4.515   5.146  1.2446 -0.6037  0.1747
 3569SOL     OW22165   4.039   3.646   7.827 -0.4981 -0.1765 -0.7519
 3569SOL    HW122166   3.961   3.680   7.870 -0.7904 -2.7898  0.7391
 3569SOL    HW222167   4.014   3.557   7.803  0.7762 -0.8118  0.2600
 3570SOL     OW22168   0.038   3.125   6.201  0.3050 -0.5899  0.0811
 3570SOL    HW122169   0.045   3.220   6.209 -0.3022 -0.5584  0.3003
 3570SOL    HW222170   4.702   3.122   6.125  1.4555 -0.0598 -0.7975
 3571SOL     OW22171   0.761   1.684  17.547  0.1081  0.3783 -0.2482
 3571SOL    HW122172   0.685   1.654  17.497 -1.0707  1.9470  0.5978
 3571SOL    HW222173   0.734   1.681  17.639 -1.7649  0.8803 -0.7878
 3572SOL     OW22174   3.506   4.138   5.203  0.2816 -0.2480 -0.5329
 3572SOL    HW122175   3.430   4.189   5.231 -0.2863 -0.2908 -2.0035
 3572SOL    HW222176   3.566   4.148   5.278  0.5978  1.3384 -0.9938
 3573SOL     OW22177   1.067   1.417   9.379  0.1637  0.3112 -0.0396
 3573SOL    HW122178   1.020   1.449   9.457  0.5112 -0.0267  0.3098
 3573SOL    HW222179   1.034   1.477   9.312 -1.9040 -2.0544 -1.1013
 3574SOL     OW22180   2.530   2.043  11.973 -0.1814 -0.1792 -0.1096
 3574SOL    HW122181   2.450   2.033  11.923  0.1991 -0.8114 -0.5895
 3574SOL    HW222182   2.591   1.979  11.936  0.2451  2.1427 -3.4015
 3575SOL     OW22183   0.945   0.975   4.983  0.1120  0.2646 -0.3913
 3575SOL    HW122184   0.967   1.055   4.935 -0.7431  1.3512  1.0328
 3575SOL    HW222185   0.899   1.006   5.060 -0.1891 -1.6537  0.2023
 3576SOL     OW22186   1.490   3.387   9.025  0.3761  0.0288 -0.3230
 3576SOL    HW122187   1.534   3.460   8.983 -1.2159  0.8315 -0.5849
 3576SOL    HW222188   1.403   3.427   9.029  0.5395  0.5220 -1.7903
 3577SOL     OW22189   1.837   0.030   0.835  0.6155 -0.0351 -0.6038
 3577SOL    HW122190   1.884   0.106   0.871 -1.6381  0.2264  1.8241
 3577SOL    HW222191   1.831   0.055   0.743 -1.6441 -0.0666 -0.4647
 3578SOL     OW22192   2.800   2.771   2.575 -0.2242  0.1943 -1.1050
 3578SOL    HW122193   2.883   2.750   2.617 -0.6096 -0.5311 -0.7031
 3578SOL    HW222194   2.757   2.830   2.637 -0.3574  0.0304 -1.0410
 3579SOL     OW22195   1.568   2.388   6.630  0.5075  0.2533  0.4578
 3579SOL    HW122196   1.631   2.320   6.606  1.7013  0.4365  2.9957
 3579SOL    HW222197   1.521   2.353   6.705 -0.0810  2.0352  0.9240
 3580SOL     OW22198   0.586   4.342   7.916 -0.3224  0.5141  0.3732
 3580SOL    HW122199   0.556   4.253   7.933  0.8805  0.1308  0.5232
 3580SOL    HW222200   0.648   4.359   7.987 -0.3140  1.3471  0.1613
 3581SOL     OW22201   3.423   3.603   3.361  0.2245  0.2444 -0.2960
 3581SOL    HW122202   3.505   3.641   3.393  0.3893 -0.3006 -0.0737
 3581SOL    HW222203   3.375   3.683   3.340 -0.9786 -0.5825 -0.6979
 3582SOL     OW22204   4.267   1.282  15.520  0.0548  0.2632 -0.3466
 3582SOL    HW122205   4.270   1.333  15.439  0.3473  2.4270  1.0146
 3582SOL    HW222206   4.280   1.193  15.489 -0.5412  0.1940 -0.4023
 3583SOL     OW22207   3.411   0.848   6.282 -0.7883  0.1672  0.4773
 3583SOL    HW122208   3.391   0.836   6.189  0.4249 -4.0544  0.7371
 3583SOL    HW222209   3.373   0.765   6.311  0.6721 -1.1911 -1.4388
 3584SOL     OW22210   2.465   1.107   2.114 -0.5542 -0.3400  0.5667
 3584SOL    HW122211   2.410   1.131   2.040  2.4098  0.9507 -1.1957
 3584SOL    HW222212   2.471   1.193   2.155 -0.6148 -0.4181  0.7424
 3585SOL     OW22213   3.710   1.136  16.144 -0.3495  0.3892  0.2064
 3585SOL    HW122214   3.729   1.225  16.172 -3.2726  0.2093  2.7833
 3585SOL    HW222215   3.771   1.124  16.071  0.3483  2.1268  0.5142
 3586SOL     OW22216   2.478   0.635   9.989  0.2786  0.0300  0.6951
 3586SOL    HW122217   2.476   0.645   9.894 -4.4169  1.2955  0.9212
 3586SOL    HW222218   2.571   0.616  10.004  0.5010  0.3218 -0.3293
 3587SOL     OW22219   3.263   2.084   4.541  0.2061 -0.5514  0.1088
 3587SOL    HW122220   3.282   2.068   4.633 -2.1877  2.7041  1.1675
 3587SOL    HW222221   3.343   2.047   4.504  0.6048 -1.4271  1.8664
 3588SOL     OW22222   3.968   4.216   2.683 -0.6276  0.2107  0.6523
 3588SOL    HW122223   4.003   4.128   2.689  0.0107  0.4350  0.2151
 3588SOL    HW222224   4.034   4.268   2.637  0.1520 -2.6289 -1.4240
 3589SOL     OW22225   1.419   1.586   1.787  0.2662  0.3507 -0.1957
 3589SOL    HW122226   1.501   1.536   1.790  0.4800  0.6714 -0.6382
 3589SOL    HW222227   1.402   1.600   1.694 -1.9985  1.1019  0.3419
 3590SOL     OW22228   4.337   2.546   3.611  0.0274 -0.6674  0.3720
 3590SOL    HW122229   4.328   2.482   3.540  0.2133 -0.4396  0.1424
 3590SOL    HW222230   4.389   2.613   3.566 -0.4152  1.2251  2.6691
 3591SOL     OW22231   3.315   0.309   4.209 -0.5823 -0.2315 -0.3333
 3591SOL    HW122232   3.241   0.254   4.234 -0.9804  0.6340  0.4019
 3591SOL    HW222233   3.354   0.318   4.296 -0.4240  1.4360 -0.5812
 3592SOL     OW22234   1.143   3.406   7.887  0.4979  0.4749  0.1383
 3592SOL    HW122235   1.127   3.487   7.838 -0.0590  0.2657 -0.0254
 3592SOL    HW222236   1.187   3.443   7.963  0.6670 -0.6933  0.6158
 3593SOL     OW22237   4.034   0.700   3.324 -0.3911  0.2634 -0.0846
 3593SOL    HW122238   4.088   0.727   3.249  0.3368 -0.1375  0.2943
 3593SOL    HW222239   3.945   0.705   3.291  0.0699  1.1896 -1.2089
 3594SOL     OW22240   4.398   2.410   7.508  0.0024  0.2078 -0.1060
 3594SOL    HW122241   4.468   2.345   7.516 -0.3839 -0.2716 -0.6496
 3594SOL    HW222242   4.453   2.481   7.475 -0.6406  1.5637  1.7634
 3595SOL     OW22243   1.410   4.060   4.387 -0.3507  0.3146  0.0770
 3595SOL    HW122244   1.360   4.025   4.461  0.5025 -3.6440 -1.2360
 3595SOL    HW222245   1.357   4.029   4.314 -1.8714  0.1749  1.2460
 3596SOL     OW22246   0.778   0.196   5.599 -0.0007 -1.2195 -0.1073
 3596SOL    HW122247   0.843   0.158   5.540  0.6806  1.4333 -1.0513
 3596SOL    HW222248   0.788   0.286   5.568 -0.7309 -0.4087  1.9675
 3597SOL     OW22249   3.266   3.353  14.944 -0.8681 -0.3846 -0.3293
 3597SOL    HW122250   3.172   3.351  14.925 -0.4855  0.0556 -2.2152
 3597SOL    HW222251   3.274   3.313  15.031  0.5322 -1.7697 -1.1135
 3598SOL     OW22252   3.201   1.483   3.682  0.0355 -0.2713  0.0304
 3598SOL    HW122253   3.291   1.512   3.669 -0.6073  2.2672  1.2662
 3598SOL    HW222254   3.154   1.548   3.630 -0.3975 -1.4721 -1.1118
 3599SOL     OW22255   4.411   0.312   2.600 -0.1626 -0.1944  0.2353
 3599SOL    HW122256   4.447   0.398   2.577 -0.5013 -0.0869  0.1057
 3599SOL    HW222257   4.350   0.336   2.670  0.5707  2.5007 -0.0415
 3600SOL     OW22258   0.686   1.528  17.240 -0.1623 -0.4122  0.7379
 3600SOL    HW122259   0.732   1.451  17.275  1.2149 -0.8913 -2.1772
 3600SOL    HW222260   0.635   1.567  17.311  2.1095 -0.7442  2.5466
 3601SOL     OW22261   2.203   1.217  11.021  0.5437  0.9184 -0.5590
 3601SOL    HW122262   2.161   1.290  10.975 -1.7454 -1.1133 -1.7038
 3601SOL    HW222263   2.128   1.179  11.067  0.5899  2.0884  0.4845
 3602SOL     OW22264   3.076   3.528  12.480 -0.1548  0.4665  0.4082
 3602SOL    HW122265   3.029   3.568  12.407 -0.1849  1.6326  1.0805
 3602SOL    HW222266   3.047   3.600  12.536 -2.3131 -1.3560  1.6494
 3603SOL     OW22267   3.676   0.606   4.931  0.1876  0.3472 -0.5873
 3603SOL    HW122268   3.652   0.671   4.996 -0.0319  0.6803 -1.0041
 3603SOL    HW222269   3.590   0.589   4.893  0.1118  0.1383 -0.3203
 3604SOL     OW22270   1.395   4.708   3.468 -0.6018 -0.2556 -0.5647
 3604SOL    HW122271   1.308   4.705   3.427 -1.4746  2.5203  1.1209
 3604SOL    HW222272   1.436   0.052   3.411  0.5972 -0.3423  0.1977
 3605SOL     OW22273   0.472   2.506   8.011  0.5243 -0.3581 -0.1558
 3605SOL    HW122274   0.516   2.454   7.943  1.1834 -0.0798  0.0587
 3605SOL    HW222275   0.459   2.441   8.080 -1.6356  1.0019  0.7307
 3606SOL     OW22276   3.234   0.919  17.500  0.1419  0.0492 -0.1842
 3606SOL    HW122277   3.220   1.013  17.499 -0.7330 -0.0518  2.5178
 3606SOL    HW222278   3.153   0.891  17.456 -1.1861  3.5015  0.0782
 3607SOL     OW22279   2.216   2.629   1.300 -0.7214 -0.1341 -0.1816
 3607SOL    HW122280   2.151   2.699   1.297 -2.4339 -1.7532 -0.5878
 3607SOL    HW222281   2.268   2.656   1.225  0.8734 -2.8564 -0.0735
 3608SOL     OW22282   2.847   4.490   0.490 -0.6361 -0.1904  0.3817
 3608SOL    HW122283   2.854   4.427   0.418 -0.0548  1.0463 -0.6652
 3608SOL    HW222284   2.924   4.541   0.466 -0.1542  0.2277  2.9197
 3609SOL     OW22285   2.819   3.949   0.048  0.0848 -0.0322 -0.3650
 3609SOL    HW122286   2.762   3.875   0.028 -1.0896  1.0079 -0.8332
 3609SOL    HW222287   2.771   3.982   0.123  0.8113  0.8818 -0.3045
 3610SOL     OW22288   0.100   2.424   8.027 -0.0974 -0.0129  0.0236
 3610SOL    HW122289   0.188   2.391   8.012 -0.4441 -0.2390 -1.4979
 3610SOL    HW222290   0.066   2.411   7.938 -2.4879 -1.6219  1.1590
 3611SOL     OW22291   2.692   3.417   6.134  0.0862  0.2398  0.5376
 3611SOL    HW122292   2.612   3.397   6.085  0.9222  2.3397 -1.6959
 3611SOL    HW222293   2.706   3.328   6.167  0.5349  0.5967  1.3112
 3612SOL     OW22294   3.951   2.178   7.129 -0.2135  0.2016 -0.1854
 3612SOL    HW122295   3.910   2.258   7.161 -0.1335 -0.3374  1.2645
 3612SOL    HW222296   3.900   2.108   7.171 -1.1829  1.8633  1.3797
 3613SOL     OW22297   0.046   4.711  11.115  0.5661  0.9745 -0.4339
 3613SOL    HW122298   0.136   0.015  11.093  0.3102  1.1363 -1.2936
 3613SOL    HW222299   0.027   0.054  11.183  0.9439 -0.2061  0.7773
 3614SOL     OW22300   2.439   1.328   8.961 -0.4445 -0.5698  0.2722
 3614SOL    HW122301   2.369   1.390   8.944  0.1824  0.8592  2.9777
 3614SOL    HW222302   2.428   1.314   9.055  0.7500 -2.3050  0.1736
 3615SOL     OW22303   1.884   0.205   8.275 -0.1806 -0.1360  0.2233
 3615SOL    HW122304   1.879   0.124   8.326  1.6218 -0.1747  0.3520
 3615SOL    HW222305   1.837   0.258   8.338 -0.2556  0.2067 -0.1233
 3616SOL     OW22306   4.219   3.207   0.160  0.3783  0.0240  0.0099
 3616SOL    HW122307   4.199   3.114   0.152 -1.1202  0.6465 -3.2759
 3616SOL    HW222308   4.151   3.230   0.223 -0.4950  1.3321 -1.4315
 3617SOL     OW22309   0.055   2.850  17.508 -0.3826  0.1187  0.4889
 3617SOL    HW122310   4.690   2.835  17.547 -0.7380 -1.1167 -0.7767
 3617SOL    HW222311   0.108   2.872  17.585  0.8925  1.3253 -0.7445
 3618SOL     OW22312   3.950   3.203   3.024 -0.1100  0.0661  0.5651
 3618SOL    HW122313   3.894   3.236   2.953 -0.1213 -1.1012  0.0195
 3618SOL    HW222314   4.027   3.258   3.013 -0.5002  0.5039  0.0192
 3619SOL     OW22315   1.697   1.666   8.998 -0.1379 -0.0244 -0.0133
 3619SOL    HW122316   1.763   1.726   9.032  0.7767 -0.7020 -0.6025
 3619SOL    HW222317   1.722   1.656   8.907  1.4962 -2.7746  0.7359
 3620SOL     OW22318   0.694   3.715   7.100 -0.3910  0.8929  0.0858
 3620SOL    HW122319   0.786   3.721   7.077 -0.1784  0.2983  0.7836
 3620SOL    HW222320   0.686   3.620   7.110 -1.5034  0.5729 -3.6437
 3621SOL     OW22321   3.864   1.505   4.956 -0.1810 -0.6694  0.1092
 3621SOL    HW122322   3.842   1.490   4.865 -1.4046  1.1358  0.1042
 3621SOL    HW222323   3.833   1.595   4.965  0.2260 -0.3434 -1.7760
 3622SOL     OW22324   2.527   4.709   5.799 -0.0415  0.2482 -0.5010
 3622SOL    HW122325   2.587   4.637   5.776 -1.9932 -1.1183 -1.3018
 3622SOL    HW222326   2.453   4.661   5.837 -1.0167  2.3938  0.2734
 3623SOL     OW22327   1.532   4.196   0.950 -0.2566 -0.1565 -0.0338
 3623SOL    HW122328   1.443   4.162   0.960 -0.1273 -0.6884 -0.7353
 3623SOL    HW222329   1.566   4.127   0.893  1.4403 -0.4052  1.2659
 3624SOL     OW22330   1.261   4.032  10.846 -0.8213  0.3082  0.2677
 3624SOL    HW122331   1.321   3.970  10.888 -2.1163 -0.8641  0.3927
 3624SOL    HW222332   1.179   4.002  10.886 -0.7569  1.2519  1.1041
 3625SOL     OW22333   1.590   3.669   6.864 -0.0637  0.2033 -0.3606
 3625SOL    HW122334   1.678   3.651   6.831 -0.3740 -2.2899  0.1720
 3625SOL    HW222335   1.550   3.696   6.781 -0.8474 -0.4128 -0.1798
 3626SOL     OW22336   4.613   2.597  10.885  0.2266  0.1274 -0.1299
 3626SOL    HW122337   4.614   2.594  10.789  0.0851 -1.3710 -0.0772
 3626SOL    HW222338   4.679   2.532  10.907 -0.0200  0.0480  0.3774
 3627SOL     OW22339   3.755   2.869   2.713  0.3808 -0.1562 -0.2001
 3627SOL    HW122340   3.707   2.898   2.635 -0.4908  0.3725  0.5236
 3627SOL    HW222341   3.768   2.951   2.762 -0.0726  0.0627 -0.4350
 3628SOL     OW22342   1.264   1.835   7.118 -0.1960 -0.3314 -0.0762
 3628SOL    HW122343   1.345   1.793   7.089  2.3593  3.1543  1.9648
 3628SOL    HW222344   1.193   1.771   7.107 -1.1001  0.2098  2.6416
 3629SOL     OW22345   4.200   2.683  12.343  0.4628 -0.0777 -0.6694
 3629SOL    HW122346   4.210   2.716  12.253  1.1501 -1.0065 -0.9316
 3629SOL    HW222347   4.278   2.629  12.355 -2.0530 -4.0235 -2.1813
 3630SOL     OW22348   2.508   2.323   5.987  0.2722  0.0123  0.1282
 3630SOL    HW122349   2.519   2.416   6.009 -0.7489  0.8232 -2.7555
 3630SOL    HW222350   2.539   2.270   6.060 -0.4331  0.6615  0.8925
 3631SOL     OW22351   3.568   3.854   1.328 -0.1195  0.6530  0.2374
 3631SOL    HW122352   3.537   3.764   1.313  0.5850  0.1248  1.9188
 3631SOL    HW222353   3.513   3.869   1.405 -0.7783  1.7492 -0.4511
 3632SOL     OW22354   1.302   1.383  10.431  0.2925  0.1426  0.5613
 3632SOL    HW122355   1.252   1.308  10.398  1.7365  0.5344 -2.5277
 3632SOL    HW222356   1.377   1.376  10.372  0.5056 -1.0070  0.9600
 3633SOL     OW22357   1.902   2.580   4.296  0.2702 -0.0884  0.3041
 3633SOL    HW122358   1.961   2.506   4.282  3.3515  2.3174  0.5941
 3633SOL    HW222359   1.824   2.539   4.257  1.1485 -2.1174  0.6796
 3634SOL     OW22360   3.022   1.150   6.845  0.0999  0.2504 -0.3799
 3634SOL    HW122361   3.043   1.239   6.817 -0.6037  0.6893  0.5034
 3634SOL    HW222362   2.982   1.166   6.930  1.6784  1.0630  0.2154
 3635SOL     OW22363   3.058   2.915  15.394  1.0856  0.2795 -0.3599
 3635SOL    HW122364   3.136   2.874  15.430  0.9288 -1.8794 -2.4962
 3635SOL    HW222365   3.098   2.979  15.336  0.0308 -0.5444 -1.9847
 3636SOL     OW22366   3.928   3.313  16.104 -0.2759  0.8619 -0.3371
 3636SOL    HW122367   3.928   3.230  16.055  2.6098  1.9585 -2.1711
 3636SOL    HW222368   3.945   3.288  16.195  0.0354 -1.6386 -1.0712
 3637SOL     OW22369   3.526   1.504  14.364  0.0528  0.6545 -0.6021
 3637SOL    HW122370   3.575   1.544  14.435  2.3680 -3.6411  0.2197
 3637SOL    HW222371   3.502   1.586  14.320  0.6983  0.9420 -0.4092
 3638SOL     OW22372   2.439   3.297   9.175 -0.0976  0.2568 -0.4664
 3638SOL    HW122373   2.374   3.329   9.112  0.4050 -1.0292 -1.6626
 3638SOL    HW222374   2.440   3.356   9.250  1.9707 -0.7503  0.2985
 3639SOL     OW22375   3.765   0.055   5.539  0.5915 -0.3773  0.0216
 3639SOL    HW122376   3.715   0.044   5.458  0.1009 -2.2035  0.5509
 3639SOL    HW222377   3.852   0.020   5.520  0.3352 -1.6504  1.1650
 3640SOL     OW22378   3.485   1.362  17.066  0.7109 -0.4120 -0.4113
 3640SOL    HW122379   3.516   1.428  17.003 -1.3200  3.5096  2.6606
 3640SOL    HW222380   3.561   1.315  17.098  1.1470  0.0154 -0.8195
 3641SOL     OW22381   2.581   3.770  15.632  0.1463 -0.0055 -0.3155
 3641SOL    HW122382   2.579   3.694  15.574 -1.3392  1.1583 -1.7909
 3641SOL    HW222383   2.492   3.766  15.666 -0.4659  1.2731 -1.7229
 3642SOL     OW22384   4.692   3.623   7.343  0.6974  0.1694 -0.1015
 3642SOL    HW122385   4.637   3.572   7.285  0.0534  0.8435 -0.0834
 3642SOL    HW222386   0.034   3.649   7.276 -1.2468  0.9750 -1.6268
 3643SOL     OW22387   0.334   4.601  11.832 -0.2301 -0.3529  0.4305
 3643SOL    HW122388   0.394   4.657  11.882  2.9316 -0.3143 -3.3293
 3643SOL    HW222389   0.368   4.604  11.742  0.2501  1.3312  0.6752
 3644SOL     OW22390   1.424   3.833  10.605 -0.5148 -0.3975 -0.3990
 3644SOL    HW122391   1.496   3.832  10.541 -0.1266 -0.2059  0.0290
 3644SOL    HW222392   1.375   3.915  10.598  0.6218  0.2089 -1.4493
 3645SOL     OW22393   1.467   3.381   1.507 -0.2029  0.7468 -0.0050
 3645SOL    HW122394   1.471   3.436   1.585  0.5056  0.2219  0.3208
 3645SOL    HW222395   1.557   3.380   1.475  0.4285  0.8943  1.8239
 3646SOL     OW22396   1.113   2.415  12.918  0.1038 -0.5476 -0.1658
 3646SOL    HW122397   1.119   2.320  12.919 -1.8239 -0.6564 -0.6515
 3646SOL    HW222398   1.139   2.429  12.827  3.1543 -0.7478  0.6786
 3647SOL     OW22399   0.451   4.489   6.035  0.1791  0.1165  0.2893
 3647SOL    HW122400   0.411   4.466   6.120 -0.4458  0.9463  0.2227
 3647SOL    HW222401   0.425   4.579   6.019 -0.7403  0.0186  1.1751
 3648SOL     OW22402   1.984   2.011   2.781 -0.0926  0.0784  0.2883
 3648SOL    HW122403   1.944   2.054   2.856 -0.6595  2.6454 -1.4938
 3648SOL    HW222404   2.077   2.033   2.791 -0.1666  1.5026 -2.1683
 3649SOL     OW22405   0.097   4.671   6.311 -0.4627 -0.3500 -0.9626
 3649SOL    HW122406   0.174   0.000   6.338 -1.5132  0.2556  0.8610
 3649SOL    HW222407   0.045   4.668   6.391  0.3904 -2.1157 -0.4850
 3650SOL     OW22408   1.301   0.295   2.996 -0.3876  0.0523  0.0004
 3650SOL    HW122409   1.283   0.342   2.915  0.1037 -0.6285 -0.4994
 3650SOL    HW222410   1.222   0.249   3.023 -1.2623  1.2007 -0.6053
 3651SOL     OW22411   3.794   1.900   7.931  0.3729 -0.4930  0.0100
 3651SOL    HW122412   3.792   1.827   7.994  0.8114 -1.7196 -1.4114
 3651SOL    HW222413   3.883   1.926   7.953  0.8690 -4.0402  2.3971
 3652SOL     OW22414   1.482   0.884   4.701 -0.2489  0.1144  0.1424
 3652SOL    HW122415   1.459   0.911   4.790 -3.4905 -1.3659 -0.2747
 3652SOL    HW222416   1.527   0.965   4.676 -0.3774 -0.4340 -1.8898
 3653SOL     OW22417   0.360   4.547  15.863  0.4085 -0.1234  0.1107
 3653SOL    HW122418   0.450   4.578  15.876 -0.3065  0.1146  4.4734
 3653SOL    HW222419   0.386   4.459  15.837  0.6999  0.6750 -2.2586
 3654SOL     OW22420   0.150   3.926  11.345  0.3875 -0.0781  0.1374
 3654SOL    HW122421   0.166   3.949  11.437 -0.1166 -1.0912  0.4878
 3654SOL    HW222422   0.224   3.870  11.323  1.0257  1.4660 -1.5978
 3655SOL     OW22423   1.169   0.888   5.118  0.3619  0.3219 -0.1343
 3655SOL    HW122424   1.079   0.916   5.097  0.5459  0.9487 -0.0962
 3655SOL    HW222425   1.195   0.884   5.026  0.2948  0.9270 -0.1774
 3656SOL     OW22426   0.253   0.840   3.011 -0.1030 -0.4382 -0.0626
 3656SOL    HW122427   0.186   0.871   3.072 -0.3704 -3.4744  1.1917
 3656SOL    HW222428   0.325   0.820   3.071 -0.9094  0.1745  1.1065
 3657SOL     OW22429   1.246   1.558   5.819  0.4460 -0.2931  0.2729
 3657SOL    HW122430   1.245   1.561   5.723  0.3445  0.7748  0.3047
 3657SOL    HW222431   1.342   1.557   5.828  0.1585 -1.6080  3.0667
 3658SOL     OW22432   4.412   4.579   9.058 -0.6308 -0.3956  0.0167
 3658SOL    HW122433   4.364   4.500   9.084  0.8900 -1.4469 -0.3873
 3658SOL    HW222434   4.504   4.555   9.067 -0.6902 -0.3070  0.8011
 3659SOL     OW22435   0.331   1.115   3.335  0.6330  0.0402 -0.2866
 3659SOL    HW122436   0.271   1.190   3.327  1.7576  1.1230  1.2999
 3659SOL    HW222437   0.318   1.089   3.426 -0.8763  0.1372 -0.4730
 3660SOL     OW22438   1.647   1.060   6.778  0.0303 -0.9720 -0.7210
 3660SOL    HW122439   1.722   1.006   6.801  1.2812  0.9553 -0.3114
 3660SOL    HW222440   1.663   1.145   6.819  1.9941 -0.7854 -1.9080
 3661SOL     OW22441   0.344   1.161  11.861  0.3091  0.2050  0.0165
 3661SOL    HW122442   0.385   1.089  11.812 -1.5437 -1.0692  0.3210
 3661SOL    HW222443   0.338   1.135  11.953  1.0466 -2.6613 -0.7460
 3662SOL     OW22444   3.812   4.323  15.206  0.8552 -0.3736  0.5776
 3662SOL    HW122445   3.875   4.395  15.199 -0.4444  1.0660  3.6348
 3662SOL    HW222446   3.871   4.253  15.235 -0.5050 -2.1586 -0.9859
 3663SOL     OW22447   2.727   1.614  10.258  0.3807  0.9035  0.5873
 3663SOL    HW122448   2.683   1.548  10.311 -1.1215 -0.7747 -2.7342
 3663SOL    HW222449   2.813   1.574  10.241  0.3956  1.0986  0.2058
 3664SOL     OW22450   4.702   3.147   2.773 -0.0331  0.1933  0.0155
 3664SOL    HW122451   4.711   3.112   2.684  0.0023  0.8736 -0.2558
 3664SOL    HW222452   4.655   3.095   2.837 -2.4377  0.8391 -1.2252
 3665SOL     OW22453   4.717   4.531   4.947  0.1327  0.2008  0.1461
 3665SOL    HW122454   0.005   4.461   5.012  0.0689 -0.1797 -0.2567
 3665SOL    HW222455   4.623   4.536   4.931  0.2155 -2.1975 -0.9416
 3666SOL     OW22456   1.056   3.361   2.372 -0.0289  0.1947  0.6272
 3666SOL    HW122457   1.075   3.455   2.366 -0.9152  0.5379  3.0915
 3666SOL    HW222458   0.975   3.365   2.423  0.6514 -0.3544  1.7314
 3667SOL     OW22459   2.513   2.112   4.490 -0.8271  0.1904  0.3657
 3667SOL    HW122460   2.509   2.049   4.562  0.3445  0.7292  0.8971
 3667SOL    HW222461   2.424   2.148   4.495 -0.9711 -0.5461  3.0702
 3668SOL     OW22462   3.595   4.548   8.364  0.0592 -0.5982  0.1375
 3668SOL    HW122463   3.611   4.495   8.443 -1.2356 -0.9509  0.1679
 3668SOL    HW222464   3.633   4.631   8.391 -0.3269 -0.4874  0.3461
 3669SOL     OW22465   1.446   4.377   2.906  0.0092 -0.5949  0.5269
 3669SOL    HW122466   1.398   4.409   2.982 -2.3937  0.8384 -1.6053
 3669SOL    HW222467   1.518   4.349   2.963 -0.3213  3.5718  2.9655
 3670SOL     OW22468   4.176   0.551   2.369  0.5509  0.2577  0.2900
 3670SOL    HW122469   4.198   0.469   2.412 -2.2508  0.0211  1.2366
 3670SOL    HW222470   4.167   0.533   2.275  2.4327  1.7316 -0.1674
 3671SOL     OW22471   1.948   4.386   3.764 -0.5373  0.0117  0.3574
 3671SOL    HW122472   1.905   4.334   3.832 -1.6448  1.2626  0.6385
 3671SOL    HW222473   1.889   4.364   3.692  0.2255 -1.3273  0.1419
 3672SOL     OW22474   0.498   3.036   4.158 -0.3063 -0.2156  0.4317
 3672SOL    HW122475   0.577   3.068   4.199 -1.5025  1.9538  1.0475
 3672SOL    HW222476   0.484   3.105   4.093  1.4647 -0.9069 -0.6777
 3673SOL     OW22477   2.408   1.816   6.237 -0.1122 -0.4481  0.1936
 3673SOL    HW122478   2.435   1.848   6.323 -0.9478  1.2913 -0.1912
 3673SOL    HW222479   2.489   1.775   6.207 -0.1222  0.1661 -0.6755
 3674SOL     OW22480   2.635   4.331  11.437 -0.4521 -0.0732  0.0949
 3674SOL    HW122481   2.548   4.370  11.446  0.3981  1.6053  1.1789
 3674SOL    HW222482   2.649   4.323  11.343 -0.3010  0.5319  0.0638
 3675SOL     OW22483   4.365   2.997   2.333 -0.3886  0.7946  0.0320
 3675SOL    HW122484   4.370   3.006   2.428 -0.6015 -0.7775  0.2021
 3675SOL    HW222485   4.349   2.903   2.323  3.0268  0.3115 -1.0881
 3676SOL     OW22486   1.923   0.080   8.960 -0.2863  0.4068  0.5521
 3676SOL    HW122487   1.833   0.079   8.993 -0.7763 -0.1818 -0.7947
 3676SOL    HW222488   1.938   4.710   8.936  1.3267  1.0812 -1.0067
 3677SOL     OW22489   4.644   2.725   3.821  0.2673 -0.1274  0.4855
 3677SOL    HW122490   4.610   2.639   3.798 -0.5826  0.2881  0.2214
 3677SOL    HW222491   0.013   2.720   3.787  1.1385  0.6872  2.6831
 3678SOL     OW22492   0.564   2.905   3.588  0.7121  0.2007  0.3059
 3678SOL    HW122493   0.482   2.944   3.618  0.2003  0.6718 -1.7032
 3678SOL    HW222494   0.567   2.948   3.503 -2.1032  0.8999  0.5450
 3679SOL     OW22495   0.163   1.124   8.266  0.1948 -0.5632 -0.0390
 3679SOL    HW122496   0.177   1.057   8.199  2.6484  0.1994 -0.2642
 3679SOL    HW222497   0.069   1.114   8.281 -0.2872  2.6083 -0.9340
 3680SOL     OW22498   1.643   1.783   9.642  0.2407  0.0930 -0.4463
 3680SOL    HW122499   1.724   1.747   9.676 -0.5005 -1.4589 -0.3074
 3680SOL    HW222500   1.582   1.757   9.711  0.7500 -3.8614 -1.5244
 3681SOL     OW22501   1.631   2.566   3.866 -0.4724 -0.2270 -0.6060
 3681SOL    HW122502   1.663   2.517   3.790  0.5173 -1.1966  0.4309
 3681SOL    HW222503   1.541   2.536   3.864 -0.6369  0.0619  2.3384
 3682SOL     OW22504   0.207   3.288   7.379 -0.6644 -0.2923  0.2219
 3682SOL    HW122505   0.185   3.223   7.446 -0.4309  0.6834  1.2303
 3682SOL    HW222506   0.289   3.331   7.402 -0.8077  0.0543  0.0842
 3683SOL     OW22507   2.810   0.856   2.273  0.6970 -0.8078  0.0158
 3683SOL    HW122508   2.721   0.851   2.237  1.4132 -1.7370 -1.6349
 3683SOL    HW222509   2.851   0.815   2.197 -1.5072  0.9496 -2.0954
 3684SOL     OW22510   3.904   1.495   6.603  0.1591  0.0770  0.2207
 3684SOL    HW122511   3.843   1.433   6.564 -2.1773  0.3432  3.4997
 3684SOL    HW222512   3.854   1.575   6.591 -2.0677 -1.0738  1.7744
 3685SOL     OW22513   3.527   0.307  17.023  0.0549  0.2596  0.3481
 3685SOL    HW122514   3.536   0.291  16.929  2.3521 -2.8174  1.1143
 3685SOL    HW222515   3.457   0.374  17.022  1.3448  1.6560  2.2309
 3686SOL     OW22516   4.319   2.752   0.074  0.0236 -0.3081  0.4145
 3686SOL    HW122517   4.339   2.845   0.062  0.4949 -0.4224  0.3062
 3686SOL    HW222518   4.370   2.717   0.002  1.3074  0.3376  1.0152
 3687SOL     OW22519   4.209   0.963  12.638 -0.4446  0.0351  0.2637
 3687SOL    HW122520   4.256   0.953  12.554 -2.8215  1.7771 -1.2699
 3687SOL    HW222521   4.123   0.988  12.606  0.4953  0.0121 -2.3277
 3688SOL     OW22522   2.800   3.174  15.815  0.0648  0.5562 -0.2421
 3688SOL    HW122523   2.808   3.256  15.765 -2.1929  1.4399  0.8345
 3688SOL    HW222524   2.768   3.210  15.898 -1.8093 -1.8052  0.0384
 3689SOL     OW22525   0.113   0.551   5.810 -0.5697 -0.5163  0.1708
 3689SOL    HW122526   0.062   0.615   5.860 -0.5514  0.5163 -1.1114
 3689SOL    HW222527   0.162   0.620   5.765  0.6757  0.2194  2.6846
 3690SOL     OW22528   1.751   0.333   9.194  0.0407 -0.7828 -0.0599
 3690SOL    HW122529   1.846   0.330   9.207  0.0057  2.2150  0.9014
 3690SOL    HW222530   1.723   0.364   9.280 -1.1351  2.4059 -1.6037
 3691SOL     OW22531   3.175   4.008   2.757 -0.1127 -0.0930 -0.0185
 3691SOL    HW122532   3.208   3.943   2.695  1.4111  1.1545 -0.5153
 3691SOL    HW222533   3.209   3.983   2.843  1.9492 -1.1334 -1.1215
 3692SOL     OW22534   3.955   2.540   8.555 -0.0587  0.2203  0.3441
 3692SOL    HW122535   3.983   2.524   8.645 -3.1925 -1.9508  0.9480
 3692SOL    HW222536   4.040   2.563   8.517 -0.9170  0.6195 -1.3359
 3693SOL     OW22537   3.948   4.314   9.404  0.5364  0.0553 -1.1194
 3693SOL    HW122538   3.915   4.403   9.409  1.0310 -0.0291  3.1726
 3693SOL    HW222539   3.864   4.272   9.420 -0.0688  0.6912 -2.5947
 3694SOL     OW22540   4.064   1.949   2.438 -0.9601 -0.0533 -0.2287
 3694SOL    HW122541   4.102   1.983   2.519 -0.2260 -2.7763  0.5681
 3694SOL    HW222542   4.142   1.926   2.388 -1.0614  0.7546 -0.7685
 3695SOL     OW22543   1.082   3.585   1.785  0.1503 -1.0916 -0.9608
 3695SOL    HW122544   1.095   3.658   1.846  0.4783 -1.5960 -0.4222
 3695SOL    HW222545   0.999   3.546   1.812 -0.5284  0.5117 -0.7503
 3696SOL     OW22546   2.933   1.270   7.101 -0.3507  0.1976 -0.3405
 3696SOL    HW122547   2.997   1.295   7.168 -0.9935  1.4464 -0.1925
 3696SOL    HW222548   2.873   1.345   7.107 -2.4677 -1.5830  1.0227
 3697SOL     OW22549   4.288   3.105   6.051  0.1814  0.3507  0.2618
 3697SOL    HW122550   4.261   3.177   6.108 -0.8510 -0.2484  0.5313
 3697SOL    HW222551   4.253   3.134   5.967  0.6602  2.4053  0.7579
 3698SOL     OW22552   3.582   2.597   4.812  0.2233  0.4106 -0.4105
 3698SOL    HW122553   3.552   2.674   4.860 -2.3440 -0.5416 -0.4838
 3698SOL    HW222554   3.673   2.601   4.842  0.4399  0.6075 -1.0943
 3699SOL     OW22555   1.626   2.353  16.014  0.0833 -0.7156  0.3547
 3699SOL    HW122556   1.695   2.302  16.056  0.4339  0.2235  0.9184
 3699SOL    HW222557   1.553   2.342  16.075 -1.6778  0.7795 -1.4820
 3700SOL     OW22558   2.667   1.149   3.683  0.0156  0.2526 -0.5289
 3700SOL    HW122559   2.635   1.119   3.768  1.0696  3.1311  0.8635
 3700SOL    HW222560   2.628   1.075   3.636 -0.5154 -0.6144  1.2745
 3701SOL     OW22561   2.244   2.805   0.623 -0.2773  0.1050  0.0278
 3701SOL    HW122562   2.332   2.813   0.585 -1.1746 -0.3746 -2.1241
 3701SOL    HW222563   2.210   2.729   0.577  2.0068 -1.4313  0.8879
 3702SOL     OW22564   0.725   3.155   2.909 -0.2873  0.2075  0.1350
 3702SOL    HW122565   0.686   3.205   2.981 -0.0413  0.4770  0.0792
 3702SOL    HW222566   0.646   3.173   2.858 -0.2983  0.5094  0.2578
 3703SOL     OW22567   3.947   2.527   7.327 -0.2350  0.3211 -0.4290
 3703SOL    HW122568   4.035   2.502   7.299  0.0312  1.0063 -0.1838
 3703SOL    HW222569   3.946   2.611   7.281 -1.4554  1.7202  2.1534
 3704SOL     OW22570   0.840   0.744  12.689  0.1046  0.2431  0.3988
 3704SOL    HW122571   0.914   0.764  12.746  2.1503 -0.2290 -2.0924
 3704SOL    HW222572   0.873   0.672  12.635  1.5596  3.3198 -2.7862
 3705SOL     OW22573   1.227   3.600  11.072  0.1298  0.0581  0.4340
 3705SOL    HW122574   1.253   3.646  10.992 -0.8004  0.5066  0.3895
 3705SOL    HW222575   1.192   3.520  11.033 -0.8227  0.5515  0.2776
 3706SOL     OW22576   2.988   0.478   8.019 -0.1152 -0.1615  0.0093
 3706SOL    HW122577   2.977   0.573   8.021 -1.8984 -0.2925 -3.4624
 3706SOL    HW222578   2.963   0.456   8.109  0.0883 -2.2804 -0.4587
 3707SOL     OW22579   2.444   1.955   8.195 -0.0653 -0.0723  0.0589
 3707SOL    HW122580   2.519   1.895   8.189  0.2927  0.2369  1.3248
 3707SOL    HW222581   2.489   2.038   8.207  0.6819 -0.6664  1.4451
 3708SOL     OW22582   0.635   1.400   3.410 -0.1246 -0.1665 -0.6946
 3708SOL    HW122583   0.669   1.429   3.325 -0.7707 -0.1014 -0.9327
 3708SOL    HW222584   0.619   1.306   3.398  0.8637 -0.5075  0.5612
 3709SOL     OW22585   1.899   2.607   2.626  0.2470 -0.0763  0.1015
 3709SOL    HW122586   1.812   2.612   2.667  0.8452 -2.5572  1.6871
 3709SOL    HW222587   1.876   2.617   2.533  1.7934 -0.8632 -0.3516
 3710SOL     OW22588   2.900   2.163   7.351  0.4540 -0.6255  0.2743
 3710SOL    HW122589   2.986   2.187   7.316  0.1885  1.6118  1.1849
 3710SOL    HW222590   2.874   2.089   7.297 -0.8965 -1.0420  1.4817
 3711SOL     OW22591   3.457   3.076   2.534  0.9086  0.5282 -0.4929
 3711SOL    HW122592   3.393   3.021   2.579  0.3679  1.1860 -0.4553
 3711SOL    HW222593   3.404   3.154   2.518  1.2527  0.5986 -1.2897
 3712SOL     OW22594   4.709   3.445   8.834 -0.0222 -0.5294  0.1249
 3712SOL    HW122595   0.002   3.533   8.801 -2.1128  0.0771  0.8491
 3712SOL    HW222596   4.636   3.423   8.776  0.9770 -0.1636 -1.2516
 3713SOL     OW22597   1.859   3.689   4.476  0.1359  0.5021 -0.1670
 3713SOL    HW122598   1.827   3.677   4.566 -3.7015  0.5893 -1.5420
 3713SOL    HW222599   1.933   3.748   4.472 -1.4010  2.3679 -0.8563
 3714SOL     OW22600   1.088   1.781   7.561  0.1176 -0.4098  0.3668
 3714SOL    HW122601   1.034   1.809   7.488  0.8763  2.5211  0.9241
 3714SOL    HW222602   1.105   1.689   7.538  1.0484  0.0133 -0.6278
 3715SOL     OW22603   3.951   1.734  13.089  0.3219 -0.3597  0.0552
 3715SOL    HW122604   4.022   1.746  13.025 -1.5748  1.4680 -1.6889
 3715SOL    HW222605   3.902   1.814  13.071  0.5522 -0.1058  0.5415
 3716SOL     OW22606   1.805   3.653   6.697 -0.4344  0.1028 -0.1988
 3716SOL    HW122607   1.817   3.661   6.603  2.6811  1.2731  0.2969
 3716SOL    HW222608   1.853   3.730   6.728  1.6947 -1.3991  0.2661
 3717SOL     OW22609   3.208   0.076  10.881 -0.3301  0.5008  0.6047
 3717SOL    HW122610   3.163   0.112  10.957  0.3796 -1.0731  1.7660
 3717SOL    HW222611   3.209   4.705  10.904  1.1690 -0.4007 -3.0163
 3718SOL     OW22612   2.797   2.392   2.575 -0.6047 -0.4550 -0.1030
 3718SOL    HW122613   2.742   2.467   2.595  0.9248  0.8151 -0.6362
 3718SOL    HW222614   2.876   2.419   2.622  0.9566  0.2069 -3.0605
 3719SOL     OW22615   1.120   3.503   2.698 -0.2634 -0.5241 -0.0906
 3719SOL    HW122616   1.049   3.543   2.748  0.9178  1.8451 -0.2892
 3719SOL    HW222617   1.094   3.542   2.614  3.4012  0.2806 -0.8608
 3720SOL     OW22618   2.294   1.943   5.531  0.4520  0.0966  0.0945
 3720SOL    HW122619   2.230   1.873   5.542 -0.6443  0.7027 -2.3429
 3720SOL    HW222620   2.333   1.928   5.445  2.0567  2.9201  0.3379
 3721SOL     OW22621   4.651   0.916   4.479 -0.6779 -0.1348  0.0864
 3721SOL    HW122622   4.688   1.001   4.455 -1.1541  0.1268  0.2761
 3721SOL    HW222623   4.599   0.890   4.403  0.0876 -0.5577 -0.2911
 3722SOL     OW22624   0.453   4.487   5.475 -0.0111 -0.1523  0.3802
 3722SOL    HW122625   0.413   4.555   5.529 -1.2887 -0.4139 -0.2506
 3722SOL    HW222626   0.541   4.524   5.473  0.9150 -2.2191  1.7485
 3723SOL     OW22627   3.840   0.451  14.476  0.1182  0.0592  0.2914
 3723SOL    HW122628   3.910   0.418  14.532  0.2613  0.4376  0.3389
 3723SOL    HW222629   3.855   0.406  14.393  1.6086  0.7186  0.2042
 3724SOL     OW22630   2.490   1.094  11.464 -0.0076  0.2467 -0.1957
 3724SOL    HW122631   2.444   1.012  11.445  0.1249 -0.3919  2.3221
 3724SOL    HW222632   2.569   1.055  11.501  1.7302  2.0954 -1.9134
 3725SOL     OW22633   1.070   1.382   6.914  0.1144  0.0004 -0.7006
 3725SOL    HW122634   1.038   1.450   6.854 -1.4040 -2.1342 -2.3120
 3725SOL    HW222635   1.159   1.368   6.880 -0.0280 -0.8639 -0.7260
 3726SOL     OW22636   4.519   4.105   1.573 -0.9387  0.4787 -0.0906
 3726SOL    HW122637   4.435   4.067   1.601 -0.1086  0.1757  2.0344
 3726SOL    HW222638   4.577   4.032   1.594 -0.1786  1.0104 -0.3638
 3727SOL     OW22639   3.325   1.935   2.820 -0.0974  0.2993 -0.7870
 3727SOL    HW122640   3.255   1.896   2.768  0.0159 -0.8567 -0.1019
 3727SOL    HW222641   3.376   1.858   2.848 -1.1120  0.3354  1.1364
 3728SOL     OW22642   1.213   3.831   2.536  0.8051 -0.3121 -0.2453
 3728SOL    HW122643   1.161   3.903   2.571  1.0830  0.2682 -1.0446
 3728SOL    HW222644   1.206   3.843   2.442  4.0711 -0.1934 -0.4615
 3729SOL     OW22645   2.971   3.145   3.944  0.2626  0.1402  0.2146
 3729SOL    HW122646   3.067   3.142   3.940  0.2796 -0.3052  0.8020
 3729SOL    HW222647   2.946   3.095   3.867  0.5365  0.2476  0.0564
 3730SOL     OW22648   4.631   3.483   0.024  0.3096  0.6771 -0.0480
 3730SOL    HW122649   4.632   3.505   0.117  0.0671 -1.0927  0.3674
 3730SOL    HW222650   4.537   3.469   0.015  0.3154  1.4744 -1.3544
 3731SOL     OW22651   4.061   0.651  13.112  0.1760  0.9448 -0.3013
 3731SOL    HW122652   4.003   0.634  13.037 -0.9270 -0.1803  0.8178
 3731SOL    HW222653   3.993   0.651  13.179 -1.0346 -0.1964 -1.5261
 3732SOL     OW22654   3.897   0.355   7.897  0.2525  0.3712  0.1458
 3732SOL    HW122655   3.971   0.370   7.838 -0.0606  0.7768 -0.1496
 3732SOL    HW222656   3.828   0.325   7.837  0.9849  1.1481 -1.0870
 3733SOL     OW22657   3.827   1.568  16.025  0.1264 -0.3626  0.8601
 3733SOL    HW122658   3.783   1.507  15.966  0.0709  0.3715  0.1399
 3733SOL    HW222659   3.808   1.534  16.112 -3.0457  2.1957  1.1769
 3734SOL     OW22660   2.394   0.446   7.471 -0.0956 -0.0795  0.2491
 3734SOL    HW122661   2.414   0.353   7.482 -2.3493 -0.8741 -2.3103
 3734SOL    HW222662   2.446   0.456   7.391  1.0630 -1.8340  0.7986
 3735SOL     OW22663   1.957   0.351   2.536 -0.3394 -0.3065  0.0862
 3735SOL    HW122664   1.870   0.388   2.549 -0.1464 -0.1265  0.9266
 3735SOL    HW222665   1.955   0.327   2.444 -2.9837  0.4962 -0.0473
 3736SOL     OW22666   2.279   4.148   3.468 -0.2081  0.1703  0.5794
 3736SOL    HW122667   2.209   4.189   3.519 -2.2341  0.0369 -2.0444
 3736SOL    HW222668   2.229   4.099   3.402 -0.0212  0.1455  0.4590
 3737SOL     OW22669   1.532   2.897   9.395 -0.2698  0.3859 -0.3827
 3737SOL    HW122670   1.555   2.837   9.325  0.9179 -1.3053  1.4629
 3737SOL    HW222671   1.475   2.948   9.337 -1.8589 -1.0323 -0.0525
 3738SOL     OW22672   3.919   3.833  13.104 -0.0134  0.0427  0.0004
 3738SOL    HW122673   3.933   3.843  13.198  0.3196  0.7253 -0.1259
 3738SOL    HW222674   3.952   3.918  13.075  0.8668 -1.3272 -3.0259
 3739SOL     OW22675   3.280   2.070  17.660  0.2982 -0.4123 -0.0787
 3739SOL    HW122676   3.255   2.044   0.061 -0.9891  0.1809 -0.2625
 3739SOL    HW222677   3.325   1.990  17.631  2.8025  0.5755  1.1475
 3740SOL     OW22678   2.737   3.525   2.726 -0.1912 -0.1180 -0.6949
 3740SOL    HW122679   2.823   3.557   2.700 -0.4614  2.0411  1.0957
 3740SOL    HW222680   2.736   3.443   2.676 -0.0885  0.8541 -2.3093
 3741SOL     OW22681   0.304   1.739   7.896  0.7768  0.3629  0.2103
 3741SOL    HW122682   0.256   1.656   7.896 -1.9233  1.9116  4.2496
 3741SOL    HW222683   0.292   1.754   7.990  0.9815  2.8755 -0.1596
 3742SOL     OW22684   0.394   0.325   4.075 -0.1077  0.3616 -0.5913
 3742SOL    HW122685   0.338   0.256   4.110  0.0216  0.8838  0.6247
 3742SOL    HW222686   0.478   0.288   4.102 -0.4146  0.3455  0.3365
 3743SOL     OW22687   2.375   4.323   4.809 -0.3667  0.4337  0.3602
 3743SOL    HW122688   2.464   4.346   4.784 -0.0432 -0.1203  1.0426
 3743SOL    HW222689   2.347   4.269   4.735  1.9683  2.2828 -1.8780
 3744SOL     OW22690   2.138   4.100   3.741  0.6763  0.5632  0.8312
 3744SOL    HW122691   2.128   4.068   3.831 -0.6310  1.3431  0.9629
 3744SOL    HW222692   2.044   4.092   3.724  0.9211  0.9898 -0.7046
 3745SOL     OW22693   0.484   1.305   7.604 -0.0406 -0.1621  0.3207
 3745SOL    HW122694   0.395   1.328   7.579 -0.0507  0.3440  0.8107
 3745SOL    HW222695   0.490   1.221   7.559  1.1784 -1.5343  3.0325
 3746SOL     OW22696   1.307   0.951  10.483  0.2442 -0.3858  0.4146
 3746SOL    HW122697   1.283   0.912  10.567 -2.1225 -1.8500 -0.9451
 3746SOL    HW222698   1.397   0.976  10.506  0.4681 -0.5291 -0.3033
 3747SOL     OW22699   3.015   3.601   4.288  0.2003 -0.2785  0.3353
 3747SOL    HW122700   3.066   3.673   4.251 -0.0701 -1.6231 -2.6425
 3747SOL    HW222701   3.061   3.581   4.370 -0.4422  1.7622  1.2078
 3748SOL     OW22702   0.270   0.638   5.421  0.4736 -0.2498  0.4119
 3748SOL    HW122703   0.307   0.552   5.441  1.8154 -0.0100 -1.0562
 3748SOL    HW222704   0.176   0.622   5.416  0.5079  0.4615 -2.5838
 3749SOL     OW22705   3.092   1.374   4.539  0.2323  0.0887 -0.6766
 3749SOL    HW122706   3.150   1.420   4.478 -2.2438  0.7757 -2.4756
 3749SOL    HW222707   3.052   1.320   4.470 -1.4288  1.4711 -0.7867
 3750SOL     OW22708   2.586   0.931   3.522 -0.2809  0.0337  0.1889
 3750SOL    HW122709   2.645   0.868   3.564  0.7014  2.0593  1.8477
 3750SOL    HW222710   2.501   0.895   3.546 -0.6688  0.8679  0.0448
 3751SOL     OW22711   2.199   0.120   6.549 -0.1454  0.1519 -0.0130
 3751SOL    HW122712   2.277   0.070   6.525 -1.6117 -2.5509  0.9582
 3751SOL    HW222713   2.239   0.206   6.533 -1.9577  1.4997  2.6068
 3752SOL     OW22714   3.566   3.415  14.537 -0.8488 -0.1656  0.5007
 3752SOL    HW122715   3.637   3.363  14.572 -0.5192 -0.1278 -0.1106
 3752SOL    HW222716   3.514   3.443  14.613 -1.5202 -0.7522  0.2595
 3753SOL     OW22717   3.401   1.949   2.470  0.0127  0.5807 -0.0404
 3753SOL    HW122718   3.398   1.854   2.463  2.2506  0.3677  1.8248
 3753SOL    HW222719   3.455   1.964   2.548  1.0610 -1.8237 -0.3137
 3754SOL     OW22720   0.580   1.803   2.963 -0.3809 -0.6835  0.0585
 3754SOL    HW122721   0.571   1.833   2.872  2.2285 -2.3609 -0.7620
 3754SOL    HW222722   0.615   1.716   2.942  1.3015 -0.1551  0.7147
 3755SOL     OW22723   2.083   1.848   4.240 -0.4322  0.0943 -0.0098
 3755SOL    HW122724   2.013   1.833   4.177  0.0441 -2.6088  0.1117
 3755SOL    HW222725   2.097   1.941   4.221 -2.2328 -0.0012 -1.7861
 3756SOL     OW22726   2.503   1.965   2.908 -0.2083 -0.2018 -0.1071
 3756SOL    HW122727   2.594   1.978   2.881  0.1630  1.1262  1.7701
 3756SOL    HW222728   2.504   1.869   2.909  1.7139 -0.1857 -0.4541
 3757SOL     OW22729   4.681   4.470   7.274 -0.9690  0.3201  0.6207
 3757SOL    HW122730   4.615   4.519   7.226 -1.4678 -0.1289  0.8440
 3757SOL    HW222731   4.631   4.409   7.329  1.4190 -2.8174 -0.6712
 3758SOL     OW22732   2.682   0.076  10.655 -0.1691 -0.3280 -0.6627
 3758SOL    HW122733   2.676   0.112  10.566  0.3905 -0.5202 -0.7760
 3758SOL    HW222734   2.696   0.160  10.699 -0.8316 -0.3279 -0.4483
 3759SOL     OW22735   2.504   1.820   3.329 -0.2890  0.1904 -0.3184
 3759SOL    HW122736   2.424   1.789   3.370 -0.5311  0.1341 -0.8296
 3759SOL    HW222737   2.531   1.876   3.402 -0.2751  0.1599 -0.3002
 3760SOL     OW22738   0.051   1.493   5.969  0.3046 -0.2012 -0.1275
 3760SOL    HW122739   4.708   1.525   5.906 -0.7173  1.6441  1.8350
 3760SOL    HW222740   0.032   1.552   6.042 -0.9475  0.1187 -0.7270
 3761SOL     OW22741   0.207   2.786   0.088 -0.1392  0.5234 -0.0328
 3761SOL    HW122742   0.179   2.714   0.146  1.1263  0.0055 -0.0595
 3761SOL    HW222743   0.252   2.841   0.152  1.6880 -2.9508  1.6797
 3762SOL     OW22744   4.497   3.484   8.686  0.7316  0.1041 -0.5684
 3762SOL    HW122745   4.427   3.549   8.695  2.1575  1.2434  2.2831
 3762SOL    HW222746   4.482   3.452   8.598 -1.4208  1.7429 -0.7905
 3763SOL     OW22747   3.249   1.999   3.084 -0.0197 -0.2880 -0.2928
 3763SOL    HW122748   3.295   2.003   3.000  0.5875 -0.2413  0.0392
 3763SOL    HW222749   3.325   2.020   3.138 -0.3954 -0.0226  0.1354
 3764SOL     OW22750   2.324   1.179  16.614  0.2100  0.4895 -0.0282
 3764SOL    HW122751   2.289   1.103  16.568  0.6754  1.6945 -2.3687
 3764SOL    HW222752   2.396   1.209  16.559  0.7380  1.3491  1.1282
 3765SOL     OW22753   3.369   3.790   2.045  0.1023 -0.2661 -0.2103
 3765SOL    HW122754   3.388   3.732   1.972  1.2006 -0.1902  0.0191
 3765SOL    HW222755   3.442   3.852   2.049  0.0523 -0.1494 -1.1690
 3766SOL     OW22756   1.429   2.978   2.490  0.5027  0.0823  0.6598
 3766SOL    HW122757   1.390   3.055   2.447 -0.7536 -1.2306 -0.5618
 3766SOL    HW222758   1.357   2.938   2.539 -1.9561  3.8388  0.1749
 3767SOL     OW22759   0.576   2.543  10.526 -0.8215 -0.3370  0.9272
 3767SOL    HW122760   0.566   2.631  10.564  2.2262 -0.2551  1.5820
 3767SOL    HW222761   0.610   2.505  10.607  0.9794 -0.8596 -0.0671
 3768SOL     OW22762   2.806   4.661  16.709 -0.3936 -0.5637  0.2571
 3768SOL    HW122763   2.745   4.667  16.782  0.5330  0.6640  0.9136
 3768SOL    HW222764   2.857   0.019  16.723  0.0218 -0.6952 -0.5149
 3769SOL     OW22765   4.530   3.447  13.862  0.2852  0.0184  0.2934
 3769SOL    HW122766   4.591   3.480  13.927 -0.2690  0.3561  0.6415
 3769SOL    HW222767   4.585   3.404  13.797  1.0965  0.3061  0.7904
 3770SOL     OW22768   3.430   4.583   7.746  0.6136  0.6025 -0.6749
 3770SOL    HW122769   3.419   4.670   7.785  1.5866  0.2040  0.4724
 3770SOL    HW222770   3.352   4.537   7.776  0.6227 -0.5125 -2.3795
 3771SOL     OW22771   3.966   2.152   4.426 -0.3052 -0.5501  0.3022
 3771SOL    HW122772   3.875   2.178   4.445 -0.3455 -0.4247 -0.0647
 3771SOL    HW222773   3.968   2.070   4.377 -1.6941 -1.5353  1.9212
 3772SOL     OW22774   3.953   0.531   4.108 -0.7396  0.6161  0.5009
 3772SOL    HW122775   4.017   0.602   4.097  0.2435 -0.3494  0.0575
 3772SOL    HW222776   3.878   0.584   4.081 -1.2743 -0.7022 -0.5823
 3773SOL     OW22777   1.765   0.701   2.612  0.1249  0.3104 -0.0777
 3773SOL    HW122778   1.729   0.618   2.582  0.3999  0.0180  0.4188
 3773SOL    HW222779   1.697   0.758   2.576  0.1690 -0.7138 -1.7524
 3774SOL     OW22780   4.386   2.255  17.036 -0.2327  0.2057  0.1183
 3774SOL    HW122781   4.392   2.198  16.960 -2.2927 -0.2082  0.2710
 3774SOL    HW222782   4.301   2.294  17.017 -1.4121 -2.5847 -0.3450
 3775SOL     OW22783   2.147   1.115   1.354 -0.0275 -0.5689  0.1342
 3775SOL    HW122784   2.067   1.164   1.335  0.2061 -0.4723 -0.5910
 3775SOL    HW222785   2.175   1.105   1.263  1.7486 -0.9578  0.7104
 3776SOL     OW22786   4.299   4.026   4.140  0.5472 -0.9024  0.3068
 3776SOL    HW122787   4.320   4.119   4.149  2.1288 -1.2820  0.4669
 3776SOL    HW222788   4.330   4.006   4.051 -0.0635 -1.8841  0.3161
 3777SOL     OW22789   0.160   4.615  16.066 -0.0809  0.3540 -0.2500
 3777SOL    HW122790   0.073   4.581  16.044 -0.0558  0.7260 -0.9279
 3777SOL    HW222791   0.217   4.597  15.991  0.5259  1.5947 -0.0729
 3778SOL     OW22792   4.299   1.200   3.373 -0.2469  0.2727 -0.5770
 3778SOL    HW122793   4.214   1.168   3.402 -0.0132  1.7486  1.7225
 3778SOL    HW222794   4.276   1.292   3.358  0.6836  0.8551  1.5501
 3779SOL     OW22795   3.875   4.404   5.393  0.3036 -0.1830  0.0193
 3779SOL    HW122796   3.930   4.339   5.350 -1.3166 -2.1363  0.9257
 3779SOL    HW222797   3.795   4.404   5.340  0.6100  0.8503 -0.4554
 3780SOL     OW22798   4.533   0.883  14.504 -0.1914  0.0352  0.3280
 3780SOL    HW122799   4.528   0.900  14.598 -3.1363  0.0133  0.1682
 3780SOL    HW222800   4.480   0.804  14.491 -0.2414  0.1556 -0.2292
 3781SOL     OW22801   4.250   4.226   4.947 -0.2118  0.8545  0.0542
 3781SOL    HW122802   4.195   4.168   4.895  1.3304  2.3214 -3.2364
 3781SOL    HW222803   4.184   4.282   4.988 -0.2387 -0.1478  1.3778
 3782SOL     OW22804   3.116   2.299   8.993  0.7202  0.4865  0.9279
 3782SOL    HW122805   3.196   2.255   9.019  1.6057  1.8422  0.4801
 3782SOL    HW222806   3.123   2.379   9.044 -1.0781  1.7210 -0.7485
 3783SOL     OW22807   4.144   1.097   6.042  0.4650 -0.6599 -0.0275
 3783SOL    HW122808   4.145   1.004   6.018  2.2663  0.0337 -2.7256
 3783SOL    HW222809   4.220   1.125   5.990  0.0056 -1.3910 -1.0978
 3784SOL     OW22810   1.478   1.179   0.258  0.8424 -0.0682  0.1998
 3784SOL    HW122811   1.519   1.263   0.282 -0.3569  0.2193  1.2210
 3784SOL    HW222812   1.402   1.217   0.215 -0.0252 -1.8681  0.1628
 3785SOL     OW22813   4.240   2.138  15.602 -0.0919 -0.0071  0.0401
 3785SOL    HW122814   4.309   2.204  15.594  0.1681 -0.3117 -0.2273
 3785SOL    HW222815   4.284   2.055  15.622 -0.5268 -0.4497 -0.8536
 3786SOL     OW22816   2.193   1.905   1.529  0.4636 -0.2969 -0.4867
 3786SOL    HW122817   2.289   1.901   1.525  0.4962 -1.7137  1.9931
 3786SOL    HW222818   2.170   1.943   1.444 -2.2050  0.7434  0.7147
 3787SOL     OW22819   0.939   4.141   2.091  0.4085  0.2813  0.5126
 3787SOL    HW122820   0.955   4.171   2.180 -0.5736  2.9989 -0.2347
 3787SOL    HW222821   0.875   4.206   2.062  0.9882  0.7162  0.2116
 3788SOL     OW22822   2.470   0.069   3.574 -0.4040 -0.1227 -0.4902
 3788SOL    HW122823   2.458   4.699   3.547  1.3887 -0.4060 -0.3377
 3788SOL    HW222824   2.389   0.110   3.542 -0.1860  2.5818  2.3839
 3789SOL     OW22825   4.122   3.862   5.464 -0.8012  0.6186 -0.1400
 3789SOL    HW122826   4.127   3.936   5.403  0.9388 -0.5356 -1.3844
 3789SOL    HW222827   4.144   3.904   5.548  0.4211 -0.6114  0.1564
 3790SOL     OW22828   0.397   2.506   6.653 -0.5791 -0.0662 -0.3011
 3790SOL    HW122829   0.344   2.443   6.604 -0.6510 -1.1459  1.1836
 3790SOL    HW222830   0.334   2.578   6.658  0.5416  0.8375  0.8191
 3791SOL     OW22831   1.848   3.000  16.110  0.1692  0.0478  0.1771
 3791SOL    HW122832   1.916   2.989  16.044 -0.3040  0.9378 -0.4551
 3791SOL    HW222833   1.859   2.926  16.169 -2.5804 -1.5499 -1.3302
 3792SOL     OW22834   4.498   2.359   4.594 -0.3908  0.3417  0.3764
 3792SOL    HW122835   4.496   2.398   4.507  1.3303  0.0243  0.1963
 3792SOL    HW222836   4.406   2.343   4.612 -0.1876 -1.3745 -0.1194
 3793SOL     OW22837   1.333   0.356   0.729  0.2074  0.2031 -0.0446
 3793SOL    HW122838   1.329   0.355   0.824  1.0050  1.2460  0.0012
 3793SOL    HW222839   1.239   0.369   0.719  0.1324 -0.2634  0.0855
 3794SOL     OW22840   4.455   1.139   3.593  0.0948  0.0640 -0.0715
 3794SOL    HW122841   4.455   1.230   3.621  0.0577  0.1237 -0.2671
 3794SOL    HW222842   4.385   1.139   3.527  1.1614 -0.3357 -1.2192
 3795SOL     OW22843   2.659   4.341   2.101  0.0981  0.1583 -0.0781
 3795SOL    HW122844   2.726   4.292   2.053 -0.2861 -1.0383  0.5985
 3795SOL    HW222845   2.591   4.273   2.099  1.5363 -1.2787 -0.0201
 3796SOL     OW22846   0.339   2.969   3.287 -0.2619  0.0619  0.2861
 3796SOL    HW122847   0.288   2.890   3.303 -1.1527  0.2116 -1.7707
 3796SOL    HW222848   0.404   2.922   3.235  0.0275 -2.1063  2.6198
 3797SOL     OW22849   3.890   0.129   9.563 -0.0743  0.1811  0.1294
 3797SOL    HW122850   3.820   0.075   9.601 -2.4703  2.0048 -1.6596
 3797SOL    HW222851   3.926   0.174   9.639 -0.6455  0.2287  0.3765
 3798SOL     OW22852   0.502   4.374   8.623  0.0546 -0.1536 -0.0584
 3798SOL    HW122853   0.549   4.435   8.681 -0.5563  0.5173 -0.2786
 3798SOL    HW222854   0.433   4.339   8.679 -0.3373 -2.1509 -1.7751
 3799SOL     OW22855   2.118   0.176  15.460 -0.5281  0.1561 -0.1573
 3799SOL    HW122856   2.102   0.187  15.366  1.3414 -1.6576 -0.6940
 3799SOL    HW222857   2.051   0.110  15.474 -0.7573  1.0370  2.8863
 3800SOL     OW22858   2.103   2.568   9.695 -0.4042  0.0322  0.5807
 3800SOL    HW122859   2.013   2.579   9.663 -0.2616  0.9535  0.5120
 3800SOL    HW222860   2.084   2.524   9.779  3.4611  0.7738  1.8571
 3801SOL     OW22861   4.342   2.733   2.374 -0.0291  0.5101 -0.5110
 3801SOL    HW122862   4.265   2.685   2.343 -0.4750 -0.3428  1.9621
 3801SOL    HW222863   4.330   2.730   2.469  0.3152  0.9084 -0.4552
 3802SOL     OW22864   0.270   2.133   7.800 -0.4974 -0.0059 -0.1440
 3802SOL    HW122865   0.244   2.223   7.778 -0.0900  0.1975  0.1968
 3802SOL    HW222866   0.289   2.091   7.717  1.1015  1.6653 -0.6229
 3803SOL     OW22867   1.088   0.063   0.583 -0.1225 -0.0330  0.0238
 3803SOL    HW122868   1.129   0.098   0.504  1.3507 -0.4018  0.6296
 3803SOL    HW222869   0.995   0.084   0.569 -0.4398 -0.0380  2.2246
 3804SOL     OW22870   1.198   0.561   8.108  0.0107  0.2028  0.2706
 3804SOL    HW122871   1.248   0.486   8.139 -0.4959  1.6866  4.6207
 3804SOL    HW222872   1.156   0.585   8.191 -0.2941 -0.9047  0.4360
 3805SOL     OW22873   3.212   4.099   3.703  0.1125  0.1516 -0.5099
 3805SOL    HW122874   3.134   4.124   3.654  1.4230  2.7401 -1.2472
 3805SOL    HW222875   3.234   4.185   3.738  0.3192 -0.8565  1.8656
 3806SOL     OW22876   4.597   4.583   3.220 -0.1836 -0.4551 -0.2773
 3806SOL    HW122877   4.560   4.504   3.258  0.5206  1.2874  4.0355
 3806SOL    HW222878   4.519   4.633   3.195 -1.3670 -1.7999  0.7395
 3807SOL     OW22879   1.283   3.082   5.419 -0.1074 -0.0480 -0.1678
 3807SOL    HW122880   1.207   3.078   5.476  1.6025 -2.5253  1.9355
 3807SOL    HW222881   1.265   3.029   5.341  0.3752  0.5209 -0.6715
 3808SOL     OW22882   2.870   0.900  16.780 -0.1984 -0.1051  0.3572
 3808SOL    HW122883   2.938   0.930  16.841  1.1375  0.5674 -1.4687
 3808SOL    HW222884   2.862   0.810  16.812  1.3610 -0.0327  0.9549
 3809SOL     OW22885   0.560   1.302  17.115 -0.0620 -0.0236 -0.7365
 3809SOL    HW122886   0.609   1.383  17.098 -2.5076  1.7033  0.4990
 3809SOL    HW222887   0.510   1.329  17.191 -1.1130  1.3095 -1.8965
 3810SOL     OW22888   2.877   2.993  15.117 -0.3071 -0.0836 -0.2245
 3810SOL    HW122889   2.897   3.015  15.027  0.6472  0.3823  0.0959
 3810SOL    HW222890   2.968   2.985  15.149 -0.4048 -0.7285 -0.1023
 3811SOL     OW22891   0.204   1.747  11.393  0.2991 -0.1586  0.3975
 3811SOL    HW122892   0.293   1.749  11.427  0.2699  1.7302  0.3690
 3811SOL    HW222893   0.155   1.781  11.469 -2.6994  0.6598 -1.8819
 3812SOL     OW22894   0.121   2.407   2.333  0.4258  0.0929  0.3204
 3812SOL    HW122895   0.175   2.335   2.367 -0.2438 -0.9594 -0.8596
 3812SOL    HW222896   0.098   2.388   2.242  1.5853  1.0244 -0.1606
 3813SOL     OW22897   3.111   1.293   3.844 -0.3648 -0.1396  0.1269
 3813SOL    HW122898   3.144   1.370   3.797 -2.9965  1.6589  1.2158
 3813SOL    HW222899   3.050   1.337   3.904  0.6999  1.1924  0.2363
 3814SOL     OW22900   0.699   0.442   6.810 -0.1905  0.3122 -0.2955
 3814SOL    HW122901   0.651   0.519   6.840  0.1862  0.6925 -0.6704
 3814SOL    HW222902   0.624   0.384   6.796  0.7803 -1.3836  1.7294
 3815SOL     OW22903   2.965   0.433   7.377  0.3849  0.1255 -1.0962
 3815SOL    HW122904   2.883   0.440   7.329  0.0885  0.7678 -0.4906
 3815SOL    HW222905   2.987   0.526   7.377  1.5740 -0.1574 -0.4005
 3816SOL     OW22906   1.024   3.588   5.162  0.0328 -0.1434 -0.2568
 3816SOL    HW122907   1.017   3.643   5.084  0.4265  1.2495  0.6723
 3816SOL    HW222908   0.950   3.527   5.158  1.1133 -1.4981  0.4690
 3817SOL     OW22909   3.029   4.447   1.495 -0.3151  0.1129 -0.4857
 3817SOL    HW122910   2.933   4.441   1.491 -0.1666 -0.7128 -2.5687
 3817SOL    HW222911   3.045   4.418   1.585 -0.6997 -0.4186 -0.5872
 3818SOL     OW22912   1.280   3.557   1.364 -0.6592  0.3801  0.4867
 3818SOL    HW122913   1.324   3.588   1.285 -1.7761 -0.6014 -0.5269
 3818SOL    HW222914   1.271   3.643   1.404 -0.8153  1.2444 -1.4377
 3819SOL     OW22915   1.907   2.204   9.273 -0.9212 -0.1555  0.1683
 3819SOL    HW122916   1.816   2.184   9.297 -1.8689  0.4641 -2.8829
 3819SOL    HW222917   1.951   2.157   9.343 -0.1539 -0.0243 -0.2273
 3820SOL     OW22918   2.346   3.058   5.299 -0.0492 -0.0276  0.5645
 3820SOL    HW122919   2.366   3.126   5.363  0.3647  0.0894  0.3074
 3820SOL    HW222920   2.254   3.073   5.276  0.5442 -0.1244 -1.7813
 3821SOL     OW22921   4.039   3.834   9.395 -0.1325 -0.1724  0.0347
 3821SOL    HW122922   4.016   3.905   9.454  1.1857  0.0330  0.2971
 3821SOL    HW222923   3.998   3.868   9.315 -0.2568 -0.6327 -0.0931
 3822SOL     OW22924   4.582   0.490  17.029  0.1627  0.0405 -0.4178
 3822SOL    HW122925   4.516   0.450  16.973  0.6794 -1.6148  0.1610
 3822SOL    HW222926   4.532   0.514  17.107 -0.8177 -0.6457 -0.8418
 3823SOL     OW22927   4.386   3.172   7.079 -0.0764  0.5325  0.1504
 3823SOL    HW122928   4.332   3.250   7.089 -0.1651  0.6785 -1.4466
 3823SOL    HW222929   4.409   3.182   6.986 -0.6312 -0.9297 -0.1386
 3824SOL     OW22930   2.132   1.130   7.740  0.6409 -0.2296 -0.1643
 3824SOL    HW122931   2.219   1.148   7.704  1.2207 -1.4929  0.6221
 3824SOL    HW222932   2.152   1.142   7.832  0.3470  1.1569 -0.2815
 3825SOL     OW22933   1.193   0.559   2.435  0.5914 -0.3634  0.7118
 3825SOL    HW122934   1.164   0.650   2.433  2.4877  0.1571 -2.2096
 3825SOL    HW222935   1.116   0.517   2.395 -0.8798  0.8608  2.2435
 3826SOL     OW22936   4.379   1.877  12.198 -0.5612  0.4940 -0.2987
 3826SOL    HW122937   4.362   1.876  12.292  1.9570  1.2368  0.1502
 3826SOL    HW222938   4.389   1.968  12.172  0.3206  0.2326 -0.8599
 3827SOL     OW22939   3.457   3.463   5.271  0.0420 -0.1864  0.1199
 3827SOL    HW122940   3.543   3.492   5.240 -0.0690  1.0335  0.9806
 3827SOL    HW222941   3.446   3.532   5.336 -0.7155 -0.1725 -0.0217
 3828SOL     OW22942   3.232   3.713  12.127 -0.1865  0.0721  0.3133
 3828SOL    HW122943   3.266   3.624  12.129 -0.5144 -0.0531  0.3905
 3828SOL    HW222944   3.142   3.695  12.156  0.2021 -0.2814  1.2923
 3829SOL     OW22945   1.258   4.194   0.188 -0.1291  0.2234 -0.8189
 3829SOL    HW122946   1.165   4.216   0.191 -0.4198 -0.6628 -3.1140
 3829SOL    HW222947   1.292   4.283   0.193  0.4657 -0.0061 -0.7831
 3830SOL     OW22948   3.210   0.613   5.669 -0.8629 -0.4436 -0.7177
 3830SOL    HW122949   3.189   0.703   5.691 -4.6322 -1.0651 -1.7571
 3830SOL    HW222950   3.272   0.580   5.733 -0.0064  1.5088 -0.5407
 3831SOL     OW22951   0.667   2.383   5.566 -0.3408  0.4395 -0.1736
 3831SOL    HW122952   0.701   2.294   5.558 -1.4226  0.2370 -2.6734
 3831SOL    HW222953   0.609   2.375   5.642 -0.8313  0.5662 -0.5286
 3832SOL     OW22954   3.755   0.679   6.861 -0.3492  0.6577  0.6436
 3832SOL    HW122955   3.818   0.639   6.922  0.2615 -0.7713 -0.9087
 3832SOL    HW222956   3.803   0.755   6.828 -2.3447  1.5641 -0.1041
 3833SOL     OW22957   3.701   0.765  15.449 -0.2320  0.4200 -0.0046
 3833SOL    HW122958   3.779   0.760  15.505  1.3497 -0.4754 -2.2958
 3833SOL    HW222959   3.713   0.854  15.416 -1.4619  0.3700 -0.5596
 3834SOL     OW22960   1.493   1.298  14.571 -0.1461 -0.0722 -0.3269
 3834SOL    HW122961   1.570   1.295  14.515  0.4595  0.7462  0.4661
 3834SOL    HW222962   1.472   1.208  14.597  0.0357 -0.1277 -0.3777
 3835SOL     OW22963   2.339   2.068   6.120  0.4120  0.7620 -0.5969
 3835SOL    HW122964   2.343   1.976   6.144 -1.0468  1.5455  2.5366
 3835SOL    HW222965   2.426   2.090   6.152 -0.2220  0.2862  1.4267
 3836SOL     OW22966   4.355   3.157   3.095 -0.5171 -0.6474  0.1800
 3836SOL    HW122967   4.443   3.120   3.101 -0.2898  0.0093  1.0164
 3836SOL    HW222968   4.306   3.074   3.104 -0.4778 -0.5210  1.5285
 3837SOL     OW22969   2.061   4.340   7.751  0.1421 -0.3838  0.1123
 3837SOL    HW122970   2.047   4.412   7.690 -2.3469 -0.5499  0.4925
 3837SOL    HW222971   1.973   4.323   7.784 -0.4032 -0.1762 -1.2329
 3838SOL     OW22972   3.159   3.064  15.189  0.1288  0.0323  0.2346
 3838SOL    HW122973   3.216   3.131  15.226  0.9919  0.8539 -2.5262
 3838SOL    HW222974   3.218   3.023  15.125 -0.0708 -0.2981  0.2606
 3839SOL     OW22975   3.225   1.973   8.732 -0.6228 -0.4459  0.2578
 3839SOL    HW122976   3.242   1.888   8.691 -4.8028 -1.5044  0.6672
 3839SOL    HW222977   3.262   2.038   8.672 -0.3458 -1.6046 -0.8173
 3840SOL     OW22978   4.523   2.307   6.689  0.5872  0.5086  0.4000
 3840SOL    HW122979   4.522   2.238   6.756 -1.9954 -0.0494 -0.2219
 3840SOL    HW222980   4.617   2.307   6.670  0.2123  0.3308 -1.4019
 3841SOL     OW22981   1.905   0.421   1.950  0.4706  0.2911 -0.8375
 3841SOL    HW122982   1.942   0.488   1.892 -1.0010 -0.2641 -2.4417
 3841SOL    HW222983   1.933   0.448   2.037 -0.7123  0.3572 -0.4783
 3842SOL     OW22984   0.808   0.072   3.310  0.2076 -0.3006  0.2489
 3842SOL    HW122985   0.864   0.001   3.277 -0.4158 -0.8221  0.3026
 3842SOL    HW222986   0.722   0.031   3.305  0.2569 -0.4486  0.6002
 3843SOL     OW22987   1.659   2.727  14.994  0.3215 -0.4123  0.3555
 3843SOL    HW122988   1.565   2.721  15.013  0.2421  0.6701  0.3555
 3843SOL    HW222989   1.650   2.711  14.900  1.2868  1.9402 -0.1503
 3844SOL     OW22990   0.268   2.246   5.326  0.0705  0.4074  0.0290
 3844SOL    HW122991   0.235   2.330   5.293  1.5715  1.1703  0.4918
 3844SOL    HW222992   0.359   2.253   5.298  0.9307 -1.1669  2.4045
 3845SOL     OW22993   4.503   3.464   7.230  0.6529 -0.4949  0.5512
 3845SOL    HW122994   4.481   3.448   7.139  1.2105 -0.5127  0.4164
 3845SOL    HW222995   4.423   3.430   7.270  1.0150  0.6818  2.3249
 3846SOL     OW22996   1.519   2.018   7.050  0.0139  0.6625 -0.1683
 3846SOL    HW122997   1.516   1.969   6.967 -0.3517  0.4342 -0.0215
 3846SOL    HW222998   1.544   1.953   7.116  0.0337  1.1380  0.2857
 3847SOL     OW22999   1.455   3.642   6.476 -0.4386 -0.0307 -0.1819
 3847SOL    HW123000   1.435   3.597   6.394  1.1747 -1.1186  0.0172
 3847SOL    HW223001   1.381   3.701   6.464 -0.7524 -0.4824 -0.4884
 3848SOL     OW23002   4.699   1.510  12.733  0.1539  0.1508  0.4276
 3848SOL    HW123003   0.026   1.550  12.805  2.0589  0.3549 -0.9931
 3848SOL    HW223004   4.664   1.432  12.777  3.0245 -1.1973  0.2925
 3849SOL     OW23005   1.657   3.179  17.655  0.3391  0.3453 -0.0434
 3849SOL    HW123006   1.693   3.206   0.052  0.5437  0.2639 -0.1025
 3849SOL    HW223007   1.736   3.160  17.603 -0.0258 -2.3362  0.3694
 3850SOL     OW23008   1.726   2.231   6.223  0.4183  0.7138  0.2011
 3850SOL    HW123009   1.689   2.291   6.158  1.1746 -0.4948 -1.3681
 3850SOL    HW223010   1.820   2.237   6.207  0.1166 -0.1617 -2.0305
 3851SOL     OW23011   0.900   3.185  13.665  0.0934  0.1604 -0.6645
 3851SOL    HW123012   0.842   3.238  13.609  1.1406  0.6755 -1.2573
 3851SOL    HW223013   0.847   3.168  13.743  1.1328 -1.3971 -0.3090
 3852SOL     OW23014   3.965   3.366   8.195  0.1107 -0.2860  0.5055
 3852SOL    HW123015   4.024   3.430   8.155  0.0135  0.0249  0.8638
 3852SOL    HW223016   4.034   3.306   8.226  2.1513  1.3856 -0.7870
 3853SOL     OW23017   2.901   2.990   6.013  0.0191 -0.5705 -0.0269
 3853SOL    HW123018   2.952   2.931   6.068 -1.8845 -1.7249  0.5236
 3853SOL    HW223019   2.965   3.031   5.956  0.7074  1.6973  2.3643
 3854SOL     OW23020   0.075   4.162   6.600  0.1091  0.0125 -0.5215
 3854SOL    HW123021   0.154   4.120   6.566 -0.3433 -0.6803 -0.7160
 3854SOL    HW223022   0.021   4.181   6.523  0.3400 -0.7687 -0.8693
 3855SOL     OW23023   1.720   3.118   2.112 -0.0704  0.2212  0.4287
 3855SOL    HW123024   1.805   3.160   2.120 -0.5699  1.1269  0.9289
 3855SOL    HW223025   1.698   3.166   2.033 -3.6294 -0.2760  1.1158
 3856SOL     OW23026   0.772   0.022   2.527  0.3851 -0.0983 -0.4255
 3856SOL    HW123027   0.685   4.704   2.537 -0.3837  1.9174  0.7753
 3856SOL    HW223028   0.772   0.026   2.432 -0.4920 -3.0425 -0.5783
 3857SOL     OW23029   3.730   1.212  16.481 -0.5160  0.0431 -0.0749
 3857SOL    HW123030   3.706   1.125  16.449  0.5445  0.3723 -1.7466
 3857SOL    HW223031   3.650   1.263  16.468 -0.0983  0.0512 -2.5185
 3858SOL     OW23032   3.845   2.183   7.799 -0.1237  0.6555 -0.1906
 3858SOL    HW123033   3.934   2.199   7.830  0.1120 -2.3656  0.6984
 3858SOL    HW223034   3.832   2.089   7.795 -1.0587  0.8031 -0.5136
 3859SOL     OW23035   0.249   2.145   2.108 -0.1582  0.1411 -0.0588
 3859SOL    HW123036   0.178   2.081   2.117 -0.8115  0.7522 -0.8553
 3859SOL    HW223037   0.208   2.219   2.063 -2.0588  1.2237  3.5182
 3860SOL     OW23038   1.002   4.559   1.758 -0.3690  0.0426 -0.3849
 3860SOL    HW123039   0.956   4.571   1.675 -1.1803  0.3749  0.1149
 3860SOL    HW223040   1.009   4.650   1.789 -2.1943  0.2190 -0.4909
 3861SOL     OW23041   2.085   2.058  14.740  0.3867  0.6017 -0.0925
 3861SOL    HW123042   2.109   1.984  14.796  1.2622  1.0261  0.0917
 3861SOL    HW223043   2.022   2.016  14.681  0.1363 -0.2487  0.7758
 3862SOL     OW23044   4.109   1.837   0.742 -1.1600  0.5562 -0.1149
 3862SOL    HW123045   4.089   1.853   0.650 -0.3790  1.0059 -0.2096
 3862SOL    HW223046   4.072   1.919   0.776  0.4210  0.5916  1.5417
 3863SOL     OW23047   0.477   2.420   7.425 -0.1855  0.1578  0.7518
 3863SOL    HW123048   0.408   2.486   7.429 -0.7835 -0.5225  1.5272
 3863SOL    HW223049   0.542   2.470   7.475  1.6446  0.1529 -1.6329
 3864SOL     OW23050   3.874   0.056   6.706  0.6427 -0.1065  0.1152
 3864SOL    HW123051   3.857   4.696   6.753 -0.6018 -0.2483 -0.5745
 3864SOL    HW223052   3.819   0.051   6.628 -0.4993 -0.2634  0.9245
 3865SOL     OW23053   1.953   3.979   8.369  0.7192  0.3888 -0.1548
 3865SOL    HW123054   2.017   3.994   8.439 -1.1643  0.3940  1.5728
 3865SOL    HW223055   1.986   3.912   8.310  3.6407  2.8876 -1.3753
 3866SOL     OW23056   0.215   4.572   0.219 -0.1237  0.3479  0.1898
 3866SOL    HW123057   0.245   4.578   0.310  1.2914 -2.7624 -0.0585
 3866SOL    HW223058   0.298   4.567   0.171 -0.8714  2.3176 -1.2686
 3867SOL     OW23059   3.815   4.141   9.037  0.5665 -0.1192 -0.0896
 3867SOL    HW123060   3.742   4.180   9.087  0.5338 -1.7934  1.1659
 3867SOL    HW223061   3.805   4.046   9.037 -1.4469  0.0928  0.1519
 3868SOL     OW23062   0.205   2.398   5.590 -0.0047  0.2858  0.3059
 3868SOL    HW123063   0.280   2.422   5.644 -1.1823  2.5706  0.9436
 3868SOL    HW223064   0.238   2.324   5.541  1.2416  2.3056 -1.9185
 3869SOL     OW23065   2.065   1.877   3.219  0.3855  0.5622 -0.2298
 3869SOL    HW123066   2.104   1.796   3.252  0.4809  1.4479  1.7823
 3869SOL    HW223067   2.143   1.916   3.179  0.5287 -0.3533 -0.8438
 3870SOL     OW23068   3.698   1.008   7.431  0.3685  0.2629 -0.2990
 3870SOL    HW123069   3.752   1.051   7.498 -0.8442  0.4477  0.5491
 3870SOL    HW223070   3.618   1.034   7.476  0.4138  0.7495 -0.5010
 3871SOL     OW23071   3.934   3.002   3.743  0.1979  0.1988 -0.1953
 3871SOL    HW123072   4.012   2.982   3.691  1.9054 -0.6507  2.6780
 3871SOL    HW223073   3.932   2.951   3.824  2.3991  1.2473  0.5296
 3872SOL     OW23074   3.122   2.973   1.677  0.0708  0.1997  0.2264
 3872SOL    HW123075   3.101   2.880   1.678 -0.3243  0.2764 -0.5796
 3872SOL    HW223076   3.156   2.992   1.590 -1.9126  1.9428 -0.1879
 3873SOL     OW23077   3.032   3.859   9.179  0.0040 -0.9357 -0.0433
 3873SOL    HW123078   3.073   3.941   9.206  0.8737 -0.5183 -2.6651
 3873SOL    HW223079   3.084   3.831   9.104  0.3037 -0.8827  0.1459
 3874SOL     OW23080   0.481   2.148   7.399 -0.0233 -0.1168  0.1599
 3874SOL    HW123081   0.496   2.140   7.305 -2.4475 -1.6191 -0.1100
 3874SOL    HW223082   0.488   2.243   7.404 -2.7515  0.1333 -0.7385
 3875SOL     OW23083   1.164   2.274   5.189 -0.2979 -0.1717 -0.1933
 3875SOL    HW123084   1.204   2.312   5.111 -2.0706  1.0317 -0.5302
 3875SOL    HW223085   1.073   2.265   5.159 -0.4978  0.3927  0.2496
 3876SOL     OW23086   3.662   0.514   9.919 -0.5469 -0.4575 -0.1766
 3876SOL    HW123087   3.672   0.595   9.868 -0.7001  0.1445  0.7427
 3876SOL    HW223088   3.640   0.449   9.852  0.8588 -1.7896  0.6776
 3877SOL     OW23089   4.054   4.679   6.370 -0.1626  0.3891 -0.0590
 3877SOL    HW123090   4.035   4.696   6.277 -1.0425 -2.5581 -0.4331
 3877SOL    HW223091   4.064   4.584   6.372  1.0249  0.4300 -3.0439
 3878SOL     OW23092   4.063   0.453   7.355  0.6590  0.4997  0.2074
 3878SOL    HW123093   4.124   0.520   7.323  0.0955  0.1295 -1.6351
 3878SOL    HW223094   4.051   0.491   7.442  0.9983  1.7858 -0.3027
 3879SOL     OW23095   0.758   3.493   6.895  0.1196 -0.0972 -0.0735
 3879SOL    HW123096   0.812   3.424   6.934 -0.5624 -0.7654 -0.3211
 3879SOL    HW223097   0.824   3.529   6.836 -1.1858  1.4637 -0.5863
 3880SOL     OW23098   2.602   2.183   7.261 -0.0852  0.5471 -0.6455
 3880SOL    HW123099   2.601   2.272   7.298  0.0900 -0.4231  1.6977
 3880SOL    HW223100   2.687   2.180   7.217 -0.4817 -0.9587 -1.2975
 3881SOL     OW23101   3.057   4.114  14.114  0.0683 -0.1763 -0.4264
 3881SOL    HW123102   3.104   4.191  14.082  0.5030  0.0157  0.6816
 3881SOL    HW223103   2.977   4.120  14.062  1.2237 -1.9012 -2.4094
 3882SOL     OW23104   2.773   0.865   5.136 -0.2317  0.6540  0.2463
 3882SOL    HW123105   2.851   0.921   5.128  0.2089 -0.0164 -0.1452
 3882SOL    HW223106   2.699   0.910   5.095 -0.5227 -0.0207  0.0320
 3883SOL     OW23107   0.183   2.604   0.657  0.5798  0.5236 -0.2296
 3883SOL    HW123108   0.120   2.545   0.616 -0.0985 -0.6307  2.4416
 3883SOL    HW223109   0.147   2.619   0.745  0.0845  0.0876 -0.3582
 3884SOL     OW23110   2.558   2.575   9.100  0.3355 -1.2676  0.5824
 3884SOL    HW123111   2.564   2.660   9.143  1.0123 -0.1613 -1.6492
 3884SOL    HW223112   2.585   2.522   9.175 -1.2606 -0.8498  1.4258
 3885SOL     OW23113   1.567   2.797   8.536 -0.5450 -0.3025  0.1893
 3885SOL    HW123114   1.592   2.881   8.497  0.1785 -0.2377  0.8006
 3885SOL    HW223115   1.556   2.813   8.629 -2.2529 -0.8395  0.0711
 3886SOL     OW23116   1.796   2.418   3.299 -0.5734  0.0823  0.4307
 3886SOL    HW123117   1.856   2.383   3.365  0.5494  1.4536  0.1399
 3886SOL    HW223118   1.808   2.507   3.333  4.7428 -1.0372  1.4960
 3887SOL     OW23119   0.421   1.736   5.116  0.0069  0.7855  1.0033
 3887SOL    HW123120   0.469   1.678   5.175  2.0835 -1.3205 -2.7548
 3887SOL    HW223121   0.380   1.677   5.052 -0.6869  3.5747 -1.1464
 3888SOL     OW23122   4.394   4.148   6.057 -0.1502 -0.2742  0.3243
 3888SOL    HW123123   4.310   4.108   6.077  0.2009 -0.1113  2.0606
 3888SOL    HW223124   4.442   4.158   6.139  1.6192  1.9810 -0.9717
 3889SOL     OW23125   3.018   4.151   4.151  0.3968 -0.1165 -0.8271
 3889SOL    HW123126   2.951   4.101   4.106  0.8639 -0.1214 -1.5266
 3889SOL    HW223127   2.962   4.223   4.180  2.1111  0.6089  0.7228
 3890SOL     OW23128   0.657   4.235   2.427 -0.0017  1.0218  0.3505
 3890SOL    HW123129   0.614   4.196   2.351  0.6611  0.7943  0.0936
 3890SOL    HW223130   0.610   4.192   2.499  0.3206 -1.2339 -0.7665
 3891SOL     OW23131   0.658   4.668   4.934  0.2632  0.0932 -0.0252
 3891SOL    HW123132   0.608   0.028   4.937  0.8331  0.4623 -0.4658
 3891SOL    HW223133   0.690   4.676   4.844  0.4390 -1.0341 -0.0658
 3892SOL     OW23134   0.698   3.254   8.620  0.3832  0.1909  0.1136
 3892SOL    HW123135   0.677   3.231   8.710 -0.5756 -0.1126 -0.1879
 3892SOL    HW223136   0.663   3.182   8.566 -1.2542  0.3842  0.9022
 3893SOL     OW23137   1.510   2.463  14.333  0.3768 -0.0943  0.3621
 3893SOL    HW123138   1.540   2.457  14.424 -1.2730  1.6355  1.0245
 3893SOL    HW223139   1.450   2.538  14.329  0.1757 -0.3668 -1.6534
 3894SOL     OW23140   2.691   0.328   2.961 -0.2244 -0.0396  0.0453
 3894SOL    HW123141   2.767   0.384   2.941  0.8725 -1.3443  0.6230
 3894SOL    HW223142   2.667   0.297   2.874 -0.4699 -0.8788  0.4223
 3895SOL     OW23143   1.203   2.527  10.743  0.5320 -0.4346  0.4498
 3895SOL    HW123144   1.166   2.440  10.757 -1.8418  0.3472 -1.0021
 3895SOL    HW223145   1.289   2.513  10.782  0.6348 -0.1647  0.3178
 3896SOL     OW23146   1.558   4.064   3.908  0.2649  0.0631 -0.6318
 3896SOL    HW123147   1.543   4.147   3.954  0.3204 -0.8856  1.0865
 3896SOL    HW223148   1.621   4.023   3.968 -1.7496 -1.4814  0.4479
 3897SOL     OW23149   2.371   0.948   8.849 -0.5229 -0.5101 -0.5397
 3897SOL    HW123150   2.336   0.978   8.765 -0.5825  0.9888  0.0260
 3897SOL    HW223151   2.458   0.928   8.813  0.1844  1.3891  0.1239
 3898SOL     OW23152   1.847   3.508   2.082 -0.1738  0.4950  0.2776
 3898SOL    HW123153   1.774   3.527   2.023  0.7167  0.1742 -0.9290
 3898SOL    HW223154   1.904   3.585   2.074  0.8967 -0.0502  2.4491
 3899SOL     OW23155   1.972   1.282   4.391 -0.3028 -0.2063  0.3647
 3899SOL    HW123156   2.045   1.324   4.436 -0.7483 -0.2175  1.0903
 3899SOL    HW223157   2.019   1.237   4.321 -1.0531 -0.1070 -0.1994
 3900SOL     OW23158   3.050   1.430   2.280  0.1139  0.0328 -0.1463
 3900SOL    HW123159   3.010   1.350   2.246 -1.5579 -0.0789  2.1105
 3900SOL    HW223160   2.981   1.469   2.335  1.6700  0.4451  1.5286
 3901SOL     OW23161   1.975   1.184  16.269  0.5949  0.2632 -0.1861
 3901SOL    HW123162   1.916   1.145  16.333 -2.1152  0.8018 -2.3977
 3901SOL    HW223163   2.030   1.237  16.328  0.3859  0.0301  0.2140
 3902SOL     OW23164   3.819   0.255  14.185  0.4761  0.1684 -0.5302
 3902SOL    HW123165   3.809   0.345  14.153  1.1652 -0.1947 -1.7733
 3902SOL    HW223166   3.915   0.249  14.182  0.4173 -2.2580  2.6359
 3903SOL     OW23167   3.541   3.782   8.525 -0.1704 -0.0346  0.1828
 3903SOL    HW123168   3.588   3.847   8.473 -0.1777 -0.6424 -0.5863
 3903SOL    HW223169   3.496   3.841   8.585  1.4399  0.3674  0.9970
 3904SOL     OW23170   1.259   2.624   1.416  0.0849 -0.2514 -1.1505
 3904SOL    HW123171   1.180   2.571   1.420  0.5682 -0.9236 -0.4715
 3904SOL    HW223172   1.255   2.644   1.323 -2.3098  2.0218 -0.5537
 3905SOL     OW23173   3.951   4.631   3.080 -0.2387 -0.4195 -0.3310
 3905SOL    HW123174   4.005   4.562   3.119  0.1827  0.3582  0.4547
 3905SOL    HW223175   3.865   4.592   3.060 -0.2075 -0.3833 -0.5320
 3906SOL     OW23176   1.101   4.336   6.202 -0.3235  0.0362  0.5234
 3906SOL    HW123177   1.054   4.408   6.160 -2.1800 -2.1875 -1.2038
 3906SOL    HW223178   1.032   4.286   6.246 -0.1150 -1.1699 -0.5042
 3907SOL     OW23179   3.274   3.622   1.528 -0.3454  0.2193 -0.0938
 3907SOL    HW123180   3.253   3.560   1.458  0.8348 -1.4610  1.0507
 3907SOL    HW223181   3.321   3.688   1.476  0.8512  0.5972  1.4508
 3908SOL     OW23182   2.699   2.821   6.231 -0.2920  0.0471  0.1240
 3908SOL    HW123183   2.774   2.801   6.175 -0.4416 -1.0025  0.2966
 3908SOL    HW223184   2.639   2.753   6.199  1.7912 -3.3194  3.4206
 3909SOL     OW23185   1.194   0.603   6.802  0.9259 -0.0448 -0.3628
 3909SOL    HW123186   1.267   0.554   6.840  0.1648  0.3859  1.6736
 3909SOL    HW223187   1.122   0.541   6.807  1.0144 -0.1007  0.2044
 3910SOL     OW23188   0.553   0.503  11.973 -0.3670 -0.7043 -0.0675
 3910SOL    HW123189   0.516   0.442  11.909  1.7214  0.2889 -2.2650
 3910SOL    HW223190   0.539   0.586  11.927  0.6380 -0.3786  0.2018
 3911SOL     OW23191   3.093   3.116   4.349 -0.2932  0.4611  0.4300
 3911SOL    HW123192   3.185   3.141   4.341 -0.9040  2.8002  0.7515
 3911SOL    HW223193   3.041   3.195   4.331 -0.2888  0.6876  1.4410
 3912SOL     OW23194   2.173   0.319   4.915 -0.3010 -0.0412  0.1116
 3912SOL    HW123195   2.096   0.263   4.903 -1.2619  0.8766  1.9295
 3912SOL    HW223196   2.240   0.250   4.910 -2.8667 -2.8484  4.1441
 3913SOL     OW23197   4.546   0.410   7.416 -0.2858  0.6368  0.4372
 3913SOL    HW123198   4.593   0.346   7.470  0.6658 -0.4627 -1.7115
 3913SOL    HW223199   4.462   0.366   7.422  1.3856 -2.9951 -2.9051
 3914SOL     OW23200   2.009   4.390   6.035 -0.2298 -0.1049 -0.0788
 3914SOL    HW123201   1.954   4.389   5.957 -0.2901  0.0391 -0.0384
 3914SOL    HW223202   2.034   4.482   6.046  2.3059 -0.5338 -2.1392
 3915SOL     OW23203   1.196   3.129   2.338 -0.1276 -0.0572  0.1449
 3915SOL    HW123204   1.156   3.208   2.376  0.0125  0.7364 -1.3609
 3915SOL    HW223205   1.244   3.163   2.263  0.6182 -0.6627  0.3434
 3916SOL     OW23206   2.889   0.307  17.341 -0.0763 -0.2913 -0.2989
 3916SOL    HW123207   2.817   0.252  17.372  1.6100 -2.8479 -0.8738
 3916SOL    HW223208   2.956   0.247  17.308  0.7513 -0.7620  2.1968
 3917SOL     OW23209   1.940   0.010   0.189  0.4034  0.0293 -0.4259
 3917SOL    HW123210   1.876   4.666   0.217 -0.6130 -0.0756 -3.0000
 3917SOL    HW223211   2.023   4.685   0.204  0.1893  0.0494  0.8155
 3918SOL     OW23212   2.658   2.889  11.090  0.4545 -0.1128  0.3339
 3918SOL    HW123213   2.571   2.908  11.054  0.5848  0.3272  0.2442
 3918SOL    HW223214   2.711   2.951  11.039  0.3069  0.7661  1.2555
 3919SOL     OW23215   2.353   3.334   3.160  0.6660  0.7395 -0.3714
 3919SOL    HW123216   2.435   3.326   3.210 -1.2892 -0.7252  2.6073
 3919SOL    HW223217   2.362   3.251   3.112 -1.3428  0.6404 -0.5958
 3920SOL     OW23218   2.975   1.001   3.320 -0.2375  0.1855 -0.2080
 3920SOL    HW123219   2.890   1.035   3.348 -0.6046 -1.5036  0.7195
 3920SOL    HW223220   2.985   0.915   3.361 -1.8576  1.0270  1.8871
 3921SOL     OW23221   1.374   1.309   4.844 -0.1952  0.3720  0.1486
 3921SOL    HW123222   1.428   1.276   4.772 -0.8233 -4.2319  1.7810
 3921SOL    HW223223   1.298   1.313   4.785 -0.3277 -0.1302  0.2849
 3922SOL     OW23224   3.083   4.547   8.260  0.0131 -0.3261 -0.7282
 3922SOL    HW123225   3.073   4.457   8.293 -1.6256  0.7135  1.5647
 3922SOL    HW223226   3.147   4.588   8.318 -0.7090 -1.5933  0.9847
 3923SOL     OW23227   3.157   2.828   8.970  0.0919  0.0364 -0.1741
 3923SOL    HW123228   3.206   2.758   9.014  1.3726  1.3671  0.5123
 3923SOL    HW223229   3.231   2.864   8.921 -0.8796 -0.5526 -2.0533
 3924SOL     OW23230   4.022   1.758  12.491 -0.1621  0.6330  0.1183
 3924SOL    HW123231   4.075   1.679  12.492  2.1856  2.1895 -0.2475
 3924SOL    HW223232   4.065   1.813  12.556  0.3966 -0.7516  0.8934
 3925SOL     OW23233   2.490   4.718   4.446  0.4181  0.1771 -0.0598
 3925SOL    HW123234   2.526   0.062   4.386 -0.7664  2.5436  1.8067
 3925SOL    HW223235   2.402   0.032   4.457 -0.0110 -1.2219  1.0447
 3926SOL     OW23236   0.235   2.917   4.175  0.1582 -0.0440  0.2969
 3926SOL    HW123237   0.314   2.972   4.173 -0.7537  1.3114  2.2678
 3926SOL    HW223238   0.211   2.931   4.083 -2.1832 -1.0123  0.7730
 3927SOL     OW23239   0.040   3.386  14.430  0.9926  0.2284  0.1657
 3927SOL    HW123240   4.671   3.405  14.406  0.9837 -1.9389 -1.5176
 3927SOL    HW223241   0.076   3.474  14.429  0.7412  0.3398  0.6890
 3928SOL     OW23242   4.084   4.019   3.001  0.4449 -0.2098 -0.0889
 3928SOL    HW123243   4.144   4.093   2.990  0.6098 -0.2441  0.5633
 3928SOL    HW223244   4.004   4.059   2.967  0.0672 -0.3551  0.6355
 3929SOL     OW23245   2.077   2.999   5.860 -0.1675 -1.2575 -0.7669
 3929SOL    HW123246   2.172   2.996   5.873 -0.2003  1.1468  0.1252
 3929SOL    HW223247   2.084   3.036   5.772  0.0370  0.2587 -0.1140
 3930SOL     OW23248   0.821   1.078   8.006 -0.6340 -0.0750 -0.0813
 3930SOL    HW123249   0.759   1.144   8.037  0.1735 -0.3604  2.1462
 3930SOL    HW223250   0.837   1.106   7.916  2.2325 -2.5902 -0.3468
 3931SOL     OW23251   4.485   4.228   6.899 -0.4885  0.0578  0.4514
 3931SOL    HW123252   4.555   4.260   6.955  1.0080  0.1316 -1.4508
 3931SOL    HW223253   4.467   4.313   6.857  2.4295  0.3487 -0.1914
 3932SOL     OW23254   4.552   1.148  13.704  1.0855  0.2335 -0.1692
 3932SOL    HW123255   4.547   1.092  13.782  0.3166  0.3793 -0.1142
 3932SOL    HW223256   4.576   1.231  13.746  1.8704 -0.2290  0.3051
 3933SOL     OW23257   3.821   0.521  14.016 -0.2780 -0.5924 -0.6123
 3933SOL    HW123258   3.802   0.613  13.999  2.0397  0.2372  1.2548
 3933SOL    HW223259   3.888   0.497  13.951 -1.3711 -1.3454 -1.4509
 3934SOL     OW23260   1.088   3.289   4.851  0.2778 -0.4743  0.4998
 3934SOL    HW123261   0.993   3.277   4.847  0.4990 -1.7241 -0.7534
 3934SOL    HW223262   1.107   3.281   4.944  0.8486  0.0236  0.4273
 3935SOL     OW23263   0.634   0.900  14.035 -0.3214  0.2039  0.5379
 3935SOL    HW123264   0.718   0.929  14.001  1.0045 -2.4719  1.5321
 3935SOL    HW223265   0.574   0.934  13.969 -2.7845 -0.7714  2.2608
 3936SOL     OW23266   1.314   1.488   2.988 -0.4624  0.5183  0.3839
 3936SOL    HW123267   1.346   1.547   3.056  2.4504 -0.0329 -0.4699
 3936SOL    HW223268   1.399   1.448   2.965 -0.1927  1.5601 -0.4300
 3937SOL     OW23269   0.602   2.243   6.693 -0.5674  0.6117 -0.0818
 3937SOL    HW123270   0.586   2.290   6.776  0.9710  1.0536 -0.0347
 3937SOL    HW223271   0.586   2.307   6.623  0.3478  0.1404 -0.7252
 3938SOL     OW23272   2.362   4.249  13.265  0.5542 -0.1730 -0.1092
 3938SOL    HW123273   2.277   4.207  13.251  0.7661 -0.8025  0.5204
 3938SOL    HW223274   2.333   4.339  13.246  1.0658 -0.2031 -1.0578
 3939SOL     OW23275   2.212   0.807  14.901  0.2024  0.0021  0.1510
 3939SOL    HW123276   2.183   0.728  14.856  1.4819 -0.5768  0.3392
 3939SOL    HW223277   2.284   0.769  14.952  1.7259  0.2235 -1.8421
 3940SOL     OW23278   2.990   0.521   4.680  0.2095  0.1784 -0.2871
 3940SOL    HW123279   3.054   0.462   4.719 -0.2431 -0.1493 -0.0523
 3940SOL    HW223280   2.914   0.477   4.716  0.6096 -1.8068 -1.8566
 3941SOL     OW23281   3.608   3.554   6.488 -0.6375 -0.3701  0.0027
 3941SOL    HW123282   3.695   3.535   6.452 -1.0594 -0.5538 -0.9206
 3941SOL    HW223283   3.597   3.480   6.548 -0.2770 -0.5961 -0.2111
 3942SOL     OW23284   1.693   0.144   7.691 -0.1227  0.1983 -0.2124
 3942SOL    HW123285   1.734   0.070   7.736 -1.1123 -0.0415  0.3041
 3942SOL    HW223286   1.607   0.113   7.663 -0.2246  1.2560 -1.0578
 3943SOL     OW23287   4.059   1.481   7.383 -0.1688 -0.5938  0.1728
 3943SOL    HW123288   4.035   1.487   7.475 -0.9143  1.6766 -0.1632
 3943SOL    HW223289   4.014   1.561   7.355 -0.0400 -0.4260  0.4443
 3944SOL     OW23290   3.142   2.358   8.453 -0.9233 -0.0677 -0.3717
 3944SOL    HW123291   3.091   2.438   8.466 -0.8910 -0.3763  1.7824
 3944SOL    HW223292   3.129   2.309   8.535  4.0006  0.7051  0.8960
 3945SOL     OW23293   1.891   1.632   5.513 -0.5158  0.0459  0.0304
 3945SOL    HW123294   1.979   1.667   5.522 -0.0413 -1.2832  0.5207
 3945SOL    HW223295   1.871   1.648   5.605 -1.2958  0.5319 -0.2203
 3946SOL     OW23296   1.242   4.399   6.813  0.3368 -0.2284 -0.0327
 3946SOL    HW123297   1.211   4.429   6.728 -1.6940 -0.1626  0.7312
 3946SOL    HW223298   1.336   4.412   6.803  0.4451 -0.2447  0.9220
 3947SOL     OW23299   0.660   2.336   9.177 -0.0418 -0.6413  0.3174
 3947SOL    HW123300   0.747   2.375   9.180  0.9629 -2.9793  1.5197
 3947SOL    HW223301   0.693   2.257   9.134 -1.1459 -1.2544  0.6064
 3948SOL     OW23302   2.592   2.150  14.338 -0.5949 -0.0779  0.2698
 3948SOL    HW123303   2.516   2.106  14.298 -1.7441  2.6166 -0.5490
 3948SOL    HW223304   2.639   2.174  14.258  0.1817  1.6872  1.2759
 3949SOL     OW23305   4.639   3.433   4.328 -0.0763  0.1421 -0.7540
 3949SOL    HW123306   4.657   3.402   4.239  0.8264  2.7873 -1.5066
 3949SOL    HW223307   4.657   3.358   4.385  1.5794  1.0380 -0.0893
 3950SOL     OW23308   0.129   2.037   5.310  0.0981  0.0901  0.3681
 3950SOL    HW123309   0.162   1.995   5.230 -1.4913  1.7619 -1.1641
 3950SOL    HW223310   0.196   2.101   5.333 -0.5971  0.4630  1.3527
 3951SOL     OW23311   0.234   2.259  17.449 -0.4714  0.1991 -0.3745
 3951SOL    HW123312   0.169   2.328  17.431 -0.7963 -0.5876 -2.2652
 3951SOL    HW223313   0.224   2.211  17.367  0.1985  0.6812 -0.7363
 3952SOL     OW23314   0.713   2.436   4.156 -0.1542 -0.0747  0.2819
 3952SOL    HW123315   0.724   2.382   4.234  0.5462 -0.5805 -0.1633
 3952SOL    HW223316   0.788   2.496   4.152 -0.5904  0.5344  1.4391
 3953SOL     OW23317   3.327   4.412  12.237  0.3285  0.7581 -0.4642
 3953SOL    HW123318   3.331   4.332  12.185  0.6880  0.0165  0.7002
 3953SOL    HW223319   3.413   4.426  12.276  0.3479 -1.5388  0.2998
 3954SOL     OW23320   3.280   0.060   3.701 -0.1143 -0.2607 -0.4454
 3954SOL    HW123321   3.230   0.077   3.781 -0.6340  1.8578 -1.2047
 3954SOL    HW223322   3.217   4.715   3.672 -3.0029  1.1865  2.5520
 3955SOL     OW23323   1.043   3.920   9.524 -0.0234  0.1565 -0.5315
 3955SOL    HW123324   1.105   3.956   9.461  0.6043 -1.7031 -0.9843
 3955SOL    HW223325   1.065   3.827   9.521 -0.3489  0.1824 -3.4587
 3956SOL     OW23326   2.819   1.869  15.798 -0.4178 -0.3711 -0.4392
 3956SOL    HW123327   2.791   1.884  15.888  0.2360 -3.2516  0.2355
 3956SOL    HW223328   2.906   1.909  15.798 -0.6252  0.0597 -3.1075
 3957SOL     OW23329   0.164   2.025  10.797  0.1608 -0.0263  0.1676
 3957SOL    HW123330   0.171   2.089  10.868  0.8761  0.2196 -0.1233
 3957SOL    HW223331   0.137   1.946  10.844 -2.4967  0.4809 -0.4925
 3958SOL     OW23332   1.679   3.813   5.185  0.1907  0.1747  0.0314
 3958SOL    HW123333   1.624   3.734   5.191  1.4989 -0.6798  0.7723
 3958SOL    HW223334   1.768   3.780   5.197 -0.5042 -1.0178  2.1285
 3959SOL     OW23335   1.040   2.009  14.680  0.6247 -0.0892  0.0541
 3959SOL    HW123336   0.951   1.974  14.687  1.1156 -1.2871  0.2972
 3959SOL    HW223337   1.076   1.981  14.764 -0.1854  4.1405  1.8264
 3960SOL     OW23338   0.493   1.625   4.448 -0.2568 -0.1827  0.7157
 3960SOL    HW123339   0.482   1.720   4.453 -0.7560 -0.2412  0.7628
 3960SOL    HW223340   0.526   1.600   4.534 -0.3623  2.3148  1.4932
 3961SOL     OW23341   3.430   4.648   8.641 -0.2290 -0.7532  0.1408
 3961SOL    HW123342   3.498   4.696   8.595 -1.7258 -0.0670 -1.3715
 3961SOL    HW223343   3.440   4.673   8.733  2.7309  1.1543 -0.7082
 3962SOL     OW23344   1.806   0.578  13.527  0.2597 -0.9864  0.1783
 3962SOL    HW123345   1.899   0.559  13.541  0.2739 -0.4522  0.8016
 3962SOL    HW223346   1.795   0.662  13.570 -1.4414 -2.3750  2.4698
 3963SOL     OW23347   0.595   3.168   3.742 -0.2640 -0.5731  0.2809
 3963SOL    HW123348   0.524   3.144   3.800 -0.4278  0.5952  0.5584
 3963SOL    HW223349   0.547   3.209   3.670 -0.4494  0.5195  1.0278
 3964SOL     OW23350   2.626   3.225   9.672  0.4540 -0.3403  0.2061
 3964SOL    HW123351   2.630   3.286   9.746  0.0194 -1.0032  0.7812
 3964SOL    HW223352   2.624   3.281   9.594  1.5309 -0.7056 -0.0895
 3965SOL     OW23353   0.619   3.648   2.076  0.3910  0.2545  0.3152
 3965SOL    HW123354   0.531   3.675   2.100  0.8776  0.2615  2.1091
 3965SOL    HW223355   0.637   3.575   2.136  1.1367  1.0003  1.0102
 3966SOL     OW23356   0.645   1.303  13.308 -0.3073 -0.3002  0.0985
 3966SOL    HW123357   0.741   1.303  13.304 -0.2903 -1.5480  0.3917
 3966SOL    HW223358   0.652   1.239  13.380 -0.5887 -0.2748  0.1470
 3967SOL     OW23359   1.435   2.996   7.625 -0.0184  0.2018 -0.1816
 3967SOL    HW123360   1.393   2.930   7.679 -1.4920  0.7670 -0.6489
 3967SOL    HW223361   1.385   3.075   7.646 -0.4194 -0.5124  1.5209
 3968SOL     OW23362   3.066   3.430  13.801 -0.3918  0.0177  0.9227
 3968SOL    HW123363   3.147   3.403  13.845  0.9227  2.4476 -0.0349
 3968SOL    HW223364   3.048   3.514  13.843 -0.4934  0.6173 -0.3422
 3969SOL     OW23365   1.559   0.346   6.104 -0.2643  0.1256  0.4237
 3969SOL    HW123366   1.506   0.274   6.071  0.9152 -0.7602  0.4879
 3969SOL    HW223367   1.491   0.414   6.105  0.4676  0.8973 -0.7730
 3970SOL     OW23368   1.755   0.768  13.705  0.4833  0.1019 -0.5731
 3970SOL    HW123369   1.755   0.812  13.789 -2.0534 -0.8156 -0.0795
 3970SOL    HW223370   1.659   0.761  13.700  0.4018 -0.4371  2.1049
 3971SOL     OW23371   3.713   0.853   6.497  0.8460 -0.0785 -0.3269
 3971SOL    HW123372   3.666   0.919   6.547  2.5693  0.8837  0.0174
 3971SOL    HW223373   3.791   0.837   6.550  0.9745  0.3935 -0.3780
 3972SOL     OW23374   0.033   4.606  11.461 -0.0594 -0.2138  0.0478
 3972SOL    HW123375   0.108   4.636  11.410 -0.7418  0.4999 -0.5291
 3972SOL    HW223376   0.077   4.581  11.542  1.2426 -3.0262 -1.5233
 3973SOL     OW23377   2.582   0.507   9.070 -0.2100  0.0308  0.4354
 3973SOL    HW123378   2.669   0.470   9.082 -0.8855 -2.3211 -1.9429
 3973SOL    HW223379   2.555   0.473   8.985 -0.4063 -0.2507  0.6066
 3974SOL     OW23380   2.333   1.778   5.810 -0.1716  0.7688 -0.4836
 3974SOL    HW123381   2.357   1.705   5.754  2.0250  1.8501 -0.9605
 3974SOL    HW223382   2.417   1.823   5.801  0.1262 -0.3052 -2.8606
 3975SOL     OW23383   4.674   1.418  17.466  0.0157 -0.4317  0.1951
 3975SOL    HW123384   0.022   1.402  17.531 -0.5043  1.7629  1.2755
 3975SOL    HW223385   4.605   1.358  17.493  0.2485  0.1340  2.0496
 3976SOL     OW23386   2.593   1.354   7.490 -0.0909 -0.2563  0.2522
 3976SOL    HW123387   2.557   1.355   7.579  1.3225 -4.4455  0.9052
 3976SOL    HW223388   2.530   1.407   7.442 -0.9773 -3.1919 -1.8720
 3977SOL     OW23389   3.499   3.611   8.237  0.2754  0.1763 -0.4130
 3977SOL    HW123390   3.501   3.668   8.314 -1.0303  0.6911 -0.7497
 3977SOL    HW223391   3.594   3.609   8.226  0.0388  2.8608 -2.8213
 3978SOL     OW23392   3.110   3.609   9.450 -0.1446 -0.0380  0.3002
 3978SOL    HW123393   3.150   3.618   9.363  2.1647  1.9779  1.5776
 3978SOL    HW223394   3.019   3.632   9.431  0.1971 -0.4509 -1.8357
 3979SOL     OW23395   1.443   3.279  13.875 -0.4821 -0.4575 -0.3035
 3979SOL    HW123396   1.420   3.359  13.829 -2.9457 -2.0486 -1.8596
 3979SOL    HW223397   1.515   3.248  13.820 -1.0184  2.6878 -2.7348
 3980SOL     OW23398   1.769   1.574   2.919  0.0848 -0.1954 -0.1205
 3980SOL    HW123399   1.839   1.510   2.906 -1.1265 -1.4086 -0.6402
 3980SOL    HW223400   1.812   1.647   2.962  1.1926  0.0579 -1.6501
 3981SOL     OW23401   2.754   1.925  11.818 -0.0345  0.3632  0.4942
 3981SOL    HW123402   2.754   1.830  11.814  2.6979  0.4116 -0.4946
 3981SOL    HW223403   2.788   1.942  11.730  0.9175  1.2613  1.0375
 3982SOL     OW23404   3.021   2.650   3.523  0.1635  0.0417  0.3623
 3982SOL    HW123405   2.989   2.625   3.436  0.0210  0.0621  0.4099
 3982SOL    HW223406   2.941   2.687   3.560  0.0590  1.6022 -1.3886
 3983SOL     OW23407   1.826   2.659   7.038 -0.0737 -0.2075 -0.3454
 3983SOL    HW123408   1.872   2.622   6.962 -2.7447 -1.1264 -1.4990
 3983SOL    HW223409   1.783   2.735   6.996  0.3505  1.4370  2.2064
 3984SOL     OW23410   4.470   2.701   8.454  0.5960 -0.1940  0.3107
 3984SOL    HW123411   4.470   2.606   8.469 -1.6998 -0.6062 -2.4047
 3984SOL    HW223412   4.404   2.721   8.520  0.4929 -1.1828  0.5162
 3985SOL     OW23413   2.754   2.479   2.955  0.1198 -0.0806 -0.1332
 3985SOL    HW123414   2.712   2.399   2.924 -0.6255  0.5195 -0.6653
 3985SOL    HW223415   2.812   2.446   3.023 -1.4853 -0.5001  1.0271
 3986SOL     OW23416   4.277   1.976  13.048 -0.3223 -0.2894  0.2963
 3986SOL    HW123417   4.230   2.021  13.119  2.0808  0.6343  1.2928
 3986SOL    HW223418   4.215   1.914  13.009 -0.6425 -1.1432  2.1409
 3987SOL     OW23419   3.879   4.632   0.112 -0.0286  0.4628 -0.1702
 3987SOL    HW123420   3.831   4.550   0.117 -0.6997  0.8037 -1.0693
 3987SOL    HW223421   3.920   4.648   0.198 -0.4051  1.1663 -0.1236
 3988SOL     OW23422   4.045   4.650  12.919  0.2786 -0.0612  0.2831
 3988SOL    HW123423   4.075   4.586  12.983 -1.6686  2.3934  3.7007
 3988SOL    HW223424   4.134   4.680  12.899  0.1434 -0.1484 -0.4248
 3989SOL     OW23425   0.002   1.795  16.650 -0.3181  0.4790  0.2374
 3989SOL    HW123426   4.701   1.722  16.592  0.7045 -0.7321  1.3841
 3989SOL    HW223427   0.001   1.860  16.580  0.8826 -1.4143 -1.5636
 3990SOL     OW23428   2.631   3.123   8.321 -0.3478 -0.5297 -0.1116
 3990SOL    HW123429   2.704   3.171   8.281 -0.1980 -0.5432  0.1490
 3990SOL    HW223430   2.673   3.041   8.345 -1.9843 -2.1195 -2.6961
 3991SOL     OW23431   0.287   0.266   2.432  0.1961  0.5990 -0.1601
 3991SOL    HW123432   0.219   0.286   2.497 -2.4028  3.0004 -3.5893
 3991SOL    HW223433   0.236   0.210   2.373 -0.0557  0.1855  0.4530
 3992SOL     OW23434   2.962   3.474   6.368 -0.2535  0.4357 -0.2570
 3992SOL    HW123435   3.036   3.511   6.415  0.4297 -1.7552  0.3928
 3992SOL    HW223436   2.964   3.389   6.412  0.6047  2.9029  4.4195
 3993SOL     OW23437   0.666   0.627  11.608 -0.6562 -0.2122  0.3001
 3993SOL    HW123438   0.578   0.593  11.595 -0.0939 -0.2885 -3.4408
 3993SOL    HW223439   0.662   0.697  11.542  0.2375 -0.6257 -0.2018
 3994SOL     OW23440   4.584   2.066   4.470 -0.0028 -0.1710  0.2962
 3994SOL    HW123441   4.647   2.101   4.408 -0.0848 -1.6124 -0.5909
 3994SOL    HW223442   4.503   2.079   4.421  0.0752 -0.1186  0.1835
 3995SOL     OW23443   1.268   3.161  14.066 -0.0062 -0.3592  0.5994
 3995SOL    HW123444   1.317   3.173  13.984 -0.8027  0.9664  0.3343
 3995SOL    HW223445   1.180   3.185  14.040 -0.5030 -2.8956 -0.1134
 3996SOL     OW23446   1.258   1.320   7.524 -0.3273 -0.6384 -0.4239
 3996SOL    HW123447   1.172   1.333   7.563  0.8126  0.4191  1.7466
 3996SOL    HW223448   1.241   1.230   7.498 -0.5001 -0.8660  0.5169
 3997SOL     OW23449   3.330   1.195  11.219 -0.4950  0.2046 -0.3762
 3997SOL    HW123450   3.313   1.287  11.241 -0.3975 -0.7052  3.3848
 3997SOL    HW223451   3.400   1.211  11.155 -1.5350  3.1418 -0.7567
 3998SOL     OW23452   4.113   0.373   6.938  0.0388  1.0186 -0.1584
 3998SOL    HW123453   4.022   0.386   6.910 -1.1694 -1.7420  2.5204
 3998SOL    HW223454   4.158   0.390   6.856  0.6621 -1.8164 -0.3769
 3999SOL     OW23455   2.943   2.689   4.718  0.0835  0.1656 -0.6024
 3999SOL    HW123456   2.886   2.722   4.649 -0.6930  1.3601  0.6367
 3999SOL    HW223457   2.953   2.600   4.683  0.0118 -0.4590  0.9594
 4000SOL     OW23458   0.421   0.495   4.878 -0.1503  0.0893  0.4565
 4000SOL    HW123459   0.516   0.496   4.871 -0.2203  1.3939 -0.2477
 4000SOL    HW223460   0.407   0.444   4.958 -0.4443  0.9757  0.9686
 4001SOL     OW23461   2.210   2.205   7.915 -0.4123 -0.1032 -0.3977
 4001SOL    HW123462   2.213   2.110   7.925 -1.4727 -0.2560 -1.5594
 4001SOL    HW223463   2.236   2.227   8.005  2.3581  0.9109 -1.4637
 4002SOL     OW23464   1.488   4.604  13.803  0.4351 -0.0260  0.3185
 4002SOL    HW123465   1.405   4.651  13.795  0.5424 -0.1859 -1.5188
 4002SOL    HW223466   1.506   4.574  13.714 -0.5838  2.9331 -0.8719
 4003SOL     OW23467   1.772   1.186   0.483 -0.0122 -0.1063 -0.0885
 4003SOL    HW123468   1.822   1.151   0.557 -0.5511 -0.4252  0.1261
 4003SOL    HW223469   1.774   1.281   0.496 -2.6414  0.0138 -0.5724
 4004SOL     OW23470   0.790   4.681  14.326 -0.1802 -0.0430  0.3248
 4004SOL    HW123471   0.710   0.003  14.296  0.3745 -0.0326 -1.1768
 4004SOL    HW223472   0.833   0.027  14.379  3.2554 -0.4492 -1.9616
 4005SOL     OW23473   2.781   3.037   2.300 -0.2781 -0.0406 -0.2461
 4005SOL    HW123474   2.854   3.053   2.241  0.6177 -2.9339  0.0402
 4005SOL    HW223475   2.817   3.083   2.376  0.0288  0.9194 -0.9778
 4006SOL     OW23476   3.479   3.613   1.274 -0.2922 -0.6997 -0.5278
 4006SOL    HW123477   3.502   3.521   1.281  0.0670 -0.6037 -0.4515
 4006SOL    HW223478   3.466   3.616   1.179  0.9566 -0.7258 -0.6943
 4007SOL     OW23479   4.183   4.672  13.867  0.2906 -0.5217 -0.3778
 4007SOL    HW123480   4.206   4.652  13.958  1.3893  1.6073 -0.1823
 4007SOL    HW223481   4.114   0.014  13.884 -0.4283 -1.1566 -0.9940
 4008SOL     OW23482   3.808   2.899   8.736  0.5700  0.3174  0.2565
 4008SOL    HW123483   3.833   2.834   8.801 -1.3252  0.9177  1.5648
 4008SOL    HW223484   3.767   2.964   8.793 -0.6832 -0.7887  0.6138
 4009SOL     OW23485   4.342   1.709   0.701 -0.0034 -0.3884 -0.0537
 4009SOL    HW123486   4.252   1.740   0.715  0.9626  2.9139 -1.1877
 4009SOL    HW223487   4.389   1.789   0.680 -0.4970  0.5924  2.6107
 4010SOL     OW23488   0.922   2.270   7.121 -0.3602 -0.3129 -0.6372
 4010SOL    HW123489   0.884   2.186   7.093  1.9098 -1.3677 -0.5221
 4010SOL    HW223490   0.849   2.309   7.169 -0.2463 -0.2650 -0.5036
 4011SOL     OW23491   1.575   0.475   9.051  0.1780  0.3496  0.7280
 4011SOL    HW123492   1.637   0.406   9.075  0.0938 -0.5541 -1.7054
 4011SOL    HW223493   1.589   0.473   8.957 -1.9590  0.1600  0.4142
 4012SOL     OW23494   3.174   4.148   9.154 -0.2274 -0.0359  0.7605
 4012SOL    HW123495   3.171   4.118   9.245 -0.3024 -2.0638  0.0968
 4012SOL    HW223496   3.254   4.200   9.151 -0.2097 -0.0366  1.2969
 4013SOL     OW23497   4.146   2.779  12.064 -0.3636  0.0837 -0.3637
 4013SOL    HW123498   4.227   2.801  12.018  0.2753  1.1484  1.2596
 4013SOL    HW223499   4.084   2.846  12.035 -0.8854 -0.0898  0.3464
 4014SOL     OW23500   3.481   0.022  15.460  0.8177  0.0101  0.0200
 4014SOL    HW123501   3.425   0.081  15.411 -2.6247 -0.4585  3.3529
 4014SOL    HW223502   3.548   0.079  15.498 -0.2424  0.6170  0.9744
 4015SOL     OW23503   2.150   1.760   1.888  0.8503  0.1393  0.0891
 4015SOL    HW123504   2.076   1.761   1.828 -1.1208  0.5226  2.5367
 4015SOL    HW223505   2.111   1.712   1.961  1.4769  0.5744  0.7124
 4016SOL     OW23506   3.316   4.176   8.399 -0.1957  0.3221  0.3703
 4016SOL    HW123507   3.344   4.229   8.474  0.9048  0.1912  0.0499
 4016SOL    HW223508   3.355   4.230   8.330 -0.6129 -1.5564 -1.3202
 4017SOL     OW23509   3.360   0.326  16.321  0.2047  0.4358 -0.0157
 4017SOL    HW123510   3.299   0.388  16.361 -1.7953 -0.3032 -1.9529
 4017SOL    HW223511   3.304   0.249  16.314  1.8412 -0.7991  0.4097
 4018SOL     OW23512   3.749   2.211   5.390  0.1488  0.1181 -0.1927
 4018SOL    HW123513   3.740   2.167   5.305 -0.7870 -1.0509  0.5223
 4018SOL    HW223514   3.841   2.216   5.415  0.1191 -1.7402  0.2699
 4019SOL     OW23515   2.718   2.985   9.198  0.4036 -0.0759  0.0198
 4019SOL    HW123516   2.691   3.013   9.110 -0.6359  0.5523  0.5369
 4019SOL    HW223517   2.782   2.917   9.177  2.0190  1.6457 -0.6708
 4020SOL     OW23518   2.923   0.304   6.464 -0.0833  0.2211  0.0131
 4020SOL    HW123519   2.932   0.209   6.465  0.4012  0.2594 -1.1815
 4020SOL    HW223520   2.894   0.329   6.376 -2.8085 -3.0408 -0.0074
 4021SOL     OW23521   0.411   1.733   1.441 -0.4042  0.1575  0.4030
 4021SOL    HW123522   0.345   1.773   1.385 -1.1228  0.4432  1.4601
 4021SOL    HW223523   0.446   1.662   1.387  0.9155  1.5690 -0.6025
 4022SOL     OW23524   3.103   3.817   7.479  0.2084  0.2314 -0.0914
 4022SOL    HW123525   3.078   3.768   7.401 -1.3974 -0.2201  0.7124
 4022SOL    HW223526   3.033   3.788   7.537 -1.2413  1.1310 -1.3907
 4023SOL     OW23527   3.019   1.644  16.726 -0.2934 -0.5192  0.1224
 4023SOL    HW123528   3.102   1.679  16.693  0.0064  0.5663  2.0304
 4023SOL    HW223529   3.018   1.700  16.804 -0.1475 -0.1297 -0.1572
 4024SOL     OW23530   2.872   4.592   7.065 -0.1689  0.3255 -0.5832
 4024SOL    HW123531   2.783   4.558   7.054 -0.0394 -0.1903 -0.0617
 4024SOL    HW223532   2.921   4.519   7.104 -1.8109  0.8937  2.5743
 4025SOL     OW23533   3.468   3.627   3.014  0.3279 -0.4880 -0.0360
 4025SOL    HW123534   3.508   3.577   3.084  0.4935 -1.8130 -1.0876
 4025SOL    HW223535   3.379   3.647   3.045  1.1816  2.6280  0.4496
 4026SOL     OW23536   4.186   4.671  10.276 -0.3354  0.5245 -0.3090
 4026SOL    HW123537   4.129   0.027  10.275 -1.9769 -0.6863 -0.9734
 4026SOL    HW223538   4.251   4.694  10.210  1.6278 -1.3838  0.9923
 4027SOL     OW23539   4.106   2.335  16.747 -0.0568  0.0138 -0.3170
 4027SOL    HW123540   4.147   2.339  16.833 -0.1829  0.2493 -0.2664
 4027SOL    HW223541   4.179   2.284  16.712  0.4913  0.4602  0.1642
 4028SOL     OW23542   3.375   2.776   7.995 -0.0657 -0.1042 -0.2016
 4028SOL    HW123543   3.367   2.748   8.087 -0.7874  1.1983  0.1256
 4028SOL    HW223544   3.469   2.793   7.986 -0.2963  0.9061 -0.6124
 4029SOL     OW23545   3.732   4.706  10.849  0.0156  0.0483  0.1718
 4029SOL    HW123546   3.662   0.046  10.826 -1.4151 -1.5566  0.1871
 4029SOL    HW223547   3.715   4.630  10.792  0.0490  1.0350 -1.1618
 4030SOL     OW23548   1.126   2.022   9.339  0.2463  0.4794  0.5671
 4030SOL    HW123549   1.199   1.976   9.298 -0.5606 -1.5805  1.4700
 4030SOL    HW223550   1.172   2.086   9.394  2.5983 -0.9929  0.3184
 4031SOL     OW23551   1.969   0.179   7.014 -0.7194 -0.2410 -0.0957
 4031SOL    HW123552   1.961   0.128   6.933 -1.4367  3.2352 -2.2383
 4031SOL    HW223553   1.961   0.271   6.987 -0.4709 -0.4435 -0.8596
 4032SOL     OW23554   1.211   0.827   7.415 -0.0833  0.1035  0.4056
 4032SOL    HW123555   1.241   0.787   7.497 -0.0957  3.2776  1.9576
 4032SOL    HW223556   1.271   0.788   7.352 -0.1989  1.8685 -0.7881
 4033SOL     OW23557   2.220   4.191  15.051 -0.4290 -0.2441 -0.9380
 4033SOL    HW123558   2.315   4.197  15.059 -0.4006 -0.5588 -1.0546
 4033SOL    HW223559   2.200   4.185  15.145 -2.0753  0.9903 -1.2151
 4034SOL     OW23560   2.039   2.348  17.242 -0.3512 -0.7076  0.0716
 4034SOL    HW123561   2.100   2.286  17.282  0.7573  0.7118  0.5593
 4034SOL    HW223562   2.091   2.427  17.247  0.2369 -1.0681 -0.3548
 4035SOL     OW23563   2.590   4.367  12.680  0.5037  0.9996 -0.1356
 4035SOL    HW123564   2.516   4.364  12.618  2.7499 -0.4355 -2.7330
 4035SOL    HW223565   2.561   4.291  12.730 -1.9418  0.6835 -2.0010
 4036SOL     OW23566   1.678   3.921  12.119  0.4734  0.2719 -0.0712
 4036SOL    HW123567   1.668   3.865  12.196 -0.9710  2.8042  1.5795
 4036SOL    HW223568   1.759   3.969  12.138 -0.2909  1.4055  0.3118
 4037SOL     OW23569   3.434   2.054   0.228 -0.0118  0.2797  0.1687
 4037SOL    HW123570   3.480   2.052   0.312 -2.4764  1.7555  1.5199
 4037SOL    HW223571   3.463   2.138   0.191 -0.3227  0.5922  0.6351
 4038SOL     OW23572   0.098   4.365   6.807 -0.0846  0.2448 -0.1385
 4038SOL    HW123573   0.090   4.320   6.724 -2.4517 -0.7207  0.6048
 4038SOL    HW223574   0.055   4.446   6.779  0.2462  0.9212  1.2609
 4039SOL     OW23575   1.361   0.506   6.121  0.5151 -0.1509  0.0888
 4039SOL    HW123576   1.269   0.517   6.099  0.6840  1.1166 -0.0135
 4039SOL    HW223577   1.394   0.589   6.156 -3.1199  2.1562 -1.9600
 4040SOL     OW23578   2.940   3.354   4.351  0.4096  0.0079  0.3650
 4040SOL    HW123579   2.912   3.370   4.441 -0.5833 -1.8476  0.3852
 4040SOL    HW223580   2.969   3.444   4.335  0.1909 -0.0976 -0.6054
 4041SOL     OW23581   1.842   1.542   8.299 -0.7592  0.6026  0.1615
 4041SOL    HW123582   1.747   1.552   8.290 -0.9425 -1.5875 -0.3231
 4041SOL    HW223583   1.850   1.564   8.392  2.7891  3.9363 -0.9422
 4042SOL     OW23584   1.520   2.555   6.983  0.5357  0.0743 -0.0160
 4042SOL    HW123585   1.531   2.647   6.957 -1.1259  0.1177 -0.5764
 4042SOL    HW223586   1.551   2.555   7.074 -1.2097  1.7613  0.5903
 4043SOL     OW23587   3.798   0.322  14.807 -0.0224  0.5733  0.1814
 4043SOL    HW123588   3.772   0.244  14.857 -2.9732  0.0364 -2.2015
 4043SOL    HW223589   3.725   0.347  14.750  0.8145  0.8858 -0.7535
 4044SOL     OW23590   0.419   1.761   4.069 -0.4740  0.4309  0.1280
 4044SOL    HW123591   0.331   1.761   4.105  1.3570 -1.9372  4.6069
 4044SOL    HW223592   0.419   1.689   4.006 -0.3622 -0.4925  1.1757
 4045SOL     OW23593   4.135   2.326  17.032 -0.3138  0.4545 -0.5340
 4045SOL    HW123594   4.102   2.243  17.068  1.9259  0.2859  1.1693
 4045SOL    HW223595   4.123   2.381  17.109  0.7838  1.9152 -1.4177
 4046SOL     OW23596   3.965   4.068  10.874 -0.2636  0.5364 -0.0092
 4046SOL    HW123597   3.938   4.160  10.882 -0.0909  0.7995 -2.2129
 4046SOL    HW223598   3.976   4.072  10.779  0.9525  0.3093  0.1216
 4047SOL     OW23599   4.071   4.191   0.493 -0.0239  0.2451  0.2627
 4047SOL    HW123600   4.056   4.097   0.503 -0.3087  0.1112 -1.4297
 4047SOL    HW223601   4.062   4.202   0.399 -1.9651 -1.3550  0.2371
 4048SOL     OW23602   0.787   1.539   3.198  0.1573 -0.0529  0.1846
 4048SOL    HW123603   0.870   1.511   3.161  0.0654  1.0303 -0.8392
 4048SOL    HW223604   0.744   1.556   3.114  0.6396  0.9957  0.1467
 4049SOL     OW23605   1.336   3.746  17.535 -0.1127 -0.2837  0.0763
 4049SOL    HW123606   1.403   3.772  17.472  1.1847 -2.7982  0.4361
 4049SOL    HW223607   1.347   3.823  17.592  0.6805  0.8546 -1.6188
 4050SOL     OW23608   2.196   2.902  11.554  0.2208  0.5266  0.3531
 4050SOL    HW123609   2.207   2.977  11.614  2.7337 -0.0410  0.5836
 4050SOL    HW223610   2.245   2.929  11.476  0.9162  0.9631  0.9427
 4051SOL     OW23611   0.908   2.872   8.062  0.2842 -0.0340 -0.1114
 4051SOL    HW123612   0.869   2.959   8.060 -0.1630 -0.2403 -0.4166
 4051SOL    HW223613   0.834   2.816   8.042 -0.7525  0.5807  2.0236
 4052SOL     OW23614   1.898   3.786   2.489 -0.6201  0.1339 -0.5106
 4052SOL    HW123615   1.848   3.849   2.438  1.2450  0.0950 -2.3727
 4052SOL    HW223616   1.987   3.821   2.479 -0.3092 -0.3500  0.5201
 4053SOL     OW23617   4.356   2.178   6.085  0.1892 -0.0303 -0.0071
 4053SOL    HW123618   4.340   2.264   6.125  0.1262 -0.6562  1.3105
 4053SOL    HW223619   4.329   2.196   5.995 -1.6454 -1.2598  0.3125
 4054SOL     OW23620   0.581   4.075   5.593  0.4867 -0.0504  0.4121
 4054SOL    HW123621   0.492   4.090   5.562 -0.1938 -1.4178  1.7400
 4054SOL    HW223622   0.559   4.035   5.677  0.9216  1.3269  1.2023
 4055SOL     OW23623   3.381   1.190   4.675 -0.7606  0.5501  0.0842
 4055SOL    HW123624   3.383   1.095   4.688  0.6851  0.5223 -0.3547
 4055SOL    HW223625   3.470   1.200   4.641 -0.1865 -0.2432  1.3509
 4056SOL     OW23626   1.924   2.762   9.820  0.1019  0.3217  0.0764
 4056SOL    HW123627   1.859   2.786   9.754 -0.5512 -2.2332 -0.2475
 4056SOL    HW223628   1.910   2.669   9.842  0.0787 -0.1269 -1.8363
 4057SOL     OW23629   2.914   0.938   7.393 -0.0403 -0.0231  0.3092
 4057SOL    HW123630   2.821   0.926   7.372  0.0695  2.2927 -1.4370
 4057SOL    HW223631   2.899   0.964   7.484 -0.9497  0.2573  0.0822
 4058SOL     OW23632   0.157   1.521  11.673 -0.3919 -0.4940 -0.0365
 4058SOL    HW123633   0.221   1.469  11.722 -0.0354  0.0267  0.0490
 4058SOL    HW223634   0.148   1.605  11.716 -2.1027 -0.3064 -0.7481
 4059SOL     OW23635   1.487   1.463   9.691 -0.1397 -0.4485 -0.1365
 4059SOL    HW123636   1.493   1.548   9.734  0.7844  1.2555 -3.5980
 4059SOL    HW223637   1.409   1.479   9.637 -0.1185 -0.8958 -0.3008
 4060SOL     OW23638   4.289   2.351   5.700 -0.3065  0.8524  0.1998
 4060SOL    HW123639   4.359   2.409   5.669 -1.1238  0.8888 -1.6035
 4060SOL    HW223640   4.256   2.409   5.769 -1.0822 -1.4896  1.7746
 4061SOL     OW23641   0.226   1.360   3.436  0.6432 -0.1101  0.0703
 4061SOL    HW123642   0.198   1.441   3.480 -0.1811 -0.0806 -0.5061
 4061SOL    HW223643   0.311   1.347   3.478  0.4775  0.3855  0.5699
 4062SOL     OW23644   4.108   4.019  14.828 -0.3297  0.0569  0.0663
 4062SOL    HW123645   4.191   4.065  14.817 -0.7931  0.7533 -0.4921
 4062SOL    HW223646   4.107   4.024  14.923  0.2780 -3.1386  0.2372
 4063SOL     OW23647   3.220   0.273   8.211 -0.0698 -0.6037  0.1747
 4063SOL    HW123648   3.284   0.209   8.241  0.7918 -0.2345 -0.8796
 4063SOL    HW223649   3.136   0.226   8.219  0.0057 -0.9920 -1.2400
 4064SOL     OW23650   4.530   0.286  15.840 -0.3574 -0.1732  0.5174
 4064SOL    HW123651   4.553   0.373  15.808 -1.7351  0.3895  1.0352
 4064SOL    HW223652   4.508   0.237  15.761 -0.8164  1.5608 -0.4257
 4065SOL     OW23653   0.871   1.109   5.713 -0.4798 -0.8324  0.1122
 4065SOL    HW123654   0.791   1.100   5.764 -0.6880  3.2292  0.5026
 4065SOL    HW223655   0.915   1.169   5.774  1.7638  0.3876 -2.7002
 4066SOL     OW23656   2.262   4.588   7.510 -0.2255 -0.0845  0.6998
 4066SOL    HW123657   2.256   4.675   7.470 -1.7590 -1.5342 -2.1946
 4066SOL    HW223658   2.339   4.561   7.460 -0.2539 -0.9115  1.0965
 4067SOL     OW23659   4.640   1.920   6.315 -0.1746  0.5225  0.0812
 4067SOL    HW123660   4.589   1.966   6.382 -2.3765 -1.5458 -0.1342
 4067SOL    HW223661   4.708   1.870   6.361  0.6271 -0.0934 -1.7817
 4068SOL     OW23662   3.899   0.411   2.708  0.3945  0.0504  0.1215
 4068SOL    HW123663   3.945   0.493   2.692  0.6233  0.1126  1.1304
 4068SOL    HW223664   3.822   0.438   2.758  1.0027  0.1804  0.9818
 4069SOL     OW23665   0.203   3.965  11.074 -0.1521  0.5568 -0.9530
 4069SOL    HW123666   0.190   3.962  11.168 -1.8097  3.4707 -1.0829
 4069SOL    HW223667   0.201   3.871  11.057 -0.1040  0.5302 -0.8127
 4070SOL     OW23668   1.888   3.538   7.944 -0.0044 -0.1309  0.5345
 4070SOL    HW123669   1.848   3.454   7.923 -1.4055  0.4672  0.8676
 4070SOL    HW223670   1.943   3.552   7.866 -0.3481  0.0460  0.3244
 4071SOL     OW23671   1.857   2.566  10.612 -0.4267 -0.0679 -0.2777
 4071SOL    HW123672   1.811   2.570  10.528 -1.3675 -2.7675  0.1128
 4071SOL    HW223673   1.779   2.548  10.664  1.0387  1.3942  2.3979
 4072SOL     OW23674   2.849   2.103  15.197  0.1899  0.3541 -0.9127
 4072SOL    HW123675   2.764   2.146  15.194  0.3828  0.7205 -1.0163
 4072SOL    HW223676   2.815   2.018  15.168  1.3695 -0.7317  0.8243
 4073SOL     OW23677   1.306   4.066  10.563 -0.0225  0.1496  0.2354
 4073SOL    HW123678   1.372   4.134  10.549  2.8425 -2.0833  2.9914
 4073SOL    HW223679   1.278   4.096  10.649 -1.7556 -0.3505 -0.1473
 4074SOL     OW23680   3.631   3.796  15.831  0.7190 -0.6369 -0.2090
 4074SOL    HW123681   3.577   3.737  15.884 -0.8662  0.5604 -0.5221
 4074SOL    HW223682   3.698   3.731  15.810 -0.3454 -1.4858 -0.9928
 4075SOL     OW23683   3.121   0.638  14.393 -0.0118  0.3145 -0.1165
 4075SOL    HW123684   3.084   0.674  14.312  1.5334 -1.0197 -1.4153
 4075SOL    HW223685   3.160   0.715  14.437 -0.6263  0.6816 -0.2142
 4076SOL     OW23686   1.221   1.762   3.777  0.5727 -0.4932 -0.3988
 4076SOL    HW123687   1.172   1.843   3.792  0.3295 -0.6569 -0.3033
 4076SOL    HW223688   1.149   1.718   3.733  0.5430 -1.3488  0.4934
 4077SOL     OW23689   0.582   1.418   4.863 -0.2165  0.0503  0.5710
 4077SOL    HW123690   0.517   1.384   4.924 -0.2769 -0.7174  0.0753
 4077SOL    HW223691   0.626   1.337   4.837 -1.3458 -0.2771 -0.2907
 4078SOL     OW23692   4.490   2.641   5.934 -0.3724  0.1180  0.4353
 4078SOL    HW123693   4.430   2.643   5.859  2.2845 -0.0426 -1.7078
 4078SOL    HW223694   4.483   2.734   5.956 -1.4256  0.4215 -1.1370
 4079SOL     OW23695   3.916   1.201   8.584  0.0490  0.3861 -0.3029
 4079SOL    HW123696   3.991   1.141   8.587 -0.7474 -0.6219 -0.7071
 4079SOL    HW223697   3.905   1.208   8.489  0.8412 -0.9398 -0.4945
 4080SOL     OW23698   0.458   3.142   0.929 -0.1167 -0.1404  0.5628
 4080SOL    HW123699   0.408   3.205   0.877 -0.7896 -1.5994 -0.5515
 4080SOL    HW223700   0.443   3.064   0.876  4.6104 -0.5140 -0.2119
 4081SOL     OW23701   4.443   0.131   5.369  0.1071 -0.6779 -0.7060
 4081SOL    HW123702   4.442   0.199   5.302 -0.6309 -2.5211 -2.5784
 4081SOL    HW223703   4.528   0.089   5.358  0.3664 -0.5440  0.7101
 4082SOL     OW23704   3.295   1.508   2.785  0.6797 -0.2633 -0.6739
 4082SOL    HW123705   3.341   1.592   2.790 -1.2306  0.8987 -2.5058
 4082SOL    HW223706   3.319   1.477   2.872 -0.8953 -2.2948 -0.9474
 4083SOL     OW23707   1.325   0.353   8.205 -0.1156 -0.1720  0.0440
 4083SOL    HW123708   1.337   0.303   8.286 -0.4955  1.6589  1.2395
 4083SOL    HW223709   1.391   0.311   8.149  0.2376  2.4686 -1.5168
 4084SOL     OW23710   2.883   3.981   5.273  0.1341 -0.0446 -0.5977
 4084SOL    HW123711   2.904   4.074   5.280  1.0288 -0.2631 -0.3022
 4084SOL    HW223712   2.964   3.970   5.222  0.3101 -1.2328 -0.0613
 4085SOL     OW23713   0.699   2.949  13.073 -0.6944 -0.1947  0.1868
 4085SOL    HW123714   0.625   3.003  13.101  0.0410 -0.0266  1.8019
 4085SOL    HW223715   0.690   2.962  12.978  1.8551 -0.3502 -0.0696
 4086SOL     OW23716   1.405   2.667   4.070 -0.1671  0.2178  0.6436
 4086SOL    HW123717   1.381   2.711   3.988  0.9668  0.9926  0.7372
 4086SOL    HW223718   1.497   2.693   4.069 -0.7347  2.1567 -1.9517
 4087SOL     OW23719   3.161   3.510  10.851 -0.3825 -0.0291 -0.1446
 4087SOL    HW123720   3.090   3.542  10.906  1.4921 -1.8830  3.3197
 4087SOL    HW223721   3.124   3.443  10.794 -0.7828 -1.3822  1.7035
 4088SOL     OW23722   3.031   0.570   3.910 -0.2398  0.0094  0.7302
 4088SOL    HW123723   3.047   0.593   4.001  1.8057  0.2250  0.3192
 4088SOL    HW223724   3.085   0.492   3.898  1.4577  1.2262  0.5730
 4089SOL     OW23725   4.681   3.750   2.517  0.0658 -0.5803 -0.0781
 4089SOL    HW123726   4.624   3.672   2.513  0.7431 -1.0406 -0.7765
 4089SOL    HW223727   0.025   3.715   2.577 -0.5767 -0.3400  0.7699
 4090SOL     OW23728   3.296   3.538   6.775  0.2097 -0.4420 -0.0670
 4090SOL    HW123729   3.367   3.565   6.834  0.6670 -0.5583 -0.5656
 4090SOL    HW223730   3.283   3.628   6.746 -0.2017 -0.1303  1.0827
 4091SOL     OW23731   4.191   3.877  12.332 -0.2766  0.0112 -0.2157
 4091SOL    HW123732   4.243   3.949  12.295  0.1426 -0.6834 -0.9564
 4091SOL    HW223733   4.265   3.837  12.378  0.1495 -0.3460 -1.2316
 4092SOL     OW23734   3.070   1.788  16.348 -0.4242 -0.3453 -0.4562
 4092SOL    HW123735   3.105   1.854  16.407 -2.5209  0.8216 -0.5370
 4092SOL    HW223736   3.141   1.750  16.296 -0.7855 -1.2598 -0.2804
 4093SOL     OW23737   1.956   2.255   6.874 -0.1437  0.0470 -0.1309
 4093SOL    HW123738   1.885   2.300   6.919  0.3878 -0.7306  1.4638
 4093SOL    HW223739   2.031   2.253   6.932  0.2374 -1.6450 -0.6824
 4094SOL     OW23740   4.186   1.733  13.261  0.0806  0.3580  0.1194
 4094SOL    HW123741   4.112   1.727  13.200 -0.6962 -0.4644  1.1618
 4094SOL    HW223742   4.151   1.806  13.311  1.7229  1.8054 -0.8037
 4095SOL     OW23743   3.678   1.254   2.608 -0.6389 -0.2604  0.4974
 4095SOL    HW123744   3.749   1.316   2.624  0.3648 -0.5186 -2.8793
 4095SOL    HW223745   3.717   1.176   2.569 -0.6821  0.2598 -0.6087
 4096SOL     OW23746   4.291   4.003   2.754  0.0247  0.0831  0.2005
 4096SOL    HW123747   4.209   4.002   2.703  0.4753  0.8832 -0.5426
 4096SOL    HW223748   4.314   4.096   2.750 -0.1731  0.1405  0.3843
 4097SOL     OW23749   1.528   3.591   5.199  0.3801  0.0764  0.2079
 4097SOL    HW123750   1.528   3.560   5.109  1.2017  3.0538 -0.8225
 4097SOL    HW223751   1.454   3.537   5.228  0.3647  1.0176  1.9449
 4098SOL     OW23752   3.898   0.963  14.858 -0.0079 -0.2368 -0.1307
 4098SOL    HW123753   3.956   0.970  14.934 -0.9231  0.0676  0.5413
 4098SOL    HW223754   3.812   0.997  14.881 -0.4896 -0.4555 -1.5616
 4099SOL     OW23755   0.370   2.038  14.115  0.1841  0.5982 -0.0758
 4099SOL    HW123756   0.398   2.068  14.201  0.7582 -0.8941  0.2563
 4099SOL    HW223757   0.415   2.101  14.058  0.8548  0.1629 -0.0285
 4100SOL     OW23758   0.710   0.638   5.652  0.4449 -0.0051 -0.3750
 4100SOL    HW123759   0.659   0.719   5.655  1.6398  0.8340 -2.8416
 4100SOL    HW223760   0.785   0.665   5.705  1.2480 -3.2582  0.1448
 4101SOL     OW23761   3.662   1.589   7.493  0.5412  0.0756 -0.3186
 4101SOL    HW123762   3.626   1.651   7.431 -1.0735 -0.7743 -0.2362
 4101SOL    HW223763   3.693   1.654   7.557 -0.0625  1.8151 -1.8083
 4102SOL     OW23764   0.015   2.114   6.701  0.1418 -0.6692  0.0031
 4102SOL    HW123765   0.091   2.080   6.654  1.6183  2.9216 -0.1800
 4102SOL    HW223766   0.036   2.091   6.791  1.4898  0.4611 -0.0224
 4103SOL     OW23767   0.277   0.931  14.251 -0.4379 -0.3166  0.5394
 4103SOL    HW123768   0.276   0.969  14.163 -0.8724 -0.3778  0.5155
 4103SOL    HW223769   0.305   1.006  14.304 -1.0106  0.0097  0.3800
 4104SOL     OW23770   2.584   4.686  14.393  0.2071  0.0215  0.0101
 4104SOL    HW123771   2.665   4.700  14.344  0.3125 -0.7982 -0.0485
 4104SOL    HW223772   2.552   0.055  14.401  1.8303  0.6009 -0.0474
 4105SOL     OW23773   0.440   3.657   9.651 -0.5186 -0.8912 -0.0324
 4105SOL    HW123774   0.522   3.670   9.700 -1.7596 -1.2654  2.1252
 4105SOL    HW223775   0.418   3.745   9.621  0.2549  0.0836  2.2752
 4106SOL     OW23776   2.373   0.623   3.800  0.4297 -0.3447  0.0990
 4106SOL    HW123777   2.434   0.629   3.874 -0.3234  0.3748  0.6697
 4106SOL    HW223778   2.357   0.529   3.803 -1.3029 -0.0242  1.1450
 4107SOL     OW23779   4.457   4.388  10.348 -0.1046 -0.6436  0.2200
 4107SOL    HW123780   4.437   4.369  10.440  0.6243  0.5346  0.6267
 4107SOL    HW223781   4.433   4.307  10.304  2.2385 -1.0010 -0.4201
 4108SOL     OW23782   1.009   3.295   6.939  0.4615  0.0863  0.3101
 4108SOL    HW123783   0.944   3.250   6.885 -1.0890  1.7786  0.7533
 4108SOL    HW223784   1.090   3.282   6.889 -0.5780 -1.2664 -1.0458
 4109SOL     OW23785   0.518   1.230   3.981  0.7120 -0.0028  0.5079
 4109SOL    HW123786   0.607   1.196   3.980  1.3992  1.8128  1.1961
 4109SOL    HW223787   0.473   1.162   4.032  0.7515 -0.7461 -0.4498
 4110SOL     OW23788   0.254   4.314   4.746 -0.1532 -0.0623 -0.7005
 4110SOL    HW123789   0.228   4.380   4.810  2.1023 -0.7459  0.8962
 4110SOL    HW223790   0.215   4.238   4.788  2.0305 -1.9327 -2.1135
 4111SOL     OW23791   2.140   4.081  13.228 -0.3377  0.3665  0.1232
 4111SOL    HW123792   2.048   4.057  13.234 -0.5147  0.1174 -3.3842
 4111SOL    HW223793   2.182   4.006  13.269  0.4199  0.8409  0.2250
 4112SOL     OW23794   2.954   3.039  13.103  0.5499 -0.7524  0.3375
 4112SOL    HW123795   2.888   3.061  13.037 -1.2690 -2.5781  1.5283
 4112SOL    HW223796   3.009   3.117  13.106 -0.1770 -0.2740  1.0417
 4113SOL     OW23797   3.260   2.509   8.776 -0.2572 -0.2041  0.3091
 4113SOL    HW123798   3.202   2.547   8.709  1.3765  0.1164 -0.9303
 4113SOL    HW223799   3.342   2.553   8.754 -0.9294  1.0401  0.2887
 4114SOL     OW23800   3.338   2.756   0.618  0.0622  0.0539  0.6195
 4114SOL    HW123801   3.260   2.718   0.578  0.9932  0.3038 -1.4032
 4114SOL    HW223802   3.299   2.801   0.693  2.1577  1.7903  0.6629
 4115SOL     OW23803   1.659   2.830  16.620  0.1473 -0.0087  0.1487
 4115SOL    HW123804   1.632   2.784  16.699  1.8993 -0.4086  0.5254
 4115SOL    HW223805   1.722   2.767  16.584 -0.7578 -0.8106 -0.0289
 4116SOL     OW23806   0.871   3.348   7.660  0.0690 -0.3078  0.2817
 4116SOL    HW123807   0.798   3.292   7.636 -0.4404  0.2699  0.4786
 4116SOL    HW223808   0.819   3.394   7.726  0.1037  2.2029 -1.4527
 4117SOL     OW23809   1.502   3.967   7.767  0.1431  0.1874  0.0541
 4117SOL    HW123810   1.476   4.014   7.688 -1.9023 -0.4046  0.3710
 4117SOL    HW223811   1.482   3.877   7.739 -2.5604  0.8060  0.0122
 4118SOL     OW23812   1.853   1.884   7.620 -0.7247  0.4876 -0.1607
 4118SOL    HW123813   1.775   1.910   7.669  0.2080 -0.1004  1.6713
 4118SOL    HW223814   1.911   1.958   7.637 -0.4897  0.1739  0.4390
 4119SOL     OW23815   4.347   3.029   5.590 -0.8876  0.2536  0.0328
 4119SOL    HW123816   4.355   2.940   5.556  1.4603  0.4990 -0.0378
 4119SOL    HW223817   4.319   3.072   5.510 -2.6918 -2.7860 -0.9696
 4120SOL     OW23818   2.733   2.142   5.896 -0.0643 -0.3064  0.2070
 4120SOL    HW123819   2.657   2.110   5.847 -1.1908  0.4394  1.4615
 4120SOL    HW223820   2.708   2.123   5.986 -0.6950  0.9897  0.3133
 4121SOL     OW23821   3.413   1.772   2.072 -0.2726 -0.5065 -0.1560
 4121SOL    HW123822   3.411   1.695   2.015 -1.2903  1.2456 -2.4887
 4121SOL    HW223823   3.333   1.748   2.118 -0.5192  0.9949  0.2188
 4122SOL     OW23824   0.489   3.497  13.052  0.1055  0.5225 -0.1696
 4122SOL    HW123825   0.430   3.500  12.976 -1.7956 -0.1265  1.2705
 4122SOL    HW223826   0.552   3.567  13.041 -1.2492  2.1023  2.0755
 4123SOL     OW23827   1.006   0.010   6.267 -0.1495  0.0666  0.2652
 4123SOL    HW123828   0.937   4.666   6.262 -0.4891  0.4959 -0.5662
 4123SOL    HW223829   1.086   4.678   6.257 -0.5795 -0.8252  1.5451
 4124SOL     OW23830   4.015   0.778   7.359  0.4494  0.2871  0.1993
 4124SOL    HW123831   3.997   0.719   7.432 -1.5288 -0.3868 -0.8232
 4124SOL    HW223832   3.926   0.791   7.325  0.4571  0.3699  0.2114
 4125SOL     OW23833   3.704   2.900   5.773 -0.0299  0.1439 -0.4828
 4125SOL    HW123834   3.728   2.893   5.865 -2.0173 -3.1763 -0.2186
 4125SOL    HW223835   3.781   2.866   5.728 -0.8661 -0.0869 -1.7369
 4126SOL     OW23836   0.278   3.930   9.380 -0.1552  0.0314  0.0587
 4126SOL    HW123837   0.346   3.939   9.447 -1.0424 -1.2835  1.1433
 4126SOL    HW223838   0.225   4.009   9.391 -1.6135 -1.1181  1.2884
 4127SOL     OW23839   0.237   0.678   3.571 -0.1082 -0.1409 -0.0780
 4127SOL    HW123840   0.182   0.741   3.524 -1.0704  0.2195  1.4990
 4127SOL    HW223841   0.321   0.720   3.554 -0.8579  0.5878 -1.9390
 4128SOL     OW23842   4.397   3.368   4.626  0.3988 -0.1498 -0.4075
 4128SOL    HW123843   4.370   3.434   4.562  0.3175 -0.2143 -0.4384
 4128SOL    HW223844   4.430   3.296   4.573 -0.2528  0.0497 -1.0738
 4129SOL     OW23845   4.588   1.654   2.711  0.3833 -0.0958 -0.1695
 4129SOL    HW123846   4.626   1.739   2.732  1.0319 -0.0256 -1.6152
 4129SOL    HW223847   4.645   1.620   2.641  2.1031  1.2496  0.5763
 4130SOL     OW23848   1.720   2.296   0.633 -0.6718 -0.0890  0.1124
 4130SOL    HW123849   1.796   2.238   0.628 -1.9148 -1.5113 -2.1247
 4130SOL    HW223850   1.757   2.379   0.665 -0.9225  0.0428  0.0579
 4131SOL     OW23851   3.626   3.420  13.429  0.6393  0.7638 -0.1800
 4131SOL    HW123852   3.663   3.371  13.503 -0.8125 -0.6030 -0.3449
 4131SOL    HW223853   3.532   3.427  13.450  0.5546 -0.3030 -0.1995
 4132SOL     OW23854   3.471   2.679   5.305  0.0359 -0.1498  0.7438
 4132SOL    HW123855   3.393   2.647   5.260  0.4566 -0.1858  0.0328
 4132SOL    HW223856   3.434   2.705   5.389 -1.6835  0.2170 -0.1381
 4133SOL     OW23857   1.624   0.803   0.119 -0.2932 -0.0035 -0.0178
 4133SOL    HW123858   1.695   0.807   0.055 -0.5321  1.3305 -0.1831
 4133SOL    HW223859   1.673   0.852   0.185  0.8214 -0.6181 -0.3858
 4134SOL     OW23860   1.277   0.692   5.668 -0.3462 -0.6865 -0.3148
 4134SOL    HW123861   1.279   0.764   5.730 -3.7063  0.3642 -1.4491
 4134SOL    HW223862   1.251   0.632   5.738  2.6393  0.6012  1.8848
 4135SOL     OW23863   4.158   3.071   7.348  0.3131  0.3484  0.1189
 4135SOL    HW123864   4.118   3.118   7.422 -0.8446 -0.3888 -0.0361
 4135SOL    HW223865   4.238   3.122   7.342  0.5438  0.0943  1.0746
 4136SOL     OW23866   3.883   2.775  12.315  0.4980  0.0660  0.3949
 4136SOL    HW123867   3.840   2.814  12.391  0.3360  2.5223 -0.9552
 4136SOL    HW223868   3.814   2.757  12.252 -1.6906  3.4467  1.7909
 4137SOL     OW23869   1.040   2.024   5.014  0.1739  0.0467 -0.5931
 4137SOL    HW123870   1.106   1.962   4.984  1.1532  0.5791  0.4701
 4137SOL    HW223871   1.004   1.970   5.085 -0.7640  0.9932 -0.3414
 4138SOL     OW23872   3.457   3.994   6.914  0.0643  0.3395  0.4667
 4138SOL    HW123873   3.372   3.956   6.935 -0.0570 -1.1105 -2.6897
 4138SOL    HW223874   3.439   4.043   6.834  0.5781  0.8361  0.6485
 4139SOL     OW23875   1.266   0.226   1.809 -0.5566 -0.3904  0.3257
 4139SOL    HW123876   1.358   0.217   1.832 -0.6978 -0.9375  0.6757
 4139SOL    HW223877   1.274   0.256   1.718  1.1824  0.3524  0.7229
 4140SOL     OW23878   2.519   2.849   9.825 -0.0696 -0.1475 -0.0884
 4140SOL    HW123879   2.508   2.920   9.889  2.2541  0.5554 -0.4746
 4140SOL    HW223880   2.429   2.817   9.826 -0.6307  1.3928 -0.5351
 4141SOL     OW23881   3.902   2.996   9.714 -0.1944 -0.6585 -0.0264
 4141SOL    HW123882   3.978   3.054   9.713 -1.6339  1.2479  0.6510
 4141SOL    HW223883   3.839   3.042   9.658 -1.5228 -0.1506  1.8808
 4142SOL     OW23884   0.151   1.632   3.491 -0.0982 -0.3012  0.4748
 4142SOL    HW123885   0.168   1.709   3.437 -1.6872  1.0876  1.9340
 4142SOL    HW223886   0.150   1.675   3.577 -2.3599  1.0779 -0.2452
 4143SOL     OW23887   3.089   1.891   6.969  0.0858 -0.1419 -0.0782
 4143SOL    HW123888   3.145   1.910   6.893 -2.1119  0.7930 -1.4702
 4143SOL    HW223889   3.099   1.797   6.958 -1.1020 -0.1293 -1.2545
 4144SOL     OW23890   0.372   0.469  12.384 -0.2392  0.3375  0.4008
 4144SOL    HW123891   0.323   0.393  12.414  0.5163  0.7307  2.5752
 4144SOL    HW223892   0.448   0.463  12.441  2.2084 -2.2355 -3.1008
 4145SOL     OW23893   3.314   0.767   7.934  0.0944  0.4224  0.0978
 4145SOL    HW123894   3.303   0.672   7.937  0.0565  0.4248  0.0246
 4145SOL    HW223895   3.301   0.795   8.025 -3.0185  0.5622 -0.4008
 4146SOL     OW23896   2.597   2.879  12.085  0.1335 -0.2451  0.5847
 4146SOL    HW123897   2.573   2.787  12.076 -3.8467  0.7146  1.6624
 4146SOL    HW223898   2.588   2.906  11.994  2.5125 -0.7896  0.1807
 4147SOL     OW23899   2.834   4.187   5.559 -0.4705  0.5493  0.6759
 4147SOL    HW123900   2.738   4.180   5.553 -0.6441  0.9123  2.9614
 4147SOL    HW223901   2.852   4.269   5.605  0.5757  2.0459 -2.3679
 4148SOL     OW23902   0.118   3.136   9.605 -0.0847  0.0845  0.1823
 4148SOL    HW123903   0.025   3.150   9.626  0.2704  1.8085  0.6389
 4148SOL    HW223904   0.109   3.047   9.571 -1.6138 -0.1635  1.1967
 4149SOL     OW23905   3.305   2.062   4.036 -0.1546 -0.0378 -0.4345
 4149SOL    HW123906   3.320   2.120   4.111 -1.0375 -0.8064  0.3355
 4149SOL    HW223907   3.279   1.979   4.076 -1.6943  1.0024  0.7433
 4150SOL     OW23908   3.223   0.896  14.487 -0.2449 -0.0536  0.1352
 4150SOL    HW123909   3.266   0.968  14.533 -2.2900 -0.1194  2.1611
 4150SOL    HW223910   3.137   0.938  14.479 -0.8186 -1.4542 -1.0638
 4151SOL     OW23911   0.781   1.699   6.115 -0.2270 -0.1538 -0.4301
 4151SOL    HW123912   0.809   1.733   6.031  0.6899 -1.0197 -0.4630
 4151SOL    HW223913   0.858   1.648   6.140 -0.9701 -0.2939  1.5710
 4152SOL     OW23914   2.902   3.342   0.209 -0.3953  0.3550  0.2716
 4152SOL    HW123915   2.812   3.312   0.222 -0.5168  0.0565 -1.2431
 4152SOL    HW223916   2.872   3.429   0.182  0.0359  0.3923 -0.0795
 4153SOL     OW23917   4.516   0.210   8.203 -0.4075  0.3318  0.3991
 4153SOL    HW123918   4.434   0.212   8.154  0.2499 -0.9730 -0.7847
 4153SOL    HW223919   4.495   0.252   8.286 -0.5329  0.6297  0.2128
 4154SOL     OW23920   1.443   1.176   5.674  0.9704 -0.6864 -0.0925
 4154SOL    HW123921   1.465   1.268   5.683  1.9542 -0.8999 -0.3291
 4154SOL    HW223922   1.514   1.130   5.719  2.0745  0.8490 -0.2668
 4155SOL     OW23923   2.170   2.556   2.443  0.6222  0.1924  0.2006
 4155SOL    HW123924   2.121   2.603   2.376 -0.1230 -1.9374 -0.7633
 4155SOL    HW223925   2.263   2.571   2.424  0.0481  0.4988 -2.3724
 4156SOL     OW23926   2.713   1.852   4.871 -0.1187  0.4661  0.2060
 4156SOL    HW123927   2.784   1.791   4.851 -0.8340 -0.2929  0.0052
 4156SOL    HW223928   2.749   1.905   4.943 -0.3579 -2.4773  2.4702
 4157SOL     OW23929   4.505   2.557   2.991  0.1627  0.0668  0.3653
 4157SOL    HW123930   4.599   2.546   3.003  0.1512 -0.8134 -0.3532
 4157SOL    HW223931   4.486   2.522   2.904  0.5881  2.3439 -0.6219
 4158SOL     OW23932   4.400   0.883   4.857  0.0793 -0.0552  0.2485
 4158SOL    HW123933   4.359   0.925   4.933  0.2770  0.6118 -0.0107
 4158SOL    HW223934   4.487   0.871   4.895  0.0955  0.3650  0.3511
 4159SOL     OW23935   1.121   2.300   9.100 -0.2354 -0.2452 -0.8079
 4159SOL    HW123936   1.167   2.295   9.017  1.0576  0.8742 -0.1568
 4159SOL    HW223937   1.156   2.227   9.150  0.6570  0.2958 -0.6421
 4160SOL     OW23938   0.993   3.617   3.435 -0.2065 -0.5699  0.0073
 4160SOL    HW123939   0.934   3.544   3.453  0.2939 -1.0547 -0.3433
 4160SOL    HW223940   1.079   3.580   3.452  0.4826  0.5832 -1.0242
 4161SOL     OW23941   2.284   4.028   3.140 -0.1385  0.1221 -0.1423
 4161SOL    HW123942   2.344   3.980   3.083  0.7293  1.5980 -0.4659
 4161SOL    HW223943   2.203   3.981   3.122 -2.3623  2.4801  3.6106
 4162SOL     OW23944   1.020   0.407  14.661  0.1265 -0.5444 -1.0007
 4162SOL    HW123945   1.033   0.432  14.569 -0.0556 -1.2502 -1.2151
 4162SOL    HW223946   1.056   0.485  14.705 -1.9181  0.3457 -0.9232
 4163SOL     OW23947   4.549   0.969  16.786  0.1809 -0.3081  0.1697
 4163SOL    HW123948   4.473   0.934  16.832 -0.3412  1.5321  0.6947
 4163SOL    HW223949   4.616   0.982  16.853 -2.1857 -0.0564  2.5005
 4164SOL     OW23950   3.392   4.656  14.331 -0.0662  0.0657  0.2140
 4164SOL    HW123951   3.412   4.577  14.282 -2.8820 -1.2465  1.1887
 4164SOL    HW223952   3.459   4.712  14.291  1.2701 -1.6181  0.1112
 4165SOL     OW23953   4.120   1.749   0.455 -0.1965 -0.5613 -0.2561
 4165SOL    HW123954   4.044   1.693   0.471  0.5352 -0.6207  3.0671
 4165SOL    HW223955   4.152   1.713   0.372 -0.0193  1.0207 -0.8713
 4166SOL     OW23956   2.573   0.844   9.791  0.5963  0.5682  0.0097
 4166SOL    HW123957   2.562   0.930   9.750 -0.1076 -0.4731 -2.0322
 4166SOL    HW223958   2.518   0.784   9.741 -1.5080 -0.0034  3.0413
 4167SOL     OW23959   1.038   2.432   5.774  0.3117  0.1623  0.0075
 4167SOL    HW123960   1.068   2.481   5.698  2.3286  0.6450  1.1271
 4167SOL    HW223961   0.952   2.474   5.781  0.2602  0.5081 -2.4480
 4168SOL     OW23962   0.944   1.494   5.561  0.1685  0.0586 -1.0954
 4168SOL    HW123963   0.984   1.575   5.528 -2.1481  1.8708  0.5887
 4168SOL    HW223964   1.006   1.424   5.537  1.7058  2.0645 -2.9829
 4169SOL     OW23965   3.346   3.351   2.477 -0.2557  0.3215  0.2335
 4169SOL    HW123966   3.261   3.379   2.445 -1.1074 -1.6907  0.7484
 4169SOL    HW223967   3.391   3.427   2.439 -0.7242 -0.1575 -1.2768
 4170SOL     OW23968   0.874   3.744   3.849  0.1138 -0.4799  0.6176
 4170SOL    HW123969   0.866   3.834   3.819  1.0205 -0.2465  1.0667
 4170SOL    HW223970   0.787   3.704   3.850  0.3798 -1.0569  1.0512
 4171SOL     OW23971   0.098   1.537  14.063 -0.3160 -0.7189  0.1495
 4171SOL    HW123972   0.190   1.562  14.051  0.4652 -2.5799  2.1811
 4171SOL    HW223973   0.094   1.540  14.159  1.3497  0.0769  0.2047
 4172SOL     OW23974   3.551   1.788   8.099  0.3868  0.0862 -0.5395
 4172SOL    HW123975   3.636   1.751   8.123  0.3789  0.5782  0.2464
 4172SOL    HW223976   3.566   1.870   8.146  1.2632  0.6940 -1.8881
 4173SOL     OW23977   3.741   3.094  16.223 -0.3065 -0.6312 -0.5173
 4173SOL    HW123978   3.830   3.101  16.259 -0.3533 -2.0370 -0.1405
 4173SOL    HW223979   3.731   3.173  16.170  2.6117  0.1172  0.0282
 4174SOL     OW23980   3.587   1.621  16.940 -0.2818  0.1990 -0.3998
 4174SOL    HW123981   3.635   1.698  16.970 -0.8273 -0.0517  1.1147
 4174SOL    HW223982   3.498   1.652  16.924 -0.3033 -0.1844 -1.0470
 4175SOL     OW23983   2.336   1.374   1.161  0.0897 -0.7813 -1.0074
 4175SOL    HW123984   2.400   1.424   1.112  0.1963  1.1133  1.0454
 4175SOL    HW223985   2.249   1.398   1.127  0.9168  0.2099 -2.4170
 4176SOL     OW23986   0.087   3.908   0.331  0.4571 -0.3429  0.0719
 4176SOL    HW123987   0.115   3.872   0.247 -1.6442 -0.2177 -0.6861
 4176SOL    HW223988   0.019   3.970   0.304  0.7978  0.6394  1.5059
 4177SOL     OW23989   3.316   1.660  16.900 -0.0636  0.5691  0.5785
 4177SOL    HW123990   3.314   1.718  16.823 -0.1760 -1.2134 -0.7741
 4177SOL    HW223991   3.303   1.579  16.851  2.6132  1.1172 -1.0998
 4178SOL     OW23992   0.281   4.013   8.649  0.0270 -0.4347 -0.0295
 4178SOL    HW123993   0.317   3.934   8.691  0.9066 -0.6286 -1.1434
 4178SOL    HW223994   0.346   4.041   8.585 -0.2031  3.5711  1.4874
 4179SOL     OW23995   0.244   4.433   7.205 -0.0694 -0.4920 -0.5420
 4179SOL    HW123996   0.246   4.341   7.232 -1.3230 -1.0461 -2.3649
 4179SOL    HW223997   0.273   4.416   7.116 -1.2862  0.0137 -1.0273
 4180SOL     OW23998   2.236   3.412   7.598  0.0057  0.3957 -0.2183
 4180SOL    HW123999   2.271   3.476   7.661 -2.6395  1.1226  0.4876
 4180SOL    HW224000   2.160   3.454   7.559  0.4456 -2.0874 -3.7417
 4181SOL     OW24001   2.955   2.894   9.549  0.0930  0.1962  0.1746
 4181SOL    HW124002   2.918   2.940   9.624 -2.5785 -0.3784 -0.8122
 4181SOL    HW224003   2.929   2.945   9.473 -1.7853  1.5430  1.7048
 4182SOL     OW24004   2.936   2.835   5.074  0.1613 -0.4235  0.8544
 4182SOL    HW124005   2.883   2.773   5.023 -3.2238  0.5357  3.1247
 4182SOL    HW224006   2.960   2.781   5.150  1.1114 -0.1480  0.7416
 4183SOL     OW24007   2.342   2.727   1.088 -0.5364  0.5456  0.4519
 4183SOL    HW124008   2.406   2.780   1.040 -2.3696  0.7454 -1.7818
 4183SOL    HW224009   2.268   2.740   1.028 -0.9264  2.1765  1.2738
 4184SOL     OW24010   3.161   3.209   7.267  0.0806  0.1921  0.6008
 4184SOL    HW124011   3.208   3.216   7.351  2.3882 -1.0693 -0.5869
 4184SOL    HW224012   3.214   3.274   7.221 -1.6765  0.7990 -0.5412
 4185SOL     OW24013   2.371   0.398  13.003  0.0336 -0.2490 -0.1305
 4185SOL    HW124014   2.338   0.352  12.926 -1.1109 -1.1944  0.9362
 4185SOL    HW224015   2.367   0.319  13.056  1.0192 -0.5912 -0.5730
 4186SOL     OW24016   3.714   4.392   5.841  0.0516  0.0719  0.0921
 4186SOL    HW124017   3.658   4.374   5.765  0.2768  0.2167 -0.1098
 4186SOL    HW224018   3.784   4.437   5.794 -1.4094  1.8821 -0.3420
 4187SOL     OW24019   0.051   4.513  11.771 -0.3673 -0.0515  0.0173
 4187SOL    HW124020   0.111   4.583  11.799 -0.3622  0.3756 -1.0551
 4187SOL    HW224021   4.711   4.502  11.844  0.2005  0.0478  0.5096
 4188SOL     OW24022   4.581   4.455   5.727  0.3084 -0.2023  0.0512
 4188SOL    HW124023   4.510   4.391   5.726  0.7698 -0.7464  1.8499
 4188SOL    HW224024   4.550   4.516   5.794  2.8732  0.4771  0.6305
 4189SOL     OW24025   3.205   1.664   2.214  0.0059  0.0794  0.3389
 4189SOL    HW124026   3.269   1.626   2.275 -0.2182 -1.3401 -0.3183
 4189SOL    HW224027   3.127   1.610   2.223 -0.0923 -0.2380 -2.5602
 4190SOL     OW24028   4.082   1.850   4.370 -0.0314 -0.1529 -0.5025
 4190SOL    HW124029   4.122   1.842   4.284 -0.8297 -0.4332 -0.8464
 4190SOL    HW224030   4.139   1.786   4.412 -0.8708 -0.6737 -0.1554
 4191SOL     OW24031   0.003   2.814   6.804  0.1102 -0.2291  0.1609
 4191SOL    HW124032   0.037   2.902   6.821 -0.7545  0.2169 -0.3981
 4191SOL    HW224033   4.628   2.813   6.801  0.0238 -0.9580  2.8200
 4192SOL     OW24034   2.907   3.943  12.082  0.7645 -0.1172 -0.6434
 4192SOL    HW124035   2.961   3.910  12.153 -0.2836  1.4007  0.8454
 4192SOL    HW224036   2.968   4.014  12.060 -1.0662  1.2620 -1.2271
 4193SOL     OW24037   4.480   3.775  17.277 -0.3567  0.3997 -0.0111
 4193SOL    HW124038   4.427   3.697  17.294  0.8747 -0.0199  1.9047
 4193SOL    HW224039   4.569   3.742  17.285  0.0065  0.9698 -1.7570
 4194SOL     OW24040   0.304   1.903   7.211 -0.4422 -0.6485  0.1344
 4194SOL    HW124041   0.350   1.884   7.293  0.2532  1.6547  0.2696
 4194SOL    HW224042   0.371   1.950   7.161  0.3815 -0.4978  1.3634
 4195SOL     OW24043   2.379   3.168  14.160  0.1066 -0.3075 -0.3406
 4195SOL    HW124044   2.379   3.255  14.119 -3.3645 -0.2934 -0.3486
 4195SOL    HW224045   2.295   3.129  14.135 -1.8383  2.2149  2.2272
 4196SOL     OW24046   3.595   2.612   6.444  0.5181 -0.2707  0.0656
 4196SOL    HW124047   3.630   2.653   6.522 -0.5159  1.5677 -0.4496
 4196SOL    HW224048   3.557   2.531   6.478  0.6460  0.2968  1.5247
 4197SOL     OW24049   1.578   1.264   3.792 -0.1311  0.2261 -0.0687
 4197SOL    HW124050   1.578   1.221   3.878 -1.7943  0.6618  0.1425
 4197SOL    HW224051   1.644   1.214   3.743 -3.4884 -3.6957 -0.5639
 4198SOL     OW24052   4.073   3.033   4.753 -0.4476  0.1578 -0.6342
 4198SOL    HW124053   4.164   3.031   4.784 -0.8242 -1.0526  0.4384
 4198SOL    HW224054   4.047   2.941   4.749 -0.1741  0.1334 -1.8381
 4199SOL     OW24055   3.928   2.069   0.535  0.0024 -0.1516 -0.7136
 4199SOL    HW124056   4.005   2.121   0.557  1.2346 -1.4828 -1.8455
 4199SOL    HW224057   3.899   2.048   0.624  2.0567 -0.9300 -0.2166
 4200SOL     OW24058   2.182   3.045   9.808  0.1937 -0.7636  0.2206
 4200SOL    HW124059   2.148   3.132   9.832  2.0947  0.3050 -0.9991
 4200SOL    HW224060   2.253   3.075   9.752  0.6542  1.0760  1.7809
 4201SOL     OW24061   1.058   4.641   3.850 -0.0894 -0.1668  0.1061
 4201SOL    HW124062   1.132   4.629   3.908  0.1628 -2.3769 -0.6634
 4201SOL    HW224063   0.995   4.596   3.906 -0.9806  1.8077  0.7247
 4202SOL     OW24064   2.134   1.396   4.013 -0.4027  0.8299  0.2228
 4202SOL    HW124065   2.104   1.436   3.931 -1.5764  2.1131  1.2735
 4202SOL    HW224066   2.227   1.379   3.996 -0.8521 -0.5349 -0.8827
 4203SOL     OW24067   4.409   2.023  10.840  0.6526 -0.2681  0.1836
 4203SOL    HW124068   4.485   2.081  10.841  1.4733 -1.3340 -0.1225
 4203SOL    HW224069   4.444   1.956  10.782 -2.5198 -0.7259 -1.1653
 4204SOL     OW24070   0.848   1.550  11.664 -0.6631 -0.4149 -0.3239
 4204SOL    HW124071   0.928   1.603  11.669  0.1714 -1.5750 -1.5761
 4204SOL    HW224072   0.874   1.479  11.606  1.2969 -0.9514  1.2153
 4205SOL     OW24073   0.681   1.516   0.669 -0.6597  0.4875 -0.2761
 4205SOL    HW124074   0.661   1.609   0.667 -0.7038  0.4647 -0.8563
 4205SOL    HW224075   0.728   1.505   0.586  0.7443  0.6500  0.4852
 4206SOL     OW24076   0.248   1.600   2.645 -0.4678 -0.1694  0.3882
 4206SOL    HW124077   0.220   1.544   2.717 -1.5582  0.0952  0.1671
 4206SOL    HW224078   0.164   1.595   2.600  0.2428 -0.2727 -0.9126
 4207SOL     OW24079   2.353   2.515  10.763 -0.0657 -0.3906 -0.0364
 4207SOL    HW124080   2.386   2.440  10.715  0.0434 -0.3085 -0.0909
 4207SOL    HW224081   2.287   2.552  10.704  0.3787  0.3310 -0.0920
 4208SOL     OW24082   0.882   1.697  15.770  0.0388 -0.6264  0.0668
 4208SOL    HW124083   0.889   1.608  15.805  0.8916 -1.0912 -1.2834
 4208SOL    HW224084   0.974   1.723  15.777 -0.4456  0.9790  0.5590
 4209SOL     OW24085   2.093   2.706  10.321  0.0935 -0.3674 -0.3487
 4209SOL    HW124086   2.147   2.638  10.281 -0.8545 -2.0035  1.1788
 4209SOL    HW224087   2.068   2.761  10.246  0.3604 -2.3178 -1.8874
 4210SOL     OW24088   0.343   3.526  16.582 -0.1852 -0.1288  0.0141
 4210SOL    HW124089   0.392   3.607  16.565  0.4256 -0.5864 -0.4298
 4210SOL    HW224090   0.270   3.563  16.632 -1.2540 -0.4327 -1.3140
 4211SOL     OW24091   3.261   3.076  14.824 -0.1253 -0.1654  0.1294
 4211SOL    HW124092   3.168   3.072  14.803 -0.2974 -0.8628  1.0377
 4211SOL    HW224093   3.262   3.156  14.877 -0.1344 -1.0003  1.3727
 4212SOL     OW24094   0.239   4.234   6.306  0.5196 -0.1103 -0.3679
 4212SOL    HW124095   0.227   4.158   6.363  1.4129 -0.4299 -0.6052
 4212SOL    HW224096   0.150   4.241   6.270  1.4260  1.2036 -2.3419
 4213SOL     OW24097   0.398   4.593  14.426  0.3595  0.1824  0.3643
 4213SOL    HW124098   0.470   4.615  14.485 -1.1960  1.8957  1.6377
 4213SOL    HW224099   0.447   4.590  14.343 -1.6577 -0.1509 -0.8102
 4214SOL     OW24100   0.891   1.859   5.621 -0.1252 -0.0244 -0.1465
 4214SOL    HW124101   0.948   1.800   5.573 -2.0911 -1.9749 -0.1116
 4214SOL    HW224102   0.949   1.932   5.643  2.0797 -0.8769 -3.1502
 4215SOL     OW24103   1.612   1.740   6.675 -0.7068 -0.7170  0.3542
 4215SOL    HW124104   1.620   1.645   6.677  2.8376 -0.4800 -1.4543
 4215SOL    HW224105   1.696   1.756   6.632 -1.8387  1.4792 -1.0788
 4216SOL     OW24106   1.679   0.083   9.092  0.3456 -0.3337  0.0550
 4216SOL    HW124107   1.675   0.172   9.127  1.7831  1.4470 -4.2314
 4216SOL    HW224108   1.595   0.086   9.047 -0.1009  0.2126  0.9365
 4217SOL     OW24109   3.404   0.271  14.381  0.3216 -0.0133 -0.6239
 4217SOL    HW124110   3.395   0.213  14.457  0.4834  0.0120 -0.5849
 4217SOL    HW224111   3.482   0.237  14.336 -0.2607  1.1670 -2.5037
 4218SOL     OW24112   4.467   1.807   4.507  0.0612  0.0295  0.0687
 4218SOL    HW124113   4.527   1.876   4.478  0.2237  0.3912  1.2871
 4218SOL    HW224114   4.393   1.861   4.536  0.4889  0.6283  0.0377
 4219SOL     OW24115   1.997   2.791   1.347 -0.3542  0.4680  0.3172
 4219SOL    HW124116   1.920   2.738   1.366  0.2176  0.4344  2.5534
 4219SOL    HW224117   1.966   2.858   1.285 -0.3740 -1.0603 -1.3245
 4220SOL     OW24118   1.275   0.815   4.115 -0.0745  0.1231 -0.1938
 4220SOL    HW124119   1.349   0.875   4.101  1.8058 -2.1857 -0.1081
 4220SOL    HW224120   1.305   0.765   4.191 -0.5111  0.2845  0.0877
 4221SOL     OW24121   4.524   1.874  15.042 -0.1340  0.2401  0.7130
 4221SOL    HW124122   4.613   1.885  15.009 -0.3559 -1.0247 -0.3072
 4221SOL    HW224123   4.499   1.966  15.055  1.0071  0.3358  2.1976
 4222SOL     OW24124   3.447   1.482   6.007  0.8077 -0.0137  0.3564
 4222SOL    HW124125   3.428   1.406   6.061 -1.2974 -0.6683 -1.3109
 4222SOL    HW224126   3.358   1.515   5.992  0.8539  0.0503  0.2258
 4223SOL     OW24127   4.697   4.158  11.644 -0.5487 -0.8352  0.8070
 4223SOL    HW124128   4.611   4.144  11.605 -0.3481 -1.1921  0.4984
 4223SOL    HW224129   0.007   4.068  11.641  0.9934 -0.1979 -1.3672
 4224SOL     OW24130   4.273   0.871  16.752 -0.3317  0.3588  0.1371
 4224SOL    HW124131   4.182   0.877  16.723 -0.2877  1.0680  0.1623
 4224SOL    HW224132   4.317   0.848  16.670 -0.8966  0.2282 -0.1327
 4225SOL     OW24133   4.482   2.694  17.305 -0.4522  0.0076  0.1393
 4225SOL    HW124134   4.481   2.605  17.340 -3.1785 -0.6378 -1.5987
 4225SOL    HW224135   4.392   2.713  17.330 -0.9542 -1.8866 -0.1851
 4226SOL     OW24136   2.348   2.652   7.813  0.2102  0.4515 -0.8211
 4226SOL    HW124137   2.320   2.714   7.746  2.4353  1.2768 -0.9867
 4226SOL    HW224138   2.279   2.587   7.799  0.6142 -0.3604  0.8893
 4227SOL     OW24139   4.291   0.525  15.689 -0.4657 -0.2869  0.3510
 4227SOL    HW124140   4.357   0.476  15.640 -1.3331 -2.4681  1.3548
 4227SOL    HW224141   4.345   0.597  15.722  1.1842 -0.3681 -2.2213
 4228SOL     OW24142   2.231   1.186  14.427 -0.6538 -0.6712 -0.3512
 4228SOL    HW124143   2.159   1.161  14.484 -0.0200 -3.1163 -0.6025
 4228SOL    HW224144   2.196   1.209  14.341  1.2689 -1.2552 -1.3054
 4229SOL     OW24145   2.959   3.043   3.443  0.1595 -0.3017 -0.3987
 4229SOL    HW124146   3.001   3.128   3.460 -1.7050  0.2590  1.4694
 4229SOL    HW224147   3.021   3.005   3.381 -0.7011  0.0578 -1.4720
 4230SOL     OW24148   3.803   4.624  12.778  0.6314  0.1640  0.0201
 4230SOL    HW124149   3.887   4.622  12.824  0.6507 -0.5647 -0.0546
 4230SOL    HW224150   3.754   4.671  12.845  0.2616 -1.3068  0.7547
 4231SOL     OW24151   0.277   3.842   5.024  0.3084 -0.1696  0.2662
 4231SOL    HW124152   0.271   3.758   5.069 -0.1344 -1.1096 -1.5707
 4231SOL    HW224153   0.365   3.850   4.988  0.3452  0.9216  0.6087
 4232SOL     OW24154   1.719   3.323  15.404 -0.2094 -0.2481 -0.4173
 4232SOL    HW124155   1.718   3.371  15.321  0.7928 -0.7055 -0.6904
 4232SOL    HW224156   1.670   3.245  15.376 -0.0099 -0.4531 -0.1939
 4233SOL     OW24157   0.339   1.575   4.915 -0.0207  0.5994 -0.2713
 4233SOL    HW124158   0.424   1.588   4.872 -0.2568  0.3312 -0.8301
 4233SOL    HW224159   0.279   1.584   4.840  0.2597  0.2683 -0.5348
 4234SOL     OW24160   3.026   1.927   7.726 -0.0612 -0.5040 -0.4836
 4234SOL    HW124161   3.113   1.902   7.696  0.0177  1.2063 -1.6715
 4234SOL    HW224162   2.971   1.918   7.649  0.7568 -0.7180 -1.0355
 4235SOL     OW24163   1.305   3.882  11.141  0.0776 -0.8718  0.8461
 4235SOL    HW124164   1.229   3.825  11.131  0.3058 -0.8884 -0.6714
 4235SOL    HW224165   1.285   3.949  11.207 -1.5992  1.1616 -1.7239
 4236SOL     OW24166   4.391   0.657   1.354  0.5943  0.0981  0.4890
 4236SOL    HW124167   4.479   0.682   1.327  0.2655  0.3406 -0.3721
 4236SOL    HW224168   4.405   0.581   1.411 -1.6381  0.5950  1.6885
 4237SOL     OW24169   3.079   2.305   5.277 -0.4274 -0.1909 -0.0762
 4237SOL    HW124170   3.034   2.277   5.197 -0.2886 -1.6237  0.3430
 4237SOL    HW224171   3.006   2.297   5.338 -1.5180 -0.2078 -1.3842
 4238SOL     OW24172   4.555   3.452  11.565  0.5097  0.1111  0.5136
 4238SOL    HW124173   4.472   3.454  11.613  0.7022 -0.8003  0.8943
 4238SOL    HW224174   4.605   3.377  11.598  1.0549  0.3505  0.2344
 4239SOL     OW24175   1.610   4.339  12.981  0.1438  0.2735  0.1650
 4239SOL    HW124176   1.629   4.260  12.929 -2.0214  0.2324 -0.5779
 4239SOL    HW224177   1.543   4.301  13.039 -0.4397  1.5956  0.3517
 4240SOL     OW24178   4.268   3.761   6.220 -0.6430  0.2768 -0.0334
 4240SOL    HW124179   4.241   3.850   6.243 -2.2928  0.1033 -1.3027
 4240SOL    HW224180   4.214   3.720   6.288 -1.0869 -0.0370 -0.5720
 4241SOL     OW24181   3.181   0.952   5.775  0.1003  0.0870 -0.0584
 4241SOL    HW124182   3.125   0.984   5.704 -0.6951 -0.3611  0.3735
 4241SOL    HW224183   3.267   0.929   5.740  0.5919  1.3241  0.3218
 4242SOL     OW24184   3.465   0.482  12.195 -0.3656 -0.0545  0.2587
 4242SOL    HW124185   3.421   0.565  12.211 -0.7028  0.3686 -2.7816
 4242SOL    HW224186   3.402   0.423  12.236 -0.3269 -0.4287 -0.2176
 4243SOL     OW24187   1.634   1.690  14.698 -0.0615  0.2598 -0.1267
 4243SOL    HW124188   1.560   1.639  14.731  0.6801 -1.8056 -1.5959
 4243SOL    HW224189   1.592   1.750  14.636 -1.5259 -0.7329 -0.0738
 4244SOL     OW24190   3.986   2.494   9.743  0.1716  0.2726 -0.3510
 4244SOL    HW124191   3.959   2.585   9.734 -1.7049 -0.2600 -0.1678
 4244SOL    HW224192   3.967   2.474   9.835 -1.3522  0.1042 -0.6884
 4245SOL     OW24193   4.348   3.267   2.775  0.3220 -0.0924 -0.2796
 4245SOL    HW124194   4.345   3.184   2.822 -1.5533 -0.6587 -1.4401
 4245SOL    HW224195   4.260   3.301   2.792  0.1636 -1.4538  1.5801
 4246SOL     OW24196   4.281   3.000   2.807 -0.5073  0.5507  0.2222
 4246SOL    HW124197   4.214   2.931   2.806 -1.8025  1.8025  0.8375
 4246SOL    HW224198   4.364   2.952   2.806 -0.6500  0.3056  0.4332
 4247SOL     OW24199   4.305   2.829   6.134  0.3650 -0.6554 -0.5796
 4247SOL    HW124200   4.298   2.904   6.076 -1.2528 -1.9260 -1.9928
 4247SOL    HW224201   4.373   2.862   6.194  0.9242  1.6740 -2.5006
 4248SOL     OW24202   1.089   2.410   0.019 -0.0714 -0.4934  0.0811
 4248SOL    HW124203   1.121   2.401  17.617 -0.2306 -1.0285  0.0749
 4248SOL    HW224204   1.101   2.323   0.058 -0.7268 -1.0385 -0.8958
 4249SOL     OW24205   4.101   4.203   6.022 -0.0333  0.4344  0.1986
 4249SOL    HW124206   4.100   4.189   5.928  0.9827  0.8217  0.1322
 4249SOL    HW224207   4.142   4.288   6.040 -0.6178  0.6432  0.5597
 4250SOL     OW24208   0.088   3.257   4.733 -0.2619  0.0094  0.4035
 4250SOL    HW124209   0.161   3.223   4.785  2.6404 -0.4164 -3.8811
 4250SOL    HW224210   0.121   3.231   4.647 -0.3284  0.2196  0.3130
 4251SOL     OW24211   0.098   0.296   2.151  0.1037  0.2115  0.8692
 4251SOL    HW124212   0.099   0.210   2.109  1.9248  0.8672 -0.4377
 4251SOL    HW224213   0.019   0.328   2.108  0.1352  0.3028  0.8786
 4252SOL     OW24214   0.941   3.782  13.094  0.4110 -0.2966 -0.6552
 4252SOL    HW124215   0.971   3.753  13.008  0.0430 -2.2166 -0.1465
 4252SOL    HW224216   1.011   3.840  13.124  0.7547 -0.9851 -0.1327
 4253SOL     OW24217   3.572   3.218   3.082  0.5823  0.2619  0.3546
 4253SOL    HW124218   3.595   3.144   3.138 -1.6332  1.3311  2.6577
 4253SOL    HW224219   3.630   3.201   3.008  0.9484  1.1060  0.4489
 4254SOL     OW24220   1.996   2.495   0.607  0.1284 -0.8182 -0.3934
 4254SOL    HW124221   2.030   2.405   0.602  3.7555  0.6312 -1.5901
 4254SOL    HW224222   1.994   2.518   0.699 -1.4814 -0.7174 -0.4537
 4255SOL     OW24223   2.934   0.680  17.645 -0.3536 -0.5078  0.2712
 4255SOL    HW124224   3.008   0.620  17.650 -0.2987 -0.4561  0.0953
 4255SOL    HW224225   2.880   0.630  17.583  0.7443 -0.9228 -0.3426
 4256SOL     OW24226   2.480   4.172   6.664 -0.1973  0.3224  0.1871
 4256SOL    HW124227   2.440   4.092   6.629  3.1744 -0.1069 -2.7597
 4256SOL    HW224228   2.404   4.215   6.703  0.6131  0.0832  2.0462
 4257SOL     OW24229   3.783   1.337   5.148 -0.2144 -0.1844 -0.1859
 4257SOL    HW124230   3.688   1.326   5.150 -0.1638 -0.2453  2.1250
 4257SOL    HW224231   3.792   1.413   5.091 -2.6037 -0.3914 -0.8351
 4258SOL     OW24232   2.221   3.134   7.512 -0.0911 -0.3215 -0.2067
 4258SOL    HW124233   2.313   3.112   7.502  0.4726  1.4576  1.0397
 4258SOL    HW224234   2.233   3.223   7.545  2.3539 -0.7351 -0.0455
 4259SOL     OW24235   0.222   1.510   3.780 -0.3267 -0.4309  0.3889
 4259SOL    HW124236   0.265   1.463   3.852 -0.3323  0.9468  1.2857
 4259SOL    HW224237   0.284   1.581   3.765 -0.4024 -0.2151  1.1119
 4260SOL     OW24238   2.271   4.069  14.585 -0.1815  0.3305 -0.2773
 4260SOL    HW124239   2.331   4.065  14.659 -0.4060  0.5513 -0.0823
 4260SOL    HW224240   2.231   3.983  14.587  0.2284  0.1476 -0.0870
 4261SOL     OW24241   4.253   3.372   7.365  0.8244  0.6748  0.0295
 4261SOL    HW124242   4.169   3.371   7.412  2.1720  0.2922  2.4263
 4261SOL    HW224243   4.310   3.331   7.430  0.7701 -1.4802 -1.2884
 4262SOL     OW24244   2.132   2.965  16.679  0.0782  0.2289  0.2574
 4262SOL    HW124245   2.044   2.948  16.646  0.6385  0.7999 -1.5705
 4262SOL    HW224246   2.167   2.986  16.592 -1.4187 -0.8845 -0.6052
 4263SOL     OW24247   3.814   3.967  11.482  0.7831  0.0145 -0.1487
 4263SOL    HW124248   3.831   3.873  11.482 -0.5142 -0.2181 -2.2303
 4263SOL    HW224249   3.870   3.997  11.410 -1.2183 -0.6501 -1.9720
 4264SOL     OW24250   0.602   1.402   6.397  0.4050  0.0373 -0.0737
 4264SOL    HW124251   0.540   1.332   6.418  0.8531 -0.0573  0.9279
 4264SOL    HW224252   0.586   1.458   6.473 -0.6721 -0.7846  0.3079
 4265SOL     OW24253   0.653   2.444   6.457  0.0030 -0.7831 -0.1229
 4265SOL    HW124254   0.640   2.536   6.482  1.4350 -0.7377  0.4339
 4265SOL    HW224255   0.600   2.441   6.377  0.3940  0.0638 -0.4190
 4266SOL     OW24256   2.615   0.093   9.200  0.4289  0.0476  0.2118
 4266SOL    HW124257   2.678   0.163   9.184  0.9907 -0.7190 -0.8717
 4266SOL    HW224258   2.536   0.143   9.176 -0.0778 -0.8622 -0.0318
 4267SOL     OW24259   2.669   3.237   3.630 -0.1798 -0.0150 -0.5415
 4267SOL    HW124260   2.699   3.278   3.711 -0.6012 -0.2387 -0.2738
 4267SOL    HW224261   2.604   3.301   3.603 -1.6337 -2.4593 -2.8490
 4268SOL     OW24262   0.899   2.699  16.544 -0.0263 -0.4506  0.0032
 4268SOL    HW124263   0.968   2.633  16.553  0.3739 -0.0225  0.0770
 4268SOL    HW224264   0.914   2.735  16.632 -0.5323  0.9345 -0.4896
 4269SOL     OW24265   2.671   1.200  14.790  0.3835 -0.3375  0.4885
 4269SOL    HW124266   2.696   1.144  14.716  2.2605 -0.3835  1.1501
 4269SOL    HW224267   2.736   1.270  14.791 -2.0172  1.8668 -0.6694
 4270SOL     OW24268   1.001   2.515  16.868 -0.0192  0.4435  0.0693
 4270SOL    HW124269   1.004   2.607  16.841  0.6597  0.4089  0.0186
 4270SOL    HW224270   0.979   2.470  16.786  0.3695 -0.7145  0.5986
 4271SOL     OW24271   4.135   0.061   2.959  1.1220  0.3738  0.1945
 4271SOL    HW124272   4.070   0.026   3.020  1.0249 -1.1671 -0.8016
 4271SOL    HW224273   4.072   0.081   2.890 -1.6765 -0.0962  2.6073
 4272SOL     OW24274   3.014   2.827   6.790 -0.5197  0.0052  0.5539
 4272SOL    HW124275   2.934   2.811   6.839 -0.8355  0.7933  0.2929
 4272SOL    HW224276   3.035   2.919   6.804  0.5974  0.1210 -1.7150
 4273SOL     OW24277   0.395   3.815  16.501  0.0493  0.1656  0.5012
 4273SOL    HW124278   0.370   3.782  16.415 -1.9628  1.1829  0.6988
 4273SOL    HW224279   0.487   3.825  16.477 -0.2934  2.0717  0.0360
 4274SOL     OW24280   0.040   0.850   3.928  0.3569 -0.2086  0.0979
 4274SOL    HW124281   4.686   0.889   3.883  0.3568  0.3761  0.6021
 4274SOL    HW224282   0.071   0.793   3.859 -1.2360 -0.2836 -0.5530
 4275SOL     OW24283   2.667   2.567   5.373  0.1565 -0.1297 -0.3160
 4275SOL    HW124284   2.605   2.565   5.446  2.0188  1.4865  1.3225
 4275SOL    HW224285   2.713   2.648   5.395  0.2117 -0.7222  1.8348
 4276SOL     OW24286   4.357   0.294   0.383 -0.6685  0.0259 -0.4415
 4276SOL    HW124287   4.318   0.218   0.427  1.7531 -0.1210  1.4435
 4276SOL    HW224288   4.292   0.358   0.411 -0.1624  1.4339 -2.4661
 4277SOL     OW24289   3.364   1.155   6.991  0.2381 -0.2712  0.1017
 4277SOL    HW124290   3.319   1.154   6.906 -0.0848  3.0265  0.2143
 4277SOL    HW224291   3.363   1.249   7.007  0.0823 -0.3794  0.7354
 4278SOL     OW24292   0.694   3.150   9.923 -0.5950  0.0192 -0.2158
 4278SOL    HW124293   0.642   3.093   9.867  0.8294 -1.2824 -0.2058
 4278SOL    HW224294   0.665   3.122  10.010 -1.2627  1.5132  0.0404
 4279SOL     OW24295   0.700   2.705  15.740 -0.4028 -0.5659  0.0721
 4279SOL    HW124296   0.732   2.725  15.652  2.5370 -0.3450  1.2000
 4279SOL    HW224297   0.668   2.792  15.762 -3.0183 -1.3458 -0.6742
 4280SOL     OW24298   3.535   0.732  14.628  0.3250  0.5396 -0.4815
 4280SOL    HW124299   3.552   0.766  14.716 -0.5697  0.4693 -0.2766
 4280SOL    HW224300   3.440   0.726  14.639  0.4975 -1.6613 -0.2693
 4281SOL     OW24301   1.401   1.403   9.165  0.0141 -0.0383  0.3411
 4281SOL    HW124302   1.392   1.388   9.259  1.3627 -1.2976  0.2608
 4281SOL    HW224303   1.314   1.433   9.137  0.7000  1.5580 -0.0754
 4282SOL     OW24304   2.587   0.633   5.780 -0.7170  0.1473 -0.4349
 4282SOL    HW124305   2.567   0.715   5.824  1.4549  1.1017 -1.2457
 4282SOL    HW224306   2.659   0.599   5.833 -0.1083  0.9215 -0.7585
 4283SOL     OW24307   1.058   2.456   1.961  0.0646 -0.0325 -0.1181
 4283SOL    HW124308   1.088   2.547   1.966 -1.2640  0.4550 -1.2081
 4283SOL    HW224309   0.980   2.472   2.013  1.1587  1.0504  1.2175
 4284SOL     OW24310   2.160   3.422  16.514  1.1184 -0.3964  0.1746
 4284SOL    HW124311   2.106   3.500  16.510  1.0144 -0.2968  3.4286
 4284SOL    HW224312   2.088   3.364  16.489  1.5038 -0.7205 -0.1936
 4285SOL     OW24313   2.762   2.005  11.082 -0.1151  0.0975  0.2396
 4285SOL    HW124314   2.749   2.000  11.177 -1.5782 -1.9502 -0.0739
 4285SOL    HW224315   2.714   1.931  11.046  0.2331  0.0315 -0.0862
 4286SOL     OW24316   2.227   0.548  11.212 -0.0895 -0.0905 -0.5192
 4286SOL    HW124317   2.315   0.585  11.215  0.5288 -1.6428  0.8808
 4286SOL    HW224318   2.184   0.571  11.295  0.9496 -0.5374  0.1520
 4287SOL     OW24319   3.090   4.430   1.200  0.1358  0.0993  0.0954
 4287SOL    HW124320   3.085   4.340   1.168 -0.8897  0.4596 -0.7595
 4287SOL    HW224321   3.081   4.414   1.294  1.5906 -0.7761  0.0816
 4288SOL     OW24322   2.307   3.881  14.097  0.4806 -0.1267  0.0961
 4288SOL    HW124323   2.367   3.901  14.169  4.1390 -1.7367 -2.5213
 4288SOL    HW224324   2.274   3.969  14.080  2.4165  0.4481 -0.6776
 4289SOL     OW24325   1.239   0.424   1.040  0.3980  0.1920  0.5029
 4289SOL    HW124326   1.152   0.401   1.074  0.7454  0.1145  1.3339
 4289SOL    HW224327   1.227   0.517   1.024  0.1121  0.5266  2.5807
 4290SOL     OW24328   1.430   3.357   3.234 -0.0264  0.2923  0.3668
 4290SOL    HW124329   1.524   3.377   3.227 -0.6992  2.4614 -2.8948
 4290SOL    HW224330   1.415   3.277   3.184 -1.0008  1.9598 -2.0616
 4291SOL     OW24331   3.491   0.472   5.248 -0.0068 -0.1497  0.4306
 4291SOL    HW124332   3.483   0.566   5.262 -2.0049 -0.1086 -0.9506
 4291SOL    HW224333   3.437   0.450   5.324 -1.3465  0.5806 -0.3070
 4292SOL     OW24334   0.732   2.762  15.439 -0.9113 -0.4755 -0.0554
 4292SOL    HW124335   0.752   2.853  15.416  0.2534 -0.7850 -0.2711
 4292SOL    HW224336   0.782   2.714  15.372 -0.2179 -0.9575  0.8002
 4293SOL     OW24337   4.193   4.683   3.588  0.4090 -0.7334  0.0065
 4293SOL    HW124338   4.253   0.024   3.547 -0.7381  1.2853  1.3986
 4293SOL    HW224339   4.123   4.683   3.522  0.4935  0.8780 -0.0893
 4294SOL     OW24340   4.669   3.097   8.691 -0.1168 -0.3117  0.2741
 4294SOL    HW124341   4.621   3.124   8.613 -0.9439 -1.5653  0.3597
 4294SOL    HW224342   4.596   3.063   8.742 -0.6900  1.4684  0.6481
 4295SOL     OW24343   3.293   1.183   4.413  0.0717  0.1865 -0.0604
 4295SOL    HW124344   3.348   1.257   4.384 -0.2334  1.4205  2.5244
 4295SOL    HW224345   3.323   1.173   4.503 -1.2854 -0.6890  0.2780
 4296SOL     OW24346   3.067   1.533   5.563  0.3524  0.1910 -0.3502
 4296SOL    HW124347   3.109   1.475   5.626  2.1663  2.7075  0.7626
 4296SOL    HW224348   3.016   1.479   5.502  0.0727 -1.6715  1.5400
 4297SOL     OW24349   3.016   2.265  17.630  0.1149 -0.3250 -0.0764
 4297SOL    HW124350   2.979   2.338  17.680 -0.2062 -0.1773 -0.5288
 4297SOL    HW224351   2.945   2.230  17.578  1.2255 -2.2182 -0.3104
 4298SOL     OW24352   2.099   3.030   8.554 -0.0245 -0.1114 -0.8314
 4298SOL    HW124353   2.011   3.020   8.590  0.1189 -0.9139 -0.7058
 4298SOL    HW224354   2.146   3.038   8.637 -1.8386 -3.0280  0.4953
 4299SOL     OW24355   3.211   4.692   2.799  0.4429 -0.5304  0.3912
 4299SOL    HW124356   3.221   4.692   2.704  2.2103 -1.5183  0.5799
 4299SOL    HW224357   3.231   0.058   2.832 -0.0537  0.0469 -0.8644
 4300SOL     OW24358   0.560   4.256  16.822 -0.0286 -1.0873  0.4936
 4300SOL    HW124359   0.489   4.315  16.846 -0.4517 -1.3704 -0.0819
 4300SOL    HW224360   0.634   4.288  16.874  1.3124  1.1219 -2.7615
 4301SOL     OW24361   3.751   4.477   3.273  0.0458  0.4186  0.3519
 4301SOL    HW124362   3.657   4.483   3.256  0.3127 -1.0905 -1.6767
 4301SOL    HW224363   3.769   4.383   3.277  0.4097  0.5821  2.3460
 4302SOL     OW24364   0.606   1.767   7.994 -0.3265  0.2109 -0.1229
 4302SOL    HW124365   0.578   1.733   8.080 -1.7081  2.1684  0.2048
 4302SOL    HW224366   0.526   1.743   7.948  0.6422 -1.0845 -1.1229
 4303SOL     OW24367   0.401   0.527   3.003 -0.3434 -0.0689  0.3866
 4303SOL    HW124368   0.377   0.437   2.981  0.6738 -0.4717  0.9324
 4303SOL    HW224369   0.347   0.563   2.933 -0.5798 -2.2197 -0.5415
 4304SOL     OW24370   3.842   3.994   1.727  0.4843 -0.1238 -0.2621
 4304SOL    HW124371   3.808   4.054   1.660  0.7860  2.8533  2.2313
 4304SOL    HW224372   3.761   3.991   1.778  1.0072 -1.1042  0.5009
 4305SOL     OW24373   1.358   0.720   7.614 -0.2842 -0.7159  0.0743
 4305SOL    HW124374   1.367   0.709   7.708  1.3657  0.4333  0.0445
 4305SOL    HW224375   1.451   0.721   7.592 -0.2306 -2.3020  0.2513
 4306SOL     OW24376   1.621   4.421   7.523 -0.3558 -0.5084 -0.0254
 4306SOL    HW124377   1.566   4.473   7.466 -1.7764 -2.3826 -0.3879
 4306SOL    HW224378   1.692   4.389   7.466  0.0062  0.5107 -0.1389
 4307SOL     OW24379   0.906   3.458   6.194 -0.1038  0.5462 -0.3461
 4307SOL    HW124380   0.972   3.454   6.264 -0.9594 -2.6871  0.2545
 4307SOL    HW224381   0.871   3.546   6.210 -1.4702  0.0248 -0.5326
 4308SOL     OW24382   3.224   2.532   5.380  0.3796  0.2697 -0.3864
 4308SOL    HW124383   3.202   2.500   5.468  1.6200 -0.2675 -0.2711
 4308SOL    HW224384   3.194   2.459   5.327  0.4360  0.5219 -0.7658
 4309SOL     OW24385   1.775   2.194   2.064 -0.0401  0.6712  0.4662
 4309SOL    HW124386   1.689   2.214   2.028 -1.8339 -2.9460  2.7282
 4309SOL    HW224387   1.814   2.151   1.988  1.3619  1.2197  0.8830
 4310SOL     OW24388   1.374   2.483   7.298  0.1884 -0.6783  0.4155
 4310SOL    HW124389   1.400   2.394   7.275 -0.0379 -0.9379  1.1833
 4310SOL    HW224390   1.299   2.503   7.241 -0.8810 -2.5125  1.2001
 4311SOL     OW24391   2.631   3.549   3.218 -0.2498  0.1964  0.5239
 4311SOL    HW124392   2.599   3.525   3.131 -3.4568  1.6752  1.3050
 4311SOL    HW224393   2.726   3.536   3.208 -0.3690  0.4138 -0.8181
 4312SOL     OW24394   1.094   0.234   6.162  0.1888  0.2566 -0.3391
 4312SOL    HW124395   1.047   0.152   6.179 -0.1750  0.9248  1.8845
 4312SOL    HW224396   1.129   0.256   6.248  0.0672 -2.6293  0.4581
 4313SOL     OW24397   1.918   0.145   5.402  0.4145 -0.2649 -0.0668
 4313SOL    HW124398   1.980   0.119   5.470 -3.3638 -2.9181  2.3559
 4313SOL    HW224399   1.840   0.152   5.457 -0.4084  0.6055 -1.3509
 4314SOL     OW24400   2.567   4.430   6.657 -0.2042 -0.3476  0.3559
 4314SOL    HW124401   2.655   4.428   6.619 -0.1670  2.0944  0.2682
 4314SOL    HW224402   2.552   4.336   6.662 -0.2431 -0.3078  0.9484
 4315SOL     OW24403   0.644   3.256   1.084  0.2468 -0.2258 -0.4346
 4315SOL    HW124404   0.711   3.199   1.045  0.8336 -0.2990  0.6761
 4315SOL    HW224405   0.566   3.236   1.032 -1.3313 -2.7951  2.9641
 4316SOL     OW24406   2.364   3.947   6.585 -0.1561 -0.0082  0.1181
 4316SOL    HW124407   2.321   3.871   6.625 -0.0199 -0.3570 -0.4060
 4316SOL    HW224408   2.314   3.954   6.504  0.2321 -0.7709 -0.1906
 4317SOL     OW24409   3.423   2.573   6.888  0.0978  0.3239  0.3192
 4317SOL    HW124410   3.376   2.501   6.929  0.0376 -0.2383 -0.7250
 4317SOL    HW224411   3.430   2.646   6.949  2.6808  0.4978 -0.1766
 4318SOL     OW24412   4.603   1.876   4.179 -0.3855  0.8451  0.2541
 4318SOL    HW124413   4.529   1.865   4.238 -1.0360 -2.3389 -1.1523
 4318SOL    HW224414   4.566   1.901   4.094  1.1119  1.9627 -0.0789
 4319SOL     OW24415   2.454   3.139   7.175  0.0556 -0.0109 -0.4967
 4319SOL    HW124416   2.388   3.097   7.230 -0.8172  0.5618 -1.1054
 4319SOL    HW224417   2.492   3.067   7.125  1.1098 -0.5186  1.0411
 4320SOL     OW24418   0.644   3.774  15.230 -0.9315 -0.1568 -0.2244
 4320SOL    HW124419   0.731   3.770  15.271 -0.9773  1.6086  0.0284
 4320SOL    HW224420   0.664   3.812  15.145  1.9865 -1.3295 -0.0978
 4321SOL     OW24421   4.291   0.468   7.144 -0.5275 -0.1695  0.7826
 4321SOL    HW124422   4.252   0.452   7.058 -0.2965 -0.0938  0.6667
 4321SOL    HW224423   4.359   0.401   7.137 -0.7143 -0.2594 -0.1610
 4322SOL     OW24424   3.171   3.523   5.569  0.0627  0.1143  1.0680
 4322SOL    HW124425   3.175   3.427   5.566 -0.3007  0.1893 -1.3414
 4322SOL    HW224426   3.255   3.527   5.614  1.0360 -2.9558 -0.4858
 4323SOL     OW24427   2.424   2.344  13.673 -0.2958  0.1965  0.3324
 4323SOL    HW124428   2.349   2.291  13.647 -1.5217  1.7040  0.7641
 4323SOL    HW224429   2.473   2.285  13.730 -0.8066 -0.3363  0.2095
 4324SOL     OW24430   3.820   1.098   7.095  0.3342 -0.5584 -0.4080
 4324SOL    HW124431   3.906   1.117   7.058 -0.0774  1.9576 -0.0802
 4324SOL    HW224432   3.838   1.041   7.171  0.4409  3.7357  2.7698
 4325SOL     OW24433   4.157   3.685   7.059  0.3921 -0.6248 -0.0917
 4325SOL    HW124434   4.146   3.780   7.057 -0.6335 -0.6772  2.0563
 4325SOL    HW224435   4.084   3.663   7.000  0.8621 -1.5993 -0.3099
 4326SOL     OW24436   3.972   1.326  15.482  0.0281  0.2712 -0.1800
 4326SOL    HW124437   4.038   1.309  15.414  0.0444 -0.4750  0.0183
 4326SOL    HW224438   3.974   1.421  15.491 -0.1271  0.2074  0.5456
 4327SOL     OW24439   1.539   4.112   5.297 -0.3079  0.0672  0.1793
 4327SOL    HW124440   1.616   4.162   5.269  0.1866 -0.1971  1.0601
 4327SOL    HW224441   1.494   4.180   5.346  1.9136  1.3987  0.3793
 4328SOL     OW24442   4.288   2.692  11.761 -0.2658  0.4634  0.0725
 4328SOL    HW124443   4.318   2.744  11.836 -1.3726  1.8070 -0.4211
 4328SOL    HW224444   4.342   2.739  11.697 -0.2102  0.5175  0.1576
 4329SOL     OW24445   3.517   2.442  15.028  0.1637 -0.0905 -0.0564
 4329SOL    HW124446   3.544   2.519  15.079  2.3108 -3.4623  3.9097
 4329SOL    HW224447   3.606   2.410  15.015  1.1193  1.3437  2.9472
 4330SOL     OW24448   1.524   4.681   7.467 -0.3100  0.0274 -0.2815
 4330SOL    HW124449   1.496   4.647   7.551 -2.4479  2.4847  0.0243
 4330SOL    HW224450   1.492   0.050   7.466 -1.0071 -0.2232 -1.3341
 4331SOL     OW24451   3.788   2.931   8.239 -0.0176  0.1099  0.8499
 4331SOL    HW124452   3.858   2.915   8.303  0.2910  0.3658  0.5764
 4331SOL    HW224453   3.754   3.017   8.264 -0.0140  0.7607 -1.3726
 4332SOL     OW24454   3.272   3.502  16.922 -0.0389 -0.3565 -0.0242
 4332SOL    HW124455   3.303   3.416  16.894 -0.0769 -0.3273 -0.1560
 4332SOL    HW224456   3.293   3.557  16.846 -0.3725 -0.2975 -0.0755
 4333SOL     OW24457   4.518   0.738  12.790  0.3131  0.1260 -0.2280
 4333SOL    HW124458   4.591   0.725  12.849 -0.9142 -0.7287  1.0952
 4333SOL    HW224459   4.445   0.682  12.816 -0.9026  0.9172 -1.9115
 4334SOL     OW24460   1.236   3.427  14.915  0.3500 -0.0731  0.1810
 4334SOL    HW124461   1.187   3.455  14.838  1.2833  0.4720 -0.2012
 4334SOL    HW224462   1.192   3.343  14.933  0.8565 -0.5986 -1.0187
 4335SOL     OW24463   3.112   4.369   5.880 -0.4118 -0.5984 -0.1272
 4335SOL    HW124464   3.178   4.300   5.875 -0.9874 -1.2023  0.5960
 4335SOL    HW224465   3.162   4.447   5.901 -1.3723 -0.0144  0.0238
 4336SOL     OW24466   3.755   0.205   3.015 -0.2696  0.3545 -0.7953
 4336SOL    HW124467   3.717   0.128   3.057  0.1416  1.8870  2.3496
 4336SOL    HW224468   3.696   0.268   3.055 -1.0677 -1.9831  1.7557
 4337SOL     OW24469   4.438   2.959   9.158 -0.3227  0.4687  0.1635
 4337SOL    HW124470   4.481   2.938   9.241 -2.9272 -0.7901  1.2157
 4337SOL    HW224471   4.405   2.872   9.136  0.3414  0.0197  0.9257
 4338SOL     OW24472   4.182   2.031   7.063  0.0772  0.2051  0.0883
 4338SOL    HW124473   4.122   2.098   7.095 -0.3990  0.2651 -0.9080
 4338SOL    HW224474   4.131   1.952   7.045 -1.8132  0.6193  3.6207
 4339SOL     OW24475   4.161   2.133  10.912 -0.3753 -0.2903 -0.9506
 4339SOL    HW124476   4.197   2.215  10.948  1.6791 -1.6830  0.2010
 4339SOL    HW224477   4.244   2.085  10.903  0.2062  0.0254  2.7408
 4340SOL     OW24478   4.176   4.018  12.990 -0.2573 -0.0073 -0.0842
 4340SOL    HW124479   4.171   4.066  13.073 -0.2164  0.6568 -0.4691
 4340SOL    HW224480   4.226   3.942  13.019  1.1642  1.5238  1.5312
 4341SOL     OW24481   4.057   2.503  13.000 -0.3256 -0.3403  0.5851
 4341SOL    HW124482   4.134   2.550  13.031 -0.8625  0.7652  0.2551
 4341SOL    HW224483   3.990   2.563  13.031  1.1435  0.5245  2.0833
 4342SOL     OW24484   1.894   4.266   7.479 -0.1062 -0.0622  0.0484
 4342SOL    HW124485   1.831   4.231   7.416 -1.4342  0.3558  1.1407
 4342SOL    HW224486   1.859   4.252   7.567  1.6898 -1.0216  0.6133
 4343SOL     OW24487   2.614   1.776  10.073 -0.0615 -0.3683 -0.2118
 4343SOL    HW124488   2.519   1.782  10.071  0.0104  1.0579  1.0971
 4343SOL    HW224489   2.630   1.707  10.137 -0.6311 -0.1850  0.1246
 4344SOL     OW24490   1.573   3.087  15.052 -0.2330  0.2977  0.0885
 4344SOL    HW124491   1.593   3.023  14.984 -1.1401 -0.8239  0.8813
 4344SOL    HW224492   1.478   3.093  15.039 -0.7766 -2.1829  2.8591
 4345SOL     OW24493   4.262   3.851   0.627 -0.8986  0.1896  0.2957
 4345SOL    HW124494   4.310   3.804   0.559 -1.8079 -0.8191  0.3489
 4345SOL    HW224495   4.314   3.930   0.645  1.2135 -1.7141  2.5478
 4346SOL     OW24496   3.850   3.818   0.891  0.2179  0.3945 -0.3453
 4346SOL    HW124497   3.901   3.825   0.810  1.3181  1.2976  0.4317
 4346SOL    HW224498   3.912   3.767   0.943  0.6120  0.8641 -0.3535
 4347SOL     OW24499   2.945   2.407   9.679 -0.0603  0.0494 -0.4183
 4347SOL    HW124500   2.881   2.469   9.715  0.9104 -0.0061  1.4078
 4347SOL    HW224501   2.892   2.380   9.604  0.0764  0.9890 -0.8625
 4348SOL     OW24502   3.823   3.189   7.829  0.1144  0.3927  0.1096
 4348SOL    HW124503   3.750   3.181   7.891  0.7897 -1.4755  0.6807
 4348SOL    HW224504   3.794   3.129   7.760 -1.0058  0.7748  0.2545
 4349SOL     OW24505   4.467   0.120   4.352 -0.0279 -0.6379 -0.0750
 4349SOL    HW124506   4.501   0.033   4.372  0.7579 -0.2167  0.4236
 4349SOL    HW224507   4.498   0.132   4.262  0.6412 -2.4973 -0.0838
 4350SOL     OW24508   2.900   3.109  15.528 -0.1911 -0.3934 -0.3915
 4350SOL    HW124509   2.851   3.069  15.600  0.8933  1.1996  1.2447
 4350SOL    HW224510   2.937   3.034  15.483  0.5908  0.3816 -1.0319
 4351SOL     OW24511   3.722   0.045   8.470  0.5134  0.4297 -0.2898
 4351SOL    HW124512   3.753   0.060   8.560 -1.7583  2.6018  0.1248
 4351SOL    HW224513   3.810   0.058   8.433  0.0133 -0.9994 -1.9849
 4352SOL     OW24514   2.708   2.516  13.633  0.0090  0.5965  0.6551
 4352SOL    HW124515   2.688   2.560  13.715 -1.7300  0.9149  0.0797
 4352SOL    HW224516   2.619   2.486  13.614  1.3575 -3.1260  0.1913
 4353SOL     OW24517   4.389   4.466   6.773 -0.3306  0.1695 -0.9892
 4353SOL    HW124518   4.374   4.487   6.681 -1.2876  1.9588 -0.4184
 4353SOL    HW224519   4.312   4.508   6.812 -0.8151 -3.1047  1.5933
 4354SOL     OW24520   1.100   0.127   2.946  0.6710 -0.2892  0.4084
 4354SOL    HW124521   1.031   0.144   2.883  2.7044 -0.9385 -1.9725
 4354SOL    HW224522   1.134   0.047   2.906 -0.5176 -1.1997  1.2242
 4355SOL     OW24523   3.681   0.557   4.048 -0.3135  0.3313 -0.5094
 4355SOL    HW124524   3.629   0.481   4.075  0.5556  0.0954  0.4964
 4355SOL    HW224525   3.637   0.629   4.093  0.7626 -0.0003  1.0729
 4356SOL     OW24526   3.394   4.229   8.123  0.8797  0.1346  0.0953
 4356SOL    HW124527   3.439   4.309   8.096 -2.2355  0.7985 -3.1844
 4356SOL    HW224528   3.327   4.251   8.058 -0.2053 -0.5755  0.9713
 4357SOL     OW24529   0.434   3.865  15.395 -0.4877  0.0387  0.0634
 4357SOL    HW124530   0.503   3.832  15.337 -0.7454 -0.6921  0.1720
 4357SOL    HW224531   0.452   3.958  15.407 -2.0276  0.4352 -0.6015
 4358SOL     OW24532   3.895   0.284   4.173 -0.0439  0.0558 -0.1735
 4358SOL    HW124533   3.855   0.245   4.095 -2.1481 -1.8573  1.8365
 4358SOL    HW224534   3.923   0.367   4.135  0.3394  1.2314  2.6379
 4359SOL     OW24535   1.543   4.117  17.023 -0.3004 -0.1630  0.4519
 4359SOL    HW124536   1.571   4.192  16.971  0.1202  2.4835  4.5149
 4359SOL    HW224537   1.627   4.089  17.058 -0.4378 -1.1359 -0.0017
 4360SOL     OW24538   0.402   2.648   1.640 -0.2487  0.6309  0.4737
 4360SOL    HW124539   0.463   2.640   1.566 -0.7625  0.1539  0.1105
 4360SOL    HW224540   0.408   2.741   1.663  1.7797  0.5665  0.2769
 4361SOL     OW24541   1.042   1.162   2.138 -0.1199 -0.4957 -0.0548
 4361SOL    HW124542   1.137   1.170   2.131 -0.2800  1.0942 -0.3804
 4361SOL    HW224543   1.055   1.119   2.223 -0.5111 -1.0726 -0.2843
 4362SOL     OW24544   2.301   0.312   1.269  0.0373 -0.4385 -0.0918
 4362SOL    HW124545   2.243   0.273   1.203 -0.1664  0.8594 -0.6752
 4362SOL    HW224546   2.287   0.264   1.350  3.3661 -2.5291 -0.7333
 4363SOL     OW24547   0.017   2.970   2.329 -0.4163  0.2311 -0.2863
 4363SOL    HW124548   4.718   2.937   2.417  1.4829  1.2580  0.5299
 4363SOL    HW224549   0.013   2.890   2.278 -1.1863  0.3409 -0.4026
 4364SOL     OW24550   2.023   3.315   2.619  0.3265  0.3862  0.6229
 4364SOL    HW124551   1.961   3.272   2.679 -0.0369 -1.3055 -0.9562
 4364SOL    HW224552   1.965   3.369   2.566  3.0227  1.3383 -1.3751
 4365SOL     OW24553   0.113   0.364   4.188 -0.6567  0.4298  0.0534
 4365SOL    HW124554   0.024   0.336   4.169 -0.2859  0.1177 -1.1984
 4365SOL    HW224555   0.099   0.440   4.244 -1.5636  1.9376 -2.2351
 4366SOL     OW24556   1.611   3.482  17.393 -0.1055 -0.4042  0.0558
 4366SOL    HW124557   1.601   3.517  17.304  1.3813 -0.6961 -0.2340
 4366SOL    HW224558   1.641   3.562  17.437  1.0453 -0.1659 -1.1487
 4367SOL     OW24559   3.902   1.951   3.026 -0.2778  0.2626 -0.0289
 4367SOL    HW124560   3.928   1.878   2.970 -0.0157  0.1104  0.2970
 4367SOL    HW224561   3.945   2.024   2.981  0.2868  0.4087  0.7574
 4368SOL     OW24562   2.172   3.681   2.927  0.5051  0.1905 -0.3654
 4368SOL    HW124563   2.182   3.632   2.845  0.0007 -1.4483  0.5690
 4368SOL    HW224564   2.178   3.611   2.991  1.0697  0.1992 -0.4105
 4369SOL     OW24565   1.005   4.278   6.749 -0.1334  0.6204 -0.2356
 4369SOL    HW124566   0.973   4.365   6.723 -1.4317  0.0845 -0.4418
 4369SOL    HW224567   1.092   4.298   6.783  0.2106 -0.7816 -0.2843
 4370SOL     OW24568   4.484   3.827  15.495  0.2622  0.7348  0.3614
 4370SOL    HW124569   4.535   3.765  15.443 -0.0825  1.5751 -0.9752
 4370SOL    HW224570   4.461   3.895  15.431  0.2736  0.3922 -0.0062
 4371SOL     OW24571   0.131   3.794  15.958 -0.1825 -0.1985 -0.2598
 4371SOL    HW124572   0.094   3.783  15.870 -0.3757  1.2602 -0.3666
 4371SOL    HW224573   0.103   3.715  16.005  1.0407  0.2969  1.2885
 4372SOL     OW24574   0.551   2.915   5.904 -0.5140  0.4547 -0.0592
 4372SOL    HW124575   0.501   2.835   5.885  1.6971 -0.5362 -1.6862
 4372SOL    HW224576   0.643   2.888   5.901 -0.7787 -0.4843  0.4724
 4373SOL     OW24577   2.664   1.452   8.752  0.1967 -0.1856 -0.0004
 4373SOL    HW124578   2.720   1.504   8.695 -0.6543  1.9256  1.0845
 4373SOL    HW224579   2.660   1.502   8.834  0.6553  0.5863 -0.4495
 4374SOL     OW24580   2.291   1.485   7.274 -0.2064 -0.1570 -0.1242
 4374SOL    HW124581   2.313   1.557   7.215 -0.0025  1.2831  1.7094
 4374SOL    HW224582   2.242   1.539   7.336 -0.1142  0.1284 -0.2974
 4375SOL     OW24583   3.669   1.937  10.540 -0.1838 -0.2453  0.1771
 4375SOL    HW124584   3.631   1.935  10.628  0.9958  0.7682  0.7176
 4375SOL    HW224585   3.696   2.029  10.543 -0.8979 -0.0338 -0.1096
 4376SOL     OW24586   1.476   0.157   3.173  0.5723  0.3278  0.3930
 4376SOL    HW124587   1.414   0.212   3.220 -0.4594  0.8540 -1.5847
 4376SOL    HW224588   1.471   0.203   3.089  1.5424 -1.0035 -0.3983
 4377SOL     OW24589   1.034   2.671   9.041  0.4017  0.1782 -0.0527
 4377SOL    HW124590   0.994   2.683   9.127 -1.8037  1.6500 -1.2905
 4377SOL    HW224591   1.124   2.702   9.052  1.0130 -1.4835 -0.2642
 4378SOL     OW24592   2.717   1.022  11.565 -0.2752 -0.3247  0.0399
 4378SOL    HW124593   2.751   1.097  11.613  0.2052  0.3253 -1.3167
 4378SOL    HW224594   2.787   0.958  11.578 -0.1776 -0.0051  1.0530
 4379SOL     OW24595   1.716   4.485   3.307 -0.0019  0.7366 -0.0478
 4379SOL    HW124596   1.771   4.549   3.262 -1.1507  0.2097 -2.1994
 4379SOL    HW224597   1.681   4.424   3.242 -1.5884  1.4884  0.1167
 4380SOL     OW24598   3.837   3.881  17.450 -0.3822 -0.1215  0.0136
 4380SOL    HW124599   3.797   3.818  17.510 -2.4972  1.1119 -0.0780
 4380SOL    HW224600   3.767   3.947  17.449 -1.4047 -1.1846  0.8199
 4381SOL     OW24601   2.421   1.248   8.277  0.3844 -0.6169 -0.7539
 4381SOL    HW124602   2.402   1.226   8.369  1.5453  0.0240 -0.3550
 4381SOL    HW224603   2.445   1.338   8.302  1.6061 -1.2990  0.4991
 4382SOL     OW24604   3.168   3.239   8.309  0.0267 -0.6916 -0.0557
 4382SOL    HW124605   3.246   3.284   8.276 -1.0832  1.0926 -0.2332
 4382SOL    HW224606   3.150   3.172   8.244 -1.1816 -1.7317  1.3421
 4383SOL     OW24607   3.839   1.721   9.520 -0.2621  0.2966 -0.0092
 4383SOL    HW124608   3.935   1.723   9.529 -0.1070  0.4616 -1.7603
 4383SOL    HW224609   3.825   1.815   9.528 -0.0069  0.2080  1.4668
 4384SOL     OW24610   2.538   3.065   9.970  0.0987  0.2287 -0.4939
 4384SOL    HW124611   2.610   3.085  10.030  1.1910 -0.7785 -1.4835
 4384SOL    HW224612   2.514   3.155   9.945 -2.1308 -0.5495 -1.1515
 4385SOL     OW24613   2.403   0.765  16.756 -0.0040  0.6612 -0.4218
 4385SOL    HW124614   2.433   0.745  16.845  2.1793  0.2159 -1.2583
 4385SOL    HW224615   2.343   0.838  16.767  0.9624  1.6229 -1.5488
 4386SOL     OW24616   2.252   0.780   0.884 -0.4730  0.2048  0.0566
 4386SOL    HW124617   2.247   0.846   0.815 -1.2650 -0.1670 -0.2387
 4386SOL    HW224618   2.160   0.759   0.902  0.1690 -1.9595  0.9028
 4387SOL     OW24619   4.332   2.080   7.299 -0.5089 -0.1974 -0.2050
 4387SOL    HW124620   4.313   2.077   7.206 -0.3321  1.5460 -0.2967
 4387SOL    HW224621   4.412   2.027   7.300 -0.8293 -0.7432 -3.7500
 4388SOL     OW24622   3.732   1.520  10.218 -0.3604 -0.7658  1.0226
 4388SOL    HW124623   3.728   1.549  10.309 -0.6279  2.3167  0.0576
 4388SOL    HW224624   3.645   1.481  10.208 -1.1199  1.4075 -1.1705
 4389SOL     OW24625   3.166   0.586   6.984  0.2946  0.4888 -0.1643
 4389SOL    HW124626   3.111   0.637   7.044  2.3521  1.3435  1.0106
 4389SOL    HW224627   3.187   0.649   6.916  0.9788  0.6202  0.1696
 4390SOL     OW24628   2.448   1.612   4.776  0.2916  0.1535 -0.2159
 4390SOL    HW124629   2.376   1.553   4.753 -0.0920  0.6037 -0.1720
 4390SOL    HW224630   2.464   1.643   4.686 -0.8480 -2.8344 -1.4668
 4391SOL     OW24631   1.490   0.879  10.797  0.3191  0.1120  0.4177
 4391SOL    HW124632   1.580   0.910  10.804  0.4599 -0.2659  0.2676
 4391SOL    HW224633   1.483   0.837  10.711  0.0561  0.3434  0.3269
 4392SOL     OW24634   0.564   4.084   6.459  0.3726  0.2781 -0.2856
 4392SOL    HW124635   0.574   4.152   6.393 -1.5829  1.4993  0.6853
 4392SOL    HW224636   0.647   4.070   6.505  1.4254  0.3652 -2.1308
 4393SOL     OW24637   4.472   3.545   2.849  0.3788 -0.5221 -0.1580
 4393SOL    HW124638   4.478   3.638   2.828 -2.3617  0.1117  1.8269
 4393SOL    HW224639   4.435   3.558   2.936  1.4332 -0.2766  0.2592
 4394SOL     OW24640   1.539   0.184   4.723 -0.2409 -0.0105  0.2444
 4394SOL    HW124641   1.602   0.126   4.681 -1.5780 -1.5127  0.3183
 4394SOL    HW224642   1.497   0.224   4.647  0.5726 -3.5610 -2.0878
 4395SOL     OW24643   3.473   3.115  10.321  0.8320  0.1564 -0.3915
 4395SOL    HW124644   3.473   3.172  10.243  2.0897 -0.0180 -0.5071
 4395SOL    HW224645   3.539   3.167  10.366 -0.5601  2.8559 -1.4438
 4396SOL     OW24646   2.903   1.336  13.745  0.9233  0.2527  0.5306
 4396SOL    HW124647   2.859   1.422  13.747  1.7378  0.6380  1.8235
 4396SOL    HW224648   2.935   1.342  13.835  0.5247  2.9182  0.5098
 4397SOL     OW24649   1.975   1.545   9.169  0.4657  0.6737 -0.5160
 4397SOL    HW124650   1.973   1.632   9.210 -1.4556  0.5467 -0.3127
 4397SOL    HW224651   1.974   1.565   9.076  0.6740 -0.1265 -0.6847
 4398SOL     OW24652   0.073   1.462   8.615 -0.8296  0.0129 -0.2242
 4398SOL    HW124653   0.021   1.391   8.651 -0.8200 -0.2162 -0.6569
 4398SOL    HW224654   0.136   1.398   8.581 -1.8514 -1.9315  1.5524
 4399SOL     OW24655   3.468   0.242   8.452 -0.3377  0.0993 -0.0870
 4399SOL    HW124656   3.521   0.187   8.394  0.4177  1.1987 -0.4497
 4399SOL    HW224657   3.538   0.270   8.511 -0.5727  2.3845 -0.8948
 4400SOL     OW24658   0.821   0.047   4.109  0.0808 -0.2588  0.5707
 4400SOL    HW124659   0.894   0.054   4.170 -0.7368  0.4157  1.4748
 4400SOL    HW224660   0.819   4.682   4.070  0.2804 -1.0861  2.4034
 4401SOL     OW24661   4.558   4.492  13.696  0.4886  0.4258 -1.2451
 4401SOL    HW124662   4.467   4.469  13.680  0.5205 -0.5522  0.0239
 4401SOL    HW224663   4.552   4.582  13.730  1.6765 -0.4459  1.2622
 4402SOL     OW24664   3.047   1.885   8.405  0.5830  0.0617 -0.5417
 4402SOL    HW124665   3.104   1.822   8.450  1.5078  2.3366  1.5044
 4402SOL    HW224666   3.106   1.913   8.336 -0.3289  3.4155  0.0289
 4403SOL     OW24667   4.068   2.428   7.671  0.3952  0.1440  0.1441
 4403SOL    HW124668   4.080   2.349   7.617 -0.7763  0.2163 -0.2231
 4403SOL    HW224669   4.092   2.497   7.609 -1.3503  1.3945  0.8599
 4404SOL     OW24670   2.953   2.739   1.958 -0.2087  0.0963 -0.4706
 4404SOL    HW124671   3.006   2.695   2.025  1.2924  0.7882 -1.1966
 4404SOL    HW224672   2.891   2.796   2.004 -0.8813  0.0629 -1.3455
 4405SOL     OW24673   2.585   4.305   2.988 -0.0582  0.1252  0.2710
 4405SOL    HW124674   2.557   4.214   2.989  1.6495 -0.4149 -0.8299
 4405SOL    HW224675   2.664   4.303   2.934 -0.3615 -3.6465 -0.0691
 4406SOL     OW24676   2.974   3.577  11.939 -0.0130  0.0027 -0.3281
 4406SOL    HW124677   3.053   3.598  11.888  0.3447 -0.0289  0.2105
 4406SOL    HW224678   2.942   3.503  11.887  2.6143 -2.1171  1.0451
 4407SOL     OW24679   0.006   3.414   2.832  0.2112  0.1592  0.1449
 4407SOL    HW124680   0.025   3.320   2.821 -0.3294 -0.0883  1.3146
 4407SOL    HW224681   0.055   3.429   2.913 -0.1826  3.2077 -0.2092
 4408SOL     OW24682   3.451   1.478   1.296 -0.3195 -0.2255 -0.2459
 4408SOL    HW124683   3.541   1.449   1.279 -0.4377  0.2679 -1.6962
 4408SOL    HW224684   3.421   1.434   1.377 -0.7515  2.1557  0.8815
 4409SOL     OW24685   3.301   2.865  15.496  0.0440 -0.0084 -0.6610
 4409SOL    HW124686   3.332   2.781  15.461 -0.7145 -0.0626 -1.1991
 4409SOL    HW224687   3.335   2.857  15.585  1.5969  0.7874 -1.1800
 4410SOL     OW24688   0.431   0.746  14.140  0.0713 -1.1133 -0.4743
 4410SOL    HW124689   0.503   0.810  14.136 -0.9256  0.0498  0.1938
 4410SOL    HW224690   0.371   0.804  14.187 -1.0402 -0.4504 -2.7070
 4411SOL     OW24691   0.584   4.527   8.381  0.2963  0.5181  0.1941
 4411SOL    HW124692   0.538   4.467   8.439  1.3595 -0.2170  0.2735
 4411SOL    HW224693   0.505   4.561   8.338  0.8257  0.0680 -1.1290
 4412SOL     OW24694   1.222   3.755  16.816  0.5421 -0.2238  0.7144
 4412SOL    HW124695   1.163   3.687  16.785 -1.0651  1.5417 -0.0882
 4412SOL    HW224696   1.163   3.823  16.849 -0.0868 -0.9536  1.0890
 4413SOL     OW24697   0.724   1.381   0.203 -0.3349  0.1976  0.2801
 4413SOL    HW124698   0.785   1.351   0.135 -0.7702  0.9586 -0.4382
 4413SOL    HW224699   0.642   1.355   0.162  0.4125  0.2724 -1.2523
 4414SOL     OW24700   1.410   3.246   2.136 -0.0907 -0.3564 -0.0107
 4414SOL    HW124701   1.480   3.254   2.071  1.9989 -0.2179  2.2339
 4414SOL    HW224702   1.411   3.337   2.164 -1.4811 -0.4870  0.4723
 4415SOL     OW24703   1.687   1.107   0.039 -0.1370  0.9870 -0.3179
 4415SOL    HW124704   1.615   1.111   0.102 -0.4533  0.3519 -0.6309
 4415SOL    HW224705   1.756   1.153   0.086 -0.7334  1.2937  0.2667
 4416SOL     OW24706   1.816   1.663  13.592  0.1907  0.3013 -0.4695
 4416SOL    HW124707   1.830   1.755  13.614  0.2286 -0.2825  1.9437
 4416SOL    HW224708   1.755   1.669  13.518  0.1160 -2.5887 -0.6287
 4417SOL     OW24709   1.050   4.261   5.878 -0.0313  0.1033 -0.0349
 4417SOL    HW124710   1.078   4.204   5.950 -1.1937 -0.1441  0.2198
 4417SOL    HW224711   1.075   4.210   5.802 -2.0636  0.2296 -0.7910
 4418SOL     OW24712   0.513   3.030   5.179 -0.1906 -0.6493 -0.0482
 4418SOL    HW124713   0.527   2.971   5.253 -0.8938 -1.0186 -0.2107
 4418SOL    HW224714   0.469   3.094   5.236  1.3681  0.0318  0.4050
 4419SOL     OW24715   2.773   2.689   4.920 -0.4297 -0.4872  0.0473
 4419SOL    HW124716   2.835   2.688   4.847  1.1888  3.0973  1.3347
 4419SOL    HW224717   2.724   2.607   4.922  2.6736 -2.3147  3.2463
 4420SOL     OW24718   1.627   4.417   5.075 -0.2415 -0.3786 -0.1984
 4420SOL    HW124719   1.697   4.452   5.130 -0.4620 -1.2504  0.6454
 4420SOL    HW224720   1.674   4.336   5.052 -0.1886 -0.1820 -0.7982
 4421SOL     OW24721   1.853   2.570   9.592 -0.0618  0.1415  0.1963
 4421SOL    HW124722   1.792   2.503   9.561  0.9378  0.0600 -1.5834
 4421SOL    HW224723   1.857   2.636   9.523  0.0870 -0.7887 -0.6851
 4422SOL     OW24724   4.005   3.366   7.200 -0.5085  0.0337 -0.5142
 4422SOL    HW124725   4.077   3.303   7.194 -0.5348 -0.1484  1.0399
 4422SOL    HW224726   4.029   3.430   7.267 -2.1880  1.0675 -0.9162
 4423SOL     OW24727   3.952   0.857   7.677  0.3318 -0.2960  0.4244
 4423SOL    HW124728   3.964   0.952   7.681  1.9935 -0.5208  0.8180
 4423SOL    HW224729   3.858   0.848   7.690 -0.0269  0.2462 -1.8708
 4424SOL     OW24730   3.058   1.885   2.160  0.1096 -0.3154  0.1914
 4424SOL    HW124731   3.125   1.829   2.199  0.1386  0.9177  1.9040
 4424SOL    HW224732   3.050   1.847   2.072 -3.7588  1.5363 -0.2521
 4425SOL     OW24733   2.958   3.031   3.706  0.3773 -0.0857  0.1399
 4425SOL    HW124734   2.957   2.998   3.616 -0.4003 -1.7620  0.7634
 4425SOL    HW224735   2.951   3.125   3.685 -0.4792 -0.5010 -1.4436
 4426SOL     OW24736   0.096   2.441  14.984  0.4766 -0.1767  0.3282
 4426SOL    HW124737   0.003   2.417  14.989 -0.0025  1.8799  1.5371
 4426SOL    HW224738   0.126   2.363  15.029  1.7347  1.6631  2.6985
 4427SOL     OW24739   2.152   2.975  12.816  0.0075  0.8862  0.1468
 4427SOL    HW124740   2.182   3.063  12.791  2.3100  0.2935  0.8301
 4427SOL    HW224741   2.067   2.979  12.772 -0.2264  0.2839  0.5407
 4428SOL     OW24742   3.025   3.140   0.302  0.4229  0.2625  0.1698
 4428SOL    HW124743   2.974   3.200   0.247  0.9429 -1.1228 -1.8402
 4428SOL    HW224744   3.092   3.112   0.239 -1.6939  0.8805 -2.3591
 4429SOL     OW24745   2.728   3.299   7.415 -0.3745 -0.3094 -0.2541
 4429SOL    HW124746   2.796   3.280   7.479  1.6056  0.0585 -2.2238
 4429SOL    HW224747   2.783   3.293   7.337  0.1373 -0.6223  0.1319
 4430SOL     OW24748   0.675   3.260  13.025  0.0784  0.3965 -0.3643
 4430SOL    HW124749   0.641   3.191  12.967  0.1302 -1.3347  1.6876
 4430SOL    HW224750   0.604   3.324  13.037 -0.8748 -0.8296  0.5702
 4431SOL     OW24751   1.051   1.228   4.893  0.2731  0.3008 -0.1485
 4431SOL    HW124752   1.110   1.154   4.874 -0.1024 -0.2554  0.8669
 4431SOL    HW224753   1.079   1.245   4.983  0.4986 -2.7230  0.3448
 4432SOL     OW24754   1.864   4.098  12.208  0.7439 -0.1143 -0.0895
 4432SOL    HW124755   1.940   4.155  12.199  2.0821 -2.3261 -2.7692
 4432SOL    HW224756   1.804   4.154  12.158  1.0800  0.3730  0.0613
 4433SOL     OW24757   4.047   0.502   6.584  0.0301  0.1334  0.5242
 4433SOL    HW124758   4.142   0.509   6.594  0.1988  0.6603 -1.5182
 4433SOL    HW224759   4.016   0.423   6.627 -1.1590  0.3565  0.0617
 4434SOL     OW24760   2.967   1.737   7.941  0.2512  0.6660  0.3067
 4434SOL    HW124761   3.052   1.696   7.926  0.7930  1.1990  1.9639
 4434SOL    HW224762   2.983   1.798   7.869 -0.1651 -1.0678 -1.2419
 4435SOL     OW24763   0.056   3.155   3.695 -0.0032  0.2070 -0.3052
 4435SOL    HW124764   0.058   3.104   3.777 -3.1522 -0.5985 -0.7113
 4435SOL    HW224765   0.123   3.221   3.707 -1.5114  2.0805 -2.2390
 4436SOL     OW24766   2.017   0.413   7.398 -0.6296 -0.0457  0.6323
 4436SOL    HW124767   1.974   0.335   7.434  0.6076 -0.6690  0.7467
 4436SOL    HW224768   2.038   0.453   7.483 -3.0365  0.3388  1.0490
 4437SOL     OW24769   1.234   2.215   1.481 -0.0426 -0.0458 -0.3677
 4437SOL    HW124770   1.232   2.123   1.507  2.6031  0.3444  1.1841
 4437SOL    HW224771   1.268   2.219   1.391  0.5118  1.2578 -0.0997
 4438SOL     OW24772   2.782   4.436  17.568 -0.3961 -0.3597 -0.9158
 4438SOL    HW124773   2.806   4.431  17.476  1.7015  1.3401 -0.4850
 4438SOL    HW224774   2.772   4.530  17.582  0.2825 -0.4711  0.3904
 4439SOL     OW24775   3.649   0.177  16.364  0.3702 -0.5738  1.0369
 4439SOL    HW124776   3.562   0.185  16.327  0.2523  0.9233  1.6631
 4439SOL    HW224777   3.632   0.151  16.454 -1.6126 -0.0857  0.7900
 4440SOL     OW24778   3.023   0.479  11.371  0.0090 -0.4219 -0.2517
 4440SOL    HW124779   3.063   0.552  11.322  0.0705  1.2793  2.3430
 4440SOL    HW224780   3.049   0.494  11.462 -3.2352 -0.5531  0.6898
 4441SOL     OW24781   3.042   4.215   5.176  0.1845 -0.5880 -0.2390
 4441SOL    HW124782   2.985   4.277   5.222  3.1413  2.6239 -0.9497
 4441SOL    HW224783   3.096   4.270   5.120 -0.3676 -0.0646 -0.2670
 4442SOL     OW24784   4.704   1.836   2.378 -0.2225 -0.1754  0.3137
 4442SOL    HW124785   4.691   1.745   2.352  2.0854  0.1894 -2.1585
 4442SOL    HW224786   0.013   1.872   2.294 -0.2952  0.1319  0.4198
 4443SOL     OW24787   1.312   1.359   6.781 -0.7728  0.1133 -0.2446
 4443SOL    HW124788   1.309   1.324   6.692 -2.1345  0.1084 -0.2039
 4443SOL    HW224789   1.356   1.443   6.769 -0.0250 -0.6718 -3.1880
 4444SOL     OW24790   2.595   1.048   5.495  0.2149 -0.8093 -0.2932
 4444SOL    HW124791   2.590   1.073   5.587 -2.6510 -1.1452 -0.3522
 4444SOL    HW224792   2.567   1.125   5.444 -2.5102  0.1675  2.6522
 4445SOL     OW24793   0.070   4.311  10.365  0.2396 -0.3653 -0.2305
 4445SOL    HW124794   0.011   4.336  10.436  0.2257 -2.3431  0.4619
 4445SOL    HW224795   0.094   4.395  10.326 -1.4692  0.1631 -0.1564
 4446SOL     OW24796   2.366   4.362   6.974  0.0466  0.1167 -1.0606
 4446SOL    HW124797   2.451   4.350   7.018  0.3232  0.4119 -1.5174
 4446SOL    HW224798   2.383   4.452   6.945  0.9227  0.2142 -0.2901
 4447SOL     OW24799   3.641   3.428   2.533  0.0364  0.4101 -0.1931
 4447SOL    HW124800   3.707   3.497   2.539 -0.6924  1.0369  0.5461
 4447SOL    HW224801   3.562   3.459   2.577  0.1536 -0.8866  0.9495
 4448SOL     OW24802   2.840   1.948   8.717  0.3221 -0.4152 -0.2861
 4448SOL    HW124803   2.781   2.023   8.726  2.7580  1.5078 -0.3645
 4448SOL    HW224804   2.895   1.975   8.643 -0.7592 -1.1389 -1.3488
 4449SOL     OW24805   3.444   4.322  10.308  0.6881 -0.5723 -0.5463
 4449SOL    HW124806   3.462   4.240  10.353 -0.8227  0.3789  1.7976
 4449SOL    HW224807   3.383   4.366  10.367  1.2147  1.0144 -1.1664
 4450SOL     OW24808   3.766   4.029   1.260  0.2858  0.1211  0.0295
 4450SOL    HW124809   3.746   4.053   1.350  2.7327 -1.1971  0.9341
 4450SOL    HW224810   3.703   3.957   1.261  2.4520 -1.7604  0.1535
 4451SOL     OW24811   1.115   1.465   2.592  0.4226 -0.4107 -0.2477
 4451SOL    HW124812   1.096   1.398   2.527 -1.6921 -0.7098  0.6880
 4451SOL    HW224813   1.210   1.459   2.604  0.1290  2.3722  3.4468
 4452SOL     OW24814   3.311   4.354   6.693 -0.0236  0.2739  0.0908
 4452SOL    HW124815   3.394   4.371   6.649  0.4140 -1.7654  0.1086
 4452SOL    HW224816   3.251   4.352   6.619  0.5002  3.1807 -0.4133
 4453SOL     OW24817   4.601   3.710   3.212 -0.6105 -0.1518  0.0839
 4453SOL    HW124818   4.613   3.778   3.278  1.5419 -1.5856  1.1785
 4453SOL    HW224819   4.678   3.735   3.161 -0.4857 -1.2337 -0.2607
 4454SOL     OW24820   3.690   3.735   3.253 -0.1999 -0.3684 -0.4738
 4454SOL    HW124821   3.663   3.761   3.341 -0.2827 -0.3478 -0.5055
 4454SOL    HW224822   3.695   3.641   3.270 -4.6146 -0.3798  0.8036
 4455SOL     OW24823   2.482   4.018   3.320  0.5958 -0.2398 -0.2816
 4455SOL    HW124824   2.430   4.064   3.386  0.2108  0.9887 -1.4322
 4455SOL    HW224825   2.411   4.007   3.257 -1.3378  0.6347  1.7232
 4456SOL     OW24826   4.648   0.212  13.099  0.1958 -0.3628 -0.2089
 4456SOL    HW124827   4.698   0.204  13.017  0.6411  2.5599 -0.1984
 4456SOL    HW224828   4.583   0.144  13.077 -0.7948  0.7664 -0.7708
 4457SOL     OW24829   1.477   2.472  16.427 -0.6942 -0.4755  0.1699
 4457SOL    HW124830   1.426   2.547  16.399 -0.2771 -0.0686  0.4895
 4457SOL    HW224831   1.517   2.501  16.509  0.4211  0.8686 -0.8299
 4458SOL     OW24832   1.007   4.361  12.358  0.0656 -0.1603 -0.6182
 4458SOL    HW124833   0.998   4.312  12.276 -1.2122 -0.1340 -0.4839
 4458SOL    HW224834   1.030   4.446  12.320  1.7583 -0.6257 -0.6545
 4459SOL     OW24835   2.349   1.840   7.969  0.1518  1.0649 -0.3754
 4459SOL    HW124836   2.385   1.889   8.043  2.2156  1.8686 -1.9112
 4459SOL    HW224837   2.254   1.856   7.964 -0.1453 -0.0496  1.5147
 4460SOL     OW24838   3.731   1.462   1.051 -0.5201 -0.5898  0.1884
 4460SOL    HW124839   3.756   1.386   0.999 -0.3284 -0.3112 -0.1249
 4460SOL    HW224840   3.737   1.432   1.141  1.3290 -1.4602 -0.2219
 4461SOL     OW24841   4.262   2.026   0.022 -0.6893  0.2054 -0.0082
 4461SOL    HW124842   4.328   1.968   0.062  0.2813  1.0792 -0.3245
 4461SOL    HW224843   4.211   2.046   0.101  1.5428 -0.3349  1.5927
 4462SOL     OW24844   1.566   4.312   9.607 -0.0524 -0.1595  0.0199
 4462SOL    HW124845   1.485   4.333   9.559 -0.2826 -4.0356 -1.2567
 4462SOL    HW224846   1.629   4.375   9.570  0.5243 -0.7499  0.0008
 4463SOL     OW24847   1.961   3.236   5.341  0.6878  0.1298 -0.3865
 4463SOL    HW124848   1.920   3.314   5.303  0.5705 -0.1503 -0.8370
 4463SOL    HW224849   1.910   3.164   5.303  3.2881 -1.1926 -1.3848
 4464SOL     OW24850   1.315   4.371   7.932  0.1512  0.1685  0.1401
 4464SOL    HW124851   1.287   4.311   7.863 -0.9895  2.5499 -1.5099
 4464SOL    HW224852   1.234   4.410   7.965 -0.1967  0.3176 -0.8682
 4465SOL     OW24853   4.566   1.521  16.051 -0.6278 -0.1664  0.2635
 4465SOL    HW124854   4.533   1.483  16.133 -0.2281 -0.6127  0.2188
 4465SOL    HW224855   4.579   1.614  16.072  1.6709 -0.7370  1.3964
 4466SOL     OW24856   3.635   2.683   2.489  0.2115  0.0686  0.0417
 4466SOL    HW124857   3.598   2.700   2.576  1.2522 -1.6837  0.8274
 4466SOL    HW224858   3.730   2.677   2.500  0.1634 -0.3418  0.2366
 4467SOL     OW24859   4.460   0.339   8.451  0.4278 -0.3949 -0.8473
 4467SOL    HW124860   4.510   0.417   8.473  0.9378 -0.5029 -1.5911
 4467SOL    HW224861   4.453   0.291   8.534  0.7051  0.2964 -0.4260
 4468SOL     OW24862   2.287   2.005   1.078 -0.3606 -0.4438  0.5620
 4468SOL    HW124863   2.371   2.050   1.084 -0.8012  0.5858 -0.9235
 4468SOL    HW224864   2.234   2.031   1.153 -1.8248 -1.4059 -0.1374
 4469SOL     OW24865   1.508   1.241   1.508  0.3641  0.7461  0.0536
 4469SOL    HW124866   1.601   1.254   1.528  0.3088 -0.3076  0.9835
 4469SOL    HW224867   1.497   1.292   1.428 -1.4944  0.1165 -0.0954
 4470SOL     OW24868   0.918   0.079   5.392 -0.5956  0.7368 -0.3899
 4470SOL    HW124869   0.917   0.108   5.301 -3.3936  0.0067 -0.5910
 4470SOL    HW224870   1.013   0.089   5.398 -0.2407 -1.4927 -1.8813
 4471SOL     OW24871   1.464   0.259   9.339  0.0846 -0.2655  0.1539
 4471SOL    HW124872   1.420   0.274   9.255 -0.3561  1.7067  0.7160
 4471SOL    HW224873   1.477   0.351   9.365 -0.5216 -1.1310  3.5250
 4472SOL     OW24874   2.113   3.973  12.384  0.0674  0.0411 -0.1768
 4472SOL    HW124875   2.158   3.891  12.407  0.6121  0.2982 -0.3329
 4472SOL    HW224876   2.135   4.018  12.465  0.9438 -2.3665  0.9273
 4473SOL     OW24877   3.986   2.844   7.292 -0.1730  0.9820 -0.3477
 4473SOL    HW124878   4.027   2.802   7.216 -2.9414 -1.0796 -0.6871
 4473SOL    HW224879   4.035   2.927   7.299  1.8157  0.1347 -4.0637
 4474SOL     OW24880   0.835   1.617   1.344 -0.5870 -0.1302  0.5806
 4474SOL    HW124881   0.839   1.623   1.440 -2.0362  0.8824  0.5849
 4474SOL    HW224882   0.877   1.698   1.314  0.9072 -0.9896  0.3200
 4475SOL     OW24883   3.031   3.999   6.052  0.2497  0.0381  0.1422
 4475SOL    HW124884   3.069   3.935   5.992  1.4329  1.5537 -0.7310
 4475SOL    HW224885   2.994   3.941   6.119  1.0828  1.3842  1.7845
 4476SOL     OW24886   4.205   1.454   3.317  0.1373 -0.2636 -0.0978
 4476SOL    HW124887   4.180   1.531   3.367  0.2412  1.0687 -2.0805
 4476SOL    HW224888   4.121   1.417   3.290 -1.3135  2.1036  1.2485
 4477SOL     OW24889   0.759   4.462   3.117  0.1819 -0.0068  0.0419
 4477SOL    HW124890   0.688   4.521   3.141  0.8286  1.0242 -0.5191
 4477SOL    HW224891   0.722   4.377   3.138 -0.8824 -0.1159 -2.2219
 4478SOL     OW24892   4.048   2.193  12.180  0.6033  0.0900 -0.3040
 4478SOL    HW124893   4.036   2.175  12.273  0.1224  2.7326  0.1365
 4478SOL    HW224894   3.974   2.140  12.152  0.7287 -1.2796  1.9417
 4479SOL     OW24895   1.151   2.853   8.424  0.5861 -0.1788 -0.0026
 4479SOL    HW124896   1.138   2.934   8.375  1.3282 -0.0459  0.0349
 4479SOL    HW224897   1.241   2.823   8.416  0.0246 -1.5230 -1.3291
 4480SOL     OW24898   2.644   2.303   5.598  0.0210 -0.1130 -0.1400
 4480SOL    HW124899   2.672   2.352   5.675 -2.2683  1.0614 -0.0583
 4480SOL    HW224900   2.549   2.304   5.604  0.1025 -0.3142  1.2929
 4481SOL     OW24901   4.495   0.118   3.896  0.4516 -0.1232 -0.0579
 4481SOL    HW124902   4.415   0.074   3.867  0.5198  0.9820 -1.8636
 4481SOL    HW224903   4.500   0.185   3.829  1.3664  0.1150  0.2520
 4482SOL     OW24904   0.829   3.866   2.675  0.3248 -0.1801  0.3934
 4482SOL    HW124905   0.873   3.926   2.615  1.3042  0.0153  1.3054
 4482SOL    HW224906   0.766   3.828   2.614  0.5201 -2.2366  1.4654
 4483SOL     OW24907   4.278   3.249   1.642  0.5966  0.0199 -0.3300
 4483SOL    HW124908   4.330   3.299   1.706  1.2737  1.6443 -2.1348
 4483SOL    HW224909   4.229   3.317   1.596  0.1033  0.6280  1.1086
 4484SOL     OW24910   3.948   2.901   3.031 -0.2486 -0.4865 -0.6078
 4484SOL    HW124911   3.923   2.993   3.032  1.3353 -0.0446 -2.8327
 4484SOL    HW224912   3.871   2.852   3.059 -1.1971  0.6626 -1.1808
 4485SOL     OW24913   0.001   3.953   4.169 -0.2479  0.6115 -0.2904
 4485SOL    HW124914   0.038   3.877   4.123  0.4140 -0.4838  2.0899
 4485SOL    HW224915   0.040   4.030   4.128 -2.1702  1.4442 -0.5663
 4486SOL     OW24916   1.906   3.502   2.476 -0.3072 -0.2337  0.4594
 4486SOL    HW124917   1.857   3.582   2.500  0.8523  0.4151  0.6579
 4486SOL    HW224918   1.838   3.462   2.421 -0.8939  1.7868 -0.3197
 4487SOL     OW24919   1.871   1.994   3.350 -0.6182 -0.9225 -0.2173
 4487SOL    HW124920   1.786   1.960   3.323 -0.5241 -0.1134 -1.5250
 4487SOL    HW224921   1.935   1.957   3.289 -0.7194  1.1664 -1.5755
 4488SOL     OW24922   1.731   3.183   0.217  0.2918  0.3073 -0.3686
 4488SOL    HW124923   1.789   3.126   0.268  2.0204  0.4228 -2.2278
 4488SOL    HW224924   1.695   3.230   0.293  0.5737  0.9817 -0.6528
 4489SOL     OW24925   4.124   2.089  16.583 -0.0240 -0.1306 -0.4287
 4489SOL    HW124926   4.095   2.035  16.657 -0.7161  1.4291  0.4246
 4489SOL    HW224927   4.047   2.143  16.564  0.5764  1.2648  1.1780
 4490SOL     OW24928   3.754   3.733  12.341  0.1910  0.0215  0.0330
 4490SOL    HW124929   3.751   3.808  12.282  0.7500 -0.1370 -0.1962
 4490SOL    HW224930   3.816   3.770  12.404  0.9004 -2.1066  0.5851
 4491SOL     OW24931   3.634   1.549   4.355 -0.3316  0.1664  0.6730
 4491SOL    HW124932   3.693   1.612   4.313  0.8041 -1.4412 -0.1428
 4491SOL    HW224933   3.674   1.471   4.316  0.9617  0.5841  1.1434
 4492SOL     OW24934   2.139   2.273   0.558 -0.0530  0.1395 -0.0806
 4492SOL    HW124935   2.173   2.297   0.472 -0.3120  2.4888  0.4686
 4492SOL    HW224936   2.220   2.269   0.609 -1.1522 -0.6894  1.5742
 4493SOL     OW24937   2.296   2.819   2.230  0.4809 -0.6848  0.3116
 4493SOL    HW124938   2.272   2.909   2.207  0.7755 -0.7068 -0.0902
 4493SOL    HW224939   2.359   2.838   2.300 -1.4961  0.2894  1.8155
 4494SOL     OW24940   2.077   2.051   4.556 -0.4247  0.4832  0.1831
 4494SOL    HW124941   2.011   1.996   4.598  0.5523 -2.0129 -1.5030
 4494SOL    HW224942   2.157   2.002   4.578 -0.7391  0.3370  1.0130
 4495SOL     OW24943   4.547   2.176   8.487  0.1802  0.0796  0.1717
 4495SOL    HW124944   4.597   2.254   8.510  0.0559 -0.0939  1.0158
 4495SOL    HW224945   4.513   2.157   8.574  1.2423 -0.3700  0.4856
 4496SOL     OW24946   0.443   2.102   2.280 -0.1020  0.5613 -0.4311
 4496SOL    HW124947   0.363   2.102   2.227 -0.4677 -4.0790  0.1196
 4496SOL    HW224948   0.471   2.010   2.272  2.5433  1.1207  2.4330
 4497SOL     OW24949   4.200   3.159   5.761 -0.1410 -0.5779 -0.3822
 4497SOL    HW124950   4.238   3.247   5.755  1.7328 -1.4827 -1.8817
 4497SOL    HW224951   4.245   3.109   5.692 -0.0652  0.3903 -1.0417
 4498SOL     OW24952   3.761   4.675   9.923 -0.1878 -0.0737  0.4272
 4498SOL    HW124953   3.755   4.645   9.832  2.2049  0.5641  0.0588
 4498SOL    HW224954   3.854   4.697   9.926 -0.4229  0.9752  0.0050
 4499SOL     OW24955   1.633   1.086   6.053 -0.1043  0.3336 -0.1996
 4499SOL    HW124956   1.673   1.005   6.021  1.9621  1.4323 -0.3709
 4499SOL    HW224957   1.710   1.144   6.053  1.0273 -1.1631  1.5195
 4500SOL     OW24958   2.888   3.445  15.741  0.6055  0.5572  0.3739
 4500SOL    HW124959   2.856   3.468  15.828  2.3208 -1.4468  1.5044
 4500SOL    HW224960   2.894   3.528  15.693 -0.3394  1.5334  1.9406
 4501SOL     OW24961   2.206   3.950   6.340  0.0371  0.5223  0.1599
 4501SOL    HW124962   2.230   3.858   6.337 -0.2630  0.3680  2.6294
 4501SOL    HW224963   2.114   3.950   6.314  1.3749 -4.5437 -4.4613
 4502SOL     OW24964   2.100   2.267   5.733 -0.2960  0.0435  0.4484
 4502SOL    HW124965   2.017   2.221   5.740 -1.1444  1.1799 -2.2440
 4502SOL    HW224966   2.160   2.203   5.772 -0.6433 -0.8508 -0.4673
 4503SOL     OW24967   2.713   0.565  10.115 -0.0986  0.5441 -0.2213
 4503SOL    HW124968   2.735   0.588  10.205  1.0516 -0.3738 -0.2562
 4503SOL    HW224969   2.801   0.551  10.080 -0.1262 -2.1208  0.7274
 4504SOL     OW24970   4.562   2.126  16.610  0.2902 -0.4342 -0.2586
 4504SOL    HW124971   4.598   2.067  16.544 -0.0654  0.2310 -1.0556
 4504SOL    HW224972   4.618   2.123  16.687  0.4992  1.9454 -0.3006
 4505SOL     OW24973   3.967   2.095  12.421  0.0480 -0.0849 -0.3661
 4505SOL    HW124974   4.016   2.061  12.496 -1.1784 -1.0256  0.0190
 4505SOL    HW224975   3.879   2.092  12.459 -0.3481 -1.6676 -1.3906
 4506SOL     OW24976   0.135   0.179  13.270  0.5138 -0.6009  0.5789
 4506SOL    HW124977   0.057   0.196  13.217  0.2521 -0.2675  1.0684
 4506SOL    HW224978   0.170   0.268  13.267 -1.2525  0.1425  1.6888
 4507SOL     OW24979   4.642   0.543   8.478  0.4438  0.2253  0.2129
 4507SOL    HW124980   4.669   0.542   8.386  0.3986 -0.6609  0.2147
 4507SOL    HW224981   0.006   0.519   8.514 -0.5262  0.0884  2.4611
 4508SOL     OW24982   1.966   3.422  10.964  0.1191 -0.1366 -0.0983
 4508SOL    HW124983   1.982   3.385  10.877 -1.4566 -1.1320  0.0286
 4508SOL    HW224984   2.001   3.352  11.020 -0.3580  0.6765  1.2111
 4509SOL     OW24985   4.446   0.655  10.923  0.1745  0.3059 -0.3639
 4509SOL    HW124986   4.518   0.596  10.900 -0.4039 -0.3548 -0.4918
 4509SOL    HW224987   4.390   0.643  10.846 -0.1890  0.7410 -0.1707
 4510SOL     OW24988   1.834   2.194   5.700  0.6758  0.2047  0.4054
 4510SOL    HW124989   1.785   2.120   5.663  0.2100  0.5296  0.3653
 4510SOL    HW224990   1.774   2.200   5.775  1.7788  2.6674  1.0753
 4511SOL     OW24991   1.606   1.419   1.902 -0.2494  0.3098 -0.0412
 4511SOL    HW124992   1.662   1.357   1.854  0.0322  0.1085  0.5471
 4511SOL    HW224993   1.602   1.374   1.987 -2.0858  1.1620  0.3177
 4512SOL     OW24994   2.867   4.361   9.296 -0.7786 -0.5428  0.1737
 4512SOL    HW124995   2.931   4.380   9.364 -0.5517  3.8672 -1.2774
 4512SOL    HW224996   2.826   4.282   9.332  1.0883 -1.4127  0.4194
 4513SOL     OW24997   2.109   3.810   1.515  0.0522  0.1761 -0.4136
 4513SOL    HW124998   2.167   3.874   1.555 -0.2297  0.8726 -1.1241
 4513SOL    HW224999   2.038   3.870   1.492  0.5954  0.0732 -2.3651
 4514SOL     OW25000   3.272   1.594   6.338  0.0201 -0.3729  0.4888
 4514SOL    HW125001   3.364   1.622   6.347 -0.4984  1.9362 -1.3457
 4514SOL    HW225002   3.229   1.652   6.402  2.5108  0.0144  1.8252
 4515SOL     OW25003   1.280   2.021   8.240  0.2458 -0.1606 -0.3600
 4515SOL    HW125004   1.215   2.033   8.309 -0.8272 -2.7151 -0.9034
 4515SOL    HW225005   1.273   1.926   8.229 -1.3670 -0.1404  0.5287
 4516SOL     OW25006   3.805   1.996   2.215 -0.6911 -0.0145  0.9425
 4516SOL    HW125007   3.752   2.070   2.247  1.2746  2.0837 -0.5988
 4516SOL    HW225008   3.885   2.027   2.172 -1.8356  0.7820 -0.6124
 4517SOL     OW25009   2.976   1.342   9.188  0.0175  0.1102  0.3981
 4517SOL    HW125010   3.040   1.319   9.255  0.7619 -0.0708 -0.3838
 4517SOL    HW225011   2.888   1.320   9.219 -0.2183  1.1362  0.4676
 4518SOL     OW25012   0.903   1.002  15.238 -0.4265 -0.0883 -0.0450
 4518SOL    HW125013   0.899   1.020  15.332 -1.4000  0.5161 -0.1925
 4518SOL    HW225014   0.862   1.083  15.207 -0.2636 -0.6656 -1.7503
 4519SOL     OW25015   2.282   0.383   0.921  0.0166 -0.2032  0.1191
 4519SOL    HW125016   2.309   0.394   0.830 -0.2187 -1.6717 -0.1303
 4519SOL    HW225017   2.354   0.420   0.972  0.6063  2.0013 -2.3016
 4520SOL     OW25018   3.263   0.465  15.222  0.1320  0.8825  0.1107
 4520SOL    HW125019   3.320   0.404  15.174  1.4693  0.8720  1.7386
 4520SOL    HW225020   3.188   0.405  15.231  0.2046  1.0647  1.8061
 4521SOL     OW25021   4.440   2.109  12.691  0.0839 -0.3374 -0.1655
 4521SOL    HW125022   4.354   2.130  12.726  0.1245 -0.0940 -0.2093
 4521SOL    HW225023   4.497   2.173  12.734 -0.2117 -0.1063 -0.1229
 4522SOL     OW25024   0.288   1.737   6.058  0.4781 -0.4086  0.3714
 4522SOL    HW125025   0.337   1.778   5.987  0.8458 -0.2448  0.7173
 4522SOL    HW225026   0.199   1.739   6.022  0.4783 -0.7905  0.3532
 4523SOL     OW25027   0.221   2.214   1.531 -0.5510  0.3043  0.7303
 4523SOL    HW125028   0.283   2.254   1.470 -2.3236  0.0987 -1.1770
 4523SOL    HW225029   0.230   2.119   1.523  1.3210  0.6562 -1.4273
 4524SOL     OW25030   0.624   0.890  14.350  0.3074 -0.5058 -0.4024
 4524SOL    HW125031   0.622   0.976  14.307 -0.6931 -0.5751 -0.5155
 4524SOL    HW225032   0.663   0.911  14.434 -3.3670  0.5089  1.0740
 4525SOL     OW25033   2.377   4.397   2.432 -0.2684  0.0580 -0.1662
 4525SOL    HW125034   2.338   4.465   2.487 -0.5102  0.8905 -1.3606
 4525SOL    HW225035   2.383   4.333   2.503 -0.4940  2.1544  1.7811
 4526SOL     OW25036   2.876   1.373  14.814  0.3086 -0.3981  0.1099
 4526SOL    HW125037   2.892   1.436  14.885  2.6524 -0.7088 -0.1544
 4526SOL    HW225038   2.952   1.315  14.821  1.0336  0.4635 -0.6030
 4527SOL     OW25039   4.234   0.876   5.884  0.0833 -0.9250  0.2713
 4527SOL    HW125040   4.318   0.855   5.926  1.6665  0.7273 -2.1041
 4527SOL    HW225041   4.269   0.938   5.820 -1.5098  1.0295  1.3017
 4528SOL     OW25042   3.550   1.373   3.806 -0.8211  0.6773 -0.2347
 4528SOL    HW125043   3.622   1.319   3.772 -2.0382 -0.1433 -1.5185
 4528SOL    HW225044   3.481   1.307   3.799 -1.5099  1.4971 -1.1491
 4529SOL     OW25045   0.036   1.589   7.349 -0.4778  0.6836 -0.4462
 4529SOL    HW125046   0.070   1.539   7.423  0.1222 -0.0023 -1.1874
 4529SOL    HW225047   4.705   1.526   7.300 -3.2666  1.7309  1.1163
 4530SOL     OW25048   0.133   2.907   7.169  0.3386 -0.2704  0.7483
 4530SOL    HW125049   0.057   2.963   7.181 -0.4163 -1.1877  0.2299
 4530SOL    HW225050   0.176   2.908   7.254  0.5080 -1.3875  0.6757
 4531SOL     OW25051   0.807   3.461   5.912  0.0448 -0.3297  0.0644
 4531SOL    HW125052   0.807   3.428   6.002  1.5449  0.2705  0.2826
 4531SOL    HW225053   0.772   3.549   5.927 -0.0878 -0.4486  0.4382
 4532SOL     OW25054   0.862   1.101  11.185 -0.1428  0.5733  0.3085
 4532SOL    HW125055   0.919   1.131  11.255  1.4300 -0.4874 -0.5408
 4532SOL    HW225056   0.911   1.027  11.150 -0.4757 -0.5099  2.1678
 4533SOL     OW25057   2.943   4.237  11.907  0.1745  0.2442  0.0329
 4533SOL    HW125058   3.017   4.189  11.945  0.9083  1.7218  0.4496
 4533SOL    HW225059   2.874   4.215  11.969 -0.5007  2.0784 -0.0726
 4534SOL     OW25060   4.340   4.555   4.282  0.1541 -0.4693 -0.6547
 4534SOL    HW125061   4.288   4.614   4.337 -0.1352  0.3155 -1.7777
 4534SOL    HW225062   4.433   4.569   4.301 -0.0818 -1.3577  1.1437
 4535SOL     OW25063   0.855   2.743   8.788 -0.1037 -0.5227 -0.1937
 4535SOL    HW125064   0.937   2.721   8.832  0.2252  0.6805 -0.2179
 4535SOL    HW225065   0.882   2.825   8.747 -0.7619 -0.3764 -0.3368
 4536SOL     OW25066   0.302   2.379   0.957  0.5178 -0.0399  0.2539
 4536SOL    HW125067   0.344   2.444   1.014 -0.7700  3.4565 -2.7278
 4536SOL    HW225068   0.377   2.343   0.911 -1.2652 -1.5111 -1.4745
 4537SOL     OW25069   0.003   1.350  13.815 -0.8179  0.1090 -0.1309
 4537SOL    HW125070   4.658   1.414  13.788  0.5179  2.3924  2.0764
 4537SOL    HW225071   0.043   1.335  13.729  1.3282  0.6511  0.7730
 4538SOL     OW25072   1.397   1.464   4.124  0.5427 -0.0455 -0.3016
 4538SOL    HW125073   1.308   1.449   4.095 -0.0917  1.3965  0.8692
 4538SOL    HW225074   1.417   1.521   4.049  1.2678 -0.6981 -0.6063
 4539SOL     OW25075   2.196   1.793   6.058  0.5859 -0.1487 -0.0857
 4539SOL    HW125076   2.258   1.779   6.130  1.1215 -1.2092 -0.7641
 4539SOL    HW225077   2.242   1.743   5.991  1.1207  2.0793 -1.3801
 4540SOL     OW25078   1.369   3.264   1.763  0.4888 -0.5556  0.6258
 4540SOL    HW125079   1.383   3.170   1.773  1.9943 -0.3240  0.7191
 4540SOL    HW225080   1.282   3.274   1.726  1.3225  0.9017 -0.9160
 4541SOL     OW25081   0.376   3.842   0.665 -0.6245 -0.0730  0.2559
 4541SOL    HW125082   0.362   3.747   0.660 -1.9955  0.1873 -0.9223
 4541SOL    HW225083   0.439   3.848   0.736 -1.0119  0.8122  0.5197
 4542SOL     OW25084   4.178   1.713   7.163 -0.0209 -0.4158 -0.3127
 4542SOL    HW125085   4.250   1.679   7.218 -0.2752 -0.8797 -0.2624
 4542SOL    HW225086   4.158   1.790   7.216  1.4996  0.5886 -1.2042
 4543SOL     OW25087   1.060   1.225   9.206 -0.0585  0.7245  0.2954
 4543SOL    HW125088   0.994   1.276   9.159  0.2528  1.7364  0.9654
 4543SOL    HW225089   1.075   1.280   9.283  0.2804 -0.0730  0.8072
 4544SOL     OW25090   0.900   3.652  16.459  0.7154  0.3626  0.2681
 4544SOL    HW125091   0.915   3.589  16.389 -0.6242 -1.5136  1.6675
 4544SOL    HW225092   0.956   3.727  16.438  0.0504  0.9441  0.5721
 4545SOL     OW25093   2.121   2.282   8.301 -0.1949 -0.3864  0.8781
 4545SOL    HW125094   2.129   2.194   8.265  1.0812  0.3134 -0.5592
 4545SOL    HW225095   2.162   2.331   8.230 -1.5186 -1.7892 -0.8686
 4546SOL     OW25096   1.526   4.483   6.857  0.4727  0.0990 -0.3454
 4546SOL    HW125097   1.600   4.530   6.896  1.1917 -1.0358 -0.3410
 4546SOL    HW225098   1.564   4.409   6.811  0.5091 -2.4678  3.8388
 4547SOL     OW25099   4.249   2.314   2.847 -0.6528 -0.5799 -0.0305
 4547SOL    HW125100   4.342   2.329   2.830 -0.4129  0.4819  2.2854
 4547SOL    HW225101   4.231   2.301   2.754  2.6912  0.7179 -0.8673
 4548SOL     OW25102   2.582   2.939   7.025  0.0505  0.1188  0.1834
 4548SOL    HW125103   2.626   2.856   7.007 -1.5792 -1.5438  3.8489
 4548SOL    HW225104   2.496   2.907   6.998  0.3128  0.6129 -1.2690
 4549SOL     OW25105   0.586   3.864  11.576  0.1367 -0.0674 -0.2914
 4549SOL    HW125106   0.647   3.882  11.647  0.0743 -3.5575  0.6603
 4549SOL    HW225107   0.620   3.779  11.548 -1.0890 -0.2187 -1.3395
 4550SOL     OW25108   0.668   1.622  12.434 -0.0808  1.0247  0.2396
 4550SOL    HW125109   0.705   1.620  12.522  0.8918  0.2119 -0.1828
 4550SOL    HW225110   0.651   1.716  12.427  1.7034  1.3050 -0.4497
 4551SOL     OW25111   3.419   1.076  14.610 -0.1368 -0.2919  0.3353
 4551SOL    HW125112   3.436   1.164  14.643 -2.2188  1.1674 -2.5850
 4551SOL    HW225113   3.441   1.021  14.686 -0.4010  1.3017  1.5587
 4552SOL     OW25114   2.399   0.166   5.368  0.8428 -0.5312 -0.0332
 4552SOL    HW125115   2.479   0.174   5.317  0.7776 -2.3176 -0.4225
 4552SOL    HW225116   2.439   0.167   5.455 -0.1061  0.8952  0.4020
 4553SOL     OW25117   3.277   1.134  13.581 -1.2235  0.2766  0.0043
 4553SOL    HW125118   3.226   1.088  13.514 -1.0200 -0.1086  0.1159
 4553SOL    HW225119   3.329   1.065  13.622 -2.7870 -0.3064  1.0330
 4554SOL     OW25120   3.151   4.499  10.852 -0.5972  0.0908  0.5011
 4554SOL    HW125121   3.234   4.507  10.805 -0.8087  3.9724  0.8575
 4554SOL    HW225122   3.150   4.405  10.872 -0.1148  0.2812  1.4334
 4555SOL     OW25123   3.739   4.200   6.409 -0.8099 -1.2768 -0.3838
 4555SOL    HW125124   3.783   4.172   6.329 -1.5426 -1.1304 -0.8368
 4555SOL    HW225125   3.725   4.118   6.457  0.8699 -2.0708 -1.2696
 4556SOL     OW25126   0.831   0.315   3.977  0.2332  0.1785 -0.3572
 4556SOL    HW125127   0.921   0.346   3.989  0.4600 -0.5247 -0.2275
 4556SOL    HW225128   0.808   0.282   4.064 -1.7384  1.1037 -0.5419
 4557SOL     OW25129   2.967   0.854   4.598 -0.2690 -0.3448 -0.4408
 4557SOL    HW125130   2.932   0.891   4.679  2.2003 -1.1504  1.0026
 4557SOL    HW225131   2.949   0.760   4.597 -1.4180 -0.1342  0.8324
 4558SOL     OW25132   3.597   3.155  11.155 -0.0563 -0.1266 -0.6287
 4558SOL    HW125133   3.692   3.155  11.145 -0.1229  1.4395 -1.3062
 4558SOL    HW225134   3.587   3.136  11.248  0.0353  0.9993 -0.3813
 4559SOL     OW25135   3.449   3.908  16.566 -0.1169  0.2348  0.0756
 4559SOL    HW125136   3.478   3.925  16.476  1.7315  0.8314  0.7897
 4559SOL    HW225137   3.444   3.998  16.597  1.1638  0.2963  0.1011
 4560SOL     OW25138   0.880   2.504   6.646 -0.1046  0.3455  0.0105
 4560SOL    HW125139   0.875   2.484   6.553  0.0630 -1.2266  0.3328
 4560SOL    HW225140   0.790   2.530   6.669 -0.1571  1.0670 -1.0173
 4561SOL     OW25141   4.419   2.365   7.198 -0.0710 -0.0841 -0.8801
 4561SOL    HW125142   4.457   2.452   7.188  0.3556 -0.3264 -1.3767
 4561SOL    HW225143   4.485   2.308   7.237 -1.8528 -0.1615  2.0188
 4562SOL     OW25144   0.754   0.747   3.989 -0.0775 -0.6924 -0.9093
 4562SOL    HW125145   0.785   0.722   3.902  2.8682  0.7423 -0.2619
 4562SOL    HW225146   0.832   0.794   4.018 -0.8074 -1.9346  3.1162
 4563SOL     OW25147   3.559   0.899   7.936 -0.0672  0.3705 -0.0795
 4563SOL    HW125148   3.634   0.848   7.967 -1.5377 -0.4077  2.1980
 4563SOL    HW225149   3.488   0.836   7.945  0.8706 -1.0321 -2.6539
 4564SOL     OW25150   2.639   2.808   3.322  0.0344 -0.2433 -0.4198
 4564SOL    HW125151   2.605   2.855   3.246  0.3236 -0.9304 -0.9803
 4564SOL    HW225152   2.677   2.879   3.374  1.4585  1.0723 -3.2442
 4565SOL     OW25153   1.086   0.324  17.588  0.0390  0.1173 -0.0166
 4565SOL    HW125154   1.161   0.321  17.647 -0.1170  0.2699  0.1878
 4565SOL    HW225155   1.120   0.333  17.499 -0.0448 -2.4188 -0.3058
 4566SOL     OW25156   1.769   2.339   3.771  0.4464  0.5001  0.3797
 4566SOL    HW125157   1.773   2.290   3.853  0.3592 -0.3996 -0.1461
 4566SOL    HW225158   1.739   2.267   3.715  2.3531 -1.1592  1.5321
 4567SOL     OW25159   1.687   1.745   2.654 -0.2652  0.2734  0.3138
 4567SOL    HW125160   1.708   1.729   2.746  0.1486 -2.8569 -0.3215
 4567SOL    HW225161   1.593   1.758   2.664 -0.4558  0.8959 -2.2239
 4568SOL     OW25162   3.461   4.443   0.589 -0.0875  0.1133 -0.5442
 4568SOL    HW125163   3.549   4.442   0.627 -0.7551  0.2541  1.0162
 4568SOL    HW225164   3.451   4.348   0.592 -2.3809  0.3528 -0.3727
 4569SOL     OW25165   2.600   4.258   5.439 -0.1203  0.4270 -0.5852
 4569SOL    HW125166   2.556   4.335   5.477  2.0212  1.3654 -0.0104
 4569SOL    HW225167   2.527   4.222   5.388 -1.5846  1.9675  0.3985
 4570SOL     OW25168   2.526   0.648  16.502 -0.2901 -0.4218  0.0446
 4570SOL    HW125169   2.434   0.648  16.473 -0.1845 -2.0292 -0.2626
 4570SOL    HW225170   2.512   0.646  16.597 -1.1197 -0.3137 -0.0685
 4571SOL     OW25171   3.576   2.898   2.308 -0.0322  0.0413  0.3533
 4571SOL    HW125172   3.583   2.810   2.345  1.2816  0.0586  0.1327
 4571SOL    HW225173   3.522   2.941   2.375  0.2016  0.8678  0.0146
 4572SOL     OW25174   0.846   3.228   3.855  0.0735  0.5728  0.3707
 4572SOL    HW125175   0.764   3.186   3.829  0.1360  0.3452  0.5333
 4572SOL    HW225176   0.825   3.246   3.947 -0.1154  1.6526  0.1173
 4573SOL     OW25177   4.125   1.638   4.857  0.3140  0.1630 -0.1452
 4573SOL    HW125178   4.165   1.561   4.817 -1.2189  0.8755 -3.0231
 4573SOL    HW225179   4.069   1.590   4.917  2.7500 -0.8781  1.2977
 4574SOL     OW25180   0.503   1.950   1.833 -0.5436 -0.2114 -0.5037
 4574SOL    HW125181   0.553   1.959   1.752 -0.0070 -3.8894 -0.5536
 4574SOL    HW225182   0.488   1.856   1.829  1.2628 -0.4854 -0.7250
 4575SOL     OW25183   3.456   1.359  13.269 -0.2202  0.2580  0.1854
 4575SOL    HW125184   3.495   1.433  13.223  0.5005 -0.3686 -0.2175
 4575SOL    HW225185   3.540   1.322  13.299 -1.1917 -2.2671 -0.1815
 4576SOL     OW25186   3.417   4.148   8.886  0.3807 -0.1798  0.1742
 4576SOL    HW125187   3.394   4.188   8.970 -2.5407  0.1208 -0.7551
 4576SOL    HW225188   3.493   4.205   8.876  0.4610 -0.5718 -1.4848
 4577SOL     OW25189   3.312   1.933   5.249  0.3197 -0.2714 -0.0882
 4577SOL    HW125190   3.389   1.886   5.283  2.7322  2.9099 -1.0948
 4577SOL    HW225191   3.296   2.003   5.312  0.9310 -2.3890  2.4640
 4578SOL     OW25192   1.144   2.667   4.859  0.5287 -0.2478 -0.0631
 4578SOL    HW125193   1.239   2.653   4.857  0.6943  0.9422 -0.2422
 4578SOL    HW225194   1.125   2.682   4.952  0.6275  2.6218 -0.5044
 4579SOL     OW25195   3.208   1.784   4.694 -0.2300  0.3244  0.4084
 4579SOL    HW125196   3.231   1.868   4.734  0.6381 -1.3845  3.5269
 4579SOL    HW225197   3.291   1.735   4.695 -1.8827 -2.4914 -0.4636
 4580SOL     OW25198   3.849   2.008   6.599  0.2904 -0.0072  0.3086
 4580SOL    HW125199   3.875   2.040   6.685 -2.9557 -0.0700  1.3399
 4580SOL    HW225200   3.926   1.955   6.579  1.6028  1.8060  0.6558
 4581SOL     OW25201   1.034   3.392   8.446  0.3890  0.1978 -0.1006
 4581SOL    HW125202   1.068   3.318   8.394 -0.1359 -0.2924  0.2505
 4581SOL    HW225203   1.000   3.338   8.518  0.1814 -1.0323 -1.1132
 4582SOL     OW25204   0.877   3.114  11.264  0.0059  0.0204  0.9419
 4582SOL    HW125205   0.905   3.170  11.192 -2.2924 -1.2946 -0.9821
 4582SOL    HW225206   0.959   3.086  11.304 -0.4875  0.4145  2.2148
 4583SOL     OW25207   1.447   0.580  11.815 -0.6370  0.1694 -0.5463
 4583SOL    HW125208   1.486   0.545  11.895 -2.1302 -0.0879  0.0666
 4583SOL    HW225209   1.511   0.648  11.793  0.4502 -1.1028 -1.2914
 4584SOL     OW25210   0.203   2.544   1.779  0.6058  0.4885 -0.4141
 4584SOL    HW125211   0.267   2.588   1.723 -0.9013  2.5366 -0.4968
 4584SOL    HW225212   0.154   2.498   1.711  1.0419 -1.0008  0.2633
 4585SOL     OW25213   3.729   4.496   8.642  0.4338  0.2410  0.1207
 4585SOL    HW125214   3.715   4.554   8.716  0.4667 -2.5350  2.2996
 4585SOL    HW225215   3.687   4.416   8.672 -0.5080  0.4855 -0.5416
 4586SOL     OW25216   3.385   0.346   7.250 -0.3522 -0.9221  0.4320
 4586SOL    HW125217   3.300   0.322   7.286 -0.9706 -0.3886 -0.6581
 4586SOL    HW225218   3.362   0.347   7.157  2.5777 -1.5239 -0.3082
 4587SOL     OW25219   1.100   1.621   7.116 -0.3869 -0.4050 -0.4217
 4587SOL    HW125220   1.114   1.584   7.203 -1.5765 -0.5297 -0.2890
 4587SOL    HW225221   1.138   1.546   7.069  2.0796 -0.4250  1.5727
 4588SOL     OW25222   2.244   3.866   3.911 -0.1285 -0.4975 -0.0853
 4588SOL    HW125223   2.317   3.885   3.852 -0.4128  1.6698  0.2508
 4588SOL    HW225224   2.206   3.791   3.866  0.8797 -0.9948 -0.0833
 4589SOL     OW25225   3.587   0.216  15.654  0.1554  0.4136 -0.3297
 4589SOL    HW125226   3.521   0.273  15.615  1.2017  3.4749  2.4415
 4589SOL    HW225227   3.550   0.203  15.741 -0.0709  0.6008 -0.3996
 4590SOL     OW25228   3.796   2.691   7.132  0.6151  0.2365 -0.2902
 4590SOL    HW125229   3.758   2.718   7.216  1.5810  0.0856  0.1979
 4590SOL    HW225230   3.752   2.609   7.109  0.1404  1.4186 -3.6324
 4591SOL     OW25231   1.012   2.242   1.809 -0.4093  0.2463  0.7605
 4591SOL    HW125232   1.001   2.182   1.883  0.5987  1.2625  1.7381
 4591SOL    HW225233   1.039   2.325   1.850  0.3616  0.8744 -1.0075
 4592SOL     OW25234   0.962   0.379   4.699 -0.0053  0.1355 -0.0946
 4592SOL    HW125235   1.043   0.394   4.652 -0.2718  0.0052 -0.5978
 4592SOL    HW225236   0.996   0.365   4.788 -0.2410 -3.5579 -0.5620
 4593SOL     OW25237   1.439   0.453   2.418 -0.5564 -0.1533 -0.2891
 4593SOL    HW125238   1.465   0.502   2.340 -1.3816 -0.5352 -0.8153
 4593SOL    HW225239   1.353   0.489   2.438  0.7375  3.6166 -1.6274
 4594SOL     OW25240   1.578   0.213   8.180  0.4754  0.8801  0.5824
 4594SOL    HW125241   1.663   0.229   8.220 -0.2224  1.5646  1.7722
 4594SOL    HW225242   1.582   0.118   8.167  1.1584  0.7084  2.0244
 4595SOL     OW25243   4.320   1.780  15.959  0.1124  0.1367  0.1680
 4595SOL    HW125244   4.245   1.756  16.013  2.5500 -1.2258  2.9937
 4595SOL    HW225245   4.386   1.778  16.029 -0.7712  0.9387  1.0368
 4596SOL     OW25246   2.814   0.447   0.154  0.4677  0.4233  0.5760
 4596SOL    HW125247   2.818   0.426   0.247 -1.0869 -1.2351  0.2752
 4596SOL    HW225248   2.882   0.514   0.161  0.1326  0.6451  1.6373
 4597SOL     OW25249   4.030   0.069   6.120 -0.1303 -0.0880  0.2494
 4597SOL    HW125250   4.088   0.107   6.053 -0.4643  0.0811  0.0534
 4597SOL    HW225251   3.979   0.006   6.069  0.5638  1.0983 -1.9294
 4598SOL     OW25252   3.817   0.122   3.545  0.2146 -0.6568 -0.8731
 4598SOL    HW125253   3.723   0.108   3.548  0.2031 -0.7452 -1.6196
 4598SOL    HW225254   3.849   0.067   3.474 -0.1688 -0.5574 -1.1247
 4599SOL     OW25255   1.352   4.586  14.693  0.5547 -0.4160  0.2205
 4599SOL    HW125256   1.399   4.528  14.753  0.4843 -0.4471  0.2456
 4599SOL    HW225257   1.402   4.554  14.618  2.5703 -1.2590  1.9469
 4600SOL     OW25258   0.103   2.163  13.953  0.0201  0.6319 -0.5723
 4600SOL    HW125259   0.043   2.103  13.996  0.9212  0.9742  1.1494
 4600SOL    HW225260   0.186   2.131  13.988  1.0175  4.0419  0.1716
 4601SOL     OW25261   2.689   3.162   0.235  0.8822 -0.4635 -0.3993
 4601SOL    HW125262   2.603   3.180   0.274 -0.3079 -3.6183 -1.5935
 4601SOL    HW225263   2.707   3.075   0.272 -1.0582 -0.7414 -0.0950
 4602SOL     OW25264   0.082   1.899   2.105 -0.9586  0.2819 -0.5127
 4602SOL    HW125265   0.021   1.848   2.052  0.0363 -0.1610 -1.2439
 4602SOL    HW225266   0.145   1.828   2.120 -0.9982  0.2842 -0.3362
 4603SOL     OW25267   3.322   3.943   2.975 -0.3675  0.2505  0.3446
 4603SOL    HW125268   3.341   4.014   3.035 -0.5078  1.4917 -1.0847
 4603SOL    HW225269   3.393   3.943   2.910 -1.2329  0.2502 -0.6098
 4604SOL     OW25270   3.417   3.562   5.707  0.3818 -0.2269  0.0795
 4604SOL    HW125271   3.411   3.507   5.785 -0.6369 -0.3265 -0.0633
 4604SOL    HW225272   3.510   3.586   5.708  0.0031  1.3083 -0.7451
 4605SOL     OW25273   1.666   2.981   9.784  0.3295  0.1975 -0.4282
 4605SOL    HW125274   1.675   2.979   9.689  2.1250  0.3767 -0.2696
 4605SOL    HW225275   1.580   3.022   9.781  1.6736  2.9550 -0.5433
 4606SOL     OW25276   3.117   1.093   6.261  0.6706  0.2782  0.3080
 4606SOL    HW125277   3.113   1.003   6.293 -1.9977  0.6529  1.0077
 4606SOL    HW225278   3.042   1.131   6.307  1.4983  1.1194  0.9650
 4607SOL     OW25279   0.237   1.615  13.747 -0.0915 -0.8148  0.2611
 4607SOL    HW125280   0.148   1.602  13.778 -1.0994  2.4484 -1.2219
 4607SOL    HW225281   0.241   1.708  13.723 -0.9501 -0.2442  2.3922
 4608SOL     OW25282   2.073   3.104   5.555 -0.0177 -0.7797 -0.0900
 4608SOL    HW125283   2.033   3.169   5.497  0.3434  1.1506  1.8369
 4608SOL    HW225284   2.142   3.065   5.501 -0.4974 -2.1736  0.2981
 4609SOL     OW25285   2.120   2.786   0.889 -0.1089  0.7916  0.4642
 4609SOL    HW125286   2.077   2.702   0.873 -0.9187  0.8882  2.1054
 4609SOL    HW225287   2.183   2.792   0.818  0.3372 -0.7497  0.7285
 4610SOL     OW25288   4.529   0.551   2.549 -0.4144  0.4221 -0.2315
 4610SOL    HW125289   4.518   0.646   2.552 -0.6651  0.3871  0.0824
 4610SOL    HW225290   4.563   0.527   2.463 -0.3042  3.0264 -0.9227
 4611SOL     OW25291   3.987   3.034   6.226 -0.0348 -0.0333  0.5505
 4611SOL    HW125292   3.940   3.035   6.310 -1.2196  0.5918 -0.1116
 4611SOL    HW225293   4.076   3.054   6.255  0.8661  0.2654 -2.4882
 4612SOL     OW25294   0.924   0.066   5.114  0.1982  0.0057  0.5235
 4612SOL    HW125295   0.869   4.714   5.087  2.1321 -1.4762  0.6363
 4612SOL    HW225296   0.884   0.128   5.053 -2.1188 -1.3626  0.6515
 4613SOL     OW25297   3.859   0.856   2.815 -0.8969  0.2192 -0.0004
 4613SOL    HW125298   3.844   0.814   2.730  0.3787 -0.8952  0.3163
 4613SOL    HW225299   3.768   0.880   2.832 -0.5744  0.1377  1.8887
 4614SOL     OW25300   3.624   2.270   0.167 -0.2735  0.1317 -0.3346
 4614SOL    HW125301   3.668   2.346   0.130 -1.5612  1.2369  0.3794
 4614SOL    HW225302   3.624   2.298   0.259 -2.1592 -1.6207  0.2138
 4615SOL     OW25303   1.052   3.918   7.216 -0.4621 -0.0267 -0.2051
 4615SOL    HW125304   1.118   3.970   7.263 -0.2051 -0.1755 -0.3987
 4615SOL    HW225305   1.015   3.980   7.153  0.4454 -0.6186 -1.3208
 4616SOL     OW25306   3.873   1.765   3.282  0.0041 -0.1363 -0.5233
 4616SOL    HW125307   3.915   1.824   3.219 -0.3559  2.9114  2.0868
 4616SOL    HW225308   3.862   1.691   3.222 -0.0950 -0.1495 -0.4884
 4617SOL     OW25309   0.518   2.130   0.519  0.2126 -0.1171 -0.3107
 4617SOL    HW125310   0.508   2.059   0.456 -1.4577 -0.4797  0.3619
 4617SOL    HW225311   0.610   2.151   0.508  0.2070  0.7090  1.2614
 4618SOL     OW25312   4.232   0.147   7.097 -0.1763  0.1561  0.0637
 4618SOL    HW125313   4.178   0.137   7.176  0.0635 -1.5733  0.0100
 4618SOL    HW225314   4.189   0.217   7.050  1.8252  0.9486 -0.5768
 4619SOL     OW25315   1.795   0.021   3.893  0.0574  0.6435 -0.1217
 4619SOL    HW125316   1.786   4.648   3.879 -0.1379  0.7021 -0.4006
 4619SOL    HW225317   1.718   0.034   3.948 -1.9689 -3.3151 -2.0432
 4620SOL     OW25318   4.299   0.005  15.102 -0.2316  0.6075  0.4551
 4620SOL    HW125319   4.305   0.039  15.012  0.0414  1.2734  0.7273
 4620SOL    HW225320   4.203   0.009  15.111  0.0083  0.4184  2.9544
 4621SOL     OW25321   0.837   3.276   4.983 -0.1343 -0.4335  0.3799
 4621SOL    HW125322   0.849   3.181   4.992 -3.7461 -0.9117 -0.1526
 4621SOL    HW225323   0.873   3.303   5.068 -1.6506 -0.6592  1.0802
 4622SOL     OW25324   3.444   1.111   5.964 -0.0553 -0.3069  0.1317
 4622SOL    HW125325   3.374   1.156   6.013  0.3788 -2.5644  2.8280
 4622SOL    HW225326   3.395   1.051   5.907  0.2610  0.2687 -0.7387
 4623SOL     OW25327   4.487   1.682   8.315 -0.0935 -0.1081 -0.0706
 4623SOL    HW125328   4.563   1.641   8.356  0.8307  1.3572 -0.3373
 4623SOL    HW225329   4.426   1.614   8.283 -0.1926  0.5253 -1.2420
 4624SOL     OW25330   2.676   4.056   2.690 -0.1762 -0.3709  0.6895
 4624SOL    HW125331   2.763   4.081   2.657 -0.7476 -0.4033 -0.8566
 4624SOL    HW225332   2.655   3.984   2.631  0.6874 -0.9647  1.1062
 4625SOL     OW25333   1.692   0.157  14.527 -0.0146  0.4091  0.2017
 4625SOL    HW125334   1.772   0.208  14.508  0.4269 -0.5507 -0.5218
 4625SOL    HW225335   1.713   0.137  14.618 -3.5432 -0.3618  0.8102
 4626SOL     OW25336   0.607   1.975   6.907  0.5742 -0.5057 -0.7030
 4626SOL    HW125337   0.696   2.010   6.899  0.7298 -0.7830 -0.1695
 4626SOL    HW225338   0.583   1.977   6.814  0.6192 -1.5869 -0.7400
 4627SOL     OW25339   0.422   4.533  17.508  0.2373 -0.5820 -0.2794
 4627SOL    HW125340   0.510   4.496  17.511  1.3261  2.0756  0.0528
 4627SOL    HW225341   0.416   4.581  17.591  0.5656  0.7984 -1.0713
 4628SOL     OW25342   3.754   1.333   3.472  0.1086 -0.5769  0.0032
 4628SOL    HW125343   3.659   1.339   3.464 -0.0303 -0.9790  1.3836
 4628SOL    HW225344   3.762   1.238   3.480  0.7713 -0.5119  0.1749
 4629SOL     OW25345   3.220   3.860   6.980 -0.0716 -0.3490  1.1225
 4629SOL    HW125346   3.195   3.769   6.967 -0.0863 -0.5084  2.2804
 4629SOL    HW225347   3.130   3.891   6.976  0.7968  2.1449  0.6888
 4630SOL     OW25348   1.985   1.971   6.109 -0.2602 -0.3191  0.1259
 4630SOL    HW125349   2.012   2.001   6.195  2.1699  0.2043 -0.8114
 4630SOL    HW225350   2.066   1.925   6.084 -0.3035 -2.2932  3.5905
 4631SOL     OW25351   0.547   1.573   1.276 -0.0398 -0.4957  0.3396
 4631SOL    HW125352   0.536   1.485   1.241 -0.7125 -0.2397 -0.1262
 4631SOL    HW225353   0.638   1.566   1.304  0.1642  1.7069  0.2927
 4632SOL     OW25354   0.813   4.390   3.682  0.2748 -0.6695 -0.0904
 4632SOL    HW125355   0.815   4.315   3.623 -0.7439  1.7129 -3.1635
 4632SOL    HW225356   0.758   4.360   3.755  0.1054  2.8462  1.2404
 4633SOL     OW25357   2.508   2.359   8.560  0.1272 -0.2017  0.1365
 4633SOL    HW125358   2.518   2.406   8.477 -0.3373  0.8603  0.6844
 4633SOL    HW225359   2.413   2.349   8.559 -0.2262  3.1386 -0.3631
 4634SOL     OW25360   3.851   2.222  12.736 -0.4590  0.4193  0.1805
 4634SOL    HW125361   3.796   2.192  12.664  3.1112 -0.8653 -2.0143
 4634SOL    HW225362   3.791   2.199  12.807  0.4064 -0.9861  0.4451
 4635SOL     OW25363   2.490   2.030  16.510  0.3758 -0.2025  0.2057
 4635SOL    HW125364   2.405   2.066  16.534 -0.0390 -0.2401 -1.2188
 4635SOL    HW225365   2.557   2.065  16.569  1.0568 -0.7602 -0.2394
 4636SOL     OW25366   0.983   3.073   2.629 -0.0950  0.0713 -0.5077
 4636SOL    HW125367   0.962   3.137   2.561  0.1581  0.6582 -0.0443
 4636SOL    HW225368   0.905   3.022   2.610  0.3717 -1.7248  2.4431
 4637SOL     OW25369   4.346   3.208   9.259  0.0738  0.1114  0.2404
 4637SOL    HW125370   4.355   3.115   9.236 -1.5164 -0.8039  3.3604
 4637SOL    HW225371   4.435   3.233   9.285 -1.1603  3.5339  1.0731
 4638SOL     OW25372   4.663   4.705   2.660 -0.0409 -0.3945  0.1139
 4638SOL    HW125373   4.629   0.070   2.634 -0.4036 -0.8888 -1.0330
 4638SOL    HW225374   4.659   4.663   2.575  0.1130  1.1639 -0.6650
 4639SOL     OW25375   0.591   2.627   3.625  1.0053 -0.1564 -0.0743
 4639SOL    HW125376   0.497   2.619   3.644  1.3018  0.6097  1.7798
 4639SOL    HW225377   0.598   2.709   3.576  1.8964 -0.0452  0.2319
 4640SOL     OW25378   0.531   2.415   6.210  0.7424 -0.3237  0.3156
 4640SOL    HW125379   0.439   2.435   6.193  0.4438  1.3988  4.0031
 4640SOL    HW225380   0.521   2.333   6.258  0.3910  0.2455  1.2194
 4641SOL     OW25381   0.180   1.450   6.309 -0.2973  0.4725 -0.3892
 4641SOL    HW125382   0.113   1.500   6.263 -0.0896 -0.0814 -1.3021
 4641SOL    HW225383   0.184   1.492   6.394  0.5134 -2.5653  1.0906
 4642SOL     OW25384   1.678   3.181   2.386 -0.0648 -0.0991 -0.2639
 4642SOL    HW125385   1.690   3.143   2.299 -1.7754 -0.6094 -0.2740
 4642SOL    HW225386   1.700   3.271   2.363  0.1849 -0.2302 -0.5486
 4643SOL     OW25387   3.234   4.504   2.477 -0.3637  0.2129  0.3381
 4643SOL    HW125388   3.319   4.469   2.506  0.2348  1.8415  0.5916
 4643SOL    HW225389   3.237   4.596   2.504  0.9892  1.0511 -2.6646
 4644SOL     OW25390   1.406   3.026   5.069 -0.3020 -0.1862 -0.1036
 4644SOL    HW125391   1.444   2.982   4.993  2.0651 -0.4449  1.2000
 4644SOL    HW225392   1.490   3.057   5.103 -0.2766 -2.1669  1.6358
 4645SOL     OW25393   4.687   1.758   9.303  0.0843 -0.4613  0.0272
 4645SOL    HW125394   4.700   1.842   9.346 -1.9402  0.0797 -0.4198
 4645SOL    HW225395   0.021   1.703   9.359 -0.8146  0.0819  1.4414
 4646SOL     OW25396   1.131   2.987   3.975  0.0676  0.0390  0.4190
 4646SOL    HW125397   1.092   2.929   3.910  1.0910 -0.9326  0.6533
 4646SOL    HW225398   1.061   2.993   4.040 -0.3724  0.5413 -0.1043
 4647SOL     OW25399   1.886   3.259   7.112 -0.1277 -0.2251  0.8617
 4647SOL    HW125400   1.909   3.352   7.114 -0.5767 -0.1609  2.8568
 4647SOL    HW225401   1.919   3.240   7.199  1.9744 -1.6329 -0.2546
 4648SOL     OW25402   2.771   2.991   5.568 -0.2060  0.2633  0.2970
 4648SOL    HW125403   2.707   2.999   5.497  0.6931 -2.2798 -0.7916
 4648SOL    HW225404   2.838   3.056   5.549 -0.8356  0.5628 -0.9248
 4649SOL     OW25405   1.930   2.836  16.343  0.1480  0.1834 -0.0456
 4649SOL    HW125406   2.017   2.843  16.383  0.7630  0.3291 -1.4172
 4649SOL    HW225407   1.871   2.849  16.417  0.1389 -2.5098  0.4445
 4650SOL     OW25408   0.530   2.433   8.360  0.3324 -0.3004 -0.0162
 4650SOL    HW125409   0.441   2.443   8.394  1.2804  1.2921  2.0162
 4650SOL    HW225410   0.516   2.389   8.277 -2.0328 -1.2794  0.9066
 4651SOL     OW25411   3.281   2.734   5.099  0.0975  0.4220 -0.3430
 4651SOL    HW125412   3.288   2.674   5.024 -1.5281 -0.5138  0.2714
 4651SOL    HW225413   3.187   2.729   5.116  0.2638  0.9341  0.7332
 4652SOL     OW25414   3.053   3.568   4.856 -0.2712  0.4130 -0.0509
 4652SOL    HW125415   3.027   3.651   4.896  1.4506  0.4690  0.9153
 4652SOL    HW225416   3.130   3.584   4.801  0.8247 -1.9645  0.7872
 4653SOL     OW25417   4.492   1.590   2.984  0.1036 -0.0037 -0.0947
 4653SOL    HW125418   4.493   1.500   2.952 -0.0884  0.5221 -1.5884
 4653SOL    HW225419   4.536   1.636   2.913  1.6508 -0.9299  0.2489
 4654SOL     OW25420   4.315   2.779   1.023  0.6416 -0.1491 -0.3648
 4654SOL    HW125421   4.358   2.864   1.014 -1.6238  1.0041 -0.3417
 4654SOL    HW225422   4.381   2.730   1.071  1.1339  1.1878  0.2954
 4655SOL     OW25423   4.466   2.474  12.733 -0.4753  0.0366  0.9491
 4655SOL    HW125424   4.498   2.384  12.736 -1.8438 -0.4428  1.6306
 4655SOL    HW225425   4.523   2.510  12.801  0.6363 -1.6246  0.8922
 4656SOL     OW25426   0.315   1.977  11.055  0.0944  0.4968 -0.3024
 4656SOL    HW125427   0.404   1.972  11.021  0.1984  3.0277 -0.4429
 4656SOL    HW225428   0.294   1.884  11.058 -0.8123  0.7004 -0.4577
 4657SOL     OW25429   3.621   4.504  15.086 -0.4367  0.1014  0.9244
 4657SOL    HW125430   3.648   4.593  15.062  4.4990 -1.1872  1.7562
 4657SOL    HW225431   3.592   4.527  15.174  2.6272 -2.6617  2.6513
 4658SOL     OW25432   0.096   2.333   7.753  0.0082 -0.1701 -0.3105
 4658SOL    HW125433   0.015   2.282   7.751 -1.4253  2.0843  0.2032
 4658SOL    HW225434   0.077   2.396   7.684  2.0401 -1.1162 -1.7223
 4659SOL     OW25435   1.460   3.114   8.114  0.1206  0.4607 -0.7473
 4659SOL    HW125436   1.528   3.178   8.137  0.8584 -0.9467  1.0004
 4659SOL    HW225437   1.504   3.038   8.076 -4.6537 -3.4665  1.6293
 4660SOL     OW25438   1.913   3.883   8.825  0.8347  0.1576  0.1178
 4660SOL    HW125439   1.863   3.948   8.874  1.6281  1.6612 -1.0728
 4660SOL    HW225440   1.850   3.854   8.759 -0.2098  0.6133  0.9226
 4661SOL     OW25441   1.734   0.543   9.670 -0.2635 -0.5760 -0.6322
 4661SOL    HW125442   1.707   0.460   9.710 -0.0758 -1.0446 -1.4886
 4661SOL    HW225443   1.819   0.568   9.706 -0.6874  0.9905 -0.7462
 4662SOL     OW25444   1.448   2.812   3.450  0.7182 -0.4502  0.1926
 4662SOL    HW125445   1.412   2.897   3.423  1.4357 -0.4662 -0.8497
 4662SOL    HW225446   1.371   2.759   3.430  0.3554  0.3056 -0.4143
 4663SOL     OW25447   2.483   2.971  17.466  0.1907  0.2698  0.3552
 4663SOL    HW125448   2.475   2.957  17.560 -0.1453 -0.2968  0.2465
 4663SOL    HW225449   2.446   2.888  17.436 -2.0645  0.6659  2.1137
 4664SOL     OW25450   0.378   2.714   4.288  0.4858 -0.3763 -0.2538
 4664SOL    HW125451   0.408   2.674   4.207 -1.2749 -0.8679 -0.6549
 4664SOL    HW225452   0.350   2.801   4.260  0.1455  0.0070  1.2523
 4665SOL     OW25453   2.125   2.895  12.464 -0.6162  0.4247 -0.5106
 4665SOL    HW125454   2.145   2.984  12.493  0.8666 -0.2330  0.4498
 4665SOL    HW225455   2.211   2.860  12.483  0.1184  1.1497 -2.4548
 4666SOL     OW25456   3.087   1.616   0.667 -0.4824 -0.0194 -0.7138
 4666SOL    HW125457   3.167   1.621   0.614 -0.1569  0.3480 -0.1791
 4666SOL    HW225458   3.119   1.645   0.752  0.0052  1.5652 -1.4373
 4667SOL     OW25459   4.439   3.511   3.465  0.2647 -0.2332 -0.1990
 4667SOL    HW125460   4.357   3.554   3.439 -1.1018 -0.4905  3.7619
 4667SOL    HW225461   4.464   3.569   3.537  1.9391 -1.1782 -0.0353
 4668SOL     OW25462   3.942   4.060  17.670  0.7753  0.3376  0.2548
 4668SOL    HW125463   3.910   4.018  17.590  0.8384 -0.1213  0.4678
 4668SOL    HW225464   4.010   4.113  17.627 -1.1509  1.2455 -1.6916
 4669SOL     OW25465   2.409   1.407  13.669  0.1386 -0.4901  0.8574
 4669SOL    HW125466   2.500   1.418  13.643 -0.0387  0.6648  0.7222
 4669SOL    HW225467   2.411   1.428  13.762 -2.2008  0.8478  0.6009
 4670SOL     OW25468   3.114   3.047   8.105  0.1453 -0.2392 -0.4953
 4670SOL    HW125469   3.023   3.023   8.085 -0.9956  1.7407  2.2635
 4670SOL    HW225470   3.140   2.962   8.142  0.3845 -0.0449 -0.2159
 4671SOL     OW25471   2.533   1.029   0.996 -0.3409  0.2994 -0.1982
 4671SOL    HW125472   2.604   1.000   1.054  0.1232 -0.2787 -1.0710
 4671SOL    HW225473   2.536   0.966   0.925 -0.5518  0.0173  0.0435
 4672SOL     OW25474   1.011   1.867   9.563  0.5903 -0.3004  0.1514
 4672SOL    HW125475   1.068   1.883   9.638 -0.0491  2.6270  0.0215
 4672SOL    HW225476   1.060   1.905   9.489 -2.4977  2.1037 -0.6677
 4673SOL     OW25477   2.209   3.378   2.278  0.2394 -0.5954 -0.0294
 4673SOL    HW125478   2.254   3.326   2.345  0.0660 -1.5075 -0.6141
 4673SOL    HW225479   2.254   3.356   2.196 -0.7415 -0.8319 -0.5033
 4674SOL     OW25480   4.632   1.088   4.726  0.2424 -0.2676 -0.5742
 4674SOL    HW125481   4.678   1.036   4.792 -1.5266  0.3438  1.1628
 4674SOL    HW225482   4.626   1.033   4.649 -0.8562  0.9817 -1.3739
 4675SOL     OW25483   3.203   4.581   5.512 -0.3276 -0.2654  0.3490
 4675SOL    HW125484   3.256   4.655   5.484 -0.8241 -0.0190  0.0609
 4675SOL    HW225485   3.218   4.530   5.433  0.2107  0.2826  0.0991
 4676SOL     OW25486   0.402   4.141   2.937  0.0461  0.3588  0.2476
 4676SOL    HW125487   0.395   4.165   2.845  1.7439 -3.1363 -0.7955
 4676SOL    HW225488   0.468   4.206   2.963 -0.9555  1.0463  1.0872
 4677SOL     OW25489   0.213   1.025   5.509 -0.1302  0.1242 -1.1078
 4677SOL    HW125490   0.253   1.097   5.559 -0.3745  0.5557 -1.5331
 4677SOL    HW225491   0.299   0.989   5.487  0.2739  0.9784 -0.9543
 4678SOL     OW25492   2.770   2.209   9.495  0.4436 -0.1837 -0.4493
 4678SOL    HW125493   2.733   2.123   9.515 -0.4399  0.7843  1.9549
 4678SOL    HW225494   2.719   2.268   9.550  0.6432 -0.2292 -0.2176
 4679SOL     OW25495   2.839   0.980   4.821  0.0211  0.0790 -0.1346
 4679SOL    HW125496   2.866   0.968   4.912 -0.8941 -0.3063  0.0854
 4679SOL    HW225497   2.748   0.999   4.845 -0.1476 -0.0038 -0.7145
 4680SOL     OW25498   0.834   2.612  10.702 -0.1554  0.0121 -0.2613
 4680SOL    HW125499   0.906   2.675  10.691 -0.1277 -0.1184 -0.8350
 4680SOL    HW225500   0.775   2.659  10.759  0.3130  1.6989 -1.1606
 4681SOL     OW25501   3.750   2.556   7.498 -0.2872 -0.1397 -0.0600
 4681SOL    HW125502   3.778   2.538   7.588  1.4857  0.7737 -0.4238
 4681SOL    HW225503   3.834   2.549   7.453  0.3597  0.9857  0.9998
 4682SOL     OW25504   4.151   2.653   7.900 -0.0397 -0.3661  0.3728
 4682SOL    HW125505   4.193   2.576   7.938 -0.0084 -0.2519  0.5715
 4682SOL    HW225506   4.060   2.626   7.899  0.1950 -1.1437 -0.5556
 4683SOL     OW25507   2.631   1.889  15.285  0.0887 -0.6164  0.5504
 4683SOL    HW125508   2.565   1.835  15.328 -0.3239 -0.0600  0.6170
 4683SOL    HW225509   2.592   1.975  15.273 -0.5979 -0.3297  4.7324
 4684SOL     OW25510   4.343   1.560   2.678  0.4386 -0.0410 -0.2288
 4684SOL    HW125511   4.437   1.575   2.689  0.4383  0.2019 -0.5411
 4684SOL    HW225512   4.313   1.636   2.728  0.6796 -0.4152  0.4933
 4685SOL     OW25513   1.807   3.094   6.458  0.4589  0.2023 -0.7752
 4685SOL    HW125514   1.779   3.186   6.465  0.5647  0.4072 -3.0953
 4685SOL    HW225515   1.866   3.086   6.533  0.5355  0.4708 -0.8068
 4686SOL     OW25516   2.567   3.171   3.237  0.0277  0.4544 -0.0871
 4686SOL    HW125517   2.631   3.142   3.301 -0.6049 -0.5277  0.1035
 4686SOL    HW225518   2.560   3.093   3.181  1.8116 -0.8680  1.5570
 4687SOL     OW25519   2.424   3.358   9.870  0.3643  0.0830 -0.1583
 4687SOL    HW125520   2.416   3.382   9.778 -1.3477  0.0705 -0.0035
 4687SOL    HW225521   2.340   3.391   9.899  0.1469 -0.5518 -0.0542
 4688SOL     OW25522   4.489   1.032  12.773 -0.9307  0.3870 -0.1455
 4688SOL    HW125523   4.403   1.049  12.812 -2.4380 -2.2250 -2.2752
 4688SOL    HW225524   4.492   0.936  12.782 -1.7520  0.4327  0.6941
 4689SOL     OW25525   0.452   4.124   7.579 -0.3526  1.4789 -0.4347
 4689SOL    HW125526   0.448   4.042   7.628 -1.4717  2.6428  1.4207
 4689SOL    HW225527   0.483   4.087   7.496  0.8052 -2.2672  1.6614
 4690SOL     OW25528   1.864   4.658   1.201  0.1124 -0.0255  0.2011
 4690SOL    HW125529   1.800   4.630   1.266  1.4942 -1.8668  0.7624
 4690SOL    HW225530   1.848   4.595   1.131  0.4629  0.2481 -0.1328
 4691SOL     OW25531   0.581   2.643   2.996  0.0625  0.0377  0.0944
 4691SOL    HW125532   0.666   2.629   2.955 -0.2271 -0.8017 -0.2190
 4691SOL    HW225533   0.521   2.628   2.924 -0.0813 -1.0137  0.4324
 4692SOL     OW25534   2.075   3.912   2.989  0.2407  0.7975  0.0756
 4692SOL    HW125535   1.983   3.886   2.992  1.1928 -2.4220  1.8511
 4692SOL    HW225536   2.110   3.825   2.971 -1.2369 -0.2873  2.3729
 4693SOL     OW25537   1.678   0.633   2.186  0.0393 -0.0763  0.2195
 4693SOL    HW125538   1.688   0.546   2.225 -2.8605 -0.3191  0.4137
 4693SOL    HW225539   1.582   0.639   2.182 -0.0162  0.0212  1.5480
 4694SOL     OW25540   0.971   1.977   8.593 -0.0445 -0.0449  0.1192
 4694SOL    HW125541   1.000   2.061   8.557 -0.0707  0.2473  0.7798
 4694SOL    HW225542   1.050   1.937   8.630  1.3927  2.1027 -0.5753
 4695SOL     OW25543   4.538   4.282   1.121 -0.0289 -0.1847  0.4191
 4695SOL    HW125544   4.494   4.251   1.200 -0.8660  1.7062  0.6917
 4695SOL    HW225545   4.586   4.202   1.101 -1.2941 -0.9692  0.4631
 4696SOL     OW25546   4.270   3.407   6.996  0.3264  0.6206 -0.3455
 4696SOL    HW125547   4.200   3.462   7.029  1.6179  1.5869  0.7874
 4696SOL    HW225548   4.306   3.471   6.935  2.4257  0.6487  0.9176
 4697SOL     OW25549   3.270   0.057   7.487  0.5967 -0.3585 -0.3030
 4697SOL    HW125550   3.239   4.688   7.480 -1.2826  0.3070 -0.4564
 4697SOL    HW225551   3.200   0.100   7.439 -0.2330 -0.0045  1.2527
 4698SOL     OW25552   1.302   3.386   7.502  0.3868 -0.5014  0.2145
 4698SOL    HW125553   1.351   3.398   7.583  1.3665  1.1882 -0.6136
 4698SOL    HW225554   1.232   3.326   7.526  1.4543 -2.8421 -2.6441
 4699SOL     OW25555   1.303   4.446  15.153 -0.4802  0.1350 -0.1028
 4699SOL    HW125556   1.352   4.522  15.186 -3.7978  2.8109 -1.2792
 4699SOL    HW225557   1.348   4.442  15.068 -0.6240  3.0140 -0.3170
 4700SOL     OW25558   3.340   1.184  12.156 -0.6116  0.0826  0.1818
 4700SOL    HW125559   3.291   1.263  12.174 -0.8608  0.3951 -1.9532
 4700SOL    HW225560   3.418   1.175  12.212 -0.0849 -1.0286 -0.7185
 4701SOL     OW25561   1.742   3.294  15.076  0.5353  0.3266 -0.0108
 4701SOL    HW125562   1.664   3.323  15.029 -0.8339 -2.2711  0.6456
 4701SOL    HW225563   1.710   3.204  15.085  0.9641  0.0865 -0.8666
 4702SOL     OW25564   4.392   3.628   9.436  0.1067  0.0878 -0.3504
 4702SOL    HW125565   4.478   3.619   9.396 -0.4006 -0.5719 -1.3203
 4702SOL    HW225566   4.349   3.564   9.378  2.0854 -1.3557 -0.2251
 4703SOL     OW25567   3.196   0.118   7.757 -0.0636  0.5945  0.0105
 4703SOL    HW125568   3.128   0.183   7.740  0.9255  1.6297  0.0445
 4703SOL    HW225569   3.227   0.097   7.669 -3.4172  2.7063 -1.6776
 4704SOL     OW25570   2.377   0.558   3.013 -0.7243 -0.7139 -0.2308
 4704SOL    HW125571   2.306   0.620   2.996  0.2868  0.4132 -0.2800
 4704SOL    HW225572   2.334   0.499   2.951 -1.7627  1.0239 -1.1569
 4705SOL     OW25573   3.307   0.049   6.670  0.0168  0.6361 -0.2078
 4705SOL    HW125574   3.362   4.694   6.654 -1.1631 -0.2597  0.0145
 4705SOL    HW225575   3.367   0.121   6.652 -0.8309  0.6764 -2.8165
 4706SOL     OW25576   0.383   3.112   9.966  0.2930 -0.4480 -0.1327
 4706SOL    HW125577   0.465   3.093  10.012 -0.7789 -0.2598  1.8426
 4706SOL    HW225578   0.328   3.045  10.007  0.3520  0.1340  0.9005
 4707SOL     OW25579   1.795   3.092   4.388 -0.3318 -0.0722  0.4600
 4707SOL    HW125580   1.870   3.035   4.371 -0.5558 -0.4028  0.5868
 4707SOL    HW225581   1.827   3.131   4.469  0.5041 -2.0778  1.1065
 4708SOL     OW25582   0.275   3.676   4.368 -0.0015  0.2585 -0.0990
 4708SOL    HW125583   0.242   3.638   4.450  1.7937 -2.5720 -0.6911
 4708SOL    HW225584   0.194   3.684   4.317 -1.9417  1.8103  3.2165
 4709SOL     OW25585   3.206   4.329  16.533  0.1202 -0.2219  0.0721
 4709SOL    HW125586   3.211   4.351  16.440  1.0966  1.8303  0.6204
 4709SOL    HW225587   3.194   4.418  16.566  0.0877 -0.3467  0.3968
 4710SOL     OW25588   1.392   0.673   7.252  0.3605  0.0566  0.2216
 4710SOL    HW125589   1.392   0.698   7.160  0.7192 -1.8887 -0.3024
 4710SOL    HW225590   1.468   0.723   7.284  0.8362 -0.0744 -0.7190
 4711SOL     OW25591   3.471   2.568   5.915 -0.2404 -0.0763  0.2764
 4711SOL    HW125592   3.450   2.476   5.929 -1.5938  0.1548 -0.2205
 4711SOL    HW225593   3.530   2.573   5.840 -0.7834  0.5371 -0.1217
 4712SOL     OW25594   1.039   4.016   4.411  0.1501  0.1855 -0.0242
 4712SOL    HW125595   1.042   4.110   4.393 -1.6958  0.0078 -1.2822
 4712SOL    HW225596   1.030   3.969   4.329  0.4586 -1.6239  0.9947
 4713SOL     OW25597   2.855   2.540   1.501 -0.1517 -0.2475 -0.4160
 4713SOL    HW125598   2.921   2.609   1.511  0.3280 -0.7200 -0.3433
 4713SOL    HW225599   2.816   2.554   1.415  0.7562  0.3985 -0.7150
 4714SOL     OW25600   1.052   0.730   0.772  0.2066  0.6749  0.1936
 4714SOL    HW125601   1.095   0.768   0.696  0.4634  2.1012  1.0551
 4714SOL    HW225602   0.965   0.758   0.745 -0.2663  0.3013  1.3207
 4715SOL     OW25603   2.889   1.679   0.473 -0.2667  0.8937  0.3639
 4715SOL    HW125604   2.964   1.683   0.414  0.6725  2.0955  1.6292
 4715SOL    HW225605   2.930   1.682   0.560 -0.3037 -1.1789  0.4698
 4716SOL     OW25606   2.914   4.661  10.895 -0.4176 -0.2193  0.2122
 4716SOL    HW125607   2.942   0.018  10.943 -1.7323  0.3615  0.0105
 4716SOL    HW225608   2.993   4.608  10.888 -0.1036  0.4305 -1.0335
 4717SOL     OW25609   2.460   3.723   9.951  0.0705 -0.3212 -0.5017
 4717SOL    HW125610   2.391   3.788   9.963  0.4412  0.1715 -1.0088
 4717SOL    HW225611   2.479   3.707   9.858 -0.1581 -1.0066 -0.4302
 4718SOL     OW25612   3.027   1.372  16.299  0.6086  0.5831 -0.7695
 4718SOL    HW125613   3.004   1.289  16.257 -0.4155 -0.3707  1.6553
 4718SOL    HW225614   3.015   1.351  16.392  1.7655 -0.5788 -0.8887
 4719SOL     OW25615   2.725   2.655   3.542  0.3659 -0.0554 -0.0613
 4719SOL    HW125616   2.688   2.717   3.479  0.6193 -0.5044 -0.6467
 4719SOL    HW225617   2.656   2.594   3.565  0.2936 -0.2154 -0.7191
 4720SOL     OW25618   4.123   0.027   7.911 -0.3761  0.1071  0.2885
 4720SOL    HW125619   4.128   0.010   7.817 -1.4314 -1.2810  0.4844
 4720SOL    HW225620   4.058   4.682   7.935  1.1371 -0.1126  3.6985
 4721SOL     OW25621   0.643   1.883   9.299  0.5990  0.0528  0.4986
 4721SOL    HW125622   0.662   1.815   9.364 -1.2179 -1.0846 -0.1603
 4721SOL    HW225623   0.686   1.965   9.321 -0.7985  0.7318  0.7237
 4722SOL     OW25624   3.000   0.121   8.255  0.1551 -0.3677 -0.2606
 4722SOL    HW125625   2.931   0.097   8.316 -1.5996 -0.4935 -2.2894
 4722SOL    HW225626   3.047   0.037   8.256 -1.5744 -1.3512 -1.1925
 4723SOL     OW25627   4.529   1.647  13.049 -0.3221  0.1357 -0.3949
 4723SOL    HW125628   4.491   1.723  13.005 -1.8382 -0.1332  0.4564
 4723SOL    HW225629   4.610   1.641  12.999 -1.0733  0.2851 -1.6218
 4724SOL     OW25630   1.039   3.399   1.539  0.2875  0.1419 -0.4800
 4724SOL    HW125631   0.962   3.343   1.533 -0.2668  0.9292 -0.7148
 4724SOL    HW225632   1.016   3.466   1.604  0.5139 -1.0879  0.8772
 4725SOL     OW25633   0.915   1.461   6.658 -0.7548 -0.5788  0.1407
 4725SOL    HW125634   0.858   1.538   6.648 -1.5726 -1.1933  0.1082
 4725SOL    HW225635   1.002   1.496   6.643 -0.1405 -2.5266 -0.7587
 4726SOL     OW25636   0.414   0.210   7.867 -0.2624 -0.5230 -0.1151
 4726SOL    HW125637   0.497   0.225   7.821 -1.4124  1.3789 -1.5628
 4726SOL    HW225638   0.448   0.150   7.934  0.4435 -1.4488 -1.3180
 4727SOL     OW25639   1.338   1.886   4.207  0.4626 -0.0338 -0.0229
 4727SOL    HW125640   1.396   1.909   4.280 -0.2820 -0.3569  0.6745
 4727SOL    HW225641   1.389   1.862   4.129  2.7106 -1.0372  1.7269
 4728SOL     OW25642   1.582   0.765   0.910 -0.3845  0.1723 -0.3702
 4728SOL    HW125643   1.532   0.841   0.880  1.6999  2.1388  1.1862
 4728SOL    HW225644   1.511   0.739   0.969  1.2600 -0.7086  1.2176
 4729SOL     OW25645   4.382   1.918   8.885  0.0298  0.4496  0.0716
 4729SOL    HW125646   4.424   1.859   8.948 -2.3463  0.2272  1.4510
 4729SOL    HW225647   4.301   1.872   8.864  1.0167 -0.7569 -1.0689
 4730SOL     OW25648   3.132   4.673   4.929 -0.7977  0.2257 -0.2987
 4730SOL    HW125649   3.068   0.022   4.929 -0.9493  0.0863 -1.9709
 4730SOL    HW225650   3.074   4.606   4.892  0.8029  0.0142 -2.4147
 4731SOL     OW25651   1.489   1.473   5.750 -0.1288  0.0093 -0.4879
 4731SOL    HW125652   1.568   1.458   5.802 -0.6876 -0.8425  0.1060
 4731SOL    HW225653   1.536   1.514   5.677  1.9267 -0.3246  0.6464
 4732SOL     OW25654   1.529   0.174   1.868  0.0548  0.8408  0.4882
 4732SOL    HW125655   1.597   0.123   1.913 -0.7726 -0.1706  0.5863
 4732SOL    HW225656   1.557   0.264   1.880 -2.5393  1.8023 -0.5868
 4733SOL     OW25657   4.562   2.229   5.098  0.4532 -0.2774 -0.5359
 4733SOL    HW125658   4.610   2.283   5.035  0.0275  1.3681  0.5398
 4733SOL    HW225659   4.536   2.150   5.050 -1.0075 -0.6858  0.9253
 4734SOL     OW25660   2.010   4.327  12.125 -0.3146 -0.2373  0.3968
 4734SOL    HW125661   1.999   4.418  12.151  0.2315  0.5082 -1.9602
 4734SOL    HW225662   2.063   4.340  12.047  2.0189 -0.0596  2.0120
 4735SOL     OW25663   4.404   1.306   8.738  0.4358 -0.4855 -0.5403
 4735SOL    HW125664   4.343   1.378   8.722  0.0927 -0.7782 -0.5366
 4735SOL    HW225665   4.345   1.233   8.756 -0.4321  0.1846 -0.6751
 4736SOL     OW25666   0.216   2.552   3.957 -0.0449 -0.4109  0.5978
 4736SOL    HW125667   0.293   2.562   4.012 -0.7661 -0.4453  1.6252
 4736SOL    HW225668   0.245   2.571   3.868 -2.3628  0.3210 -0.0104
 4737SOL     OW25669   4.441   2.027   4.939 -0.5494 -0.2227  0.1231
 4737SOL    HW125670   4.378   2.086   4.898  2.6778  2.2687 -1.2188
 4737SOL    HW225671   4.516   2.014   4.881  1.0947  2.3461  1.7098
 4738SOL     OW25672   1.895   1.210   1.797  0.1429  0.1611 -0.0612
 4738SOL    HW125673   1.891   1.205   1.892  0.3694  0.2199 -0.0488
 4738SOL    HW225674   1.986   1.182   1.787  0.1867  0.5351 -0.6792
 4739SOL     OW25675   2.060   1.707   1.110  0.9161 -0.1511  0.2679
 4739SOL    HW125676   1.968   1.712   1.134  1.1372  1.1614  0.8234
 4739SOL    HW225677   2.109   1.740   1.185 -0.9483 -0.6230  1.6843
 4740SOL     OW25678   1.002   3.817   9.207  0.6108 -0.9537  0.2472
 4740SOL    HW125679   0.933   3.763   9.246  0.4328 -1.1551 -0.3496
 4740SOL    HW225680   1.069   3.750   9.214  2.1167  0.5864  0.4208
 4741SOL     OW25681   2.132   2.997   2.827  0.1845  0.0007 -0.3600
 4741SOL    HW125682   2.084   2.949   2.895  2.1973 -1.2529  0.1668
 4741SOL    HW225683   2.217   2.995   2.872 -0.0779  0.3566  0.1558
 4742SOL     OW25684   4.189   4.294  10.831  0.5791 -0.1891 -0.2428
 4742SOL    HW125685   4.206   4.227  10.898  1.1173 -1.9947 -2.1955
 4742SOL    HW225686   4.250   4.360  10.864  0.2054  0.5129 -0.9746
 4743SOL     OW25687   2.370   4.451   2.878  0.4733 -0.2762 -0.1439
 4743SOL    HW125688   2.394   4.391   2.808 -0.0093 -0.8258  0.1642
 4743SOL    HW225689   2.429   4.422   2.948 -0.0984 -2.6553 -0.6511
 4744SOL     OW25690   1.719   1.970   8.662  0.1434 -0.4295 -0.1470
 4744SOL    HW125691   1.779   2.025   8.712  0.7619 -1.0481 -0.2029
 4744SOL    HW225692   1.773   1.969   8.582 -1.3503 -0.0456 -1.1570
 4745SOL     OW25693   2.027   4.117   4.900 -0.0342 -0.5182  0.2717
 4745SOL    HW125694   2.083   4.060   4.953  1.7863  0.7968 -0.1983
 4745SOL    HW225695   2.002   4.056   4.831 -1.1274 -0.3463  0.5187
 4746SOL     OW25696   2.343   1.839   2.174 -0.1377  0.2629 -0.0634
 4746SOL    HW125697   2.268   1.781   2.159 -1.1062  1.1786  1.2445
 4746SOL    HW225698   2.332   1.870   2.264 -2.4248  1.7279 -0.8451
 4747SOL     OW25699   1.612   3.071   5.293  0.1009  0.7532 -0.2624
 4747SOL    HW125700   1.592   2.978   5.306 -0.9246  1.0738  0.4352
 4747SOL    HW225701   1.640   3.088   5.383  1.3038 -0.6006 -0.3723
 4748SOL     OW25702   3.456   3.620   7.444  0.7345 -0.1884 -0.1981
 4748SOL    HW125703   3.390   3.603   7.377 -0.0057 -0.1106  0.5052
 4748SOL    HW225704   3.424   3.700   7.486  3.4205 -0.0778  1.6677
 4749SOL     OW25705   1.810   4.194   1.171  0.5726 -0.5298 -0.5305
 4749SOL    HW125706   1.898   4.217   1.200  0.5157  0.0199 -0.7934
 4749SOL    HW225707   1.822   4.102   1.147 -1.8516 -0.7527 -0.8826
 4750SOL     OW25708   2.283   1.594  13.496 -0.4197  0.2345 -0.1214
 4750SOL    HW125709   2.352   1.630  13.440  0.1497  2.7701  2.1868
 4750SOL    HW225710   2.324   1.522  13.543 -0.6492  0.2814  0.1480
 4751SOL     OW25711   4.317   0.968   4.026  0.1677 -0.3085 -0.0666
 4751SOL    HW125712   4.405   0.996   4.052 -0.1717  0.3558  0.3513
 4751SOL    HW225713   4.327   0.903   3.956 -1.0682  0.9640 -1.4321
 4752SOL     OW25714   2.500   0.211   5.650  0.6794  0.2404 -0.2805
 4752SOL    HW125715   2.590   0.244   5.653  0.2013  1.7382 -2.6096
 4752SOL    HW225716   2.513   0.126   5.693  0.9875  0.6047  0.3416
 4753SOL     OW25717   1.742   3.292   5.868  0.1049  0.3677 -0.4030
 4753SOL    HW125718   1.702   3.266   5.785 -0.1257 -0.5381 -0.0040
 4753SOL    HW225719   1.835   3.290   5.845  0.0875  0.3076 -0.4705
 4754SOL     OW25720   0.421   1.340  17.333 -0.0190  0.4509  0.2399
 4754SOL    HW125721   0.347   1.280  17.324  0.3141  0.6244 -3.9642
 4754SOL    HW225722   0.386   1.402  17.397  0.9669 -0.3180  1.5226
 4755SOL     OW25723   3.418   1.889   3.556 -0.3079  0.6108  0.2053
 4755SOL    HW125724   3.384   1.958   3.613 -1.2957  1.5653 -1.5380
 4755SOL    HW225725   3.512   1.898   3.570  0.1308  1.7483 -3.4458
 4756SOL     OW25726   2.568   0.135   6.485  1.2692  0.1539 -0.1967
 4756SOL    HW125727   2.578   0.226   6.514  2.6376 -0.0131 -0.1536
 4756SOL    HW225728   2.604   0.086   6.559 -0.6768 -0.4253  0.3561
 4757SOL     OW25729   1.170   1.395  14.521 -0.1093 -0.3122  0.1770
 4757SOL    HW125730   1.173   1.327  14.453 -1.1215 -1.2078  1.0321
 4757SOL    HW225731   1.213   1.462  14.468  0.4750  0.1020  1.1768
 4758SOL     OW25732   1.273   3.507   3.362  0.0132 -0.2827 -0.0166
 4758SOL    HW125733   1.328   3.439   3.322  0.1454  0.0258 -0.3633
 4758SOL    HW225734   1.290   3.504   3.456  1.7310 -0.2705 -0.3247
 4759SOL     OW25735   1.904   3.745   4.084 -0.3929 -0.4897  0.0508
 4759SOL    HW125736   1.975   3.690   4.051 -1.1444 -2.6866  2.0870
 4759SOL    HW225737   1.853   3.681   4.134 -0.6866 -0.1933  0.1321
 4760SOL     OW25738   3.713   1.805   2.055  0.8555 -0.4323  0.1065
 4760SOL    HW125739   3.754   1.859   2.123 -1.0213  0.6708  0.3555
 4760SOL    HW225740   3.620   1.819   2.073  1.0334  0.2762  0.4612
 4761SOL     OW25741   3.036   1.063  17.136 -0.7944  0.9549 -0.3702
 4761SOL    HW125742   3.094   1.133  17.107  1.7437 -1.4754 -1.1830
 4761SOL    HW225743   3.036   1.008  17.057  0.8764  0.4293 -0.0094
 4762SOL     OW25744   1.952   0.982   0.947  0.0691  0.3173  0.4024
 4762SOL    HW125745   1.946   1.025   0.862 -0.7045 -2.6662 -1.0597
 4762SOL    HW225746   1.860   0.991   0.972  0.6050  1.9568  1.7654
 4763SOL     OW25747   1.792   4.507   0.266 -0.1842  0.3021 -0.2332
 4763SOL    HW125748   1.763   4.429   0.220 -0.4322  1.5141 -2.1512
 4763SOL    HW225749   1.824   4.459   0.342  2.8970  0.1179 -1.6535
 4764SOL     OW25750   3.149   3.645  11.692 -0.4615  0.2200  0.8880
 4764SOL    HW125751   3.070   3.668  11.643 -0.3073 -0.0624  0.5101
 4764SOL    HW225752   3.137   3.552  11.711  2.8791 -0.2106  0.9189
 4765SOL     OW25753   0.931   2.944   6.155  0.3425 -0.4029 -0.0871
 4765SOL    HW125754   0.980   2.879   6.207  2.2352  1.7355  0.8154
 4765SOL    HW225755   0.983   3.024   6.162 -2.2183  1.0705  2.0207
 4766SOL     OW25756   1.191   3.210  13.217  0.4112  0.2097 -0.2278
 4766SOL    HW125757   1.209   3.294  13.173  2.3297  0.1910  0.5283
 4766SOL    HW225758   1.139   3.246  13.288  1.2625  0.0565  0.4720
 4767SOL     OW25759   3.057   2.327   2.961  0.0171 -0.1487  0.3096
 4767SOL    HW125760   3.129   2.390   2.970  1.0518 -1.1029 -1.3508
 4767SOL    HW225761   3.099   2.249   2.924  2.2823  1.0321  0.3601
 4768SOL     OW25762   4.585   0.226   4.127 -0.3948  0.0726  0.1553
 4768SOL    HW125763   4.539   0.295   4.079 -0.5477  0.8421  1.4013
 4768SOL    HW225764   4.567   0.151   4.070  0.9361 -1.0408  1.1980
 4769SOL     OW25765   3.318   4.520   7.213  0.2542 -0.2788  0.1966
 4769SOL    HW125766   3.293   4.528   7.121 -2.9409  2.3120  1.3281
 4769SOL    HW225767   3.314   4.424   7.212  2.7084 -0.4013  1.1724
 4770SOL     OW25768   0.712   2.076   9.071 -1.2088  0.2001 -0.3721
 4770SOL    HW125769   0.644   2.009   9.062 -0.5838 -0.4238 -0.5346
 4770SOL    HW225770   0.746   2.081   8.981 -1.1461  0.8962 -0.3112
 4771SOL     OW25771   1.169   3.355   4.345 -0.1690 -0.3952  0.2205
 4771SOL    HW125772   1.193   3.304   4.422 -1.0758 -0.1299  0.6810
 4771SOL    HW225773   1.215   3.438   4.359 -1.4099  0.5081 -1.0124
 4772SOL     OW25774   3.032   4.494   2.697 -0.1048  0.2401 -0.4339
 4772SOL    HW125775   3.073   4.576   2.724  0.7341 -1.1051  2.3509
 4772SOL    HW225776   3.088   4.432   2.744  1.3795  1.9436  0.0547
 4773SOL     OW25777   4.367   3.431   0.085 -0.5232  0.0763 -1.0170
 4773SOL    HW125778   4.329   3.348   0.112  2.8705 -1.6281 -1.5209
 4773SOL    HW225779   4.289   3.480   0.059 -1.9415 -1.0318  1.1591
 4774SOL     OW25780   0.152   3.532   3.030 -0.7351 -0.4389 -0.1894
 4774SOL    HW125781   0.242   3.532   3.062 -0.7140 -1.3444 -0.2646
 4774SOL    HW225782   0.119   3.622   3.038  0.4936 -0.0663  0.6721
 4775SOL     OW25783   1.958   4.647   7.336  0.0253  0.0341 -0.2571
 4775SOL    HW125784   1.936   4.627   7.427 -1.0270  1.4705 -0.1971
 4775SOL    HW225785   1.873   4.681   7.306  0.6106 -0.0035 -1.9357
 4776SOL     OW25786   0.746   4.334   2.056 -0.0232  0.3316 -0.2918
 4776SOL    HW125787   0.719   4.357   1.967 -2.0917  1.8825  0.7140
 4776SOL    HW225788   0.665   4.311   2.103 -0.5132  2.1574 -0.2301
 4777SOL     OW25789   1.194   0.344   8.500  0.6449 -0.4334 -0.3727
 4777SOL    HW125790   1.184   0.428   8.456 -1.9634 -0.2322  0.6030
 4777SOL    HW225791   1.282   0.320   8.472  1.5374  1.9222  0.4251
 4778SOL     OW25792   2.488   3.518   2.974  1.0309  0.0809  0.5133
 4778SOL    HW125793   2.423   3.460   3.013  1.4217 -0.0490  0.9794
 4778SOL    HW225794   2.489   3.479   2.887  2.9587  1.4199 -0.0863
 4779SOL     OW25795   3.029   2.075  16.952 -0.5464 -0.3500  0.1307
 4779SOL    HW125796   3.054   2.098  17.042  0.8608  0.0039 -0.3438
 4779SOL    HW225797   2.969   2.145  16.929 -1.7602 -1.3051  0.3574
 4780SOL     OW25798   2.038   0.242  10.971 -0.3271  0.2455  0.0959
 4780SOL    HW125799   2.108   0.206  10.918  1.3871  2.3697  0.9250
 4780SOL    HW225800   1.993   0.165  11.005  1.9493 -1.2626 -0.3704
 4781SOL     OW25801   0.411   0.203   3.070  0.2464 -0.1152 -0.2346
 4781SOL    HW125802   0.318   0.218   3.058  0.4240 -0.4454 -2.0500
 4781SOL    HW225803   0.413   0.146   3.147 -1.2442  0.7299  0.4302
 4782SOL     OW25804   0.898   1.944   1.373 -0.1229  0.2436 -0.0746
 4782SOL    HW125805   0.936   1.952   1.461 -1.6684 -1.1286  0.7226
 4782SOL    HW225806   0.955   1.987   1.309 -0.1870 -0.3376 -0.5264
 4783SOL     OW25807   2.650   0.612  15.343 -0.1071 -0.6387 -0.0115
 4783SOL    HW125808   2.707   0.587  15.415 -0.4178  0.4541  0.6023
 4783SOL    HW225809   2.602   0.686  15.380 -1.4046 -1.6717  0.4159
 4784SOL     OW25810   4.666   0.627  11.659  0.0098 -0.2579 -0.2688
 4784SOL    HW125811   4.702   0.628  11.570 -0.0907 -0.3908 -0.3113
 4784SOL    HW225812   4.684   0.717  11.688 -2.4865  0.1080  0.1417
 4785SOL     OW25813   3.187   3.902  10.970  0.5837  0.4401  0.5340
 4785SOL    HW125814   3.258   3.869  11.024  0.7079  2.4708  1.6161
 4785SOL    HW225815   3.238   3.959  10.912 -0.5365  0.9024 -0.0157
 4786SOL     OW25816   2.274   2.308   1.253 -0.4313  0.1132  0.1001
 4786SOL    HW125817   2.268   2.398   1.286 -0.0817  0.1750 -0.0066
 4786SOL    HW225818   2.349   2.287   1.307 -0.4405  0.7633  0.3683
 4787SOL     OW25819   1.101   0.938   1.979 -0.8255 -0.0939  0.4990
 4787SOL    HW125820   1.065   1.020   2.013 -0.1669  0.3747  0.0593
 4787SOL    HW225821   1.164   0.970   1.915  0.1353 -0.0027  1.4980
 4788SOL     OW25822   0.537   1.761   7.401  0.0001  0.1617  0.1878
 4788SOL    HW125823   0.590   1.739   7.478  0.2108 -1.0451 -0.3040
 4788SOL    HW225824   0.454   1.717   7.421 -0.4950  0.7948 -0.4970
 4789SOL     OW25825   2.021   0.606   0.298  1.0196 -0.6313 -0.0757
 4789SOL    HW125826   1.949   0.623   0.358 -0.5564 -2.9906 -1.3100
 4789SOL    HW225827   2.035   0.695   0.265  0.6554  0.3969  2.5606
 4790SOL     OW25828   0.545   0.903   5.022 -0.7673 -0.4893  0.3615
 4790SOL    HW125829   0.561   0.869   5.110 -0.8228  0.2758  0.6633
 4790SOL    HW225830   0.625   0.868   4.983 -0.6334 -0.1396  0.3260
 4791SOL     OW25831   3.752   2.313   6.706 -0.2226  0.0571  0.1624
 4791SOL    HW125832   3.834   2.288   6.750 -1.1211 -0.1555  1.7092
 4791SOL    HW225833   3.693   2.322   6.781 -1.4442  0.9674 -0.9231
 4792SOL     OW25834   2.549   3.803   7.618 -0.0062 -0.1140 -0.0001
 4792SOL    HW125835   2.531   3.729   7.560 -0.2474 -0.3478  0.3718
 4792SOL    HW225836   2.544   3.872   7.552  0.3388  0.9351  1.0804
 4793SOL     OW25837   2.536   2.429   3.537  0.3006  0.1375  0.1502
 4793SOL    HW125838   2.442   2.420   3.520  0.2867 -0.7105  0.6761
 4793SOL    HW225839   2.580   2.363   3.483  0.5668  0.3391  0.1177
 4794SOL     OW25840   3.052   1.771  16.975  0.0815  0.4370 -0.3292
 4794SOL    HW125841   3.031   1.864  16.981  1.0518  0.6395 -0.1186
 4794SOL    HW225842   3.145   1.775  16.951  0.5996  1.0469  1.8187
 4795SOL     OW25843   1.284   0.766   1.253 -0.1273  0.7250 -0.0151
 4795SOL    HW125844   1.332   0.684   1.249 -1.8480 -0.2320 -1.1986
 4795SOL    HW225845   1.210   0.748   1.195 -0.0062  2.7006 -0.7779
 4796SOL     OW25846   3.900   3.250   1.773 -0.4692  0.1508  0.4221
 4796SOL    HW125847   3.816   3.253   1.818  0.1042 -0.7196  1.5682
 4796SOL    HW225848   3.873   3.298   1.696  2.4995 -0.4129 -0.9883
 4797SOL     OW25849   1.882   3.065   6.915  0.8063  0.2373 -0.1921
 4797SOL    HW125850   1.872   3.136   6.978  1.7469 -0.1760  0.4245
 4797SOL    HW225851   1.908   3.119   6.841  1.5746  2.4897  1.7105
 4798SOL     OW25852   4.558   2.933   5.753  0.3295  0.7871  0.0788
 4798SOL    HW125853   4.602   2.995   5.810 -1.6199 -0.2671  2.7124
 4798SOL    HW225854   4.474   2.967   5.722  0.5668  0.7724 -0.5918
 4799SOL     OW25855   4.351   0.629   8.515  0.4310 -0.3415  0.2854
 4799SOL    HW125856   4.438   0.609   8.548  0.1836 -1.4595  0.2538
 4799SOL    HW225857   4.301   0.568   8.569 -0.0593 -1.3960 -1.3432
 4800SOL     OW25858   1.454   3.389  10.823 -0.0142 -0.5036  0.5127
 4800SOL    HW125859   1.416   3.343  10.898  0.0401 -0.9120  0.2915
 4800SOL    HW225860   1.384   3.369  10.761  1.3509  1.5295 -1.6757
 4801SOL     OW25861   0.445   4.166   5.050  0.6893  0.4070  0.0471
 4801SOL    HW125862   0.435   4.200   5.139 -0.1726  1.6820 -0.5317
 4801SOL    HW225863   0.492   4.242   5.015  1.7320 -0.3438 -0.1919
 4802SOL     OW25864   1.034   4.589   6.938 -0.5279  0.6270 -0.2183
 4802SOL    HW125865   1.038   4.581   6.842 -0.8259 -0.1264 -0.1701
 4802SOL    HW225866   1.121   4.623   6.956  0.3641 -0.8069 -1.8149
 4803SOL     OW25867   3.016   2.614   7.442 -0.0733  0.4042 -0.6574
 4803SOL    HW125868   3.074   2.686   7.467  0.9838 -0.6838  0.0702
 4803SOL    HW225869   3.079   2.542   7.434 -0.9334 -0.4174  0.0809
 4804SOL     OW25870   4.486   1.831  12.836  0.6817  0.3735 -0.0771
 4804SOL    HW125871   4.480   1.922  12.808 -0.2074 -0.2094 -1.8060
 4804SOL    HW225872   4.508   1.786  12.754 -2.4302 -0.3973 -0.4991
 4805SOL     OW25873   2.304   3.935   6.923 -0.8793  0.1103 -0.4141
 4805SOL    HW125874   2.291   3.990   7.001  0.0883 -1.5782  0.9448
 4805SOL    HW225875   2.270   3.991   6.853  0.5112  0.2154 -0.9852
 4806SOL     OW25876   4.099   0.944   6.812  0.2376  0.2057  0.3975
 4806SOL    HW125877   4.140   1.014   6.762 -0.6560 -0.2107 -0.9172
 4806SOL    HW225878   4.081   0.991   6.894 -1.6677  1.5588 -0.8088
 4807SOL     OW25879   3.204   2.793   7.514 -0.2820 -0.8031 -0.3449
 4807SOL    HW125880   3.291   2.825   7.487 -0.6562  1.3533  1.0305
 4807SOL    HW225881   3.235   2.763   7.599 -3.4210 -2.2377  0.2765
 4808SOL     OW25882   2.629   1.334   6.088 -0.0196  0.0131  0.0609
 4808SOL    HW125883   2.634   1.378   6.173  0.1079  0.3227 -0.1072
 4808SOL    HW225884   2.649   1.405   6.028 -1.1340  0.0732 -0.2403
 4809SOL     OW25885   2.051   2.873   4.692  0.0381  0.0691  0.5397
 4809SOL    HW125886   2.103   2.857   4.614  0.0507  1.7581  0.1919
 4809SOL    HW225887   2.020   2.783   4.699  0.8857 -0.2371  0.3968
 4810SOL     OW25888   3.315   0.356   5.962 -0.3361  0.0259  0.4230
 4810SOL    HW125889   3.227   0.359   5.998 -1.3026  1.6471 -2.0217
 4810SOL    HW225890   3.305   0.306   5.881 -1.5773 -0.7075  1.0405
 4811SOL     OW25891   4.333   1.797  14.859 -0.3088  0.1335 -0.2056
 4811SOL    HW125892   4.357   1.848  14.781  0.1869 -1.2160 -0.9389
 4811SOL    HW225893   4.391   1.826  14.929 -0.6179  1.6912 -0.5978
 4812SOL     OW25894   3.342   3.455   7.997 -0.4000 -0.1023  0.2623
 4812SOL    HW125895   3.341   3.531   8.055  1.2407 -0.6341  0.9786
 4812SOL    HW225896   3.433   3.455   7.968 -1.1254  0.9753 -2.0043
 4813SOL     OW25897   0.562   0.248  16.042 -0.2587 -0.4965  0.7834
 4813SOL    HW125898   0.468   0.248  16.060 -0.4400  0.6726 -0.1591
 4813SOL    HW225899   0.600   0.315  16.099 -0.0435 -1.1412  1.3939
 4814SOL     OW25900   2.798   0.766   6.555  0.2121  0.3975 -0.3091
 4814SOL    HW125901   2.776   0.715   6.633 -0.5638 -0.3953 -1.0528
 4814SOL    HW225902   2.889   0.783   6.580  0.3114 -0.3989 -0.1332
 4815SOL     OW25903   0.149   2.107   2.893 -0.3746  0.2605  0.4478
 4815SOL    HW125904   0.110   2.189   2.924  0.1368 -0.3538  2.6998
 4815SOL    HW225905   0.239   2.113   2.925  1.1122  0.0848 -3.7100
 4816SOL     OW25906   4.292   2.286  17.584  0.0813 -0.3676  0.0349
 4816SOL    HW125907   4.219   2.273  17.523 -0.0168 -0.6266  0.2120
 4816SOL    HW225908   4.306   2.195  17.610  1.1876  0.0660  0.9633
 4817SOL     OW25909   2.300   3.657   8.426 -0.0066 -0.6660 -0.0866
 4817SOL    HW125910   2.360   3.727   8.452  0.7324 -1.5487  0.5704
 4817SOL    HW225911   2.293   3.672   8.332  1.1848 -2.0857 -0.4072
 4818SOL     OW25912   4.629   2.146   7.225 -0.1522 -0.4257 -0.2388
 4818SOL    HW125913   4.637   2.053   7.244 -0.8972 -0.2884  0.7447
 4818SOL    HW225914   4.718   2.175   7.248 -0.5536  0.8787 -0.2981
 4819SOL     OW25915   2.791   3.980   8.840  0.2598  0.2719  0.1278
 4819SOL    HW125916   2.825   4.058   8.796  0.7385 -1.7518 -3.1086
 4819SOL    HW225917   2.785   4.021   8.926  0.2042 -3.0725  1.7056
 4820SOL     OW25918   2.785   1.049   7.910  0.2544 -0.2549 -0.4398
 4820SOL    HW125919   2.703   1.003   7.891 -0.7877  1.6628 -0.5603
 4820SOL    HW225920   2.833   1.014   7.835 -0.0156 -2.9129  0.6245
 4821SOL     OW25921   1.404   0.615   2.173 -0.4346 -0.0804 -0.0462
 4821SOL    HW125922   1.324   0.665   2.158 -0.8241  0.2711  3.3786
 4821SOL    HW225923   1.396   0.540   2.114 -0.9466 -0.3504  0.3706
 4822SOL     OW25924   3.035   0.969   7.758  0.7764 -0.4341  0.3896
 4822SOL    HW125925   3.094   0.910   7.710  0.8887  1.0322 -1.2808
 4822SOL    HW225926   3.096   0.995   7.827 -0.2671  2.2982  0.2781
 4823SOL     OW25927   0.003   3.718   8.788 -0.5137 -0.3221 -0.1342
 4823SOL    HW125928   0.086   3.763   8.804 -1.2328  0.4095  1.5226
 4823SOL    HW225929   4.717   3.739   8.695  1.2007  3.3961  0.5952
 4824SOL     OW25930   0.318   0.102   3.608  0.6714 -0.5883  0.9415
 4824SOL    HW125931   0.226   0.082   3.621  0.3458  0.7071  0.6267
 4824SOL    HW225932   0.314   0.197   3.603  1.6266 -0.6040 -0.2778
 4825SOL     OW25933   1.350   2.719   6.776 -0.3222  0.5014  0.6287
 4825SOL    HW125934   1.443   2.714   6.753  0.1150  3.4779  1.7472
 4825SOL    HW225935   1.320   2.629   6.769 -0.7918  0.6399  0.8426
 4826SOL     OW25936   2.890   3.782   8.669 -0.0156 -0.0780  0.3487
 4826SOL    HW125937   2.818   3.767   8.607  0.2438 -0.6692  0.1889
 4826SOL    HW225938   2.858   3.856   8.720 -0.3804  0.8215 -1.1990
 4827SOL     OW25939   3.197   3.745   8.912 -0.6170 -0.0664  0.8618
 4827SOL    HW125940   3.214   3.736   8.818  1.4823 -0.0445  1.2436
 4827SOL    HW225941   3.182   3.839   8.907 -0.3904 -0.0373  0.7214
 4828SOL     OW25942   3.507   4.279  11.484 -0.3261  0.4161  0.0184
 4828SOL    HW125943   3.594   4.303  11.452  0.9948 -2.8078  1.1608
 4828SOL    HW225944   3.507   4.189  11.451 -3.0396  0.9665 -1.4544
 4829SOL     OW25945   1.614   3.254   5.632 -0.3123  0.3714  0.4294
 4829SOL    HW125946   1.557   3.302   5.571  1.2398  1.5895 -0.0722
 4829SOL    HW225947   1.571   3.169   5.620 -0.2662  0.5580 -1.0796
 4830SOL     OW25948   2.686   2.178   4.846 -0.2569  0.2539 -0.7134
 4830SOL    HW125949   2.669   2.157   4.938  1.0400  1.4659 -0.1901
 4830SOL    HW225950   2.763   2.128   4.818 -0.9164  0.4086 -2.7749
 4831SOL     OW25951   3.064   4.610   3.650 -0.0688  0.6129  0.1445
 4831SOL    HW125952   2.999   4.556   3.696  0.1341  1.9625  2.0284
 4831SOL    HW225953   3.020   4.633   3.568 -0.0212 -0.4214 -0.1683
 4832SOL     OW25954   0.839   1.329   4.478 -0.1959 -0.1906 -0.0043
 4832SOL    HW125955   0.902   1.374   4.422 -0.3284 -0.6046 -0.4886
 4832SOL    HW225956   0.778   1.301   4.409 -1.8129  1.7916  0.6053
 4833SOL     OW25957   2.029   0.538   3.656 -0.5401 -0.1158  0.0423
 4833SOL    HW125958   2.106   0.516   3.709 -0.0323 -2.2593 -1.6063
 4833SOL    HW225959   2.058   0.497   3.575 -2.2279  0.4313 -0.8386
 4834SOL     OW25960   3.060   3.238  12.006 -0.3434  0.3615 -0.2147
 4834SOL    HW125961   2.992   3.277  12.061 -1.7943  0.7792 -2.3194
 4834SOL    HW225962   3.075   3.169  12.071 -0.3359  2.5099  2.0429
 4835SOL     OW25963   3.709   0.301  13.231  0.1776  0.3238  0.0487
 4835SOL    HW125964   3.657   0.297  13.311  0.2808  0.3749  0.1186
 4835SOL    HW225965   3.649   0.342  13.169 -2.0356 -3.5131 -0.3604
 4836SOL     OW25966   1.420   1.581   1.525  0.1477 -0.7138 -0.4441
 4836SOL    HW125967   1.441   1.517   1.458 -0.8646 -0.4233 -1.0525
 4836SOL    HW225968   1.503   1.629   1.529 -0.4971  0.3082  1.0171
 4837SOL     OW25969   4.635   1.958   7.962  0.0311  0.1497  0.0989
 4837SOL    HW125970   4.586   1.963   8.044 -1.2412  1.4680 -0.7576
 4837SOL    HW225971   0.003   1.936   7.990 -1.5230 -2.8632  2.6356
 4838SOL     OW25972   2.495   3.882   1.961  0.5817  0.4219 -0.5264
 4838SOL    HW125973   2.537   3.935   1.893  1.9044  0.4094  0.2669
 4838SOL    HW225974   2.441   3.816   1.918  0.1694 -0.7011  1.7229
 4839SOL     OW25975   4.336   3.699   8.685  0.2232  0.0309  0.0160
 4839SOL    HW125976   4.356   3.751   8.607  1.2955 -1.3406 -0.6310
 4839SOL    HW225977   4.369   3.760   8.750  1.9812  2.1411 -2.8394
 4840SOL     OW25978   4.626   3.882   7.474 -0.5589 -0.7522  0.1504
 4840SOL    HW125979   4.713   3.889   7.514 -0.5258  1.0219 -0.2389
 4840SOL    HW225980   4.641   3.805   7.419 -0.7018 -0.0430 -0.8938
 4841SOL     OW25981   2.193   2.478  17.505  0.2002  0.5111 -0.2551
 4841SOL    HW125982   2.098   2.474  17.500  0.2508  0.3156 -0.9406
 4841SOL    HW225983   2.220   2.400  17.457  0.5701  0.9070 -0.6907
 4842SOL     OW25984   3.650   1.348   6.532 -0.5270 -0.2079  0.2745
 4842SOL    HW125985   3.686   1.266   6.500  0.1003  0.4255 -0.6479
 4842SOL    HW225986   3.642   1.388   6.445  1.4217 -0.9351 -0.2444
 4843SOL     OW25987   2.888   1.220   1.987  0.0680  0.6816  0.1834
 4843SOL    HW125988   2.823   1.166   1.942 -0.0474  3.1796 -2.6277
 4843SOL    HW225989   2.846   1.305   1.978 -1.8612 -0.2841  0.1173
 4844SOL     OW25990   1.420   4.561   3.727 -0.6823 -0.1538 -0.0086
 4844SOL    HW125991   1.390   4.643   3.766  0.3415 -0.9277  2.3840
 4844SOL    HW225992   1.417   4.589   3.636  0.2201 -1.1460 -0.3515
 4845SOL     OW25993   0.709   1.307  11.883  0.2853 -0.2084 -0.1931
 4845SOL    HW125994   0.615   1.322  11.871  0.4931  0.6302 -0.7454
 4845SOL    HW225995   0.694   1.275  11.972 -1.2775  0.7612 -0.1123
 4846SOL     OW25996   4.350   4.678   6.277  0.4546 -0.0762 -0.0965
 4846SOL    HW125997   4.275   4.636   6.236 -0.8678 -0.3789  2.6347
 4846SOL    HW225998   4.416   4.681   6.208  0.3916 -2.1911 -0.2410
 4847SOL     OW25999   3.506   0.145  10.785 -0.3373  0.6694  0.8363
 4847SOL    HW126000   3.538   0.215  10.842  2.4702 -0.8203  1.0739
 4847SOL    HW226001   3.427   0.120  10.834 -0.3600 -0.8506  0.0427
 4848SOL     OW26002   0.135   3.416   3.786 -0.0623  0.0953  0.2805
 4848SOL    HW126003   0.082   3.449   3.858 -0.4463 -0.8230  0.4227
 4848SOL    HW226004   0.217   3.436   3.829  0.9194 -1.3453 -0.9343
 4849SOL     OW26005   0.663   4.220   8.477  0.1956 -0.0723  0.3456
 4849SOL    HW126006   0.611   4.291   8.514  0.4453  1.1453 -1.6164
 4849SOL    HW226007   0.752   4.242   8.506  0.2685  1.1627 -0.8223
 4850SOL     OW26008   1.440   3.074  16.087 -0.0465  0.4476 -0.3239
 4850SOL    HW126009   1.529   3.110  16.086 -0.5767  1.7358 -0.8180
 4850SOL    HW226010   1.408   3.133  16.155  1.0896  1.6322 -0.8309
 4851SOL     OW26011   0.081   0.255  12.294 -0.0520 -0.8127  0.0922
 4851SOL    HW126012   0.141   0.265  12.368  0.3943 -0.3072 -0.3405
 4851SOL    HW226013   0.146   0.274  12.226 -2.6546  0.4158 -2.0327
 4852SOL     OW26014   0.808   4.616   7.698  0.5218  0.3271  0.0088
 4852SOL    HW126015   0.816   4.650   7.787 -0.7877  0.1760  0.1886
 4852SOL    HW226016   0.713   4.620   7.691  0.6553 -0.8943 -2.5950
 4853SOL     OW26017   4.075   4.074   2.368 -0.0176  0.0916  0.7571
 4853SOL    HW126018   4.151   4.129   2.383 -0.5911  0.6509  1.5797
 4853SOL    HW226019   4.060   4.044   2.458  1.2214 -0.1265  0.8862
 4854SOL     OW26020   0.515   1.602   5.781 -0.0922  0.3002 -0.1730
 4854SOL    HW126021   0.572   1.552   5.723  1.5437 -0.1737  1.8221
 4854SOL    HW226022   0.447   1.540   5.805  0.4311 -0.4567 -0.6668
 4855SOL     OW26023   4.385   0.241   5.686 -0.2116  0.5382  0.7442
 4855SOL    HW126024   4.349   0.277   5.605  0.6154 -1.1055 -0.3668
 4855SOL    HW226025   4.304   0.260   5.733 -1.1698  0.9469 -1.0801
 4856SOL     OW26026   3.687   1.284  10.647 -0.3667 -0.0235 -0.0645
 4856SOL    HW126027   3.775   1.258  10.673 -1.1602 -2.6658 -0.0964
 4856SOL    HW226028   3.661   1.212  10.590  1.1945 -1.3119  0.8427
 4857SOL     OW26029   0.584   0.323   5.297  0.0788 -0.4309 -0.3479
 4857SOL    HW126030   0.649   0.369   5.351 -0.7967  1.3231 -0.7812
 4857SOL    HW226031   0.613   0.233   5.290  0.9597 -0.2121  0.4888
 4858SOL     OW26032   2.823   1.213  15.643  0.2412  0.7986  0.4449
 4858SOL    HW126033   2.740   1.197  15.597  0.9789  2.4871 -1.4728
 4858SOL    HW226034   2.782   1.240  15.726 -1.4513  2.6476 -0.9839
 4859SOL     OW26035   1.494   2.432   5.501  0.1496 -0.1198  0.0540
 4859SOL    HW126036   1.495   2.362   5.565 -1.7488 -1.0835 -0.9765
 4859SOL    HW226037   1.588   2.447   5.496 -0.1530  1.1510 -2.0387
 4860SOL     OW26038   0.404   4.652  14.854  0.2705  0.6416  0.2767
 4860SOL    HW126039   0.330   4.635  14.912  0.3168  0.4974  0.2938
 4860SOL    HW226040   0.440   0.001  14.907 -1.8259  2.7613 -1.1478
 4861SOL     OW26041   0.132   0.210   4.809  0.4795  0.0347 -0.2915
 4861SOL    HW126042   0.043   0.244   4.823 -0.0410 -1.3878 -0.1601
 4861SOL    HW226043   0.121   0.125   4.766 -0.4084  0.6520 -1.2803
 4862SOL     OW26044   2.265   4.668   9.976  0.1284  0.9114 -0.1853
 4862SOL    HW126045   2.263   4.654  10.071  0.3601  1.2646 -0.1299
 4862SOL    HW226046   2.228   0.035   9.973 -0.4566  0.6910  0.4070
 4863SOL     OW26047   3.189   1.323   5.715  0.0788  0.4000  0.1493
 4863SOL    HW126048   3.173   1.278   5.798 -2.2918  2.1083  0.6178
 4863SOL    HW226049   3.136   1.269   5.655 -0.7294  1.6512 -0.2579
 4864SOL     OW26050   3.796   3.412   4.598 -0.1619 -0.4285  0.1068
 4864SOL    HW126051   3.788   3.371   4.684  0.4345 -0.8542 -0.0470
 4864SOL    HW226052   3.870   3.366   4.558  0.8945 -0.8597  2.5500
 4865SOL     OW26053   2.234   1.042   6.014 -0.1706  0.1509  0.0644
 4865SOL    HW126054   2.296   1.095   6.064  0.9390 -1.4782  0.4487
 4865SOL    HW226055   2.150   1.068   6.052 -0.8201 -0.0373 -1.2404
 4866SOL     OW26056   2.549   1.740  11.705  0.1931 -0.0768  0.9783
 4866SOL    HW126057   2.494   1.678  11.753 -0.9074 -0.4461 -0.7734
 4866SOL    HW226058   2.486   1.795  11.659  0.3782  0.1153  0.9561
 4867SOL     OW26059   1.415   1.721   3.500  0.1643 -0.2085 -0.5783
 4867SOL    HW126060   1.439   1.812   3.519 -1.6390  0.5266 -1.8490
 4867SOL    HW226061   1.370   1.701   3.582  3.3806  2.0812  1.7461
 4868SOL     OW26062   2.884   1.680   5.200 -0.4584  0.3459 -0.0896
 4868SOL    HW126063   2.977   1.696   5.185  0.0433 -1.7484  0.8619
 4868SOL    HW226064   2.835   1.742   5.145  2.3092  1.0893 -1.7436
 4869SOL     OW26065   0.452   4.450  13.412 -0.4852 -0.4346  0.2468
 4869SOL    HW126066   0.461   4.546  13.407 -1.1100 -0.2983  1.6296
 4869SOL    HW226067   0.536   4.431  13.372 -0.1659 -0.2596  0.8226
 4870SOL     OW26068   0.173   3.513   9.191 -0.0189 -0.5217  0.1887
 4870SOL    HW126069   0.224   3.493   9.113 -0.2627  0.7953 -0.3032
 4870SOL    HW226070   0.165   3.428   9.235  0.6573  0.0316  1.3616
 4871SOL     OW26071   1.697   1.066   9.403  0.1747  0.4098 -0.6118
 4871SOL    HW126072   1.682   0.971   9.404  2.8115  0.0387  2.1860
 4871SOL    HW226073   1.626   1.092   9.345 -1.1882 -0.1790  0.8057
 4872SOL     OW26074   0.490   3.496   5.014  0.0178  0.1972 -0.2172
 4872SOL    HW126075   0.414   3.549   5.039 -0.1390  0.3948 -1.0912
 4872SOL    HW226076   0.566   3.554   4.999  0.4525 -0.0412  1.0517
 4873SOL     OW26077   4.064   0.562   3.736 -0.1534  0.4097 -0.3140
 4873SOL    HW126078   3.971   0.566   3.761 -0.5497 -0.3629 -1.6482
 4873SOL    HW226079   4.101   0.513   3.809 -0.4184  1.0863  0.2766
 4874SOL     OW26080   0.380   1.806   8.922  0.1024 -0.1980 -0.2271
 4874SOL    HW126081   0.413   1.853   8.999  1.5443 -1.5945 -0.0095
 4874SOL    HW226082   0.355   1.723   8.963  0.4265  0.0307  0.4389
 4875SOL     OW26083   2.758   4.301  13.145  0.2270 -0.1237  0.1295
 4875SOL    HW126084   2.758   4.212  13.181 -2.3532  0.0288  0.5343
 4875SOL    HW226085   2.714   4.353  13.213 -0.3109  0.8085 -0.9330
 4876SOL     OW26086   1.680   3.004   1.768  0.0953  0.9372  0.3051
 4876SOL    HW126087   1.590   2.982   1.793  0.5053 -0.0255  0.9302
 4876SOL    HW226088   1.661   3.076   1.708  2.0815  0.8528 -0.4459
 4877SOL     OW26089   3.768   1.744   6.911  0.3293 -0.2764  0.3244
 4877SOL    HW126090   3.805   1.658   6.932 -1.0929 -1.2480 -1.1985
 4877SOL    HW226091   3.680   1.728   6.946  0.0935 -0.7310 -0.4924
 4878SOL     OW26092   2.995   4.220   2.420 -0.1023  0.2243 -0.4646
 4878SOL    HW126093   3.071   4.191   2.370  0.9571 -0.3922  1.5297
 4878SOL    HW226094   2.920   4.164   2.398 -1.5043  1.8656  0.0994
 4879SOL     OW26095   1.515   4.484   4.812  0.1588  0.1420 -0.0833
 4879SOL    HW126096   1.574   4.551   4.776  2.6491 -1.6932  0.5963
 4879SOL    HW226097   1.542   4.473   4.903  2.3382 -0.0871 -0.7582
 4880SOL     OW26098   2.326   1.004   2.896 -0.1769  0.8494  0.5099
 4880SOL    HW126099   2.413   0.998   2.858 -1.0614 -1.3399 -1.1589
 4880SOL    HW226100   2.278   0.940   2.843 -1.7286  0.0456  2.8987
 4881SOL     OW26101   2.669   4.562  10.996  0.2018  0.0816 -0.0566
 4881SOL    HW126102   2.736   4.622  10.962 -0.2531  0.2931 -0.5739
 4881SOL    HW226103   2.710   4.481  10.964 -2.4775 -1.2639 -0.1034
 4882SOL     OW26104   0.217   1.707  15.191  0.2037  0.0486 -0.1947
 4882SOL    HW126105   0.273   1.661  15.254  0.9863  0.1621 -0.8053
 4882SOL    HW226106   0.147   1.642  15.186 -0.5752  1.0455 -2.5943
 4883SOL     OW26107   1.190   3.892   7.897 -0.7007  0.1956  0.4616
 4883SOL    HW126108   1.240   3.852   7.968  0.6785  0.1243 -0.5442
 4883SOL    HW226109   1.176   3.812   7.846 -0.0550  1.2478 -1.3397
 4884SOL     OW26110   1.001   1.980  11.098 -0.0432 -0.1573  0.7214
 4884SOL    HW126111   1.095   1.997  11.087  0.0998 -1.3297  0.0196
 4884SOL    HW226112   0.983   1.948  11.009 -3.7425  2.9703  0.3693
 4885SOL     OW26113   2.177   3.190   7.055  0.7087  0.2589  0.0939
 4885SOL    HW126114   2.105   3.252   7.055  0.2996 -0.2162 -1.1193
 4885SOL    HW226115   2.128   3.115   7.090  1.1516 -0.2506 -0.3691
 4886SOL     OW26116   3.079   3.074   6.859 -0.0241 -0.1938  0.1233
 4886SOL    HW126117   3.083   3.169   6.844  0.7608 -0.0825  1.0315
 4886SOL    HW226118   2.993   3.070   6.901 -0.0937 -0.5632 -0.0523
 4887SOL     OW26119   4.010   3.154   1.415  0.1266  1.1372  0.6672
 4887SOL    HW126120   3.981   3.090   1.350  2.6649 -0.4050  1.0906
 4887SOL    HW226121   4.024   3.097   1.490 -0.0585  0.6156  0.3051
 4888SOL     OW26122   0.482   4.174   6.149 -0.0976  0.7222 -0.5277
 4888SOL    HW126123   0.403   4.181   6.202 -0.7863  1.9027 -1.7041
 4888SOL    HW226124   0.458   4.233   6.078 -0.6640  0.5690 -0.4559
 4889SOL     OW26125   0.128   0.839   5.740  0.4254  0.5054  0.2223
 4889SOL    HW126126   0.041   0.829   5.701  0.4904  0.8223  0.0014
 4889SOL    HW226127   0.173   0.909   5.693  0.7805 -0.0672 -0.2869
 4890SOL     OW26128   4.126   0.448   0.383 -0.3388  0.0876  0.0104
 4890SOL    HW126129   4.064   0.451   0.457 -3.0154 -1.3748 -2.1682
 4890SOL    HW226130   4.072   0.476   0.309  1.2487  0.5738 -0.9501
 4891SOL     OW26131   1.141   1.527   5.084 -0.2339 -0.3681  0.0223
 4891SOL    HW126132   1.195   1.586   5.137 -1.1254  1.2653 -0.8950
 4891SOL    HW226133   1.209   1.489   5.029 -1.3323 -1.5529 -0.5394
 4892SOL     OW26134   2.282   0.930   3.788  0.2417  0.4285  0.3480
 4892SOL    HW126135   2.306   0.861   3.725  0.3105  0.6796  0.1005
 4892SOL    HW226136   2.368   0.955   3.822  0.3718  0.2667  0.1441
 4893SOL     OW26137   4.552   1.349   3.223  0.3411 -0.4901 -0.0168
 4893SOL    HW126138   4.506   1.412   3.168 -1.4540  0.7402  2.8928
 4893SOL    HW226139   4.481   1.314   3.278 -1.1709  0.1213 -1.5782
 4894SOL     OW26140   1.862   1.484   7.056 -0.3095  0.2145 -0.2072
 4894SOL    HW126141   1.819   1.556   7.103 -2.1095 -1.2196  0.3502
 4894SOL    HW226142   1.898   1.437   7.131  0.9534  0.9475 -0.3525
 4895SOL     OW26143   1.775   0.625   1.064  0.2923 -0.4935 -0.2702
 4895SOL    HW126144   1.727   0.697   1.023 -0.5334 -2.0322 -1.9938
 4895SOL    HW226145   1.747   0.633   1.155 -0.0146  2.8218 -0.6589
 4896SOL     OW26146   1.957   3.093  10.839 -0.3530  0.5253 -0.0691
 4896SOL    HW126147   1.872   3.071  10.800 -0.7843 -0.7722  1.6272
 4896SOL    HW226148   1.976   3.178  10.799  0.0729  0.4087 -0.1140
 4897SOL     OW26149   3.739   0.808   3.539  0.4967  0.3373  0.4904
 4897SOL    HW126150   3.712   0.716   3.549  2.3911 -0.4412 -1.4325
 4897SOL    HW226151   3.702   0.856   3.612  0.8847  0.0848  0.8508
 4898SOL     OW26152   4.188   4.609   5.767  0.3526  0.3841 -0.7315
 4898SOL    HW126153   4.274   4.608   5.808  0.1003 -0.0523 -0.2087
 4898SOL    HW226154   4.211   4.649   5.683 -0.0024  2.6028  0.2230
 4899SOL     OW26155   2.939   3.977  11.423 -0.0882 -0.4389 -0.0847
 4899SOL    HW126156   2.882   3.972  11.346  0.0434  2.3672 -0.3487
 4899SOL    HW226157   3.026   3.996  11.389 -1.0887 -0.5223 -2.6698
 4900SOL     OW26158   3.647   0.983  13.484 -0.1029 -0.1391  0.5011
 4900SOL    HW126159   3.658   1.078  13.484  1.8497 -0.3715  0.9304
 4900SOL    HW226160   3.579   0.970  13.550 -0.8775  1.1264 -0.0542
 4901SOL     OW26161   3.553   1.382   0.207 -0.0598  0.4760  0.0681
 4901SOL    HW126162   3.472   1.333   0.220  1.2743 -1.4995  0.8882
 4901SOL    HW226163   3.624   1.320   0.222  1.0891  1.8475  0.3454
 4902SOL     OW26164   2.847   4.601   7.442  0.0858  0.5736 -0.2148
 4902SOL    HW126165   2.932   4.627   7.406  1.3129 -0.9505  1.6329
 4902SOL    HW226166   2.876   4.530   7.498 -0.2476  0.8768  0.3428
 4903SOL     OW26167   3.134   3.503  11.355  0.0490  0.0742 -0.1017
 4903SOL    HW126168   3.150   3.422  11.404 -0.9914 -0.6770 -1.0069
 4903SOL    HW226169   3.223   3.517  11.322 -0.2539 -2.4543 -2.0538
 4904SOL     OW26170   2.353   1.167   2.383  0.3166 -0.0121 -0.1252
 4904SOL    HW126171   2.282   1.225   2.410 -0.8337 -0.6147 -1.8568
 4904SOL    HW226172   2.313   1.122   2.309 -0.0667 -0.1912  0.1930
 4905SOL     OW26173   1.734   0.345   8.459  0.1632 -0.1002  0.6463
 4905SOL    HW126174   1.792   0.419   8.475 -0.6449  0.5050  0.7880
 4905SOL    HW226175   1.769   0.280   8.520  0.5230 -1.4489 -0.9802
 4906SOL     OW26176   1.583   1.958   1.289  0.1548 -0.1916 -0.3800
 4906SOL    HW126177   1.532   1.938   1.211 -0.3668 -1.5471  0.3224
 4906SOL    HW226178   1.559   2.050   1.300  1.5191 -0.2055  2.7167
 4907SOL     OW26179   2.571   3.344   9.428  0.7051 -0.3707 -0.4944
 4907SOL    HW126180   2.565   3.438   9.442 -0.4140 -0.6858  1.0768
 4907SOL    HW226181   2.650   3.340   9.374  0.8508 -2.0030 -0.1813
 4908SOL     OW26182   1.907   2.567   6.802  0.0423 -0.5614  0.3722
 4908SOL    HW126183   1.937   2.476   6.809 -2.2493 -1.2628  1.2791
 4908SOL    HW226184   1.913   2.570   6.707  1.1387 -1.1924  0.4306
 4909SOL     OW26185   2.087   1.386   0.183 -0.0756  0.3301 -0.4328
 4909SOL    HW126186   2.108   1.356   0.095  1.5503 -0.4651  0.2263
 4909SOL    HW226187   2.125   1.315   0.234  1.6812  1.3016 -0.3951
 4910SOL     OW26188   4.660   2.928   2.584  0.2845  0.1324  0.4068
 4910SOL    HW126189   4.641   2.889   2.669  0.4861  1.6090  1.1369
 4910SOL    HW226190   4.575   2.970   2.565 -0.2977 -1.5470 -0.6642
 4911SOL     OW26191   2.826   2.845   3.884 -0.1201 -0.3078 -0.4234
 4911SOL    HW126192   2.896   2.871   3.945 -2.0633 -1.4814  2.3106
 4911SOL    HW226193   2.861   2.867   3.798 -0.2075 -2.0448 -0.8950
 4912SOL     OW26194   0.353   3.951   4.389 -0.0226  0.2561  0.0385
 4912SOL    HW126195   0.275   3.994   4.424  0.8643  1.5295  0.4573
 4912SOL    HW226196   0.330   3.861   4.410  1.0693  0.2704  1.2958
 4913SOL     OW26197   3.061   1.197   5.323 -0.3547  0.5538  0.0495
 4913SOL    HW126198   3.003   1.199   5.399 -0.5232 -0.5158 -0.0623
 4913SOL    HW226199   3.134   1.146   5.359 -0.4488  0.0509 -0.4781
 4914SOL     OW26200   2.204   1.019   1.110  0.0581  0.0113  0.0536
 4914SOL    HW126201   2.256   0.989   1.035  1.4816 -0.6385  1.3097
 4914SOL    HW226202   2.128   0.965   1.088  0.2462  0.5197 -1.8200
 4915SOL     OW26203   3.955   4.275   3.767 -0.0661  0.5669  0.4706
 4915SOL    HW126204   3.942   4.214   3.694 -1.0547  3.9601 -2.2281
 4915SOL    HW226205   3.901   4.346   3.730 -1.7464 -1.1057 -0.2864
 4916SOL     OW26206   3.630   4.154   1.836 -0.2054 -0.3028 -0.1388
 4916SOL    HW126207   3.647   4.248   1.843 -1.5534 -0.0112 -0.7176
 4916SOL    HW226208   3.678   4.116   1.909 -1.0942 -2.8671 -0.8810
 4917SOL     OW26209   3.259   2.705  14.684  0.1421 -0.2257  0.3963
 4917SOL    HW126210   3.199   2.707  14.609 -0.4587 -1.8849  0.8376
 4917SOL    HW226211   3.223   2.630  14.731  1.8030 -1.3859 -0.2064
 4918SOL     OW26212   2.542   0.709   6.901 -0.1223  0.5424 -0.1991
 4918SOL    HW126213   2.538   0.804   6.905 -0.9500  0.5378 -0.8390
 4918SOL    HW226214   2.494   0.692   6.982  3.3486 -0.6977  1.5787
 4919SOL     OW26215   1.799   0.391   4.752 -0.4384  0.0134  0.1608
 4919SOL    HW126216   1.712   0.424   4.773 -0.9854 -0.7407 -0.9738
 4919SOL    HW226217   1.814   0.337   4.830  0.8956 -0.4812 -0.4322
 4920SOL     OW26218   3.560   3.416   3.980 -0.4510 -0.0223  1.1478
 4920SOL    HW126219   3.483   3.467   4.004 -1.0338  1.2817 -3.6521
 4920SOL    HW226220   3.518   3.351   3.924  0.1239  0.2074  0.4445
 4921SOL     OW26221   3.034   0.150   0.378 -0.7726  0.3036  0.1444
 4921SOL    HW126222   3.059   0.240   0.356 -2.5670  0.8800  0.5073
 4921SOL    HW226223   3.124   0.116   0.377 -0.7696  0.3619 -1.4719
 4922SOL     OW26224   1.138   0.801   1.478 -0.1072 -0.7851  0.2115
 4922SOL    HW126225   1.066   0.776   1.420 -0.4480  2.2366 -0.6696
 4922SOL    HW226226   1.212   0.765   1.429 -1.6533 -1.6941 -1.4684
 4923SOL     OW26227   3.240   3.332   9.490  0.7306 -0.3319 -0.1246
 4923SOL    HW126228   3.205   3.252   9.452 -1.1064  1.3513 -1.9252
 4923SOL    HW226229   3.187   3.404   9.457  0.4109 -1.2007 -1.4746
 4924SOL     OW26230   2.413   1.229   6.663 -0.1638  0.0864 -0.0416
 4924SOL    HW126231   2.503   1.207   6.687 -0.0521  0.4498 -0.1328
 4924SOL    HW226232   2.372   1.142   6.666  0.4153 -0.1174  2.0160
 4925SOL     OW26233   0.866   1.033   5.252  0.6491 -0.1081 -0.2389
 4925SOL    HW126234   0.934   0.997   5.309  1.6518 -0.1411 -1.4415
 4925SOL    HW226235   0.785   1.022   5.301  0.4978  1.4526 -0.1360
 4926SOL     OW26236   2.703   4.395  14.025  0.9384 -0.4956  0.0643
 4926SOL    HW126237   2.696   4.311  13.979  1.4237  0.3632 -1.5701
 4926SOL    HW226238   2.655   4.451  13.964 -0.5359 -0.6134  1.1249
 4927SOL     OW26239   3.949   1.184   8.317  0.4023  0.1970  0.0683
 4927SOL    HW126240   3.938   1.116   8.250  1.1017 -0.8052  0.9608
 4927SOL    HW226241   3.895   1.251   8.275  0.5041  0.9992  1.2098
 4928SOL     OW26242   2.713   4.075   8.332  0.2567 -0.2547 -0.6331
 4928SOL    HW126243   2.777   4.145   8.321 -0.2154  0.2719 -0.0291
 4928SOL    HW226244   2.634   4.124   8.311  0.4487 -0.6710 -2.3700
 4929SOL     OW26245   3.699   0.029  12.488  0.2470 -0.1808 -0.5315
 4929SOL    HW126246   3.760   0.084  12.536  0.4869  1.6149 -2.8580
 4929SOL    HW226247   3.742   0.018  12.403 -0.0461  0.2119 -0.7359
 4930SOL     OW26248   0.663   3.521  16.511  0.3810 -0.5758  0.3293
 4930SOL    HW126249   0.632   3.544  16.599 -1.3718 -2.8118  0.2945
 4930SOL    HW226250   0.751   3.560  16.505  0.5760 -1.5085 -2.6880
 4931SOL     OW26251   4.559   3.411   6.695  0.0502 -0.2115 -0.0977
 4931SOL    HW126252   4.558   3.442   6.604 -1.4417 -0.5487 -0.1866
 4931SOL    HW226253   4.493   3.469   6.733 -1.6513 -0.9533 -1.9318
 4932SOL     OW26254   2.245   3.735   3.330  0.0038 -0.1201 -0.0137
 4932SOL    HW126255   2.179   3.804   3.336 -0.6950 -0.7360 -0.6061
 4932SOL    HW226256   2.208   3.670   3.270  1.5723 -0.7849 -0.2770
 4933SOL     OW26257   4.371   3.607   6.798 -0.6120 -0.5782  0.5007
 4933SOL    HW126258   4.366   3.635   6.707 -0.5782  1.0182  0.9932
 4933SOL    HW226259   4.365   3.689   6.847 -4.4952  1.2541 -3.0979
 4934SOL     OW26260   1.208   0.744   4.808 -0.3842 -0.5495  0.3368
 4934SOL    HW126261   1.282   0.706   4.761 -0.6700 -1.7873  0.8898
 4934SOL    HW226262   1.140   0.678   4.794 -1.7148  0.9668 -0.3586
 4935SOL     OW26263   4.373   1.412   5.427 -0.1884  0.0507 -0.1121
 4935SOL    HW126264   4.347   1.463   5.350 -1.2737  0.3820  0.4785
 4935SOL    HW226265   4.416   1.482   5.477 -0.6379 -1.4227  2.3411
 4936SOL     OW26266   4.390   1.209   4.769 -0.3068 -0.6434 -0.5522
 4936SOL    HW126267   4.481   1.182   4.785 -1.0452 -1.3254  2.4596
 4936SOL    HW226268   4.366   1.124   4.732  0.8448 -1.2501  0.0868
 4937SOL     OW26269   2.558   0.489   4.820 -0.3217 -0.4294 -0.4023
 4937SOL    HW126270   2.507   0.541   4.757  0.6139  0.9301 -0.0323
 4937SOL    HW226271   2.564   0.549   4.894  0.5413 -1.1345  0.0911
 4938SOL     OW26272   1.658   0.211  17.102 -0.0356  0.3038 -0.1438
 4938SOL    HW126273   1.692   0.129  17.138  1.5973  1.1593  0.3060
 4938SOL    HW226274   1.573   0.218  17.146  0.3550  0.6476  0.5586
 4939SOL     OW26275   3.395   0.097  14.583  0.2872 -0.1856 -0.4787
 4939SOL    HW126276   3.402   0.027  14.518 -1.5591 -1.3784  0.6122
 4939SOL    HW226277   3.352   0.055  14.657  0.6930 -0.9368 -0.6712
 4940SOL     OW26278   1.984   1.031   6.135  0.6563  0.1928  0.0403
 4940SOL    HW126279   1.915   0.966   6.141  1.8552 -1.1214 -0.2922
 4940SOL    HW226280   1.991   1.045   6.230  2.0277  0.6444 -0.1169
 4941SOL     OW26281   4.419   1.939   5.348 -0.2825  0.2360  0.3816
 4941SOL    HW126282   4.488   2.005   5.346  0.2710 -0.3889 -1.4048
 4941SOL    HW226283   4.460   1.862   5.386 -0.0032 -0.3098 -1.0291
 4942SOL     OW26284   3.701   1.087  12.375 -0.2034  0.2502 -0.2790
 4942SOL    HW126285   3.796   1.081  12.381 -0.1888  1.6305  0.9190
 4942SOL    HW226286   3.668   1.034  12.302  0.4845  0.2814 -0.6070
 4943SOL     OW26287   1.158   2.130   6.001 -0.3032  0.1331 -0.2182
 4943SOL    HW126288   1.095   2.136   5.929  0.8076 -0.6714 -1.2473
 4943SOL    HW226289   1.112   2.188   6.062  1.7294  0.5455  0.8981
 4944SOL     OW26290   0.321   2.331   2.997  0.1504  0.3412  0.2542
 4944SOL    HW126291   0.410   2.303   2.976  0.7070  3.6177 -1.6318
 4944SOL    HW226292   0.279   2.334   2.912 -0.2286  1.9547  0.4990
 4945SOL     OW26293   3.290   0.349   6.987  0.4001  0.3289 -0.2834
 4945SOL    HW126294   3.208   0.311   6.955  0.3637  0.3446 -0.2098
 4945SOL    HW226295   3.261   0.440   6.978  3.4340  1.3504  0.4085
 4946SOL     OW26296   1.734   2.166   6.617 -0.2340  0.4858  0.3974
 4946SOL    HW126297   1.702   2.129   6.535  0.5207 -0.0165  0.3314
 4946SOL    HW226298   1.827   2.160   6.594 -0.4033 -0.0142 -0.1366
 4947SOL     OW26299   1.747   3.326   7.933 -0.0265 -0.0937 -0.2801
 4947SOL    HW126300   1.654   3.333   7.954  0.4635  2.5390  0.9791
 4947SOL    HW226301   1.767   3.232   7.935  1.2816  0.2065  0.4008
 4948SOL     OW26302   3.929   0.625   8.230 -0.3633  0.3401 -0.1820
 4948SOL    HW126303   3.871   0.556   8.261  0.2915 -0.9573 -1.8000
 4948SOL    HW226304   4.014   0.585   8.251  0.8356  1.5442 -2.6942
 4949SOL     OW26305   3.563   1.624   3.861  0.5984 -0.0278  0.4497
 4949SOL    HW126306   3.480   1.624   3.909  0.5946  1.2459  0.4317
 4949SOL    HW226307   3.547   1.535   3.828  4.1023 -0.5656  0.1878
 4950SOL     OW26308   3.090   3.337   6.850  0.2522  0.4946  0.4345
 4950SOL    HW126309   3.159   3.400   6.829  0.4298  0.2185  0.1906
 4950SOL    HW226310   3.033   3.384   6.911  0.2719  1.8017 -0.5551
 4951SOL     OW26311   3.972   4.079   9.259 -0.3046 -0.3756  0.5241
 4951SOL    HW126312   3.939   4.114   9.176  0.0188  0.0225  0.5656
 4951SOL    HW226313   3.996   4.155   9.312 -1.6476  1.8302 -2.0580
 4952SOL     OW26314   1.411   2.720   5.559  0.6687 -0.2511  0.4104
 4952SOL    HW126315   1.429   2.631   5.529 -1.7400 -1.1841  1.7599
 4952SOL    HW226316   1.405   2.710   5.654 -3.4211 -0.8147  0.0643
 4953SOL     OW26317   1.291   0.690   7.875 -0.1365 -0.2387 -0.1978
 4953SOL    HW126318   1.254   0.643   7.950 -0.3844  1.6892  0.8771
 4953SOL    HW226319   1.384   0.701   7.896  0.5630 -2.5456 -2.0112
 4954SOL     OW26320   0.539   3.362  14.931 -0.1167  0.1139 -0.0624
 4954SOL    HW126321   0.466   3.309  14.898 -1.5398  1.5488  0.7508
 4954SOL    HW226322   0.591   3.387  14.854 -0.2947  2.1486  0.4712
 4955SOL     OW26323   2.824   4.632  17.249  0.0087 -0.5778 -0.4630
 4955SOL    HW126324   2.847   4.622  17.157  0.0646  3.3913 -0.8778
 4955SOL    HW226325   2.882   4.566  17.287  2.3424  0.4025 -2.3489
 4956SOL     OW26326   2.842   1.482   4.615 -0.2402 -0.3964 -0.0725
 4956SOL    HW126327   2.890   1.399   4.620  0.0724 -0.0274  2.5868
 4956SOL    HW226328   2.849   1.499   4.521 -0.1283 -1.8500 -0.3205
 4957SOL     OW26329   1.263   1.528   4.649 -0.8334 -0.4927  0.3545
 4957SOL    HW126330   1.182   1.505   4.696 -1.3904 -2.9091 -1.7986
 4957SOL    HW226331   1.239   1.577   4.571  0.9185 -0.6864 -0.2844
 4958SOL     OW26332   3.786   0.732  10.148 -0.1745 -0.0267  0.1622
 4958SOL    HW126333   3.818   0.646  10.176  1.1337  0.0500 -1.0936
 4958SOL    HW226334   3.739   0.710  10.067  0.5740  0.0493 -0.2880
 4959SOL     OW26335   0.547   0.627   7.664  0.2134 -0.4731  0.0167
 4959SOL    HW126336   0.568   0.565   7.735  2.1943  1.1016  0.7894
 4959SOL    HW226337   0.632   0.661   7.638  0.7033 -0.7676  1.2139
 4960SOL     OW26338   2.969   0.912  17.352 -0.3291 -0.5733 -0.8139
 4960SOL    HW126339   2.910   0.963  17.409 -0.0708 -1.3324  0.1261
 4960SOL    HW226340   2.976   0.970  17.276 -1.2016  2.0113  1.0467
 4961SOL     OW26341   2.451   2.844   5.140 -0.3796  0.3492  0.1487
 4961SOL    HW126342   2.404   2.908   5.194 -1.3567  1.2630 -1.7523
 4961SOL    HW226343   2.446   2.887   5.055 -0.6898  3.1254  1.5865
 4962SOL     OW26344   2.644   2.437   7.744  0.1253 -0.8760  0.6818
 4962SOL    HW126345   2.716   2.392   7.789 -2.3879 -4.2284  1.4124
 4962SOL    HW226346   2.698   2.453   7.667 -0.7533 -0.3758  0.1727
 4963SOL     OW26347   3.676   2.641   8.929  0.5591  0.0738 -0.1919
 4963SOL    HW126348   3.669   2.559   8.880  1.8747  0.6297 -1.3158
 4963SOL    HW226349   3.767   2.665   8.912  0.3830  1.2891  0.5677
 4964SOL     OW26350   3.020   2.012   5.845 -0.1003  0.4699  0.0287
 4964SOL    HW126351   2.929   2.024   5.820 -1.0185 -2.2412  1.9983
 4964SOL    HW226352   3.046   2.102   5.864 -1.8153  0.6293  1.6458
 4965SOL     OW26353   1.745   0.770   4.833 -0.0844  0.3927  0.5582
 4965SOL    HW126354   1.770   0.836   4.898  2.0955  0.8159 -0.6969
 4965SOL    HW226355   1.654   0.787   4.810 -0.0293  2.6941  2.0773
 4966SOL     OW26356   3.021   0.836   7.008 -0.4914  0.4097  0.2833
 4966SOL    HW126357   3.058   0.906   7.062  0.1054 -1.5096  2.3598
 4966SOL    HW226358   2.942   0.875   6.970 -0.4580  0.3423  0.1442
 4967SOL     OW26359   4.028   2.086  14.169  0.4658  0.3155 -0.1494
 4967SOL    HW126360   4.021   2.133  14.086 -0.9126 -0.5646 -0.5291
 4967SOL    HW226361   4.099   2.131  14.215 -0.5621  1.8829 -0.0821
 4968SOL     OW26362   4.047   4.684   9.864  0.3676  1.2115 -0.1076
 4968SOL    HW126363   4.121   4.700   9.806 -0.6255  2.4107 -1.0684
 4968SOL    HW226364   4.091   4.690   9.948  2.1791  0.1051 -0.9836
 4969SOL     OW26365   1.003   3.614  16.743  0.7750 -0.1834  0.3071
 4969SOL    HW126366   0.950   3.596  16.665  0.1393  0.0405  0.6900
 4969SOL    HW226367   0.991   3.531  16.789  0.2688 -0.8179 -0.9606
 4970SOL     OW26368   4.101   2.667   4.926 -0.4612  0.0949  0.0374
 4970SOL    HW126369   4.023   2.615   4.942  0.3558 -0.3211  2.6374
 4970SOL    HW226370   4.171   2.649   4.990 -0.9862 -0.0921  0.5589
 4971SOL     OW26371   3.764   4.515   2.157  0.4850 -0.1422 -0.3987
 4971SOL    HW126372   3.782   4.460   2.234 -1.7172  0.6329  0.6778
 4971SOL    HW226373   3.836   4.500   2.096  1.6812  0.4285  0.8629
 4972SOL     OW26374   2.677   2.820  15.062  0.1018 -0.1252 -0.2454
 4972SOL    HW126375   2.754   2.841  15.114 -1.0990  0.2551  1.4038
 4972SOL    HW226376   2.631   2.904  15.054 -0.2603 -0.5037 -2.1353
 4973SOL     OW26377   2.989   4.411   5.609  0.0228  0.0368  0.1791
 4973SOL    HW126378   3.070   4.396   5.659 -1.5878  0.2032  2.8404
 4973SOL    HW226379   3.017   4.491   5.564  1.9235 -0.0833  1.1101
 4974SOL     OW26380   4.125   4.313   8.068 -0.4067  0.0278 -0.1738
 4974SOL    HW126381   4.160   4.353   8.148  1.7123  0.6668 -1.4129
 4974SOL    HW226382   4.055   4.259   8.104  1.0499 -1.4045  0.5090
 4975SOL     OW26383   3.864   1.550  13.459 -0.1780 -0.4309  0.9011
 4975SOL    HW126384   3.855   1.509  13.373 -0.7026  1.1322  0.2151
 4975SOL    HW226385   3.781   1.557  13.506 -0.0721 -0.3328  1.0731
 4976SOL     OW26386   3.848   2.650   3.239 -0.1671 -0.0791 -0.2164
 4976SOL    HW126387   3.857   2.705   3.317  1.0070  0.2815 -0.6123
 4976SOL    HW226388   3.791   2.705   3.186 -1.0095  0.2693  1.0612
 4977SOL     OW26389   2.696   4.243   3.293 -0.3549 -0.1814 -0.1714
 4977SOL    HW126390   2.638   4.167   3.290  0.1381 -0.4582 -2.7084
 4977SOL    HW226391   2.632   4.313   3.297  0.5343  0.8077 -3.2575
 4978SOL     OW26392   4.363   0.575  10.636 -0.1341 -0.2552 -0.1427
 4978SOL    HW126393   4.390   0.596  10.547  1.2658 -0.9348  0.1166
 4978SOL    HW226394   4.328   0.486  10.633 -2.2761  0.6359 -1.7778
 4979SOL     OW26395   3.008   4.187   4.776  0.4930 -0.3167  0.1464
 4979SOL    HW126396   3.101   4.171   4.759  0.8404  1.5395  0.3249
 4979SOL    HW226397   2.972   4.100   4.795  2.0914 -1.7417 -3.3397
 4980SOL     OW26398   4.456   4.260   4.117 -0.7798 -0.1757 -0.2584
 4980SOL    HW126399   4.450   4.353   4.096 -1.3210 -0.0006  0.6907
 4980SOL    HW226400   4.480   4.224   4.031  1.8761  0.5239  0.1864
 4981SOL     OW26401   3.219   1.137   3.538  0.0410  0.2549 -0.3768
 4981SOL    HW126402   3.134   1.175   3.561 -0.7661 -1.2867 -0.7817
 4981SOL    HW226403   3.215   1.104   3.448  0.9770  0.5055 -0.5068
 4982SOL     OW26404   3.239   4.265  10.662  0.3438  0.5308  0.6867
 4982SOL    HW126405   3.242   4.323  10.585 -1.5638 -1.7820 -1.1379
 4982SOL    HW226406   3.190   4.192  10.623 -0.1987  1.1525  0.2159
 4983SOL     OW26407   3.206   4.154  15.163 -0.4937  0.1587 -0.0956
 4983SOL    HW126408   3.250   4.239  15.160  0.6321 -0.4493 -1.0104
 4983SOL    HW226409   3.197   4.145  15.258  0.8760 -0.9793 -0.0787
 4984SOL     OW26410   1.527   0.992   3.747  0.2088  0.8797 -0.2249
 4984SOL    HW126411   1.479   1.054   3.694 -1.8964  0.1374  0.7881
 4984SOL    HW226412   1.610   0.995   3.701  0.2630  0.3882 -0.1602
 4985SOL     OW26413   1.728   0.040   1.979 -0.1635  0.2786  0.1713
 4985SOL    HW126414   1.819   0.070   1.986  0.8633 -1.9381 -3.4698
 4985SOL    HW226415   1.702   0.052   2.070  2.6684 -0.7390  1.1029
 4986SOL     OW26416   2.073   1.640   7.318 -0.1847  0.0653  0.6613
 4986SOL    HW126417   2.102   1.685   7.397  0.2160 -2.6740  2.0507
 4986SOL    HW226418   2.039   1.719   7.275  0.6203  0.0819  0.0467
 4987SOL     OW26419   2.383   4.006  10.917  0.1492  0.3657  0.6030
 4987SOL    HW126420   2.363   3.973  10.829 -0.0099 -3.2061  1.9680
 4987SOL    HW226421   2.318   4.076  10.920  0.3977  0.6766 -1.6508
 4988SOL     OW26422   4.229   0.207   8.547  0.6307 -0.1086 -0.4451
 4988SOL    HW126423   4.228   0.202   8.642 -0.6463  2.1312 -0.3507
 4988SOL    HW226424   4.154   0.261   8.521 -1.2495 -2.1107  0.8628
 4989SOL     OW26425   3.472   4.442   3.198 -0.1366  0.2090 -0.3942
 4989SOL    HW126426   3.480   4.472   3.108 -0.0905 -0.0914 -0.4896
 4989SOL    HW226427   3.440   4.354   3.178 -1.9204  1.1797 -1.7995
 4990SOL     OW26428   0.341   2.889   7.362  0.3967  0.8036 -0.3355
 4990SOL    HW126429   0.383   2.821   7.309 -0.2778 -0.7943  1.1747
 4990SOL    HW226430   0.411   2.954   7.369  1.8413 -1.0180  1.7981
 4991SOL     OW26431   2.125   3.793   8.239 -0.5866 -0.2711  0.5654
 4991SOL    HW126432   2.168   3.793   8.153 -2.9567  0.9692 -0.6172
 4991SOL    HW226433   2.187   3.841   8.294 -1.2733  2.1458 -0.7732
 4992SOL     OW26434   0.834   1.311   6.278  0.1677  0.5041 -0.0893
 4992SOL    HW126435   0.824   1.393   6.229 -2.8099 -0.0792 -0.4551
 4992SOL    HW226436   0.746   1.311   6.315 -0.2410  2.4038 -1.0600
 4993SOL     OW26437   2.599   3.501   6.405 -0.3284  0.1343  0.2665
 4993SOL    HW126438   2.695   3.497   6.401 -0.3626 -2.6343  1.9038
 4993SOL    HW226439   2.568   3.414   6.380  0.7016 -0.3764  0.7429
 4994SOL     OW26440   0.399   0.855   7.332  0.0033 -0.2503  0.0979
 4994SOL    HW126441   0.387   0.907   7.252 -0.2284 -2.1522 -1.1268
 4994SOL    HW226442   0.364   0.767   7.316  1.6966 -1.2363  1.8520
 4995SOL     OW26443   0.362   3.129   8.056  0.2440 -0.3391 -0.0715
 4995SOL    HW126444   0.375   3.170   8.141 -0.4562 -1.3814  0.5465
 4995SOL    HW226445   0.274   3.093   8.068  0.2644 -0.3979 -0.0999
 4996SOL     OW26446   0.998   3.235   5.850  0.2783 -0.8187 -0.4480
 4996SOL    HW126447   0.929   3.299   5.831  0.5306 -0.3289  0.2884
 4996SOL    HW226448   1.002   3.230   5.945  0.9950 -2.8551 -0.5801
 4997SOL     OW26449   0.498   1.079   7.478  0.2721 -0.2568  0.0625
 4997SOL    HW126450   0.592   1.078   7.463  0.3438 -0.6351  0.5342
 4997SOL    HW226451   0.464   1.002   7.432  1.2773 -0.5415 -0.2017
 4998SOL     OW26452   3.704   3.808   7.699 -0.3546  0.6794 -0.1778
 4998SOL    HW126453   3.692   3.718   7.670  0.4801  0.3271  0.5717
 4998SOL    HW226454   3.785   3.837   7.656  0.5628  1.3602  1.9797
 4999SOL     OW26455   1.463   2.243   7.220  0.0947 -0.4334 -0.1738
 4999SOL    HW126456   1.476   2.178   7.151  0.8006 -1.6236  1.0601
 4999SOL    HW226457   1.440   2.174   7.283 -1.8207  0.9549  0.6259
 5000SOL     OW26458   2.396   3.571   3.812 -0.1535  0.1790 -0.7117
 5000SOL    HW126459   2.369   3.481   3.795  0.4948  0.1793 -1.7699
 5000SOL    HW226460   2.394   3.612   3.725 -3.4379 -1.8162 -1.5531
 5001SOL     OW26461   4.033   1.844   6.484  0.0110  0.8071  0.7678
 5001SOL    HW126462   4.118   1.839   6.440 -0.1171 -3.4991  0.9712
 5001SOL    HW226463   4.048   1.792   6.563 -1.2753 -0.3502  0.2572
 5002SOL     OW26464   2.170   3.881   7.759  0.3586 -0.2764 -0.2362
 5002SOL    HW126465   2.126   3.797   7.749 -1.4592  0.5529  0.7426
 5002SOL    HW226466   2.114   3.919   7.827  0.4166 -1.2088  0.3220
 5003SOL     OW26467   4.115   2.209   0.670 -0.2246  0.0895 -0.1519
 5003SOL    HW126468   4.091   2.143   0.736  0.3012 -0.8769 -0.9300
 5003SOL    HW226469   4.083   2.288   0.714  2.2058  0.6348  0.5942
 5004SOL     OW26470   3.119   1.216   8.876  0.5130 -0.5758  0.0896
 5004SOL    HW126471   3.027   1.222   8.849  0.9519  1.3884 -1.0209
 5004SOL    HW226472   3.151   1.303   8.851  0.6340 -1.2600 -2.1000
 5005SOL     OW26473   1.126   0.270   9.265 -0.5866 -0.6712 -0.2819
 5005SOL    HW126474   1.158   0.345   9.216 -0.1601 -0.9272 -0.3892
 5005SOL    HW226475   1.137   0.303   9.354  0.0247 -0.3346 -0.4830
 5006SOL     OW26476   4.591   0.587   8.048 -0.0145  0.4862  0.4506
 5006SOL    HW126477   4.525   0.652   8.026 -0.1156  0.3912  0.4770
 5006SOL    HW226478   4.659   0.641   8.089  1.4924 -0.5227 -0.7267
 5007SOL     OW26479   0.883   1.489   9.566  0.3468 -0.0961 -0.1850
 5007SOL    HW126480   0.924   1.477   9.651 -0.9279 -1.4937  0.2220
 5007SOL    HW226481   0.803   1.442   9.589  1.7469 -1.0160  2.7807
 5008SOL     OW26482   2.251   4.300   6.406  0.1391  0.3620  0.3420
 5008SOL    HW126483   2.202   4.273   6.329  2.4365 -1.0862 -0.6057
 5008SOL    HW226484   2.178   4.279   6.464 -0.8927 -0.2106 -1.1593
 5009SOL     OW26485   2.397   3.866   1.650  0.6905  0.6925  0.9169
 5009SOL    HW126486   2.435   3.870   1.562 -3.7608  2.1083 -0.9268
 5009SOL    HW226487   2.420   3.951   1.688  1.1934  0.4389  1.1849
 5010SOL     OW26488   0.626   0.326   2.927  0.1402 -0.1737  0.3917
 5010SOL    HW126489   0.582   0.272   2.992 -1.2943 -1.6622 -1.8112
 5010SOL    HW226490   0.552   0.364   2.880  0.8158  1.8206  0.9787
 5011SOL     OW26491   1.291   4.125  12.858 -0.0180 -0.1537 -0.3424
 5011SOL    HW126492   1.206   4.168  12.850 -0.0313 -0.0196  0.5399
 5011SOL    HW226493   1.330   4.148  12.774  0.4311 -0.0852 -0.1099
 5012SOL     OW26494   2.847   3.796   7.614  0.2329 -0.8504  0.5103
 5012SOL    HW126495   2.754   3.806   7.636 -0.2391 -3.5624 -0.2325
 5012SOL    HW226496   2.889   3.870   7.658  2.0376 -0.4466 -1.9187
 5013SOL     OW26497   3.987   2.511  17.248  0.1622 -0.0790 -0.0732
 5013SOL    HW126498   3.941   2.570  17.188  0.2308 -0.3071 -0.3523
 5013SOL    HW226499   3.917   2.469  17.297 -0.5649 -0.9209 -1.8271
 5014SOL     OW26500   2.847   2.966   8.072  0.3188  0.5456  0.6806
 5014SOL    HW126501   2.788   2.905   8.029  0.0414  2.3601 -1.5160
 5014SOL    HW226502   2.820   2.944   8.161 -1.1150 -0.3062  0.0303
 5015SOL     OW26503   0.321   1.883  13.724 -0.2491 -0.0437  0.4228
 5015SOL    HW126504   0.414   1.861  13.710 -0.3141  1.1470 -1.8919
 5015SOL    HW226505   0.321   1.896  13.819 -0.3645 -2.0609  0.7087
 5016SOL     OW26506   4.008   3.216   4.562 -0.4873 -0.3702 -0.6085
 5016SOL    HW126507   4.028   3.156   4.634 -1.5096  1.3791  1.1235
 5016SOL    HW226508   4.061   3.294   4.576 -0.9671 -0.3809  1.3154
 5017SOL     OW26509   3.677   4.067   0.604 -0.1265  0.1682 -0.1096
 5017SOL    HW126510   3.595   4.117   0.606 -0.2168  0.0286 -0.2985
 5017SOL    HW226511   3.707   4.081   0.694 -0.6055  0.2279  0.0446
 5018SOL     OW26512   1.015   0.521   1.284  0.0854 -0.2371  0.7666
 5018SOL    HW126513   1.046   0.568   1.206 -0.8092 -0.5959  0.1935
 5018SOL    HW226514   1.041   0.433   1.258 -0.0607  0.1284 -0.6340
 5019SOL     OW26515   0.479   3.861   3.164  0.2199 -0.2598  0.1583
 5019SOL    HW126516   0.438   3.941   3.198 -0.2444 -0.1399 -0.6791
 5019SOL    HW226517   0.511   3.901   3.082 -0.6913  0.2821  0.0635
 5020SOL     OW26518   4.147   1.412   7.106  0.6285 -0.1972 -0.1992
 5020SOL    HW126519   4.106   1.418   7.193  2.2748 -1.4192  0.6663
 5020SOL    HW226520   4.155   1.505   7.086 -1.6597 -0.2951 -1.5152
 5021SOL     OW26521   4.521   0.599   3.773 -0.2151  0.3978 -0.0181
 5021SOL    HW126522   4.542   0.583   3.682  1.9998 -0.6921  0.6976
 5021SOL    HW226523   4.566   0.683   3.783 -1.6930  1.0370  1.3326
 5022SOL     OW26524   1.913   4.325   3.437 -0.3677  0.1427 -0.0005
 5022SOL    HW126525   1.850   4.376   3.386  0.5505 -0.2182 -1.5043
 5022SOL    HW226526   1.851   4.282   3.496  2.3489 -2.0252  1.2528
 5023SOL     OW26527   0.892   3.828   8.941 -0.1402 -0.1285  0.8232
 5023SOL    HW126528   0.866   3.919   8.952 -1.3860 -0.3472 -0.3016
 5023SOL    HW226529   0.952   3.821   9.016  2.1544  1.2670 -0.9045
 5024SOL     OW26530   4.650   2.087  11.075  0.1834 -0.2494 -0.2601
 5024SOL    HW126531   4.634   2.067  10.983  1.1064  1.5404 -0.8106
 5024SOL    HW226532   0.019   2.119  11.064  0.7069 -2.1611 -1.3908
 5025SOL     OW26533   0.754   1.490   0.947 -0.4375  0.1426 -0.1251
 5025SOL    HW126534   0.676   1.436   0.964 -0.5278 -0.1306 -1.4046
 5025SOL    HW226535   0.743   1.495   0.852 -1.7270 -0.7578 -0.0312
 5026SOL     OW26536   2.695   1.638  10.589  0.1783  0.2692  0.5242
 5026SOL    HW126537   2.709   1.545  10.570 -0.2914  0.0231  1.3530
 5026SOL    HW226538   2.718   1.646  10.681 -0.3223  2.0520  0.4893
 5027SOL     OW26539   3.658   2.737  14.426 -0.2536 -0.0299 -0.0873
 5027SOL    HW126540   3.751   2.738  14.448 -0.6535  0.8633  1.5390
 5027SOL    HW226541   3.662   2.767  14.335 -1.0847 -3.3718 -1.2341
 5028SOL     OW26542   2.386   3.021   4.648  0.0889  0.1105 -0.9243
 5028SOL    HW126543   2.367   2.981   4.563 -2.0255 -1.3553  0.2636
 5028SOL    HW226544   2.470   3.059   4.622  0.1511  1.2012  0.8861
 5029SOL     OW26545   1.473   1.241   4.602 -0.0496 -0.5166  0.0082
 5029SOL    HW126546   1.421   1.255   4.523 -1.1141 -0.6754  0.6801
 5029SOL    HW226547   1.548   1.300   4.606 -0.6847  0.2445  0.6774
 5030SOL     OW26548   0.234   3.436   6.668  0.9311  0.7519 -0.4520
 5030SOL    HW126549   0.159   3.418   6.725  2.0883 -0.1392  0.7927
 5030SOL    HW226550   0.275   3.351   6.684 -0.9659 -0.0897 -0.0715
 5031SOL     OW26551   3.497   4.405  12.585  0.1285  0.0268  0.6205
 5031SOL    HW126552   3.576   4.351  12.599 -0.5717 -0.4810  2.6541
 5031SOL    HW226553   3.435   4.345  12.628  0.6380 -1.0640 -0.1609
 5032SOL     OW26554   3.243   3.975  11.428 -0.0683  0.4066  0.4337
 5032SOL    HW126555   3.244   3.948  11.336  3.5282 -0.4088  0.6826
 5032SOL    HW226556   3.338   3.989  11.435 -0.2021  0.1811  2.8130
 5033SOL     OW26557   2.589   2.012   2.179 -0.1608 -0.3395  0.3825
 5033SOL    HW126558   2.519   1.948   2.187  0.5846 -1.0678  1.0973
 5033SOL    HW226559   2.601   1.992   2.086  0.2414 -0.2946  0.4249
 5034SOL     OW26560   2.207   0.978   3.255  0.1729  0.0834  0.0920
 5034SOL    HW126561   2.147   1.006   3.187 -1.0458  2.1059  1.9813
 5034SOL    HW226562   2.149   0.950   3.326 -0.7313 -1.3768 -1.2409
 5035SOL     OW26563   2.171   3.015   4.216 -0.7512  0.3583 -0.7430
 5035SOL    HW126564   2.238   3.076   4.187 -1.1322  2.3362  2.4986
 5035SOL    HW226565   2.216   2.963   4.283 -1.0751 -1.3598 -1.8541
 5036SOL     OW26566   3.427   3.393   7.689 -0.2491 -0.1768 -0.0076
 5036SOL    HW126567   3.507   3.402   7.739 -0.3405  1.1115 -0.0951
 5036SOL    HW226568   3.358   3.412   7.753  1.4697 -0.7424  1.9807
 5037SOL     OW26569   1.097   3.532  13.142 -0.9078 -0.0935 -0.1664
 5037SOL    HW126570   1.081   3.595  13.072 -0.6810  1.2617  1.0114
 5037SOL    HW226571   1.038   3.463  13.114  1.2078 -1.3385 -1.6176
 5038SOL     OW26572   2.992   1.419  16.930  0.3402  0.3439  0.3643
 5038SOL    HW126573   3.028   1.498  16.888 -3.0475  0.6318 -2.0097
 5038SOL    HW226574   3.072   1.372  16.953  0.4507  0.2364 -0.2259
 5039SOL     OW26575   2.437   3.371   2.741 -0.2142 -0.1888  0.0910
 5039SOL    HW126576   2.359   3.418   2.713  1.4454  2.0840 -0.7032
 5039SOL    HW226577   2.487   3.369   2.659  0.7789  0.7682  0.6729
 5040SOL     OW26578   3.512   1.585   7.758  0.0093 -0.0530 -0.2581
 5040SOL    HW126579   3.535   1.493   7.776  3.9125  1.3192  1.8370
 5040SOL    HW226580   3.501   1.587   7.663  1.9401  2.1826 -0.4386
 5041SOL     OW26581   4.102   1.561  12.055  0.3314  0.0215  0.4679
 5041SOL    HW126582   4.094   1.513  11.973 -0.4432  0.1108  0.4846
 5041SOL    HW226583   4.087   1.491  12.118 -0.4844  1.1689  1.5723
 5042SOL     OW26584   2.720   0.411   1.585 -0.2891 -0.0988 -0.3319
 5042SOL    HW126585   2.636   0.450   1.607  0.9410  0.7147  2.9553
 5042SOL    HW226586   2.725   0.322   1.619 -1.6405  0.9164  2.4908
 5043SOL     OW26587   4.032   2.190  10.468 -0.0095  0.0247  0.4263
 5043SOL    HW126588   3.940   2.177  10.490 -0.1196 -1.2464 -0.7924
 5043SOL    HW226589   4.033   2.171  10.374  0.9389  2.4993 -0.0716
 5044SOL     OW26590   4.590   3.687   5.002  0.1177 -0.0175  0.1882
 5044SOL    HW126591   4.636   3.617   5.050 -1.4044 -1.9912 -1.2430
 5044SOL    HW226592   4.533   3.634   4.946  1.4022 -1.2154  0.0097
 5045SOL     OW26593   3.740   1.846   3.509  0.2002  0.3047  0.0576
 5045SOL    HW126594   3.786   1.797   3.578 -0.4879 -2.3691 -1.3584
 5045SOL    HW226595   3.765   1.798   3.430 -0.2839 -0.3038  0.2704
 5046SOL     OW26596   4.078   0.750   4.049  0.3735  0.1083 -0.0076
 5046SOL    HW126597   4.044   0.790   4.129 -1.1674 -1.3541  0.0549
 5046SOL    HW226598   4.073   0.821   3.985  0.7412 -1.0935 -1.3701
 5047SOL     OW26599   1.628   1.509   6.408 -0.3632  0.5740 -0.1949
 5047SOL    HW126600   1.615   1.487   6.501  0.3841  2.6016  0.3966
 5047SOL    HW226601   1.715   1.483   6.378  1.1797  3.3386  1.7967
 5048SOL     OW26602   2.376   1.239   6.144  0.0752 -0.1837 -0.1711
 5048SOL    HW126603   2.404   1.247   6.235  1.8115  0.5419 -0.7703
 5048SOL    HW226604   2.462   1.232   6.102  1.0161  0.1028  1.7065
 5049SOL     OW26605   1.367   0.805   9.017  0.1718 -0.2533 -0.0888
 5049SOL    HW126606   1.336   0.886   8.977 -1.1193 -1.3711 -1.3203
 5049SOL    HW226607   1.301   0.783   9.084 -1.8345 -0.0507 -1.9975
 5050SOL     OW26608   4.229   2.323   4.505 -0.2827  0.2542 -0.4757
 5050SOL    HW126609   4.151   2.316   4.561  0.1104  0.1003  0.0547
 5050SOL    HW226610   4.196   2.400   4.458  0.1193  0.3696 -0.5712
 5051SOL     OW26611   1.452   2.392   4.043  0.1824 -0.1433 -0.1307
 5051SOL    HW126612   1.381   2.353   4.094 -0.2690  1.0418  0.1400
 5051SOL    HW226613   1.456   2.479   4.081 -0.4777  0.3438 -1.1690
 5052SOL     OW26614   0.516   4.721   7.495 -0.5076  0.3691  0.4806
 5052SOL    HW126615   0.572   0.071   7.465 -0.1926 -0.0415  0.0932
 5052SOL    HW226616   0.517   4.673   7.412  0.9681  0.3969  0.4855
 5053SOL     OW26617   1.755   1.696   3.475  0.3641 -0.2420 -0.1476
 5053SOL    HW126618   1.782   1.659   3.390  2.0038 -0.4004  0.4445
 5053SOL    HW226619   1.677   1.641   3.481  2.3379 -3.0228  0.2931
 5054SOL     OW26620   3.604   0.425   5.570  0.1121 -0.2017 -0.0578
 5054SOL    HW126621   3.515   0.407   5.542 -0.2638 -0.1859  1.1182
 5054SOL    HW226622   3.642   0.468   5.494  2.9983 -0.6872  1.0956
 5055SOL     OW26623   1.968   3.649  10.589  0.1478  0.8062  0.2033
 5055SOL    HW126624   1.923   3.632  10.672  1.5496 -2.2473  0.3427
 5055SOL    HW226625   2.047   3.697  10.613  0.1681  0.3077  1.1630
 5056SOL     OW26626   2.103   0.839   0.191 -0.3468 -0.1323 -0.3366
 5056SOL    HW126627   2.063   0.856   0.106  2.0876 -0.1997 -1.4796
 5056SOL    HW226628   2.197   0.824   0.179 -0.0152  0.1942  1.8852
 5057SOL     OW26629   3.370   2.774   1.603 -0.3019 -0.0155  0.3813
 5057SOL    HW126630   3.304   2.719   1.645 -2.3404  1.0320 -1.3765
 5057SOL    HW226631   3.379   2.846   1.665  0.2939 -0.8711  1.2772
 5058SOL     OW26632   1.969   3.046   3.442 -0.3705  0.2991 -0.7044
 5058SOL    HW126633   2.026   3.079   3.373 -2.2517  0.7763 -2.0400
 5058SOL    HW226634   1.883   3.083   3.420 -0.8769 -0.3121  0.2443
 5059SOL     OW26635   4.526   4.320  13.360  0.2409  0.6947 -0.2595
 5059SOL    HW126636   4.439   4.283  13.377  0.4646  0.8889  1.2779
 5059SOL    HW226637   4.569   4.247  13.315  1.3598  1.1955  0.0002
 5060SOL     OW26638   3.102   0.858  15.195 -0.2546 -0.0954 -0.2482
 5060SOL    HW126639   3.088   0.763  15.193  1.3432 -0.3819  2.1651
 5060SOL    HW226640   3.124   0.882  15.105 -0.2368 -0.7219 -0.4141
 5061SOL     OW26641   2.985   1.526   8.196 -0.0955  0.4751 -0.0125
 5061SOL    HW126642   2.943   1.441   8.211 -1.5731  1.4783  1.4802
 5061SOL    HW226643   2.920   1.559   8.134 -0.1752 -0.2222 -0.2960
 5062SOL     OW26644   4.179   1.943  16.812  0.0733  0.0878  0.0596
 5062SOL    HW126645   4.245   2.012  16.807 -0.0407  0.1898 -0.0677
 5062SOL    HW226646   4.210   1.896  16.889 -0.4427  0.4653  0.4979
 5063SOL     OW26647   1.290   3.469  13.344  0.3028  0.4639 -0.0809
 5063SOL    HW126648   1.375   3.475  13.300  0.1024  1.0885 -0.3783
 5063SOL    HW226649   1.220   3.487  13.282  1.7630 -0.6195 -2.0350
 5064SOL     OW26650   2.258   0.179   1.521  0.5610 -0.0868  0.1379
 5064SOL    HW126651   2.300   0.096   1.543 -0.4610 -1.1111 -1.8223
 5064SOL    HW226652   2.169   0.145   1.511 -0.0524  1.9893 -1.5582
 5065SOL     OW26653   0.689   1.090   8.687  0.3434 -0.1832  0.4485
 5065SOL    HW126654   0.761   1.057   8.633  0.1098  0.0298  0.0090
 5065SOL    HW226655   0.621   1.061   8.626 -0.7141  3.0354  0.1202
 5066SOL     OW26656   1.698   1.438   5.902 -0.3843  0.1666  0.0772
 5066SOL    HW126657   1.776   1.399   5.864 -0.0612  3.5340 -2.7247
 5066SOL    HW226658   1.744   1.506   5.952  1.4474 -1.5038  0.6423
 5067SOL     OW26659   0.526   3.957   4.936 -0.6276  0.2103 -0.0834
 5067SOL    HW126660   0.542   3.983   4.845  1.6810  0.0478  0.2811
 5067SOL    HW226661   0.497   4.037   4.979  0.3087 -0.4490  1.7402
 5068SOL     OW26662   2.275   2.094   9.307 -0.0582  0.0882 -0.2510
 5068SOL    HW126663   2.362   2.132   9.295 -1.3034  3.0636  0.0844
 5068SOL    HW226664   2.267   2.090   9.402 -2.2138  0.7552 -0.4133
 5069SOL     OW26665   3.968   4.012  12.197 -0.4868  0.3216  0.5788
 5069SOL    HW126666   3.996   3.954  12.267  0.8351 -0.5289 -0.6462
 5069SOL    HW226667   3.941   3.946  12.133  0.5892 -0.2045  0.6755
 5070SOL     OW26668   2.202   4.615  11.974  0.4216  0.3222 -0.4772
 5070SOL    HW126669   2.118   4.626  12.018  0.4801  0.9795 -0.5242
 5070SOL    HW226670   2.180   4.541  11.918  0.3756  0.8176 -1.1116
 5071SOL     OW26671   3.806   4.137   2.042 -0.2277  0.4060 -0.4396
 5071SOL    HW126672   3.857   4.211   2.011  2.0598 -0.5349  1.0624
 5071SOL    HW226673   3.833   4.130   2.134  0.6673  2.4519 -0.5511
 5072SOL     OW26674   1.509   1.233   7.383  0.0756  0.1279 -0.3669
 5072SOL    HW126675   1.438   1.272   7.435  0.3216  1.2648 -0.8754
 5072SOL    HW226676   1.552   1.318   7.369  4.9602 -1.7959  2.9678
 5073SOL     OW26677   4.611   4.023   6.764 -0.3506  0.1287 -0.1289
 5073SOL    HW126678   4.682   4.068   6.719 -1.0841  2.1623  0.7819
 5073SOL    HW226679   4.561   4.094   6.804  0.6557  0.8344 -0.1286
 5074SOL     OW26680   0.578   4.497   2.835 -0.4560  0.3687  0.2940
 5074SOL    HW126681   0.615   4.415   2.868 -0.3194  0.8532  1.3535
 5074SOL    HW226682   0.658   4.530   2.796 -0.9645  2.3655  0.9410
 5075SOL     OW26683   1.350   1.933  12.947 -0.1744 -0.3062 -0.5067
 5075SOL    HW126684   1.372   1.869  12.879  0.2761 -0.4186 -0.2543
 5075SOL    HW226685   1.418   1.999  12.940  0.2870 -0.7744 -0.4266
 5076SOL     OW26686   2.555   2.595  12.095 -0.0344  0.0350 -0.2980
 5076SOL    HW126687   2.506   2.578  12.175  0.2436 -0.6699 -0.2730
 5076SOL    HW226688   2.571   2.502  12.075  0.6740  0.1666 -0.3462
 5077SOL     OW26689   0.365   3.351   7.713 -0.1817 -0.0195 -0.0777
 5077SOL    HW126690   0.398   3.365   7.624 -0.3625 -0.9460 -0.2890
 5077SOL    HW226691   0.357   3.444   7.731 -0.4298  0.0957 -0.7756
 5078SOL     OW26692   1.176   1.166   7.837 -0.4064  0.1733 -0.4125
 5078SOL    HW126693   1.167   1.216   7.918  0.4826  0.0430 -0.2337
 5078SOL    HW226694   1.110   1.212   7.786 -0.5444  0.4141 -0.0207
 5079SOL     OW26695   1.071   3.163   8.005 -0.3229  0.0261  0.1844
 5079SOL    HW126696   1.089   3.251   7.971 -0.5342 -0.0004  0.0064
 5079SOL    HW226697   1.007   3.183   8.073  0.3891  0.0902  0.8386
 5080SOL     OW26698   3.797   4.230  11.124  0.6107  0.4017  0.5556
 5080SOL    HW126699   3.834   4.318  11.116  1.1548  0.1516  0.3148
 5080SOL    HW226700   3.880   4.187  11.139  2.4314  3.5800 -0.3211
 5081SOL     OW26701   0.630   0.142   6.011  0.6606 -0.5617  0.2471
 5081SOL    HW126702   0.667   0.091   5.939  2.4981  2.5232 -1.0364
 5081SOL    HW226703   0.620   0.230   5.973 -1.7917 -0.9321  0.0399
 5082SOL     OW26704   1.677   0.462  16.989 -0.1142  0.0181 -0.6963
 5082SOL    HW126705   1.582   0.451  16.976  0.2198 -3.7275  0.1158
 5082SOL    HW226706   1.683   0.396  17.058 -0.5540  0.6997 -0.0023
 5083SOL     OW26707   0.100   0.490   7.674  0.3924  0.0293  0.3643
 5083SOL    HW126708   0.159   0.526   7.740 -1.1680  1.7902  0.7893
 5083SOL    HW226709   0.020   0.535   7.702  0.4455  0.5810 -0.3776
 5084SOL     OW26710   0.844   1.983  16.782  0.0106 -0.0652 -0.2062
 5084SOL    HW126711   0.827   2.025  16.866 -1.1663  0.3351 -0.6387
 5084SOL    HW226712   0.777   2.029  16.731 -0.9757  0.1885  1.3534
 5085SOL     OW26713   0.569   0.464   6.490 -0.4651 -0.0856 -0.4495
 5085SOL    HW126714   0.645   0.511   6.454  1.0621 -1.5879  0.8440
 5085SOL    HW226715   0.498   0.527   6.477 -1.2978 -0.4623  2.3534
 5086SOL     OW26716   2.177   4.040  16.431  0.3760 -0.2373  0.7818
 5086SOL    HW126717   2.091   4.081  16.422 -0.2216 -1.1564  2.3840
 5086SOL    HW226718   2.176   4.008  16.521 -0.2034  0.1831  0.9243
 5087SOL     OW26719   0.642   1.305  17.509  0.1192 -0.1755  0.4865
 5087SOL    HW126720   0.597   1.236  17.558  0.2210 -1.1094 -0.7467
 5087SOL    HW226721   0.576   1.305  17.440  0.2036  2.2890  0.3800
 5088SOL     OW26722   1.528   2.408   8.271 -0.5452 -0.6078  0.1274
 5088SOL    HW126723   1.456   2.434   8.328 -0.1437  0.4660  0.1539
 5088SOL    HW226724   1.563   2.326   8.305 -0.6444 -0.3229  0.9192
 5089SOL     OW26725   1.577   2.698   9.029 -0.3824 -0.5460 -0.4930
 5089SOL    HW126726   1.635   2.771   9.008  2.3841 -3.0704 -1.4988
 5089SOL    HW226727   1.638   2.625   9.028 -0.1477 -0.3285 -1.6819
 5090SOL     OW26728   0.471   0.650   8.577  0.5452  0.1301 -0.5846
 5090SOL    HW126729   0.543   0.673   8.635  0.5224  0.4624 -0.6829
 5090SOL    HW226730   0.510   0.576   8.531  0.9103 -0.9021  1.4177
 5091SOL     OW26731   2.207   3.036   8.790 -0.4308  0.0593 -0.2925
 5091SOL    HW126732   2.252   2.964   8.832 -2.5464 -1.4224 -0.5695
 5091SOL    HW226733   2.155   3.058   8.867  1.2333  0.2009  0.7870
 5092SOL     OW26734   3.542   3.251  17.119  0.6311  0.1905  0.0226
 5092SOL    HW126735   3.586   3.330  17.150 -0.3576  0.1647  1.5300
 5092SOL    HW226736   3.508   3.215  17.201 -0.6523 -0.6730 -0.8871
 5093SOL     OW26737   3.072   3.614   5.199  0.0253 -0.0063 -0.5320
 5093SOL    HW126738   3.104   3.674   5.266 -0.0619 -0.4388 -0.1039
 5093SOL    HW226739   3.150   3.599   5.146 -0.2878  0.5411 -1.1522
 5094SOL     OW26740   1.082   3.111   5.640  0.0725 -0.5679 -0.2751
 5094SOL    HW126741   1.048   3.153   5.719  1.9969 -0.6465  0.6028
 5094SOL    HW226742   1.118   3.033   5.682 -0.7158 -0.3749  0.7578
 5095SOL     OW26743   1.282   1.842   4.961 -0.7035 -0.5399  0.2068
 5095SOL    HW126744   1.338   1.766   4.973 -1.4017 -0.9341  0.9322
 5095SOL    HW226745   1.346   1.902   5.000 -0.0369 -0.6695 -0.6856
 5096SOL     OW26746   2.749   4.030   7.757 -0.0977 -0.6867  0.4537
 5096SOL    HW126747   2.731   4.031   7.851  0.0849 -0.2372  0.4868
 5096SOL    HW226748   2.703   4.107   7.723 -0.1168 -0.9165 -0.0436
 5097SOL     OW26749   1.306   0.899   4.393  0.7315 -0.2813 -0.6124
 5097SOL    HW126750   1.295   0.993   4.378 -0.5102 -0.3550 -0.2097
 5097SOL    HW226751   1.400   0.886   4.397  0.7568 -0.0673 -0.5160
 5098SOL     OW26752   0.798   1.093   3.001  0.0203  0.3092 -0.8860
 5098SOL    HW126753   0.893   1.086   3.009  0.0353  0.8432 -0.6190
 5098SOL    HW226754   0.771   1.003   3.020  0.6677  0.1622 -0.6572
 5099SOL     OW26755   2.381   0.919   9.125  0.6695 -0.2657  0.1375
 5099SOL    HW126756   2.455   0.861   9.109  0.7695 -0.4465  1.2660
 5099SOL    HW226757   2.368   0.953   9.036 -0.5130 -1.7031 -0.2252
 5100SOL     OW26758   4.721   3.076  14.479 -0.0384 -0.1693  0.0240
 5100SOL    HW126759   0.073   3.023  14.448  0.5477  1.1111 -0.7830
 5100SOL    HW226760   0.036   3.161  14.453  2.2695 -0.7332  1.3775
 5101SOL     OW26761   2.786   0.512  16.152 -0.1444  0.5111  0.3635
 5101SOL    HW126762   2.806   0.434  16.204  2.5801  1.2123  0.3904
 5101SOL    HW226763   2.748   0.565  16.223  0.9259 -0.0027  1.3277
 5102SOL     OW26764   0.842   1.664   4.344  0.3604  0.0619 -0.5440
 5102SOL    HW126765   0.896   1.617   4.280 -0.2977  1.1282 -1.8761
 5102SOL    HW226766   0.900   1.655   4.420  2.2469  0.7223 -1.8886
 5103SOL     OW26767   0.345   1.878   0.384 -0.0890 -0.2758  0.2506
 5103SOL    HW126768   0.423   1.826   0.365  0.1681 -0.2261  1.1352
 5103SOL    HW226769   0.326   1.936   0.310 -2.0688 -1.2161  0.0270
 5104SOL     OW26770   3.270   1.208  17.464 -0.0581 -0.4250 -0.5170
 5104SOL    HW126771   3.249   1.278  17.403  1.8899  0.2968 -0.3629
 5104SOL    HW226772   3.209   1.218  17.536 -1.5425  1.5597 -2.0607
 5105SOL     OW26773   3.248   1.270   3.061  0.1954 -0.3588 -0.6473
 5105SOL    HW126774   3.321   1.327   3.037 -0.1972  1.2692  2.0635
 5105SOL    HW226775   3.208   1.255   2.976  1.3569  0.0462 -1.2623
 5106SOL     OW26776   2.151   0.419   5.479 -0.0053 -0.0502 -0.1757
 5106SOL    HW126777   2.132   0.437   5.387 -1.2585  0.8976  0.2689
 5106SOL    HW226778   2.173   0.326   5.478 -0.0047 -0.0339 -1.3712
 5107SOL     OW26779   2.439   0.682   2.581  0.6103 -0.5536 -0.0583
 5107SOL    HW126780   2.498   0.711   2.511  0.7073 -0.0403  0.2293
 5107SOL    HW226781   2.501   0.647   2.645  1.5464  1.8898  0.3842
 5108SOL     OW26782   3.305   4.439  15.593 -0.2966  0.4741  0.2438
 5108SOL    HW126783   3.325   4.495  15.669 -0.0245 -0.0142  0.5302
 5108SOL    HW226784   3.221   4.402  15.620 -0.1537 -1.2644 -1.7074
 5109SOL     OW26785   4.001   3.167  16.314  0.2786 -0.3750  0.7467
 5109SOL    HW126786   4.069   3.145  16.250  1.9312  2.2193  1.5600
 5109SOL    HW226787   4.029   3.106  16.383 -1.9478 -1.7221  0.4278
 5110SOL     OW26788   0.710   4.256   9.140  0.0980 -0.3486 -0.1864
 5110SOL    HW126789   0.678   4.341   9.109  2.8928  0.2949 -1.3407
 5110SOL    HW226790   0.759   4.287   9.216 -0.2328  0.8589 -0.4638
 5111SOL     OW26791   0.674   0.505   4.168  0.0860  0.0182  0.0284
 5111SOL    HW126792   0.608   0.573   4.181  0.4041 -0.0085  1.7984
 5111SOL    HW226793   0.701   0.518   4.077  1.4885 -2.1158  0.1423
 5112SOL     OW26794   0.379   0.376  15.667  0.2615  0.0697 -0.4852
 5112SOL    HW126795   0.294   0.336  15.684  0.3863 -0.7425 -1.7933
 5112SOL    HW226796   0.437   0.322  15.720 -1.9978 -1.0099  0.8633
 5113SOL     OW26797   0.796   1.262   2.067  0.1464  0.1164 -0.2094
 5113SOL    HW126798   0.746   1.212   2.003 -0.7674 -0.9095  1.3085
 5113SOL    HW226799   0.873   1.208   2.082  0.5013  0.4484 -0.8309
 5114SOL     OW26800   0.500   2.765   7.700  0.2511 -0.4486 -0.2825
 5114SOL    HW126801   0.583   2.805   7.673  0.6622 -1.9196 -1.1647
 5114SOL    HW226802   0.485   2.699   7.632 -2.3744 -0.0889 -0.0616
 5115SOL     OW26803   0.759   3.582   4.200 -0.4704 -0.4018  0.4342
 5115SOL    HW126804   0.667   3.566   4.182 -0.0832 -0.6785 -1.2436
 5115SOL    HW226805   0.755   3.613   4.291  0.6513  1.4423 -0.1364
 5116SOL     OW26806   4.066   2.225   8.296 -0.6761  0.5224 -0.2391
 5116SOL    HW126807   4.153   2.186   8.301 -0.9093 -0.3159 -2.6284
 5116SOL    HW226808   4.089   2.318   8.305  0.6222  0.1510  0.1564
 5117SOL     OW26809   0.504   1.372   2.045  0.2080  0.5241 -0.0360
 5117SOL    HW126810   0.533   1.302   1.987  0.9636  0.4504  0.4329
 5117SOL    HW226811   0.583   1.382   2.097 -0.9261  0.1141  1.7809
 5118SOL     OW26812   0.208   3.960   3.410 -0.2834 -0.3119 -0.1016
 5118SOL    HW126813   0.217   3.919   3.496 -0.4068  0.7265  0.4059
 5118SOL    HW226814   0.208   3.880   3.357 -0.8078  0.2025 -0.8829
 5119SOL     OW26815   4.681   1.275   2.352 -0.0815  0.0441  0.3379
 5119SOL    HW126816   4.692   1.260   2.258 -2.6813 -0.8329  0.1736
 5119SOL    HW226817   4.596   1.232   2.358 -0.3389  0.2773 -1.6427
 5120SOL     OW26818   3.106   4.560  12.109 -0.3156  0.1025  0.1804
 5120SOL    HW126819   3.184   4.582  12.160 -1.1176  1.8333  0.6690
 5120SOL    HW226820   3.132   4.473  12.079  0.5544  0.4540 -0.0737
 5121SOL     OW26821   0.353   1.590   8.715  0.1734 -0.3089  0.3085
 5121SOL    HW126822   0.274   1.547   8.746 -0.5435  1.7768  1.3660
 5121SOL    HW226823   0.321   1.668   8.669 -0.3885  0.3896  1.8666
 5122SOL     OW26824   2.658   1.396   2.367  0.4866  0.1152 -0.5217
 5122SOL    HW126825   2.719   1.465   2.391  2.4494 -1.9391  0.3678
 5122SOL    HW226826   2.698   1.325   2.416 -2.4418 -0.7593  0.5904
 5123SOL     OW26827   0.370   0.368  15.102  0.0851 -0.4560 -0.1593
 5123SOL    HW126828   0.409   0.293  15.057 -0.5886 -0.4977 -0.6742
 5123SOL    HW226829   0.438   0.433  15.085  0.3301 -0.5012  0.6501
 5124SOL     OW26830   4.391   2.935   8.578  0.1740  0.4418 -0.6760
 5124SOL    HW126831   4.297   2.946   8.565  0.2043  1.2455 -0.2659
 5124SOL    HW226832   4.426   3.005   8.522 -0.3148  1.3097  0.0933
 5125SOL     OW26833   4.707   0.772   5.958 -0.4600 -0.0699 -0.1032
 5125SOL    HW126834   0.062   0.797   5.906  1.8212 -3.9164  1.5019
 5125SOL    HW226835   4.717   0.817   6.042  0.8717  1.2750 -0.9730
 5126SOL     OW26836   2.762   1.866   9.068  0.6629 -0.2803  0.0069
 5126SOL    HW126837   2.813   1.940   9.101 -0.8986  0.6440  0.3617
 5126SOL    HW226838   2.697   1.916   9.019  0.1202 -0.2593  0.7527
 5127SOL     OW26839   0.341   0.400   2.162 -0.1839  0.1640 -0.3054
 5127SOL    HW126840   0.348   0.379   2.255  2.1024  1.7741 -0.1099
 5127SOL    HW226841   0.251   0.376   2.143 -0.1941  1.1349 -1.4927
 5128SOL     OW26842   1.923   0.889   8.658  0.4154 -0.2629 -0.7260
 5128SOL    HW126843   1.847   0.921   8.708  1.4638  0.4755  0.4069
 5128SOL    HW226844   1.932   0.955   8.589  0.5322  0.4554 -0.0295
 5129SOL     OW26845   1.183   2.370   6.309  0.2124  0.5367 -0.1543
 5129SOL    HW126846   1.107   2.337   6.262  0.7119 -1.1315  0.1925
 5129SOL    HW226847   1.195   2.312   6.384 -0.6150  1.1297  0.4360
 5130SOL     OW26848   2.603   4.699   0.650 -0.6248 -0.3708 -0.4690
 5130SOL    HW126849   2.688   0.018   0.633 -0.5754 -0.4347 -0.3731
 5130SOL    HW226850   2.558   0.026   0.720 -0.4102 -1.8295  0.6700
 5131SOL     OW26851   1.331   3.134  13.524 -0.4723 -0.0499  1.0214
 5131SOL    HW126852   1.335   3.051  13.478  2.3128  0.6898 -0.1214
 5131SOL    HW226853   1.272   3.173  13.460 -0.5878 -0.1898  1.0442
 5132SOL     OW26854   3.249   0.512   3.034 -0.3181 -0.2617  0.0807
 5132SOL    HW126855   3.337   0.536   3.062  0.4209 -1.3206 -1.3290
 5132SOL    HW226856   3.213   0.599   3.049  0.9836  0.2162  0.4226
 5133SOL     OW26857   2.017   3.668   5.764 -0.5101 -0.0603 -0.1523
 5133SOL    HW126858   1.984   3.710   5.685  2.1830  0.6768 -0.8773
 5133SOL    HW226859   2.018   3.743   5.824  0.3516 -1.2619  1.3446
 5134SOL     OW26860   2.890   2.246   4.373  0.5044 -0.3818 -0.2930
 5134SOL    HW126861   2.950   2.249   4.298 -0.0271 -2.3868 -0.7987
 5134SOL    HW226862   2.900   2.155   4.402  0.7831 -0.0651  0.6175
 5135SOL     OW26863   4.024   0.033   9.078  0.0833 -0.1276 -0.6676
 5135SOL    HW126864   4.097   0.090   9.053  0.0649  0.1704 -0.0443
 5135SOL    HW226865   3.983   0.098   9.136 -0.6825 -0.7941 -0.4556
 5136SOL     OW26866   1.280   0.918   0.922  0.2573 -0.0672  0.0140
 5136SOL    HW126867   1.228   0.930   0.843 -0.1287 -0.1256  0.2601
 5136SOL    HW226868   1.218   0.940   0.992 -2.3734 -2.3843 -1.5976
 5137SOL     OW26869   3.947   0.980  15.161 -0.4892 -0.3960  1.0016
 5137SOL    HW126870   3.966   0.909  15.223  0.7398 -1.1616 -0.2600
 5137SOL    HW226871   4.002   1.046  15.203  0.3580  1.2829 -2.7255
 5138SOL     OW26872   0.815   1.719   6.677 -0.2280  0.0121  0.0259
 5138SOL    HW126873   0.874   1.753   6.610  0.4230 -1.4485 -0.1419
 5138SOL    HW226874   0.829   1.756   6.764 -0.4700 -1.3864  0.6614
 5139SOL     OW26875   2.151   1.828   2.424 -0.1270 -0.5845 -0.3855
 5139SOL    HW126876   2.066   1.851   2.462  0.0696  0.8511 -0.8265
 5139SOL    HW226877   2.130   1.746   2.377  0.7422  0.2239 -2.1829
 5140SOL     OW26878   3.349   1.743   7.915 -0.6038 -0.3975 -0.5963
 5140SOL    HW126879   3.385   1.745   8.004 -0.9113  0.1135 -0.4851
 5140SOL    HW226880   3.415   1.700   7.861 -0.7433 -0.0401 -1.0495
 5141SOL     OW26881   2.739   1.107   3.175 -0.5541  0.3316  0.5770
 5141SOL    HW126882   2.652   1.144   3.186 -0.5296  0.3642  0.6607
 5141SOL    HW226883   2.723   1.019   3.209  0.1387  0.5560  1.4894
 5142SOL     OW26884   3.984   1.483   7.634 -0.0370 -0.0044  0.0467
 5142SOL    HW126885   4.061   1.469   7.690  0.2065  0.6204 -0.1259
 5142SOL    HW226886   3.908   1.491   7.692  0.0098  0.7110  0.0097
 5143SOL     OW26887   2.217   4.562   4.799  0.3934  0.1152  0.3817
 5143SOL    HW126888   2.272   4.488   4.827  2.7429  1.5371 -0.4695
 5143SOL    HW226889   2.130   4.523   4.797  0.3804  0.1034  1.0839
 5144SOL     OW26890   1.210   0.618  11.684  0.2803 -0.2558  0.2333
 5144SOL    HW126891   1.282   0.600  11.744 -0.3738 -0.2925  0.9995
 5144SOL    HW226892   1.163   0.683  11.736 -1.0559 -0.1483 -1.0897
 5145SOL     OW26893   1.069   1.263   3.932 -0.1353 -0.5377 -0.6427
 5145SOL    HW126894   0.978   1.282   3.909  0.4295 -0.3033 -2.6933
 5145SOL    HW226895   1.105   1.229   3.850  0.4901  1.4351 -1.1708
 5146SOL     OW26896   4.597   0.588  11.211  0.3147 -0.6330  0.9254
 5146SOL    HW126897   4.533   0.655  11.187  0.5341  0.1470  2.4755
 5146SOL    HW226898   4.563   0.510  11.167 -3.7119  2.5624 -1.5148
 5147SOL     OW26899   3.271   1.957   6.757  0.8027  0.6646  0.1252
 5147SOL    HW126900   3.252   2.021   6.688 -0.0405  2.2255  1.7752
 5147SOL    HW226901   3.355   1.983   6.795  0.5662  0.7629  0.5863
 5148SOL     OW26902   3.040   1.562  17.446 -0.3382  0.0637 -0.9237
 5148SOL    HW126903   2.987   1.593  17.374  0.3943  0.8043 -1.1453
 5148SOL    HW226904   3.102   1.514  17.391  0.8568  1.3039 -0.6573
 5149SOL     OW26905   3.158   1.705   5.123  0.0845 -0.7890 -0.2171
 5149SOL    HW126906   3.167   1.683   5.031  1.8232  0.3650 -0.3132
 5149SOL    HW226907   3.203   1.790   5.124  0.2242 -0.8622 -0.4597
 5150SOL     OW26908   3.586   1.074   0.060 -0.3763 -0.2334 -0.2408
 5150SOL    HW126909   3.496   1.053   0.084 -1.1076  0.7522 -2.1136
 5150SOL    HW226910   3.636   1.060   0.141  0.9218 -0.2543 -1.0400
 5151SOL     OW26911   1.589   2.034  12.879  0.1257  0.4361  0.0233
 5151SOL    HW126912   1.663   2.018  12.821  1.0554 -1.7188  1.8158
 5151SOL    HW226913   1.605   2.128  12.887  1.0731  0.3319 -0.6356
 5152SOL     OW26914   0.843   0.317   8.341 -0.8315 -0.0143 -0.4949
 5152SOL    HW126915   0.874   0.266   8.415 -1.1162  0.7434  0.1418
 5152SOL    HW226916   0.927   0.334   8.298 -0.5954  0.0006 -0.0228
 5153SOL     OW26917   2.053   1.138   8.933 -0.5565 -0.6791  0.6781
 5153SOL    HW126918   2.058   1.209   8.998  0.8204 -0.5544  0.4541
 5153SOL    HW226919   2.056   1.066   8.996  1.6492  0.4104  1.8271
 5154SOL     OW26920   0.143   3.693   9.407 -0.4061 -0.5917 -0.4686
 5154SOL    HW126921   0.181   3.637   9.339 -0.8109  0.8582 -1.9059
 5154SOL    HW226922   0.183   3.779   9.391  0.2000 -0.6076  0.9905
 5155SOL     OW26923   3.423   0.740   8.455 -0.2140  0.1486 -0.3765
 5155SOL    HW126924   3.417   0.828   8.492 -0.3720 -1.6602  3.8469
 5155SOL    HW226925   3.379   0.677   8.511  1.4154  0.6507  1.4536
 5156SOL     OW26926   1.767   3.606   7.254  0.2311 -0.0916 -0.1256
 5156SOL    HW126927   1.688   3.618   7.307  0.2781  0.1899 -0.1243
 5156SOL    HW226928   1.814   3.559   7.323  0.0809  1.0129  0.7160
 5157SOL     OW26929   4.131   2.736   4.037  0.1334 -0.1855  0.4666
 5157SOL    HW126930   4.148   2.827   4.064  0.2371  0.2876 -1.1614
 5157SOL    HW226931   4.072   2.743   3.961 -0.1157 -4.3029  0.3213
 5158SOL     OW26932   2.746   3.959   4.452 -0.1622 -0.5414 -0.1471
 5158SOL    HW126933   2.681   3.960   4.521 -0.1960  0.8979 -0.2012
 5158SOL    HW226934   2.705   4.019   4.389  1.5780 -0.4910 -1.2467
 5159SOL     OW26935   1.843   0.538   2.851 -0.2733 -0.1654 -0.2995
 5159SOL    HW126936   1.768   0.595   2.867  1.0727  1.3795  0.5828
 5159SOL    HW226937   1.895   0.585   2.786  1.1381  0.4506  1.2715
 5160SOL     OW26938   4.622   3.201   4.496 -0.0260 -0.0911 -0.3865
 5160SOL    HW126939   4.572   3.130   4.537 -0.3399  0.1241 -0.3979
 5160SOL    HW226940   4.712   3.175   4.516 -0.0392 -0.1239 -0.3694
 5161SOL     OW26941   3.175   3.754   3.384  0.1099  0.3307 -0.3036
 5161SOL    HW126942   3.180   3.778   3.292  1.5277  1.3927  0.0437
 5161SOL    HW226943   3.128   3.671   3.382 -0.0008  0.3904 -0.1535
 5162SOL     OW26944   1.805   4.443   5.527  0.3929 -0.3475 -0.1477
 5162SOL    HW126945   1.799   4.530   5.488  1.2969  0.0705  0.6559
 5162SOL    HW226946   1.789   4.391   5.448 -0.3871  0.4699 -0.5256
 5163SOL     OW26947   3.621   3.243   3.395  0.3678  0.0368  0.2732
 5163SOL    HW126948   3.671   3.193   3.330 -2.2544 -1.9140 -0.2274
 5163SOL    HW226949   3.667   3.234   3.479 -1.5685  0.6878  1.3961
 5164SOL     OW26950   1.708   0.550   7.355  0.0434 -0.1717  0.2498
 5164SOL    HW126951   1.801   0.542   7.333  0.0287  0.7323 -0.1636
 5164SOL    HW226952   1.679   0.639   7.333  1.3515  0.0409 -0.5824
 5165SOL     OW26953   3.584   2.470   3.353  0.9074 -0.0802 -0.4410
 5165SOL    HW126954   3.665   2.511   3.321 -0.3955  2.7834 -0.1312
 5165SOL    HW226955   3.607   2.377   3.350  1.9928  0.2103 -1.3077
 5166SOL     OW26956   3.078   0.254  10.683  0.4334 -0.2874  0.0222
 5166SOL    HW126957   3.163   0.295  10.669 -1.9935  3.9294 -2.4992
 5166SOL    HW226958   3.092   0.198  10.759 -0.1754  1.0605  1.1354
 5167SOL     OW26959   2.057   0.175   5.876 -0.3386  0.0287 -0.3506
 5167SOL    HW126960   2.125   0.230   5.837  0.4245 -0.2238  0.5863
 5167SOL    HW226961   1.987   0.240   5.883 -0.6642 -0.5025  1.2980
 5168SOL     OW26962   2.198   4.513  15.369  0.5103 -0.0481  0.0840
 5168SOL    HW126963   2.290   4.490  15.378  0.2296 -0.4741  1.7146
 5168SOL    HW226964   2.167   4.424  15.354  0.5708 -0.0192 -0.2182
 5169SOL     OW26965   0.996   1.799   2.909  0.3983  0.3202  0.4590
 5169SOL    HW126966   1.066   1.853   2.872  2.2245 -1.6947  0.9069
 5169SOL    HW226967   0.931   1.868   2.920  0.4302  0.2911  0.8411
 5170SOL     OW26968   0.574   0.014  12.159  0.1977  0.1144 -0.2617
 5170SOL    HW126969   0.559   0.022  12.064  1.5873  2.1203 -0.3219
 5170SOL    HW226970   0.513   0.080  12.192  0.6078  1.5275 -2.3144
 5171SOL     OW26971   3.124   3.555   8.288  0.5179 -0.6391 -0.0182
 5171SOL    HW126972   3.144   3.461   8.289  0.0761 -0.7184  2.7873
 5171SOL    HW226973   3.096   3.578   8.376  1.0483  2.7663 -0.7381
 5172SOL     OW26974   3.959   4.040  12.541 -0.4644 -0.1847  0.5923
 5172SOL    HW126975   3.963   4.114  12.481 -1.4129  2.3447  3.6537
 5172SOL    HW226976   3.979   4.078  12.626 -2.5363 -0.4664  1.2097
 5173SOL     OW26977   0.683   2.658   2.493  0.6482 -0.1434 -0.0866
 5173SOL    HW126978   0.747   2.587   2.485  0.2212 -0.5139 -0.2097
 5173SOL    HW226979   0.606   2.617   2.452  0.6669 -0.6414  0.3822
 5174SOL     OW26980   4.669   1.504   8.066 -0.5355  0.7846  0.0564
 5174SOL    HW126981   4.595   1.461   8.022 -0.2136 -1.4907  1.6977
 5174SOL    HW226982   4.651   1.514   8.159  2.1135 -0.5312  0.7009
 5175SOL     OW26983   1.933   1.062   8.415 -0.5862  0.1976  0.3463
 5175SOL    HW126984   2.003   1.069   8.350  1.2462 -4.8688  1.7434
 5175SOL    HW226985   1.942   1.146   8.460 -0.2144  0.1635  0.3434
 5176SOL     OW26986   2.256   0.662   9.402  0.5118 -0.5888 -0.5379
 5176SOL    HW126987   2.269   0.610   9.323 -1.1242 -0.3527 -0.9659
 5176SOL    HW226988   2.287   0.747   9.371  2.3337 -0.3265  2.0270
 5177SOL     OW26989   0.318   0.726   2.112 -0.0069  0.4389  0.0957
 5177SOL    HW126990   0.226   0.715   2.087  0.0437 -1.6902  0.8068
 5177SOL    HW226991   0.352   0.637   2.125  1.1576  1.1771  1.9982
 5178SOL     OW26992   2.165   1.067  10.539 -0.9237  0.8263  0.4952
 5178SOL    HW126993   2.201   1.074  10.627  1.5474 -3.5250 -0.1881
 5178SOL    HW226994   2.199   1.145  10.494  1.8451 -0.8269 -0.2489
 5179SOL     OW26995   1.990   1.512   8.800  0.1562 -0.2333  0.0004
 5179SOL    HW126996   2.009   1.567   8.875  2.7978  0.2708 -1.0338
 5179SOL    HW226997   2.063   1.450   8.793  0.5409  0.2683 -0.3604
 5180SOL     OW26998   0.672   0.239   7.741  0.2642  0.2904 -0.0126
 5180SOL    HW126999   0.645   0.245   7.649  0.1882  0.0820 -0.0033
 5180SOL    HW227000   0.708   0.150   7.743  0.7949  0.4711 -1.7289
 5181SOL     OW27001   0.530   1.041   3.192 -0.1230  0.0125  0.1351
 5181SOL    HW127002   0.531   1.125   3.146  0.7272  1.2292  2.3954
 5181SOL    HW227003   0.452   1.049   3.247  1.6076  2.5831  2.1955
 5182SOL     OW27004   1.478   0.419   3.642  0.0420  0.7275 -0.1351
 5182SOL    HW127005   1.537   0.494   3.646  0.9499  0.0369 -0.5530
 5182SOL    HW227006   1.531   0.341   3.659 -0.9881  0.0778  0.0901
 5183SOL     OW27007   0.981   1.922   5.254 -0.6019 -0.0787 -0.0100
 5183SOL    HW127008   0.970   2.014   5.278  3.8734  0.8671 -1.5177
 5183SOL    HW227009   0.900   1.871   5.260 -1.2475  1.1923  2.2182
 5184SOL     OW27010   0.705   3.470   7.844 -0.6173  0.1832  0.3801
 5184SOL    HW127011   0.635   3.522   7.806  0.0017  1.3763  0.8838
 5184SOL    HW227012   0.657   3.405   7.895  2.6284 -2.1260  0.4896
 5185SOL     OW27013   1.279   4.513  10.958 -0.2026 -0.0122 -0.0787
 5185SOL    HW127014   1.201   4.461  10.941 -0.0651 -0.1701 -0.2408
 5185SOL    HW227015   1.341   4.468  10.900 -0.3950  0.4944 -0.6788
 5186SOL     OW27016   2.049   3.784   7.217  0.8613  0.2720  0.3248
 5186SOL    HW127017   2.139   3.796   7.186  0.8260 -1.4176 -0.4433
 5186SOL    HW227018   2.008   3.870   7.221 -0.5304 -0.4111  0.5441
 5187SOL     OW27019   2.353   3.198   4.168 -0.8060  0.1724  0.6630
 5187SOL    HW127020   2.388   3.252   4.097  0.9375 -0.3570  1.1226
 5187SOL    HW227021   2.335   3.269   4.230 -1.6385 -0.5984  1.2970
 5188SOL     OW27022   3.724   3.931   4.214 -0.0238 -0.7810  0.5682
 5188SOL    HW127023   3.803   3.882   4.235 -1.2914 -2.2946  1.8118
 5188SOL    HW227024   3.717   3.981   4.296 -0.6324 -1.7744  1.1192
 5189SOL     OW27025   1.776   4.237  11.763 -0.3232  0.0280  0.0614
 5189SOL    HW127026   1.742   4.210  11.677  0.4263 -0.9255  0.0603
 5189SOL    HW227027   1.861   4.193  11.769  0.8612  2.4310  0.4792
 5190SOL     OW27028   3.742   1.513   8.457 -0.2237  0.0690  0.2238
 5190SOL    HW127029   3.780   1.600   8.471  0.3511 -0.0925 -0.3557
 5190SOL    HW227030   3.801   1.463   8.513  0.0343 -1.1784 -1.1673
 5191SOL     OW27031   3.334   0.875   4.960 -0.5339  0.0228  0.4997
 5191SOL    HW127032   3.384   0.954   4.980  0.6005  0.0627 -2.5613
 5191SOL    HW227033   3.372   0.872   4.873 -0.0949  1.0745  0.6512
 5192SOL     OW27034   0.325   2.619   7.509 -0.2416 -0.2745 -0.1593
 5192SOL    HW127035   0.316   2.710   7.481  0.1111  0.3212  1.6337
 5192SOL    HW227036   0.244   2.594   7.553 -0.2258 -1.8617 -1.0229
 5193SOL     OW27037   1.586   0.817   4.357  0.0243  0.0710 -0.0114
 5193SOL    HW127038   1.574   0.738   4.305 -2.6883  1.0441 -0.8759
 5193SOL    HW227039   1.651   0.866   4.307 -1.7257  1.0130 -1.3968
 5194SOL     OW27040   2.480   2.729   0.307  0.5273 -0.2897 -0.2646
 5194SOL    HW127041   2.472   2.801   0.244 -1.3058  1.4840  1.9873
 5194SOL    HW227042   2.562   2.692   0.274  0.5494 -0.7245  0.2856
 5195SOL     OW27043   1.027   0.883   3.661 -0.1138  0.3143  0.0630
 5195SOL    HW127044   0.978   0.888   3.579 -1.7714  1.7374  1.1289
 5195SOL    HW227045   0.980   0.810   3.701 -0.5213 -0.3951 -1.7320
 5196SOL     OW27046   0.326   4.324   3.419 -0.2723 -0.8189 -0.2354
 5196SOL    HW127047   0.332   4.404   3.472  2.4681 -1.7508  0.8713
 5196SOL    HW227048   0.232   4.312   3.428 -0.1491 -2.0805 -0.6550
 5197SOL     OW27049   3.441   4.505  10.722  0.3986  0.4552  0.1871
 5197SOL    HW127050   3.530   4.472  10.728  0.1227 -0.1179  1.1187
 5197SOL    HW227051   3.426   4.483  10.630  1.1306 -3.5213  1.0432
 5198SOL     OW27052   1.937   2.790   9.341  0.3674 -0.1910  0.4718
 5198SOL    HW127053   1.914   2.704   9.308 -1.0779  0.1603  0.5820
 5198SOL    HW227054   2.023   2.795   9.299  0.3046  2.2014  0.6192
 5199SOL     OW27055   2.824   0.964   5.674  0.1250 -0.1233  0.4879
 5199SOL    HW127056   2.747   1.003   5.715 -0.7852 -0.0592 -1.2567
 5199SOL    HW227057   2.782   0.891   5.627  1.5136 -0.1161 -0.7987
 5200SOL     OW27058   0.270   1.056   3.627 -0.1940  0.0274 -0.2318
 5200SOL    HW127059   0.214   1.092   3.696 -2.6281 -0.5245 -1.9132
 5200SOL    HW227060   0.316   0.991   3.680  2.4095  0.1680 -2.2686
 5201SOL     OW27061   1.396   0.206   2.269  0.3785 -0.2754 -0.1878
 5201SOL    HW127062   1.433   0.284   2.310 -0.9608  1.4730 -2.3215
 5201SOL    HW227063   1.313   0.205   2.316 -0.8379  0.5709 -2.3253
 5202SOL     OW27064   3.170   3.311   1.552  0.0402  0.4447 -0.4560
 5202SOL    HW127065   3.104   3.265   1.502 -0.0315 -0.0349  0.0810
 5202SOL    HW227066   3.228   3.340   1.482 -2.2212  1.1931 -2.0087
 5203SOL     OW27067   1.438   1.610   7.954  0.5881  0.6802 -0.2978
 5203SOL    HW127068   1.487   1.616   7.872 -0.1007  2.6968 -0.5664
 5203SOL    HW227069   1.462   1.528   7.997 -0.4148  0.6456  0.2131
 5204SOL     OW27070   2.495   0.103   1.318  0.3545  0.4073  0.5270
 5204SOL    HW127071   2.496   0.133   1.409  2.9979 -0.5534  0.8239
 5204SOL    HW227072   2.479   0.184   1.271  2.9958  0.1365 -0.8364
 5205SOL     OW27073   2.616   0.272  16.359 -0.2228  0.1592  0.3563
 5205SOL    HW127074   2.554   0.229  16.419  0.8920 -0.4921  1.0473
 5205SOL    HW227075   2.566   0.286  16.279  0.1528  0.6907  0.2169
 5206SOL     OW27076   3.307   1.431  16.777 -0.2663  0.1727 -0.0413
 5206SOL    HW127077   3.299   1.343  16.815  1.4773  0.0216 -0.0442
 5206SOL    HW227078   3.277   1.427  16.686  2.8376 -0.5227 -1.0276
 5207SOL     OW27079   0.081   4.251   7.644 -0.3502  0.1590  0.5010
 5207SOL    HW127080   0.073   4.208   7.558 -0.0921 -1.8326  1.4643
 5207SOL    HW227081   4.710   4.271   7.656 -0.0600  1.7180  0.0966
 5208SOL     OW27082   4.604   0.094   8.505 -0.4192 -0.5350 -0.7723
 5208SOL    HW127083   4.586   0.168   8.448  0.4268 -1.8594 -2.7876
 5208SOL    HW227084   4.698   0.095   8.485 -0.4757  2.0729 -0.8046
 5209SOL     OW27085   2.330   4.412   2.162 -0.5007 -0.0056  0.2426
 5209SOL    HW127086   2.403   4.473   2.152 -0.9687  0.8335  1.9401
 5209SOL    HW227087   2.359   4.376   2.246 -1.5858  1.0260  1.0492
 5210SOL     OW27088   2.480   0.320   0.014  0.1484 -0.3373 -0.8818
 5210SOL    HW127089   2.432   0.253   0.063 -0.6331  1.0850  0.2775
 5210SOL    HW227090   2.475   0.388   0.081 -1.5632 -0.5363 -0.7894
 5211SOL     OW27091   4.683   1.667  10.783 -0.0763 -0.3988 -0.2191
 5211SOL    HW127092   4.633   1.723  10.724 -1.6956 -1.7385 -0.1428
 5211SOL    HW227093   4.623   1.593  10.781  1.0570 -1.2933 -0.8172
 5212SOL     OW27094   3.569   1.449   2.196  0.4800 -1.0071  0.0317
 5212SOL    HW127095   3.550   1.459   2.102 -0.1816  2.2035  0.4964
 5212SOL    HW227096   3.663   1.459   2.208  0.1457  1.0758  0.9207
 5213SOL     OW27097   2.840   2.419   3.676 -0.4490  0.4106 -0.2971
 5213SOL    HW127098   2.823   2.508   3.643 -0.3625  0.1116 -1.1308
 5213SOL    HW227099   2.858   2.379   3.591 -2.1550  0.5898 -0.7435
 5214SOL     OW27100   0.466   1.476   6.897 -0.7139  0.1685  0.3303
 5214SOL    HW127101   0.558   1.497   6.905 -1.2610  2.3146  0.8460
 5214SOL    HW227102   0.456   1.404   6.959 -1.6490  0.7798  0.8965
 5215SOL     OW27103   4.296   1.448  11.827  0.2895 -0.2271 -0.4595
 5215SOL    HW127104   4.221   1.391  11.846 -0.8336  0.8661 -1.6422
 5215SOL    HW227105   4.354   1.416  11.896  0.3261  2.9622  1.0149
 5216SOL     OW27106   2.919   2.105   4.703 -0.0770  0.2785 -0.0543
 5216SOL    HW127107   2.938   2.199   4.703 -2.3688  0.7193  0.3479
 5216SOL    HW227108   2.893   2.077   4.615 -0.4220 -0.0399  0.1516
 5217SOL     OW27109   2.631   1.903   2.480 -0.0557  0.8301 -0.1406
 5217SOL    HW127110   2.602   1.814   2.499 -0.1004  0.9745  0.4506
 5217SOL    HW227111   2.603   1.959   2.552 -0.4177  1.3417 -0.6743
 5218SOL     OW27112   1.728   2.933   9.006 -0.4468  0.7788 -0.7018
 5218SOL    HW127113   1.820   2.907   9.003 -0.3531  0.9376  1.1531
 5218SOL    HW227114   1.723   3.002   9.072 -0.6690  1.1313 -1.0857
 5219SOL     OW27115   3.740   3.179   9.156  0.1777 -0.1785 -0.0625
 5219SOL    HW127116   3.756   3.166   9.250 -1.9510  2.0935  0.6266
 5219SOL    HW227117   3.809   3.241   9.132 -0.9371  1.3875  0.7550
 5220SOL     OW27118   0.441   1.958   9.140 -0.2344  0.0720 -0.0614
 5220SOL    HW127119   0.508   1.938   9.206  1.0951  1.2190 -1.0633
 5220SOL    HW227120   0.404   2.033   9.187 -3.7053 -2.0596  0.6210
 5221SOL     OW27121   1.070   0.779   7.002 -0.6882 -0.5259 -0.3818
 5221SOL    HW127122   1.012   0.708   7.029 -0.8581  0.8550  2.9136
 5221SOL    HW227123   1.135   0.731   6.952 -1.2714  0.6027 -2.2186
 5222SOL     OW27124   0.699   3.981   7.135  0.2460 -0.2753  0.8429
 5222SOL    HW127125   0.662   3.893   7.128  1.0865 -0.6727  1.5429
 5222SOL    HW227126   0.790   3.970   7.106 -0.8909 -2.2691 -1.9744
 5223SOL     OW27127   1.626   4.473   1.171 -0.2053  0.4154  0.3240
 5223SOL    HW127128   1.613   4.555   1.123 -4.5597  0.5798  1.7371
 5223SOL    HW227129   1.630   4.509   1.260 -2.4711 -0.8154  0.9170
 5224SOL     OW27130   4.239   2.991   6.849  0.2742 -0.2848 -0.5248
 5224SOL    HW127131   4.252   3.077   6.891  0.9787 -0.7148  0.1343
 5224SOL    HW227132   4.178   3.005   6.777  0.4927  0.1503 -0.6236
 5225SOL     OW27133   2.023   3.874  14.194 -0.9122  0.0138 -0.4293
 5225SOL    HW127134   2.000   3.782  14.208  1.8815 -0.6835 -0.3551
 5225SOL    HW227135   2.008   3.863  14.100 -2.2780 -1.1380 -0.0702
 5226SOL     OW27136   3.172   0.475  11.900 -0.2780 -0.3370 -0.3441
 5226SOL    HW127137   3.252   0.527  11.905  0.0233 -0.6944 -1.5839
 5226SOL    HW227138   3.118   0.507  11.972 -0.6411 -0.6788 -0.4655
 5227SOL     OW27139   2.567   1.486  11.221 -0.1806  0.3618  0.2757
 5227SOL    HW127140   2.539   1.573  11.191 -0.4681  0.8079  1.8582
 5227SOL    HW227141   2.632   1.461  11.155 -0.7056  1.1932 -0.5674
 5228SOL     OW27142   2.199   1.490   7.582 -0.2405  0.1101  0.2122
 5228SOL    HW127143   2.220   1.583   7.597  1.7316 -0.0381 -1.5875
 5228SOL    HW227144   2.129   1.465   7.642 -0.7182  0.3137 -0.2591
 5229SOL     OW27145   3.686   0.085   6.495 -0.5857 -0.3779 -0.0018
 5229SOL    HW127146   3.657   0.024   6.428 -1.1874  0.1298 -0.1950
 5229SOL    HW227147   3.760   0.130   6.453  0.6458 -1.2762  1.1951
 5230SOL     OW27148   3.299   2.376   5.595  0.3081 -0.2803 -0.0057
 5230SOL    HW127149   3.394   2.381   5.591  0.2134  1.2668 -0.0874
 5230SOL    HW227150   3.289   2.393   5.688  0.6531  1.5276 -0.3032
 5231SOL     OW27151   2.085   4.100  14.849  0.2829 -0.0700 -0.0135
 5231SOL    HW127152   2.115   4.010  14.863  0.5093  0.2327  1.4388
 5231SOL    HW227153   2.128   4.151  14.918 -1.1436 -0.2897  1.0285
 5232SOL     OW27154   0.342   0.098   6.049 -0.1110  0.5815 -0.0617
 5232SOL    HW127155   0.437   0.093   6.034 -0.2171 -0.0026 -0.5375
 5232SOL    HW227156   0.334   0.131   6.139  1.2146 -0.3837  0.4196
 5233SOL     OW27157   3.774   2.373   8.390 -0.2545 -0.4632 -0.0094
 5233SOL    HW127158   3.773   2.284   8.425 -1.4549 -1.1016 -1.6754
 5233SOL    HW227159   3.841   2.414   8.445  1.8623 -0.4024 -2.6426
 5234SOL     OW27160   0.042   3.522   9.583  0.0201  0.0247  1.0823
 5234SOL    HW127161   0.099   3.522   9.660  1.2214 -2.9264  0.2130
 5234SOL    HW227162   0.102   3.570   9.527  0.4476 -1.1215  0.5573
 5235SOL     OW27163   1.795   2.448   7.213  0.1694 -0.0083 -0.3359
 5235SOL    HW127164   1.793   2.535   7.174  1.1034 -0.6776 -1.8799
 5235SOL    HW227165   1.760   2.404   7.135 -0.0822  2.4127 -1.5898
 5236SOL     OW27166   1.564   3.516  12.951  0.0393  0.2210  0.3075
 5236SOL    HW127167   1.589   3.456  12.880  0.3400  2.8809 -1.8261
 5236SOL    HW227168   1.627   3.581  12.921 -1.6586  2.0140  0.6737
 5237SOL     OW27169   2.271   0.207   4.491 -0.1731 -0.2252 -0.0975
 5237SOL    HW127170   2.219   0.198   4.571  1.9870  0.5938  1.4055
 5237SOL    HW227171   2.262   0.296   4.457  1.3499 -0.0817 -0.1070
 5238SOL     OW27172   0.347   2.924   4.994  0.1162  0.6465  0.1141
 5238SOL    HW127173   0.274   2.889   5.045 -1.6975  0.8591 -2.3631
 5238SOL    HW227174   0.406   2.960   5.061  1.6584 -1.1509 -0.2492
 5239SOL     OW27175   1.610   0.260   7.053 -0.0996  0.0675 -0.0567
 5239SOL    HW127176   1.680   0.294   6.997  0.3169  1.1570  1.1535
 5239SOL    HW227177   1.598   0.337   7.108  2.2501  0.4241 -0.0620
 5240SOL     OW27178   2.240   0.666  17.172 -0.1996 -0.0130 -0.7427
 5240SOL    HW127179   2.163   0.674  17.116 -0.7427  1.2736  0.1865
 5240SOL    HW227180   2.242   0.747  17.223  1.0487  1.2961 -2.9299
 5241SOL     OW27181   4.423   3.839   6.924 -0.0902  0.3663 -0.2363
 5241SOL    HW127182   4.471   3.914   6.890 -0.4437  1.0406  0.7264
 5241SOL    HW227183   4.453   3.833   7.015 -2.1034 -0.7714  0.3517
 5242SOL     OW27184   0.243   2.795  15.030 -0.0583  0.3788  0.0707
 5242SOL    HW127185   0.297   2.720  15.055 -0.5056 -0.9246 -2.8161
 5242SOL    HW227186   0.155   2.775  15.061 -0.1060 -0.0706 -0.3463
 5243SOL     OW27187   3.047   2.704   5.282 -0.0232  0.4341  0.0787
 5243SOL    HW127188   2.984   2.719   5.352  0.0582 -1.2764  0.5234
 5243SOL    HW227189   3.120   2.653   5.318 -1.5141 -1.5147  0.3145
 5244SOL     OW27190   3.178   0.366   4.822 -0.3481  0.0929  0.3928
 5244SOL    HW127191   3.266   0.333   4.803 -0.0170  1.5444 -0.5636
 5244SOL    HW227192   3.171   0.359   4.917  1.1993  1.3365  0.5984
 5245SOL     OW27193   4.604   1.050   9.804 -0.1524  0.2040 -0.1784
 5245SOL    HW127194   4.697   1.058   9.822 -0.4162 -0.3296  1.4370
 5245SOL    HW227195   4.596   1.116   9.735  1.7434  0.5828 -0.0174
 5246SOL     OW27196   2.981   0.760   8.072 -0.3039  0.5728 -0.2473
 5246SOL    HW127197   2.925   0.749   8.149 -2.3057 -1.7649 -2.0523
 5246SOL    HW227198   2.987   0.855   8.083  0.6685  0.5153 -0.2610
 5247SOL     OW27199   0.524   0.271  14.272 -0.1681  0.1926  0.4222
 5247SOL    HW127200   0.537   0.225  14.355  0.7218  0.8182  0.6366
 5247SOL    HW227201   0.435   0.304  14.283 -0.3099 -0.6569  1.8196
 5248SOL     OW27202   2.482   3.666   4.556  0.1669  0.2117 -0.3605
 5248SOL    HW127203   2.522   3.663   4.469 -0.3554 -1.4025 -0.5392
 5248SOL    HW227204   2.395   3.629   4.542  0.8370 -0.4447 -2.7714
 5249SOL     OW27205   0.249   3.779   8.851 -0.6336 -0.6188 -0.0407
 5249SOL    HW127206   0.337   3.754   8.825 -0.7882  0.2162 -1.4003
 5249SOL    HW227207   0.277   3.811   8.937  0.1552 -2.3832  0.3441
 5250SOL     OW27208   1.807   1.309   2.757 -0.3049 -0.1471  0.2263
 5250SOL    HW127209   1.820   1.223   2.717  1.1847 -0.0873  0.5939
 5250SOL    HW227210   1.892   1.351   2.742 -2.1538  2.4449 -2.9312
 5251SOL     OW27211   3.865   2.676  17.064 -0.3575  0.6151 -0.1021
 5251SOL    HW127212   3.926   2.668  16.991 -1.1958 -2.0913 -0.5123
 5251SOL    HW227213   3.883   2.765  17.094  0.6212 -0.4104  2.4027
 5252SOL     OW27214   2.529   1.949   4.726 -0.3761  0.4964 -0.1463
 5252SOL    HW127215   2.596   1.899   4.773  0.1936  0.5552 -0.9023
 5252SOL    HW227216   2.555   2.037   4.752 -1.5685  1.3694 -1.9280
 5253SOL     OW27217   0.325   3.230   5.089 -0.4093 -0.5405 -0.1528
 5253SOL    HW127218   0.338   3.221   4.994 -3.8658  0.2374 -0.7031
 5253SOL    HW227219   0.353   3.321   5.095  0.5798 -0.8438 -0.0741
 5254SOL     OW27220   1.529   3.096   7.389 -0.3384  0.2259 -0.6185
 5254SOL    HW127221   1.508   3.062   7.476  0.2540  0.9865 -0.1821
 5254SOL    HW227222   1.460   3.058   7.334  0.2930 -1.3110 -0.3664
 5255SOL     OW27223   3.542   3.005  13.001 -0.3381 -0.2410 -0.0432
 5255SOL    HW127224   3.483   3.077  12.979  0.6388  1.5258  3.0805
 5255SOL    HW227225   3.627   3.046  13.011 -0.7763  0.9928 -1.4269
 5256SOL     OW27226   2.778   2.741   6.974  0.2327 -0.1991  0.3891
 5256SOL    HW127227   2.746   2.654   7.000  0.1924  0.1420  1.4841
 5256SOL    HW227228   2.842   2.754   7.044  0.5421  0.4846 -0.0242
 5257SOL     OW27229   3.174   2.060   9.133 -0.5258 -0.7803  0.4197
 5257SOL    HW127230   3.132   2.090   9.214  1.5010  1.4367  0.6186
 5257SOL    HW227231   3.094   2.041   9.083 -1.0427 -0.9227  1.2967
 5258SOL     OW27232   4.326   3.246   3.433 -0.0075 -0.5614  0.2113
 5258SOL    HW127233   4.305   3.255   3.340 -2.0337 -0.5653  0.6785
 5258SOL    HW227234   4.380   3.324   3.448  0.3286 -0.5392 -1.1011
 5259SOL     OW27235   0.151   3.040   1.231  0.2097  0.2720 -0.2201
 5259SOL    HW127236   0.078   2.980   1.219  0.9248 -0.7735  0.5925
 5259SOL    HW227237   0.224   2.980   1.218  1.4192  1.1514  2.5886
 5260SOL     OW27238   4.373   2.147   4.350  0.0128  0.4495  0.2182
 5260SOL    HW127239   4.380   2.243   4.356 -0.5827  0.6664 -2.7642
 5260SOL    HW227240   4.293   2.148   4.298 -1.5897  0.8959  2.6833
 5261SOL     OW27241   0.246   4.187   2.245 -1.0120  0.0555  0.6571
 5261SOL    HW127242   0.212   4.177   2.156  1.2836 -1.5530 -0.0329
 5261SOL    HW227243   0.187   4.133   2.298 -0.2202  0.2822  1.7687
 5262SOL     OW27244   3.687   0.162   4.887 -0.4247  0.0911 -0.1709
 5262SOL    HW127245   3.753   0.122   4.831 -0.8083 -1.0341  0.1700
 5262SOL    HW227246   3.729   0.247   4.880 -0.9859  0.1982 -2.2590
 5263SOL     OW27247   1.105   4.413  11.262 -0.3370 -0.3489  0.3776
 5263SOL    HW127248   1.146   4.492  11.298  0.6285 -0.6012 -0.1538
 5263SOL    HW227249   1.074   4.435  11.174  0.3094 -0.6516  0.0728
 5264SOL     OW27250   3.315   3.699   6.327 -0.1689  0.3303 -0.2312
 5264SOL    HW127251   3.270   3.615   6.338  1.7562 -0.7931 -0.8434
 5264SOL    HW227252   3.238   3.754   6.340 -0.8283 -0.9142  1.1096
 5265SOL     OW27253   0.281   0.439  12.122 -0.1836  0.2840  0.1229
 5265SOL    HW127254   0.303   0.508  12.185 -1.3296  0.1658  0.6612
 5265SOL    HW227255   0.246   0.480  12.043 -0.5494 -1.6062 -0.6918
 5266SOL     OW27256   4.111   2.523   6.584  0.1830  0.3927 -0.4690
 5266SOL    HW127257   4.181   2.491   6.641  1.8933  1.0870 -2.1514
 5266SOL    HW227258   4.161   2.549   6.506 -0.8940 -1.2424 -1.6961
 5267SOL     OW27259   0.811   4.040   3.868 -0.3139  0.4711 -0.2912
 5267SOL    HW127260   0.743   4.050   3.935  1.2965  1.8850  1.1244
 5267SOL    HW227261   0.798   4.123   3.824 -2.9514 -0.7759 -1.8710
 5268SOL     OW27262   2.257   4.186   7.168 -0.2802 -0.0492  0.0189
 5268SOL    HW127263   2.308   4.249   7.116  1.0166 -1.5293 -0.5147
 5268SOL    HW227264   2.244   4.214   7.258  2.6353 -1.2815  0.8227
 5269SOL     OW27265   3.606   2.095   2.638  0.1900 -0.0342  0.7472
 5269SOL    HW127266   3.670   2.055   2.580  0.1952  1.7106 -0.4523
 5269SOL    HW227267   3.667   2.123   2.707 -0.7689  1.4625  0.9934
 5270SOL     OW27268   1.783   0.803   9.443  0.1641  0.1126 -0.4464
 5270SOL    HW127269   1.865   0.761   9.419  1.6238  1.8960  1.3658
 5270SOL    HW227270   1.721   0.747   9.397 -1.8422  0.9079  1.2896
 5271SOL     OW27271   4.147   0.301   3.871 -0.0312 -0.0614 -0.2650
 5271SOL    HW127272   4.197   0.220   3.879 -0.1333 -0.0833  0.1197
 5271SOL    HW227273   4.062   0.267   3.843 -0.7748  2.0835 -0.6246
 5272SOL     OW27274   0.697   3.900   2.398  0.1662 -0.2833  0.4765
 5272SOL    HW127275   0.752   3.974   2.371  2.3794 -0.7366  3.6259
 5272SOL    HW227276   0.622   3.932   2.348  1.3635  0.3872 -0.8923
 5273SOL     OW27277   4.223   2.298  14.274  0.4607 -0.5205  0.4267
 5273SOL    HW127278   4.161   2.371  14.284  3.0748  1.7069  0.5135
 5273SOL    HW227279   4.288   2.332  14.213  0.5575  1.2148  1.4841
 5274SOL     OW27280   0.743   3.222   4.120 -0.5719  0.1431 -0.1453
 5274SOL    HW127281   0.737   3.267   4.204 -0.2532 -0.8024  0.3815
 5274SOL    HW227282   0.834   3.194   4.130 -0.3210  1.2626  0.8042
 5275SOL     OW27283   0.144   0.373   3.886  0.1326  0.1850 -0.2294
 5275SOL    HW127284   0.110   0.462   3.880 -0.6753 -0.1862 -1.1050
 5275SOL    HW227285   0.144   0.360   3.981  2.2449  3.7477  0.2577
 5276SOL     OW27286   3.593   0.935   5.321 -0.4103 -0.1385 -0.2632
 5276SOL    HW127287   3.640   0.901   5.397  0.4601  1.0880 -0.2390
 5276SOL    HW227288   3.663   0.990   5.285  0.7673 -0.9720  0.7732
 5277SOL     OW27289   0.588   1.138   1.912 -0.4211 -0.0675 -0.4839
 5277SOL    HW127290   0.648   1.094   1.852 -1.4967  1.6991 -2.8665
 5277SOL    HW227291   0.567   1.065   1.970 -2.8519 -0.1810 -1.5309
 5278SOL     OW27292   3.046   4.078   7.513  0.0028 -0.3315 -0.5686
 5278SOL    HW127293   3.078   3.992   7.485 -3.9341 -1.9676 -0.0691
 5278SOL    HW227294   3.065   4.075   7.606  0.1887 -2.3266 -0.6847
 5279SOL     OW27295   2.861   1.091   9.120  0.3051 -0.8153 -0.1361
 5279SOL    HW127296   2.914   1.164   9.086 -0.7747  0.3295  0.6552
 5279SOL    HW227297   2.792   1.140   9.164 -1.4155 -1.9758 -1.5350
 5280SOL     OW27298   1.708   3.549   5.998 -0.4976  1.0513 -0.2365
 5280SOL    HW127299   1.629   3.570   5.948  0.0003 -0.6186 -1.7298
 5280SOL    HW227300   1.739   3.465   5.964 -2.7213  0.1176  0.0446
 5281SOL     OW27301   4.486   2.880  12.772  0.0741  0.3976 -0.5872
 5281SOL    HW127302   4.535   2.942  12.825 -2.8865  0.2725  2.2841
 5281SOL    HW227303   4.421   2.934  12.727 -0.9275  0.4033  0.8806
 5282SOL     OW27304   2.170   2.848   9.187 -0.6142 -0.0305 -0.5366
 5282SOL    HW127305   2.228   2.861   9.112 -0.9303  0.9323 -0.6104
 5282SOL    HW227306   2.233   2.817   9.252 -0.5852  3.4039  1.0985
 5283SOL     OW27307   4.018   1.538   4.337 -0.5736  0.5118 -0.4097
 5283SOL    HW127308   3.996   1.447   4.358  2.7711 -0.0377  0.7093
 5283SOL    HW227309   4.096   1.558   4.389 -2.1498  0.4955  1.9613
 5284SOL     OW27310   4.156   4.412   6.408 -0.0609 -0.2470 -0.2093
 5284SOL    HW127311   4.062   4.407   6.424 -0.2690 -2.0068 -1.9204
 5284SOL    HW227312   4.181   4.321   6.426  0.3488 -0.4318 -1.6874
 5285SOL     OW27313   3.275   0.843  12.931 -0.6673 -0.4950 -0.5467
 5285SOL    HW127314   3.216   0.770  12.946  1.1447 -1.8580 -0.0493
 5285SOL    HW227315   3.258   0.855  12.838  1.6500 -0.1357 -0.9197
 5286SOL     OW27316   4.280   2.076  16.377 -0.4532 -0.5744  0.3831
 5286SOL    HW127317   4.232   2.078  16.460 -0.4084  3.4504  0.3481
 5286SOL    HW227318   4.212   2.041  16.319  0.4366  0.4318 -1.2648
 5287SOL     OW27319   3.631   3.221   2.365 -0.0235  0.4955 -0.0802
 5287SOL    HW127320   3.624   3.147   2.424 -2.0609 -0.4365 -1.4887
 5287SOL    HW227321   3.633   3.294   2.427 -1.0332  1.5434 -1.2823
 5288SOL     OW27322   0.433   2.675   4.841  0.2220  0.2408  0.3696
 5288SOL    HW127323   0.398   2.738   4.905 -1.5716 -1.3151  0.9361
 5288SOL    HW227324   0.401   2.589   4.868 -1.0561 -0.4678 -3.4560
 5289SOL     OW27325   2.577   2.706  16.121  0.0372 -0.3880  0.5350
 5289SOL    HW127326   2.619   2.676  16.040 -0.5330 -0.1072  0.1340
 5289SOL    HW227327   2.602   2.799  16.119  1.1529 -0.6460  2.6156
 5290SOL     OW27328   1.518   0.993   4.025 -0.2301 -0.8697 -0.6397
 5290SOL    HW127329   1.612   0.984   4.040 -0.4436  0.9033  1.8458
 5290SOL    HW227330   1.520   0.971   3.932 -1.0446 -1.8043 -0.4385
 5291SOL     OW27331   4.398   0.281   9.866  0.1838 -0.1204  0.1850
 5291SOL    HW127332   4.306   0.285   9.892  0.6426  1.0978  1.5847
 5291SOL    HW227333   4.390   0.274   9.771 -1.9776  0.2146  0.3541
 5292SOL     OW27334   4.605   3.792  13.591  0.6605  0.1968  0.2048
 5292SOL    HW127335   4.636   3.726  13.653 -1.8996 -0.3456  0.8974
 5292SOL    HW227336   4.511   3.779  13.604  0.4196  0.1931 -1.4673
 5293SOL     OW27337   0.531   1.575  13.562  0.8193 -0.1455  0.6045
 5293SOL    HW127338   0.457   1.515  13.552  0.2506  0.8457 -1.3587
 5293SOL    HW227339   0.511   1.620  13.479 -2.5844 -1.7007  0.5952
 5294SOL     OW27340   2.708   2.431   1.740  0.2719 -0.2812  0.1650
 5294SOL    HW127341   2.622   2.413   1.701 -0.1184  1.7698  0.0570
 5294SOL    HW227342   2.747   2.471   1.662  0.3527  0.3695  0.5376
 5295SOL     OW27343   0.426   3.002  13.164  0.3696  0.6960  0.1835
 5295SOL    HW127344   0.370   3.080  13.159 -1.8619 -0.8403  1.2161
 5295SOL    HW227345   0.433   3.009  13.260  0.7139  0.1252  0.1933
 5296SOL     OW27346   2.483   2.600   5.575 -0.2373  0.2677 -0.6825
 5296SOL    HW127347   2.478   2.682   5.623  1.5961  1.7934 -3.0528
 5296SOL    HW227348   2.414   2.560   5.627  1.4976 -1.6570  0.1352
 5297SOL     OW27349   1.482   3.184   3.576 -0.6007  0.5007  0.4573
 5297SOL    HW127350   1.419   3.203   3.646 -1.7171 -2.3571  0.2659
 5297SOL    HW227351   1.564   3.213   3.616 -0.3342 -0.6175  0.7186
 5298SOL     OW27352   3.523   0.744   4.177  0.1276  0.0611 -0.0001
 5298SOL    HW127353   3.444   0.764   4.125 -1.9871 -0.1870  3.1153
 5298SOL    HW227354   3.500   0.795   4.255  4.5255 -3.1807  3.3830
 5299SOL     OW27355   3.359   3.228  15.630 -0.2301  0.9182 -0.1939
 5299SOL    HW127356   3.265   3.249  15.625 -0.5085 -0.4030 -0.5138
 5299SOL    HW227357   3.348   3.166  15.702 -2.9613  1.2778 -0.3012
 5300SOL     OW27358   3.868   4.501   3.657  0.0731 -0.5772  0.1818
 5300SOL    HW127359   3.913   4.542   3.584  0.0138 -0.4906  0.1938
 5300SOL    HW227360   3.813   4.576   3.681  1.3996  0.1509  0.9357
 5301SOL     OW27361   2.660   3.837   5.330  0.0483  0.4011 -0.6330
 5301SOL    HW127362   2.718   3.906   5.297  1.0831 -1.2985 -2.4138
 5301SOL    HW227363   2.700   3.759   5.289  1.3807  0.4345  0.5857
 5302SOL     OW27364   1.339   3.693   4.294 -0.1301  0.1283 -0.0640
 5302SOL    HW127365   1.363   3.785   4.289 -1.0251  0.3306 -0.5767
 5302SOL    HW227366   1.409   3.665   4.353 -0.3969 -1.4369 -0.4870
 5303SOL     OW27367   0.692   4.176  15.764  0.0981 -0.0038 -0.9141
 5303SOL    HW127368   0.752   4.250  15.760  1.7691 -1.3212 -0.0403
 5303SOL    HW227369   0.728   4.128  15.838 -2.2795 -0.3134  0.0490
 5304SOL     OW27370   3.135   0.069   3.933 -0.5377  0.2784 -0.5587
 5304SOL    HW127371   3.167   4.711   3.976  0.3651 -0.3979 -2.4719
 5304SOL    HW227372   3.040   0.078   3.938 -0.6204 -0.9123  0.1363
 5305SOL     OW27373   0.572   0.504  12.580 -0.4363  0.2205 -0.2492
 5305SOL    HW127374   0.606   0.435  12.636 -1.1778  3.2912  3.9636
 5305SOL    HW227375   0.653   0.542  12.545 -0.0620  1.1228  1.5920
 5306SOL     OW27376   2.432   0.380   6.007  0.3998  0.4259 -0.4620
 5306SOL    HW127377   2.522   0.405   5.986  0.6667  0.3149  0.5096
 5306SOL    HW227378   2.392   0.462   6.036  0.4183  0.3181 -0.1214
 5307SOL     OW27379   3.964   2.312   9.095  0.5944  0.4884  0.3728
 5307SOL    HW127380   4.043   2.325   9.042  0.6828 -1.1091  0.0994
 5307SOL    HW227381   3.920   2.253   9.033  1.3371 -1.0631  1.3276
 5308SOL     OW27382   4.718   2.151   4.264  0.1877  0.0272 -0.1093
 5308SOL    HW127383   0.087   2.133   4.236  0.1551 -3.5572  1.9891
 5308SOL    HW227384   4.671   2.078   4.225  3.9996 -1.2157 -2.4032
 5309SOL     OW27385   1.694   3.684   1.597  0.1293 -0.7053  0.4145
 5309SOL    HW127386   1.611   3.694   1.552  0.0138  1.0322  0.9886
 5309SOL    HW227387   1.698   3.778   1.613 -4.3711 -0.6110  0.8370
 5310SOL     OW27388   4.592   0.096   7.879  0.2882 -0.3315 -0.2738
 5310SOL    HW127389   4.637   0.171   7.918 -2.2372  0.5549  0.9602
 5310SOL    HW227390   4.512   0.088   7.930 -0.5719  4.9692 -0.7196
 5311SOL     OW27391   3.732   2.704   8.539  0.3729 -0.0909 -0.0300
 5311SOL    HW127392   3.765   2.780   8.587  1.0409  0.1839 -0.9250
 5311SOL    HW227393   3.796   2.636   8.558  0.4347  0.1092  0.4858
 5312SOL     OW27394   2.930   2.688   8.207  0.5956  0.2524  0.1190
 5312SOL    HW127395   2.973   2.686   8.122 -0.8451 -0.8251 -0.6027
 5312SOL    HW227396   2.865   2.619   8.191  2.3396 -1.5635  0.8384
 5313SOL     OW27397   1.022   3.119  15.495  0.2651 -0.8081 -0.1038
 5313SOL    HW127398   1.062   3.176  15.429  0.3028  0.1129  0.7157
 5313SOL    HW227399   1.056   3.169  15.569  2.0034 -2.0160 -0.0885
 5314SOL     OW27400   4.037   0.969   3.841  0.2226  0.0934 -0.0497
 5314SOL    HW127401   4.035   1.055   3.798  0.5195 -0.1733 -0.5825
 5314SOL    HW227402   4.022   0.908   3.769 -1.0335  1.8398 -1.2707
 5315SOL     OW27403   3.985   1.183   4.214  0.5692 -0.1881 -0.0131
 5315SOL    HW127404   4.038   1.107   4.238  1.9738  0.5237 -0.8611
 5315SOL    HW227405   4.043   1.226   4.152  0.2410 -1.0528 -0.9227
 5316SOL     OW27406   0.804   0.160   0.626  0.1827  0.5683 -0.3815
 5316SOL    HW127407   0.805   0.255   0.638  0.2820  0.6999 -1.5045
 5316SOL    HW227408   0.739   0.155   0.556 -0.2187 -0.2918  0.0557
 5317SOL     OW27409   2.150   1.725  13.683  0.5105  0.1360 -0.1077
 5317SOL    HW127410   2.172   1.812  13.651 -3.4396  0.4390 -2.0214
 5317SOL    HW227411   2.192   1.665  13.621  0.7926  0.5795 -0.3438
 5318SOL     OW27412   1.689   1.302   6.900  0.4698 -0.1230 -0.3650
 5318SOL    HW127413   1.751   1.360   6.944 -1.2928  1.1586  0.4546
 5318SOL    HW227414   1.651   1.262   6.978  0.2600  2.2622  0.7547
 5319SOL     OW27415   3.503   2.830   4.986  0.6096  0.0008  0.0696
 5319SOL    HW127416   3.579   2.793   5.032  0.6172 -1.2364 -0.9564
 5319SOL    HW227417   3.428   2.798   5.036  1.5269  0.2024  1.5786
 5320SOL     OW27418   0.493   3.378  15.601  0.2421  0.5255  0.0638
 5320SOL    HW127419   0.494   3.403  15.509  2.2009  1.0622  0.2162
 5320SOL    HW227420   0.483   3.466  15.638  0.6924  0.0142  1.4202
 5321SOL     OW27421   0.697   2.423  14.067 -0.2882 -0.3166  0.9901
 5321SOL    HW127422   0.725   2.454  13.980  0.5193  2.2996  2.1823
 5321SOL    HW227423   0.785   2.393  14.092  0.3027  1.5357  1.1565
 5322SOL     OW27424   3.944   3.709   6.880  0.2537  0.2265  0.3775
 5322SOL    HW127425   3.940   3.738   6.788 -0.6496  1.5366  0.8284
 5322SOL    HW227426   3.853   3.725   6.901  1.1658  0.0372  4.4072
 5323SOL     OW27427   1.034   1.488   8.830  0.2154  0.2708  0.0645
 5323SOL    HW127428   1.007   1.574   8.864 -0.5875 -0.3146  0.9071
 5323SOL    HW227429   0.945   1.457   8.814  0.1679  0.3082  0.2524
 5324SOL     OW27430   1.219   0.241  10.157 -0.1968  0.0300  0.1546
 5324SOL    HW127431   1.291   0.263  10.216  0.2811 -0.2925 -0.3149
 5324SOL    HW227432   1.233   0.150  10.133 -0.2468  0.6920 -2.4461
 5325SOL     OW27433   1.718   0.784   5.291  0.1414  0.1478 -0.1455
 5325SOL    HW127434   1.721   0.836   5.210  0.0080 -1.1376 -0.9772
 5325SOL    HW227435   1.762   0.839   5.356  0.2707  0.1845 -0.2649
 5326SOL     OW27436   1.148   0.191  14.813  0.3379  0.4377  0.5018
 5326SOL    HW127437   1.108   0.276  14.794  1.9540  0.6346 -2.0257
 5326SOL    HW227438   1.107   0.171  14.897  1.0327 -2.4608  0.1431
 5327SOL     OW27439   3.334   0.322  11.192  0.0483  0.0898 -0.3937
 5327SOL    HW127440   3.375   0.353  11.272  1.5997 -0.1676 -1.1019
 5327SOL    HW227441   3.291   0.242  11.222 -2.3781  2.0230  1.2974
 5328SOL     OW27442   2.338   1.720   7.145 -0.1661  0.1895  0.1555
 5328SOL    HW127443   2.296   1.708   7.060 -1.0476  1.2215  0.4350
 5328SOL    HW227444   2.275   1.781   7.185  1.1513  2.4788 -1.2692
 5329SOL     OW27445   4.351   1.760   5.903  0.3244  0.2954 -0.2234
 5329SOL    HW127446   4.380   1.798   5.820 -1.6672 -1.4374 -1.7049
 5329SOL    HW227447   4.282   1.816   5.940  1.3087  0.8787  0.7419
 5330SOL     OW27448   3.335   4.365   5.247 -0.3500 -0.5378 -0.1175
 5330SOL    HW127449   3.310   4.354   5.155 -1.1007 -0.0894  0.0294
 5330SOL    HW227450   3.273   4.436   5.264 -0.0708 -0.1562 -0.6620
 5331SOL     OW27451   3.463   3.044   0.171 -0.1795  0.2065  0.4953
 5331SOL    HW127452   3.402   2.996   0.227 -0.7530  0.3562 -0.0025
 5331SOL    HW227453   3.448   3.123   0.222 -0.9380  0.6129 -0.3575
 5332SOL     OW27454   2.588   3.506  10.031 -0.6248  0.2442  0.5408
 5332SOL    HW127455   2.565   3.593   9.998  0.6131 -0.3626 -1.9395
 5332SOL    HW227456   2.552   3.449   9.962 -0.8603 -0.0554  0.9122
 5333SOL     OW27457   3.033   1.129  12.291  0.3886  0.0507 -0.1701
 5333SOL    HW127458   3.087   1.209  12.295 -1.3848  1.3455 -2.3913
 5333SOL    HW227459   3.056   1.106  12.201 -2.5676 -2.9251 -0.1556
 5334SOL     OW27460   0.630   2.771  14.254 -0.5500  0.3318 -0.1955
 5334SOL    HW127461   0.553   2.731  14.215 -1.5954  1.5155  0.6770
 5334SOL    HW227462   0.698   2.722  14.209  0.7881  0.4020  1.7280
 5335SOL     OW27463   4.562   3.124   3.367 -0.2426  0.4645  0.0125
 5335SOL    HW127464   4.614   3.197   3.334  2.7369 -1.2444  0.9552
 5335SOL    HW227465   4.487   3.173   3.400 -1.2349  0.9439 -2.9869
 5336SOL     OW27466   0.347   4.718   6.407 -0.3061  0.2497  0.1031
 5336SOL    HW127467   0.440   0.015   6.396 -0.5850  2.4134  1.3001
 5336SOL    HW227468   0.340   0.026   6.498 -0.4641 -0.0578  0.1883
 5337SOL     OW27469   4.448   4.468  17.610  0.0475  0.1576 -0.1763
 5337SOL    HW127470   4.384   4.405  17.643 -0.5299  0.1704 -1.2738
 5337SOL    HW227471   4.402   4.547  17.638  0.8962  0.1852  1.1756
 5338SOL     OW27472   1.815   3.496   3.862 -1.0784  0.2605  0.1423
 5338SOL    HW127473   1.790   3.551   3.936  0.2534  1.7247 -0.4932
 5338SOL    HW227474   1.870   3.561   3.817 -0.0184 -0.0414  0.9980
 5339SOL     OW27475   2.147   2.491   5.370 -0.0073  0.2611  0.5467
 5339SOL    HW127476   2.217   2.432   5.342 -1.2056 -0.9131 -0.0102
 5339SOL    HW227477   2.163   2.499   5.464 -2.0192 -0.7833  0.9927
 5340SOL     OW27478   2.234   1.426   4.696  0.0923  0.5421  0.0666
 5340SOL    HW127479   2.240   1.408   4.602 -0.9071 -0.9659  0.2774
 5340SOL    HW227480   2.155   1.480   4.706  0.7146  1.5376 -0.4235
 5341SOL     OW27481   1.306   0.266   3.348  0.1775 -0.9933 -0.1768
 5341SOL    HW127482   1.264   0.180   3.338 -1.3927 -0.1721 -0.6281
 5341SOL    HW227483   1.235   0.326   3.324 -0.2687 -1.8404 -0.9737
 5342SOL     OW27484   2.725   3.791   8.426  0.2235  0.0586  0.2784
 5342SOL    HW127485   2.724   3.886   8.410 -2.5279 -0.0323 -0.0704
 5342SOL    HW227486   2.733   3.768   8.334  1.6655 -0.5300  0.5600
 5343SOL     OW27487   1.861   1.253   3.436 -0.8636  0.5689 -0.1348
 5343SOL    HW127488   1.923   1.310   3.480  1.4000 -0.7241 -1.6593
 5343SOL    HW227489   1.839   1.296   3.353  0.5399  1.5628  0.0188
 5344SOL     OW27490   3.765   3.035   7.131  0.3516  0.1847 -0.2176
 5344SOL    HW127491   3.805   2.949   7.126 -1.4769 -0.8595  2.7959
 5344SOL    HW227492   3.834   3.090   7.094 -2.8960  4.1613 -0.4132
 5345SOL     OW27493   0.598   2.206  10.118  0.4320  0.2720 -0.6392
 5345SOL    HW127494   0.529   2.216  10.052 -0.4080 -2.2673 -0.1644
 5345SOL    HW227495   0.562   2.264  10.185 -0.4952 -1.1856  0.1128
 5346SOL     OW27496   0.087   3.450   5.436 -0.1410 -0.1845  0.2754
 5346SOL    HW127497   0.141   3.528   5.426 -1.7856  1.1528  1.9137
 5346SOL    HW227498   0.149   3.397   5.487  0.0574  0.6543  0.9021
 5347SOL     OW27499   3.073   1.352  10.693 -0.4259 -0.0120 -0.2037
 5347SOL    HW127500   3.001   1.354  10.630 -0.4648  2.4104 -0.0877
 5347SOL    HW227501   3.133   1.295  10.645  0.9158  0.1000  1.3512
 5348SOL     OW27502   1.217   2.715   0.877 -0.4611  0.7203 -0.0443
 5348SOL    HW127503   1.204   2.789   0.818  0.6700 -0.8702 -2.2611
 5348SOL    HW227504   1.299   2.733   0.923 -0.3538 -3.5972  1.3998
 5349SOL     OW27505   1.422   0.360   5.390  0.6388 -0.4059  0.3889
 5349SOL    HW127506   1.443   0.319   5.474 -0.6655 -0.5571  0.6416
 5349SOL    HW227507   1.487   0.430   5.387  0.5613 -0.3579 -0.0908
 5350SOL     OW27508   1.563   1.869   3.274 -0.0322 -0.5355  0.1318
 5350SOL    HW127509   1.585   1.925   3.200  0.6763 -0.3289  0.4975
 5350SOL    HW227510   1.468   1.869   3.273 -0.0280 -1.1779 -0.2563
 5351SOL     OW27511   3.279   3.190   2.978  0.7139 -0.2104 -0.4549
 5351SOL    HW127512   3.297   3.249   2.905 -1.4616  0.9837 -0.0360
 5351SOL    HW227513   3.357   3.207   3.031 -0.1152  1.0681  0.3640
 5352SOL     OW27514   1.490   0.968   1.285 -0.3671 -0.2813  0.5557
 5352SOL    HW127515   1.444   1.051   1.304  1.1302  0.6469  0.1150
 5352SOL    HW227516   1.418   0.907   1.269 -1.6495  1.3825 -0.1119
 5353SOL     OW27517   2.627   3.346   5.655 -0.8511  0.1655  0.6298
 5353SOL    HW127518   2.652   3.372   5.566  0.6146  2.0574  1.6186
 5353SOL    HW227519   2.708   3.313   5.695 -0.3826  0.6677  0.0833
 5354SOL     OW27520   4.502   3.846   6.135 -0.1657  0.4624 -0.1372
 5354SOL    HW127521   4.486   3.872   6.044 -0.2788 -2.8823 -1.0684
 5354SOL    HW227522   4.415   3.815   6.162  0.2830 -1.3001 -0.7177
 5355SOL     OW27523   1.881   0.454   5.528  0.3180  0.2947  0.7051
 5355SOL    HW127524   1.971   0.419   5.531 -0.0456 -0.4638  2.7547
 5355SOL    HW227525   1.837   0.372   5.506  1.3618  0.4030 -1.8554
 5356SOL     OW27526   4.441   0.362   3.371 -0.6124  0.7017  0.5816
 5356SOL    HW127527   4.365   0.373   3.429 -1.1839 -3.5165  0.6143
 5356SOL    HW227528   4.493   0.440   3.393  1.7885 -0.8743  0.5048
 5357SOL     OW27529   0.986   3.801   4.998 -0.0971  0.6072  0.3739
 5357SOL    HW127530   1.007   3.752   4.918  1.6015 -1.2186  1.9389
 5357SOL    HW227531   0.944   3.882   4.969 -2.2871 -0.4969  0.5038
 5358SOL     OW27532   4.506   2.005   0.388 -0.6909  0.3824  0.5458
 5358SOL    HW127533   4.458   2.036   0.465 -2.9151  0.8218 -1.0309
 5358SOL    HW227534   4.585   1.963   0.424  1.1327  1.9182 -1.6892
 5359SOL     OW27535   2.411   0.988   8.198 -0.1553  0.1436  0.6573
 5359SOL    HW127536   2.433   1.075   8.229 -2.0502  0.5944  0.7041
 5359SOL    HW227537   2.429   0.974   8.105 -3.3093  0.7623 -0.0455
 5360SOL     OW27538   3.115   2.691   9.595  0.6044  0.0797 -0.2389
 5360SOL    HW127539   3.039   2.633   9.583 -0.2288  0.7515  1.6966
 5360SOL    HW227540   3.077   2.773   9.563  2.1404 -0.0723 -2.4515
 5361SOL     OW27541   4.109   1.733   6.728 -0.1899  0.1443 -0.1583
 5361SOL    HW127542   4.108   1.645   6.765 -0.6672 -0.5273 -1.8031
 5361SOL    HW227543   4.070   1.780   6.802  1.2741 -3.2078  2.7530
 5362SOL     OW27544   2.141   4.701   6.782 -0.2561  0.5913  0.4171
 5362SOL    HW127545   2.138   0.035   6.705 -0.1542 -0.7687 -0.5588
 5362SOL    HW227546   2.076   4.632   6.767  0.7021 -0.0962 -0.5697
 5363SOL     OW27547   1.763   3.192   6.124  0.1785 -0.7989  0.1191
 5363SOL    HW127548   1.845   3.142   6.120 -0.0450 -1.0679 -1.0791
 5363SOL    HW227549   1.755   3.231   6.037 -0.1863  0.3250  0.6610
 5364SOL     OW27550   1.765   2.936   5.029  0.5035 -0.3073  0.3878
 5364SOL    HW127551   1.772   2.932   5.124  0.8358 -0.3448  0.3614
 5364SOL    HW227552   1.794   3.020   4.992  0.3880 -0.3279  0.2478
 5365SOL     OW27553   1.497   0.605   4.225  0.1584  0.2415  0.4778
 5365SOL    HW127554   1.470   0.523   4.268  0.4236 -0.4303 -0.6420
 5365SOL    HW227555   1.519   0.580   4.135 -2.3587 -2.0778  0.5240
 5366SOL     OW27556   2.907   2.280   3.377 -0.3805  0.2274  0.5901
 5366SOL    HW127557   2.890   2.285   3.282  0.0691 -0.0888  0.4908
 5366SOL    HW227558   2.993   2.318   3.365 -0.1006 -0.2799  1.0000
 5367SOL     OW27559   1.523   3.098  13.187  0.6392  0.2434  0.0293
 5367SOL    HW127560   1.550   3.092  13.096  2.0088  0.2009  0.4403
 5367SOL    HW227561   1.430   3.079  13.178  0.6258  1.1605 -1.8825
 5368SOL     OW27562   2.869   0.399   7.000 -0.0107  0.0088 -0.2848
 5368SOL    HW127563   2.849   0.377   6.909 -2.6549  1.8737 -0.1625
 5368SOL    HW227564   2.945   0.342   7.012 -1.9766 -2.4609  0.4773
 5369SOL     OW27565   3.110   1.226   2.792  0.2723  0.1364  0.2847
 5369SOL    HW127566   3.163   1.290   2.744 -0.8155  0.8863  0.0927
 5369SOL    HW227567   3.024   1.264   2.772  0.7890  2.5826  2.7230
 5370SOL     OW27568   2.090   1.174   4.182  0.4664  0.6542 -0.2834
 5370SOL    HW127569   2.087   1.107   4.114 -0.0957  2.2082 -1.7888
 5370SOL    HW227570   2.129   1.247   4.133  0.5729  2.2001  2.0639
 5371SOL     OW27571   0.517   1.636  17.407 -0.6098  0.0166 -0.4026
 5371SOL    HW127572   0.470   1.678  17.335  2.0243  0.9196 -1.5674
 5371SOL    HW227573   0.437   1.595  17.441 -0.6020 -1.6860 -2.4545
 5372SOL     OW27574   3.631   1.727   8.709  0.2685  0.0748 -0.1789
 5372SOL    HW127575   3.692   1.756   8.642  1.0087 -0.5258  0.2454
 5372SOL    HW227576   3.577   1.799   8.742  3.4241  0.9355  3.0753
 5373SOL     OW27577   2.193   2.440  16.730  0.4251  0.3549  0.1355
 5373SOL    HW127578   2.124   2.376  16.749 -0.0603  0.9469  0.3466
 5373SOL    HW227579   2.210   2.478  16.816  1.9296 -0.0123  0.0016
 5374SOL     OW27580   3.650   0.076   5.791  0.2596 -0.0936 -0.0865
 5374SOL    HW127581   3.598   0.008   5.748  2.2446 -0.5377 -1.7522
 5374SOL    HW227582   3.710   0.112   5.725 -1.1714  3.1655  0.3872
 5375SOL     OW27583   3.821   4.012   4.457 -0.0523  0.2895  0.3710
 5375SOL    HW127584   3.898   4.035   4.405 -1.4307  0.9031 -1.3854
 5375SOL    HW227585   3.845   3.934   4.508  0.0889 -0.8692 -1.4632
 5376SOL     OW27586   0.334   2.747   8.268  0.1538  0.0423  0.9640
 5376SOL    HW127587   0.247   2.708   8.277 -0.5626  1.7148  1.3249
 5376SOL    HW227588   0.352   2.724   8.177 -1.9840  0.1172  0.5174
 5377SOL     OW27589   2.844   3.607   6.682 -0.0098  0.5121 -0.2041
 5377SOL    HW127590   2.810   3.521   6.656  1.0009 -0.1889  0.8020
 5377SOL    HW227591   2.788   3.635   6.754  0.8855 -0.3677  0.8166
 5378SOL     OW27592   0.750   4.050   1.253 -0.1803  0.3087  0.6965
 5378SOL    HW127593   0.656   4.058   1.239  0.0081  0.1610 -0.6954
 5378SOL    HW227594   0.761   3.960   1.220 -2.5227  0.2302  0.1480
 5379SOL     OW27595   0.060   0.753   7.086  0.4510  0.2221 -0.1130
 5379SOL    HW127596   0.117   0.761   7.163  1.0504  0.4864 -0.5812
 5379SOL    HW227597   0.018   0.671   7.109  1.6006 -0.5486 -0.7940
 5380SOL     OW27598   4.400   0.898   8.439  0.2750 -0.0278 -0.1736
 5380SOL    HW127599   4.339   0.838   8.483 -1.2573  2.1923  0.7533
 5380SOL    HW227600   4.368   0.909   8.350  1.7629 -1.5855 -0.8934
 5381SOL     OW27601   0.256   1.153   2.448 -0.5042 -0.3836 -0.2122
 5381SOL    HW127602   0.249   1.224   2.385 -1.1394 -0.3125 -0.0654
 5381SOL    HW227603   0.262   1.074   2.395  1.0224 -0.4805  0.0988
 5382SOL     OW27604   1.795   3.516   8.379 -0.1808  0.0770  0.8598
 5382SOL    HW127605   1.846   3.523   8.460 -0.9210  0.0877  1.3263
 5382SOL    HW227606   1.863   3.520   8.312 -3.6942  0.9603 -2.6282
 5383SOL     OW27607   4.072   3.097  12.743 -0.4428  0.2575  0.3257
 5383SOL    HW127608   4.017   3.065  12.672 -0.7283  0.6852  0.3594
 5383SOL    HW227609   4.159   3.072  12.711 -0.6788 -1.6476  1.1698
 5384SOL     OW27610   2.628   1.162   7.292  0.2157  0.0509 -0.0137
 5384SOL    HW127611   2.664   1.099   7.354 -0.3172  2.4048  2.6682
 5384SOL    HW227612   2.628   1.245   7.340 -1.6069  0.9034 -1.4700
 5385SOL     OW27613   3.155   1.559   4.357  0.5946 -0.2782 -0.5039
 5385SOL    HW127614   3.127   1.535   4.268 -1.7351 -1.1518  0.4697
 5385SOL    HW227615   3.106   1.641   4.361  0.4761 -0.4020  0.5873
 5386SOL     OW27616   0.784   2.738   1.794  0.2604  0.2852  0.0645
 5386SOL    HW127617   0.771   2.643   1.789 -0.4945  0.4340 -0.7951
 5386SOL    HW227618   0.700   2.774   1.821  0.8787 -0.1078  2.5470
 5387SOL     OW27619   2.509   3.238   6.300 -0.0873 -0.1037  0.6055
 5387SOL    HW127620   2.587   3.208   6.253 -1.1089 -1.1319 -0.4253
 5387SOL    HW227621   2.446   3.201   6.238  1.0779  1.6820 -1.6631
 5388SOL     OW27622   3.358   3.485  13.425  0.0230  0.7722  0.4693
 5388SOL    HW127623   3.333   3.569  13.385  0.5434  0.0090 -1.4293
 5388SOL    HW227624   3.331   3.507  13.514 -2.6903  0.3139 -0.2219
 5389SOL     OW27625   1.512   3.536  15.297 -0.7040  0.5758 -0.1451
 5389SOL    HW127626   1.507   3.544  15.393 -0.0349  0.3621 -0.0931
 5389SOL    HW227627   1.606   3.548  15.292 -0.6021 -0.0171  0.3326
 5390SOL     OW27628   2.348   0.461   2.415  0.4334 -0.7752  0.5499
 5390SOL    HW127629   2.350   0.514   2.495 -1.7218 -1.1302  0.8428
 5390SOL    HW227630   2.276   0.398   2.422  0.5721 -1.4648 -3.8643
 5391SOL     OW27631   1.904   2.376   7.828  0.0408  0.1276  0.8380
 5391SOL    HW127632   1.890   2.372   7.922  0.4473  2.8950  1.0230
 5391SOL    HW227633   1.825   2.428   7.812 -0.7268 -1.7212 -1.4934
 5392SOL     OW27634   2.335   4.044   5.225  0.0733 -0.4237  0.0922
 5392SOL    HW127635   2.314   4.070   5.315  0.1247 -0.5354  0.1366
 5392SOL    HW227636   2.363   4.130   5.193  0.5150 -1.1950 -1.5824
 5393SOL     OW27637   1.829   2.165   4.477  0.1172 -0.2602 -0.8998
 5393SOL    HW127638   1.915   2.132   4.504  0.7768  1.1154 -1.2762
 5393SOL    HW227639   1.840   2.158   4.382  1.1173 -1.8529 -0.6722
 5394SOL     OW27640   0.729   3.123   1.789  0.2320  0.3691  0.1888
 5394SOL    HW127641   0.728   3.212   1.825 -0.4238  0.0404  0.9964
 5394SOL    HW227642   0.762   3.152   1.704 -0.6639 -0.3297 -0.3988
 5395SOL     OW27643   2.486   1.738  10.387  0.2058  0.5485 -0.2443
 5395SOL    HW127644   2.441   1.763  10.468 -0.5412 -0.6237 -0.2905
 5395SOL    HW227645   2.478   1.643  10.375 -0.7208  0.9668 -2.9344
 5396SOL     OW27646   0.596   4.527   4.356 -0.0748 -0.0945  0.6671
 5396SOL    HW127647   0.631   4.613   4.378  0.8168  0.2685 -2.1645
 5396SOL    HW227648   0.531   4.519   4.426 -0.3179 -1.1404  0.3254
 5397SOL     OW27649   0.913   3.661   2.825  0.1003 -0.3426  0.8190
 5397SOL    HW127650   0.882   3.736   2.774 -2.2046 -2.4068 -0.7943
 5397SOL    HW227651   0.834   3.607   2.818 -1.2195  1.7130 -0.1777
 5398SOL     OW27652   3.372   2.116   2.265  0.4811 -0.5406  0.6029
 5398SOL    HW127653   3.311   2.097   2.336 -0.4278  0.3971  0.0716
 5398SOL    HW227654   3.439   2.050   2.284 -0.1980 -1.8705 -1.5818
 5399SOL     OW27655   4.698   4.493   1.053 -0.7685  0.4019 -0.0197
 5399SOL    HW127656   4.647   4.413   1.066  1.1379 -1.1847 -2.4344
 5399SOL    HW227657   4.688   4.509   0.959 -0.9834  0.5030  0.0205
 5400SOL     OW27658   0.626   1.219   6.785 -0.0898 -0.1070 -0.1791
 5400SOL    HW127659   0.635   1.310   6.757 -0.2525 -0.4721 -1.4176
 5400SOL    HW227660   0.534   1.221   6.811  0.1866  0.4560  0.7429
 5401SOL     OW27661   3.773   1.080  17.213 -0.4683 -0.5373 -0.4716
 5401SOL    HW127662   3.817   1.124  17.140 -1.6234 -0.9529 -1.4069
 5401SOL    HW227663   3.740   1.153  17.265 -0.7784 -2.1769  1.6508
 5402SOL     OW27664   1.373   1.639   6.792  0.2581  0.1755 -0.0378
 5402SOL    HW127665   1.302   1.700   6.768 -0.0539 -0.9682 -2.0103
 5402SOL    HW227666   1.447   1.663   6.737 -1.4088  1.4134 -1.7482
 5403SOL     OW27667   4.607   1.636  16.472  0.1581  0.1863 -0.4071
 5403SOL    HW127668   4.554   1.604  16.545  2.3693  1.4460  1.7340
 5403SOL    HW227669   4.578   1.579  16.401  0.9539  0.2793 -0.8031
 5404SOL     OW27670   0.186   3.976  16.171  0.0017  0.7479 -0.2798
 5404SOL    HW127671   0.175   3.916  16.097 -0.1618 -1.6374  1.7174
 5404SOL    HW227672   0.093   3.982  16.195  0.2173  0.9156  0.5126
 5405SOL     OW27673   3.970   4.231  12.359  0.2175  0.0308  0.3923
 5405SOL    HW127674   4.005   4.311  12.321  0.9783 -0.2540  0.5073
 5405SOL    HW227675   3.964   4.164  12.291  2.2289 -0.1973  0.4367
 5406SOL     OW27676   1.021   2.680  15.787 -0.0653  0.4859  0.1962
 5406SOL    HW127677   0.932   2.647  15.771  0.1792 -0.3903  0.6377
 5406SOL    HW227678   1.019   2.753  15.726 -1.5286 -0.0210 -0.3520
 5407SOL     OW27679   0.316   2.246   6.042  0.0303 -0.0966  0.3266
 5407SOL    HW127680   0.268   2.191   5.979  0.0868 -0.3394  0.4992
 5407SOL    HW227681   0.285   2.214   6.126  3.1943  0.3154  1.6347
 5408SOL     OW27682   1.156   3.897  12.904  0.2128 -0.6626  0.2657
 5408SOL    HW127683   1.203   3.941  12.834  2.2329  0.4370  2.3207
 5408SOL    HW227684   1.161   3.948  12.985 -0.1285  1.3016 -0.9526
 5409SOL     OW27685   1.965   0.638   0.675 -0.0830  0.4207 -0.2579
 5409SOL    HW127686   1.982   0.669   0.764 -0.6253 -0.7599  0.2515
 5409SOL    HW227687   1.871   0.642   0.662  0.0594 -0.4791 -1.5124
 5410SOL     OW27688   3.531   1.104   3.298 -0.2318 -0.5052  0.0822
 5410SOL    HW127689   3.440   1.118   3.325  0.2488 -0.8009  1.7978
 5410SOL    HW227690   3.566   1.193   3.302 -0.8965 -0.2227 -0.4529
 5411SOL     OW27691   1.882   2.533  15.514 -1.0008 -0.0362 -0.4183
 5411SOL    HW127692   1.813   2.537  15.448 -2.5006 -0.7938  1.1502
 5411SOL    HW227693   1.848   2.473  15.580 -0.2637 -1.4776 -1.3370
 5412SOL     OW27694   2.147   2.636   5.954 -0.6007  0.3269 -0.1898
 5412SOL    HW127695   2.073   2.578   5.970 -0.4220  0.0755 -0.2771
 5412SOL    HW227696   2.156   2.687   6.035 -0.1876  2.2121 -1.4152
 5413SOL     OW27697   1.290   2.443   8.414 -0.1463 -0.5877 -0.1582
 5413SOL    HW127698   1.236   2.434   8.492  0.9303  0.2102  0.6840
 5413SOL    HW227699   1.238   2.384   8.359 -2.2955  1.3316 -0.2099
 5414SOL     OW27700   1.582   4.115   6.459  0.0437 -0.2785  0.4500
 5414SOL    HW127701   1.488   4.119   6.478 -0.0150  3.1955 -0.4269
 5414SOL    HW227702   1.580   4.061   6.380  0.4849 -0.0533  0.2849
 5415SOL     OW27703   1.744   2.471   9.021 -0.1520  0.5087 -0.4717
 5415SOL    HW127704   1.737   2.466   8.926 -0.2451  0.2557 -0.4509
 5415SOL    HW227705   1.705   2.387   9.044  0.0737  0.9070  1.3649
 5416SOL     OW27706   4.203   3.955   7.468  0.2856 -0.1458 -0.4453
 5416SOL    HW127707   4.222   3.880   7.411  3.3140  2.1645 -2.5279
 5416SOL    HW227708   4.173   4.018   7.401 -0.3366  0.6993  0.6309
 5417SOL     OW27709   4.223   2.777   8.870 -0.2220 -0.2044  0.2802
 5417SOL    HW127710   4.228   2.872   8.883  2.3772 -0.4639  1.0254
 5417SOL    HW227711   4.265   2.750   8.951  1.6588  2.4607  0.1974
 5418SOL     OW27712   2.755   1.709   1.992 -0.3689 -0.1638 -0.0980
 5418SOL    HW127713   2.677   1.743   1.949 -0.9072 -3.3978 -1.6431
 5418SOL    HW227714   2.817   1.740   1.926  2.7564 -3.2826  1.3769
 5419SOL     OW27715   1.652   2.835   7.482  0.1087 -0.1339  0.4421
 5419SOL    HW127716   1.573   2.862   7.530 -1.3851 -0.6896 -1.6761
 5419SOL    HW227717   1.624   2.772   7.415  2.4058 -0.5005 -0.1605
 5420SOL     OW27718   2.404   1.829   9.631  0.2628  0.6986  0.6518
 5420SOL    HW127719   2.488   1.848   9.590 -0.0754  1.8216  0.4543
 5420SOL    HW227720   2.349   1.808   9.555  1.6342  1.3575 -0.5355
 5421SOL     OW27721   1.502   4.390  11.635 -0.0498 -0.3641  0.0899
 5421SOL    HW127722   1.462   4.422  11.554 -0.7000 -1.5894 -0.0754
 5421SOL    HW227723   1.516   4.297  11.616  0.7709 -0.3429  0.5857
 5422SOL     OW27724   1.834   1.804   5.120 -0.2315 -0.0659  0.2125
 5422SOL    HW127725   1.786   1.831   5.042 -0.9230 -2.1761 -0.0952
 5422SOL    HW227726   1.779   1.735   5.156 -0.0119  0.2379  1.1381
 5423SOL     OW27727   3.361   3.709   1.774  0.0713  0.3197 -0.0513
 5423SOL    HW127728   3.337   3.638   1.715  0.6025 -0.0103  0.1316
 5423SOL    HW227729   3.376   3.781   1.713 -0.7293  0.8519  0.3856
 5424SOL     OW27730   2.020   3.960   7.977  0.3621 -0.4333  0.4802
 5424SOL    HW127731   2.017   3.923   8.065 -1.5541 -1.8021 -0.1630
 5424SOL    HW227732   1.933   3.997   7.957  1.0540  1.6239  1.2132
 5425SOL     OW27733   3.409   3.932   8.720 -0.0646  0.4231  0.6476
 5425SOL    HW127734   3.402   4.003   8.784 -2.0966  0.3890  0.4538
 5425SOL    HW227735   3.320   3.939   8.686  0.1383  1.0534  0.2448
 5426SOL     OW27736   3.797   1.973   4.771 -0.8149  0.0626 -0.0010
 5426SOL    HW127737   3.866   1.927   4.722 -1.4312 -1.7502  0.8128
 5426SOL    HW227738   3.792   1.911   4.844 -0.0194 -0.6132 -0.5124
 5427SOL     OW27739   0.722   3.382   5.675  0.3038  0.6870 -0.2865
 5427SOL    HW127740   0.792   3.368   5.611 -0.7940 -2.0271 -0.8836
 5427SOL    HW227741   0.764   3.410   5.756  0.8614 -0.1338 -0.2972
 5428SOL     OW27742   3.052   3.201  12.563  0.2203 -0.1184  0.5696
 5428SOL    HW127743   2.972   3.161  12.528  1.2633 -0.4559 -1.4746
 5428SOL    HW227744   3.042   3.186  12.657  1.8576 -1.1248  0.5794
 5429SOL     OW27745   2.569   1.275   4.047 -0.3541 -0.3452 -0.4030
 5429SOL    HW127746   2.493   1.289   3.990 -0.4886 -2.5023 -0.7546
 5429SOL    HW227747   2.610   1.361   4.037  1.7915 -0.7623  4.5789
 5430SOL     OW27748   0.326   4.353  16.879  0.1159  0.3359 -0.0890
 5430SOL    HW127749   0.283   4.270  16.903 -1.6892  1.7103  1.5192
 5430SOL    HW227750   0.342   4.390  16.966 -0.6158 -1.6085  0.8891
 5431SOL     OW27751   1.323   4.147   6.578 -0.0720  0.3533  0.3768
 5431SOL    HW127752   1.260   4.078   6.559 -1.8306  1.8846  0.6641
 5431SOL    HW227753   1.286   4.223   6.533  0.9701  1.1185  0.8227
 5432SOL     OW27754   3.465   4.591   2.926 -0.4429  0.1433 -0.1217
 5432SOL    HW127755   3.499   4.667   2.881  1.2132 -1.4959 -1.6433
 5432SOL    HW227756   3.386   4.574   2.874 -0.6171  1.2562 -0.2107
 5433SOL     OW27757   2.266   3.611   6.090  0.5199 -0.8951  0.3403
 5433SOL    HW127758   2.230   3.645   6.173  2.9170  3.5794 -0.4409
 5433SOL    HW227759   2.205   3.538   6.079 -0.0782 -0.2598 -0.6007
 5434SOL     OW27760   1.828   2.896   2.504 -0.2778 -0.5095 -0.9031
 5434SOL    HW127761   1.923   2.893   2.491 -0.1713 -1.1677  0.0294
 5434SOL    HW227762   1.804   2.832   2.437 -2.8098  0.1220 -0.5670
 5435SOL     OW27763   4.583   4.620  12.817 -0.5576 -0.3343 -0.5875
 5435SOL    HW127764   4.569   4.527  12.798  3.1158 -1.1552  0.7125
 5435SOL    HW227765   4.501   4.633  12.864 -0.1891 -2.4419  0.6380
 5436SOL     OW27766   1.335   0.484   7.458  0.0661  0.5593  0.1959
 5436SOL    HW127767   1.347   0.560   7.516 -0.9823 -0.7727  2.1670
 5436SOL    HW227768   1.317   0.539   7.382 -0.8015 -1.2694 -0.9279
 5437SOL     OW27769   0.327   2.622   3.702  0.1138  0.5246  0.0738
 5437SOL    HW127770   0.280   2.705   3.702 -1.7763 -0.5565 -3.6324
 5437SOL    HW227771   0.306   2.589   3.615 -0.3983 -0.4381  0.5708
 5438SOL     OW27772   2.604   3.180   8.982 -0.3461  0.6129  0.3065
 5438SOL    HW127773   2.681   3.236   8.994  0.0437  0.3378 -0.9484
 5438SOL    HW227774   2.547   3.229   9.042 -1.4679 -0.4750  0.1213
 5439SOL     OW27775   3.964   1.226   0.603  0.6619 -0.2002 -0.0883
 5439SOL    HW127776   3.986   1.255   0.514  0.0325 -0.6380 -0.3857
 5439SOL    HW227777   4.034   1.263   0.657  0.0046 -0.8323  1.1857
 5440SOL     OW27778   2.885   3.199   8.290 -0.0297  0.1185  0.0482
 5440SOL    HW127779   2.886   3.175   8.383 -0.6855 -0.1750 -0.0186
 5440SOL    HW227780   2.974   3.229   8.271 -0.0626  0.6219  0.6711
 5441SOL     OW27781   2.207   2.562   5.672 -0.2970 -0.0740  0.0673
 5441SOL    HW127782   2.218   2.611   5.754 -0.4384 -0.2256  0.1771
 5441SOL    HW227783   2.145   2.493   5.695 -1.6109  0.9396 -0.4700
 5442SOL     OW27784   1.034   0.708   2.601  0.2694 -0.8017 -0.4971
 5442SOL    HW127785   0.976   0.635   2.622 -2.7988  1.6369 -0.5047
 5442SOL    HW227786   0.992   0.736   2.520  3.7053 -0.8847 -2.2934
 5443SOL     OW27787   2.221   0.509  17.387  0.6209 -0.0466 -0.6203
 5443SOL    HW127788   2.312   0.485  17.403  0.1078 -2.0286 -0.6510
 5443SOL    HW227789   2.229   0.538  17.296 -1.2740 -1.7194 -1.3154
 5444SOL     OW27790   2.013   1.752   2.128  0.1862  0.0046 -0.1479
 5444SOL    HW127791   1.994   1.687   2.196 -1.5340 -1.6116 -2.1450
 5444SOL    HW227792   1.953   1.823   2.151  0.3794  0.1007  0.0464
 5445SOL     OW27793   2.739   0.306   4.355 -0.0577 -0.1422  0.4218
 5445SOL    HW127794   2.806   0.253   4.312 -1.0594  0.1448 -1.4710
 5445SOL    HW227795   2.680   0.306   4.280  1.2731 -1.8001 -0.6105
 5446SOL     OW27796   4.697   0.329   6.384 -0.0223  0.1348 -0.3339
 5446SOL    HW127797   4.633   0.282   6.437  1.3585 -2.7289 -1.2532
 5446SOL    HW227798   0.061   0.310   6.424  0.9098 -0.8422 -2.7728
 5447SOL     OW27799   1.719   1.144  11.366 -0.6952 -0.0326 -0.5098
 5447SOL    HW127800   1.788   1.079  11.377 -0.2962  0.0453 -2.4830
 5447SOL    HW227801   1.723   1.163  11.272  2.3482 -3.9811 -1.1774
 5448SOL     OW27802   3.618   0.308  11.416 -0.1164  0.8875  0.3726
 5448SOL    HW127803   3.624   0.277  11.506  2.5599  0.4605  0.0272
 5448SOL    HW227804   3.545   0.369  11.419 -1.9072 -1.2448  0.3709
 5449SOL     OW27805   0.148   2.498   1.162 -0.2220  0.2977  0.2039
 5449SOL    HW127806   0.173   2.407   1.172 -0.7662  0.1442  0.1862
 5449SOL    HW227807   0.105   2.520   1.245 -0.4428 -1.2494  0.4915
 5450SOL     OW27808   0.823   0.976   4.666  0.7532 -0.3761 -0.3843
 5450SOL    HW127809   0.913   0.994   4.640  0.4852 -0.4916 -1.4079
 5450SOL    HW227810   0.797   0.909   4.603  3.1874 -2.5276  0.8561
 5451SOL     OW27811   0.497   3.379   0.321  0.3196 -0.4377  0.5920
 5451SOL    HW127812   0.442   3.415   0.251  1.6620 -3.6788 -2.1590
 5451SOL    HW227813   0.584   3.414   0.303  0.1130  0.3250  1.0853
 5452SOL     OW27814   2.207   3.488   8.701  0.2525  0.0012  0.1245
 5452SOL    HW127815   2.196   3.570   8.653  0.9660 -1.3727 -2.3697
 5452SOL    HW227816   2.299   3.494   8.724 -0.0357 -1.2897  1.6324
 5453SOL     OW27817   2.423   2.904  12.801 -0.5544 -0.1665 -0.1989
 5453SOL    HW127818   2.332   2.932  12.789 -0.4287  0.3252  0.0112
 5453SOL    HW227819   2.461   2.961  12.867  0.5467 -0.6846 -0.3856
 5454SOL     OW27820   4.151   4.393  13.781 -0.1684 -0.1851 -0.9408
 5454SOL    HW127821   4.165   4.479  13.820 -0.6318  0.3863 -2.0253
 5454SOL    HW227822   4.222   4.392  13.717  2.5546  0.3269  2.1016
 5455SOL     OW27823   0.078   4.566  16.800  0.0793  0.5961  0.1135
 5455SOL    HW127824   0.131   4.494  16.765 -1.4800 -1.0914  1.1729
 5455SOL    HW227825   0.118   4.579  16.886 -1.6207 -0.4357  1.0827
 5456SOL     OW27826   3.133   0.851   5.185  0.0672  0.2814 -0.0432
 5456SOL    HW127827   3.088   0.907   5.121 -3.7931 -1.4165  1.2368
 5456SOL    HW227828   3.221   0.890   5.189  0.9502 -1.0959 -4.9666
 5457SOL     OW27829   4.232   2.626   8.636 -0.4905  0.1068  0.3560
 5457SOL    HW127830   4.242   2.692   8.706 -2.8903 -0.8915  1.6338
 5457SOL    HW227831   4.264   2.548   8.682 -2.6883 -0.9520  0.0913
 5458SOL     OW27832   3.525   2.778  16.357  0.0381 -0.2233  0.3550
 5458SOL    HW127833   3.580   2.837  16.409  0.1020  0.4459 -0.4506
 5458SOL    HW227834   3.469   2.742  16.425  2.3570 -2.2420  1.2090
 5459SOL     OW27835   0.440   3.106   7.800  0.1915  0.1072 -0.2018
 5459SOL    HW127836   0.416   3.196   7.780  0.3486 -0.0966 -1.3434
 5459SOL    HW227837   0.423   3.115   7.893 -2.4945  2.0401 -0.8826
 5460SOL     OW27838   4.403   1.978   0.884 -0.1616 -0.1809  0.3430
 5460SOL    HW127839   4.455   2.048   0.922 -2.0415  1.9979 -1.1235
 5460SOL    HW227840   4.328   1.979   0.943 -0.7095 -1.1741 -0.3404
 5461SOL     OW27841   1.854   0.179   8.667 -0.0745  0.3351  0.1750
 5461SOL    HW127842   1.796   0.123   8.718  0.4371 -0.0282  0.3505
 5461SOL    HW227843   1.939   0.137   8.682 -0.4665 -0.6284 -0.3293
 5462SOL     OW27844   4.151   4.066   8.907  0.0755  0.4122  0.0165
 5462SOL    HW127845   4.087   4.131   8.877  0.5488  1.4761  1.2842
 5462SOL    HW227846   4.087   3.996   8.907  1.4250 -0.8077 -1.2766
 5463SOL     OW27847   0.096   1.415   2.832 -0.4269 -0.1021 -0.0899
 5463SOL    HW127848   0.046   1.361   2.772 -3.0979  0.2658  1.8344
 5463SOL    HW227849   0.154   1.352   2.875  2.0588  0.5501 -2.4967
 5464SOL     OW27850   1.108   1.074   0.728  0.4155 -0.8582 -0.0443
 5464SOL    HW127851   1.055   1.093   0.806 -0.8700  0.6089 -1.2874
 5464SOL    HW227852   1.158   1.154   0.741 -1.7720  0.1385  2.2911
 5465SOL     OW27853   4.515   1.417  16.303 -0.5032 -0.4392  0.1609
 5465SOL    HW127854   4.583   1.357  16.334  0.4034 -0.0668 -1.0884
 5465SOL    HW227855   4.442   1.366  16.337 -1.2145  0.2770 -0.2857
 5466SOL     OW27856   2.766   0.302   8.463 -0.5315  0.6736 -0.0135
 5466SOL    HW127857   2.860   0.284   8.459 -0.9914 -1.6666 -0.1195
 5466SOL    HW227858   2.724   0.235   8.409  0.4653 -0.5473  0.7286
 5467SOL     OW27859   0.224   2.087   0.924  0.6844  0.3991 -0.2329
 5467SOL    HW127860   0.166   2.161   0.909  1.9491  1.5672  0.5697
 5467SOL    HW227861   0.253   2.080   0.833  0.9938 -0.1783 -0.0911
 5468SOL     OW27862   2.875   0.104   0.596 -0.0254  0.1414  0.1194
 5468SOL    HW127863   2.941   0.090   0.529  0.2529 -0.9517  0.6181
 5468SOL    HW227864   2.917   0.065   0.673  0.2737  0.0970 -0.0662
 5469SOL     OW27865   4.374   3.920   4.482 -0.5119 -0.2081  0.5276
 5469SOL    HW127866   4.456   3.886   4.448 -0.8888 -1.3203  0.7370
 5469SOL    HW227867   4.393   4.012   4.463 -1.5345 -0.1425 -0.1888
 5470SOL     OW27868   2.741   4.470   8.553 -0.0121  0.0954  0.2478
 5470SOL    HW127869   2.666   4.527   8.536  0.3722  0.2659 -0.9233
 5470SOL    HW227870   2.729   4.464   8.648  2.7081  2.0214  0.6862
 5471SOL     OW27871   3.235   3.306   1.120  1.0080 -0.0407 -0.6767
 5471SOL    HW127872   3.256   3.355   1.040 -0.9090  1.5461 -0.2062
 5471SOL    HW227873   3.322   3.279   1.148 -0.0994 -0.4809  2.2776
 5472SOL     OW27874   0.635   3.322   4.816  0.1509 -1.0468 -0.2325
 5472SOL    HW127875   0.574   3.353   4.883  0.6772 -0.8044  0.1316
 5472SOL    HW227876   0.712   3.291   4.862  0.0076 -3.9442 -1.9244
 5473SOL     OW27877   1.124   2.290   6.945 -0.6710 -0.1859 -0.3940
 5473SOL    HW127878   1.054   2.287   7.011  0.7789 -1.1771  1.1174
 5473SOL    HW227879   1.066   2.278   6.870 -2.0482 -1.5676  0.8755
 5474SOL     OW27880   2.253   1.560   3.044  0.5538  0.1291  0.2070
 5474SOL    HW127881   2.334   1.521   3.075  0.8482 -0.5039 -1.3633
 5474SOL    HW227882   2.296   1.629   2.995 -2.0851  1.0423 -0.8390
 5475SOL     OW27883   3.256   0.696   6.686 -0.6727 -0.6247 -0.1605
 5475SOL    HW127884   3.259   0.600   6.687  2.5292 -0.5303  0.6311
 5475SOL    HW227885   3.286   0.716   6.597  0.6524 -0.1497  0.3949
 5476SOL     OW27886   0.571   2.167   6.289 -0.1778 -0.2592 -0.0321
 5476SOL    HW127887   0.625   2.102   6.335  1.9591  0.8695 -0.9474
 5476SOL    HW227888   0.569   2.133   6.200  1.4046 -0.7971  0.1380
 5477SOL     OW27889   3.611   3.558   7.180 -0.1726 -0.0533  0.0521
 5477SOL    HW127890   3.584   3.583   7.268  0.7076 -1.3732  0.6902
 5477SOL    HW227891   3.610   3.462   7.189 -0.7014  0.0600  1.2061
 5478SOL     OW27892   0.318   3.460   8.979 -0.1889 -0.1676 -0.3602
 5478SOL    HW127893   0.249   3.432   8.918 -2.5644  4.1797  0.3450
 5478SOL    HW227894   0.391   3.453   8.918  1.9782  0.1223  2.2316
 5479SOL     OW27895   2.245   3.793   0.447 -0.4653  0.1420 -0.4310
 5479SOL    HW127896   2.312   3.775   0.381 -0.5596  0.5282 -0.6322
 5479SOL    HW227897   2.210   3.707   0.468 -0.5463 -0.3243 -2.4600
 5480SOL     OW27898   0.776   3.788   7.655 -0.6604 -0.1216  0.3605
 5480SOL    HW127899   0.800   3.741   7.735 -0.7737 -2.1855 -0.8072
 5480SOL    HW227900   0.727   3.725   7.602  1.2163 -1.3599  0.0590
 5481SOL     OW27901   3.469   4.080   7.530  0.5424  0.7786 -0.0052
 5481SOL    HW127902   3.486   4.166   7.569  0.2644  0.5203  0.6692
 5481SOL    HW227903   3.387   4.059   7.574 -0.2092  1.4821 -1.0622
 5482SOL     OW27904   3.434   1.113   3.703  0.2020  0.1047  0.2629
 5482SOL    HW127905   3.462   1.025   3.680 -0.1791 -0.4963  2.1093
 5482SOL    HW227906   3.359   1.125   3.646  0.1189  3.5303  1.0482
 5483SOL     OW27907   0.287   0.694   9.724  0.1174  0.0243  0.2396
 5483SOL    HW127908   0.195   0.719   9.715  0.0484 -0.0423  0.7401
 5483SOL    HW227909   0.286   0.626   9.657 -1.3561  1.2455 -0.9767
 5484SOL     OW27910   0.395   4.071   1.602 -0.0157 -0.3580 -0.5391
 5484SOL    HW127911   0.313   4.024   1.585 -0.3124 -0.4227  1.0812
 5484SOL    HW227912   0.452   3.995   1.612 -1.1315 -1.0947  0.1661
 5485SOL     OW27913   0.639   1.070  16.183  0.0856  0.1263 -0.3384
 5485SOL    HW127914   0.590   1.073  16.101 -2.6639  0.5650  1.3208
 5485SOL    HW227915   0.577   1.112  16.242  0.8724  0.9664 -0.1182
 5486SOL     OW27916   4.472   3.104  16.186  0.7608 -0.0226 -0.2553
 5486SOL    HW127917   4.456   3.195  16.208  3.8464  0.0386  1.7384
 5486SOL    HW227918   4.544   3.086  16.246  0.5170  0.3473  0.1498
 5487SOL     OW27919   4.300   1.540   5.190 -0.0382 -0.5210 -0.0105
 5487SOL    HW127920   4.324   1.622   5.146  0.7803 -1.2570 -0.9394
 5487SOL    HW227921   4.206   1.533   5.174  0.2003 -2.5976 -0.3998
 5488SOL     OW27922   1.948   0.983  15.757  0.0991 -0.1093  0.0154
 5488SOL    HW127923   1.941   0.990  15.662  0.1934  1.1190  0.0970
 5488SOL    HW227924   1.960   1.076  15.779 -2.2376  0.8154 -2.5680
 5489SOL     OW27925   2.997   1.182   2.243 -0.5743  0.5235  0.3242
 5489SOL    HW127926   2.953   1.184   2.158 -0.9325  0.2576  0.5019
 5489SOL    HW227927   3.086   1.169   2.209 -0.4397  1.1097  0.4537
 5490SOL     OW27928   1.282   4.460   4.313  0.1723  0.6664 -0.0112
 5490SOL    HW127929   1.299   4.493   4.402 -2.1634 -1.1428  1.1115
 5490SOL    HW227930   1.356   4.399   4.308 -0.0053  0.4545 -0.0698
 5491SOL     OW27931   2.499   4.240   0.107 -0.5334  0.5015  0.5696
 5491SOL    HW127932   2.479   4.198   0.191  2.6167  0.4046  1.2532
 5491SOL    HW227933   2.507   4.166   0.047 -0.8165  1.3091 -0.4595
 5492SOL     OW27934   0.667   3.228  17.370 -0.0942  0.2251  0.1670
 5492SOL    HW127935   0.699   3.208  17.458 -1.4992  1.1789  0.8948
 5492SOL    HW227936   0.585   3.179  17.379 -0.9867  1.4868 -1.2961
 5493SOL     OW27937   0.550   2.879   3.135 -0.5186 -0.3779 -0.1686
 5493SOL    HW127938   0.544   2.795   3.090 -2.3793 -0.6836  0.6090
 5493SOL    HW227939   0.621   2.924   3.089 -1.8836  0.3734 -1.5514
 5494SOL     OW27940   2.614   0.977  16.783  0.1041  0.2301 -0.3972
 5494SOL    HW127941   2.705   0.952  16.767 -0.5270 -1.0141 -1.9989
 5494SOL    HW227942   2.569   0.903  16.742 -0.5932  1.1642 -1.3103
 5495SOL     OW27943   0.971   4.620  12.215  0.8732  0.3736  0.1503
 5495SOL    HW127944   1.065   4.638  12.217  1.3060 -2.0695  1.7378
 5495SOL    HW227945   0.961   4.595  12.123 -0.6242  1.6411 -0.0422
 5496SOL     OW27946   4.679   4.030   2.860  0.1485  0.3630  0.1558
 5496SOL    HW127947   4.701   4.114   2.820  1.5257  0.7883  1.8365
 5496SOL    HW227948   0.010   4.038   2.940  1.3043 -2.0923 -0.3504
 5497SOL     OW27949   1.171   2.002   9.761 -0.1490 -0.0657 -0.2997
 5497SOL    HW127950   1.255   2.044   9.742  1.8621 -2.8382  2.3976
 5497SOL    HW227951   1.147   2.072   9.821  0.4452 -0.4158  0.3610
 5498SOL     OW27952   1.913   4.043   4.646  0.0589 -0.3503 -0.4214
 5498SOL    HW127953   1.930   3.958   4.606 -0.6569 -0.2382 -0.9540
 5498SOL    HW227954   1.817   4.042   4.645  0.0356  2.0885  1.3684
 5499SOL     OW27955   3.359   0.988   6.526  0.1929 -1.3455  0.1199
 5499SOL    HW127956   3.446   0.998   6.564  0.0332 -0.4563  0.2659
 5499SOL    HW227957   3.389   0.963   6.439 -1.4810 -2.8267 -0.0358
 5500SOL     OW27958   1.572   4.668   8.169 -0.4365 -0.0953  0.1825
 5500SOL    HW127959   1.606   4.590   8.214 -4.7494 -1.8280  0.4067
 5500SOL    HW227960   1.564   4.652   8.075 -2.4039 -0.0650  0.3425
 5501SOL     OW27961   1.495   4.049  11.909  0.2004 -0.6243 -0.0218
 5501SOL    HW127962   1.563   3.990  11.942 -0.1339 -1.8888 -1.5975
 5501SOL    HW227963   1.473   3.998  11.831 -1.5841  1.8793 -1.1594
 5502SOL     OW27964   4.071   2.626  15.152 -0.1202  0.4490  0.1429
 5502SOL    HW127965   4.068   2.670  15.067 -0.9763 -0.3392 -0.2354
 5502SOL    HW227966   3.993   2.573  15.135  1.0705 -1.4057  0.3875
 5503SOL     OW27967   0.413   4.659   4.014  0.2287  0.3543 -0.0825
 5503SOL    HW127968   0.445   0.002   4.077  0.4171 -0.9095  1.1336
 5503SOL    HW227969   0.325   4.634   4.041 -0.6608 -0.0750 -3.3641
 5504SOL     OW27970   3.071   0.970   9.284 -0.2816 -0.7401 -0.0748
 5504SOL    HW127971   2.995   0.945   9.231 -0.8888  2.3284 -0.6356
 5504SOL    HW227972   3.043   1.060   9.303 -1.6394 -0.5173 -3.0595
 5505SOL     OW27973   4.242   0.132  13.462  0.1534  0.2004 -0.0370
 5505SOL    HW127974   4.262   0.195  13.531  3.1748 -0.4277 -0.3234
 5505SOL    HW227975   4.181   0.191  13.417 -0.4201  0.2626  0.8390
 5506SOL     OW27976   4.229   3.543   5.044 -0.8933  0.2878  0.0417
 5506SOL    HW127977   4.221   3.611   4.976 -2.1051 -0.6434 -0.7459
 5506SOL    HW227978   4.243   3.473   4.981 -0.2293  3.1092 -2.9768
 5507SOL     OW27979   0.826   2.240   3.832 -0.1987 -0.0513 -0.4676
 5507SOL    HW127980   0.774   2.291   3.770  0.3828  0.0849 -0.8391
 5507SOL    HW227981   0.889   2.305   3.864  0.3536 -1.1197  0.6360
 5508SOL     OW27982   3.735   2.383   3.713 -0.0545 -0.3809 -0.7387
 5508SOL    HW127983   3.687   2.368   3.794  0.0504 -0.7725 -0.7485
 5508SOL    HW227984   3.770   2.296   3.693  0.6167 -0.2752 -0.0269
 5509SOL     OW27985   4.024   0.512   6.127  0.2967  0.5764  0.4579
 5509SOL    HW127986   4.085   0.552   6.065  1.7782 -0.0578  1.5071
 5509SOL    HW227987   4.024   0.582   6.192  2.2557 -0.9844  2.1423
 5510SOL     OW27988   3.712   3.840   9.053  0.2712  0.1087  0.2215
 5510SOL    HW127989   3.659   3.823   9.130 -0.1394  1.6358  0.2747
 5510SOL    HW227990   3.653   3.819   8.981 -0.0970  0.7739  0.3329
 5511SOL     OW27991   2.973   3.812   0.365 -0.2262 -0.2256 -0.2361
 5511SOL    HW127992   2.963   3.905   0.343  1.1055  0.2556  1.1713
 5511SOL    HW227993   3.067   3.804   0.348 -1.1187 -2.4766 -4.0844
 5512SOL     OW27994   1.754   4.032   9.596  0.0673 -0.1873 -0.4772
 5512SOL    HW127995   1.700   3.978   9.654  0.5541 -0.9156 -0.7023
 5512SOL    HW227996   1.696   4.108   9.594 -0.2778 -0.4084  1.0554
 5513SOL     OW27997   3.120   2.182  16.305 -0.3380  0.0008 -0.2284
 5513SOL    HW127998   3.074   2.248  16.357 -1.2810  0.1428 -1.2687
 5513SOL    HW227999   3.203   2.228  16.289 -1.3614  1.7224 -0.5911
 5514SOL     OW28000   3.967   3.470   5.119  0.5398  0.4330 -0.2926
 5514SOL    HW128001   3.932   3.503   5.036 -2.4265  1.9366  1.5639
 5514SOL    HW228002   4.059   3.490   5.103  1.0277 -1.7779 -0.2659
 5515SOL     OW28003   4.219   3.716  17.463 -0.4958 -0.1041  0.2055
 5515SOL    HW128004   4.299   3.725  17.515 -1.2349  3.1818  0.7773
 5515SOL    HW228005   4.216   3.621  17.455 -2.4611 -0.0836  0.8507
 5516SOL     OW28006   0.362   3.227   8.307 -0.1311  0.2211  0.5566
 5516SOL    HW128007   0.266   3.232   8.304 -0.0750  1.1358  0.0762
 5516SOL    HW228008   0.383   3.246   8.398 -1.1920  0.8964  0.6719
 5517SOL     OW28009   1.207   0.077   5.778 -0.5110 -0.1216 -0.3187
 5517SOL    HW128010   1.111   0.071   5.783 -0.4431  0.2081  1.2935
 5517SOL    HW228011   1.214   0.015   5.705 -0.5287  1.9337 -2.0725
 5518SOL     OW28012   3.375   2.009  14.270  0.5855 -0.0384  0.1691
 5518SOL    HW128013   3.385   1.915  14.281 -0.5282 -0.0670  1.0398
 5518SOL    HW228014   3.456   2.039  14.230  0.0265  2.5998  1.0104
 5519SOL     OW28015   3.203   2.396  14.676 -0.2238 -0.0412  0.3318
 5519SOL    HW128016   3.181   2.361  14.762 -2.1788  0.0530 -0.1237
 5519SOL    HW228017   3.295   2.415  14.690 -0.3798  0.6372  0.4764
 5520SOL     OW28018   1.789   2.909   1.114 -0.2384 -0.1474 -0.1653
 5520SOL    HW128019   1.806   2.996   1.150  0.9263 -0.5790  0.3240
 5520SOL    HW228020   1.696   2.891   1.127  0.0189  0.3473  2.2435
 5521SOL     OW28021   3.020   4.137   0.813  0.4489  0.2279 -0.2439
 5521SOL    HW128022   2.970   4.056   0.798 -0.5466  0.7733  0.1393
 5521SOL    HW228023   3.077   4.134   0.736  1.9740  0.7351  0.8476
 5522SOL     OW28024   0.517   4.436   4.985  0.6427 -0.2332  1.0019
 5522SOL    HW128025   0.563   4.517   4.962  0.1116 -0.8950 -2.4755
 5522SOL    HW228026   0.442   4.485   5.019 -1.2171 -1.3044 -1.5477
 5523SOL     OW28027   2.107   4.154   2.501 -0.2372  0.0122 -0.4223
 5523SOL    HW128028   2.127   4.118   2.587 -1.2614 -0.9134 -0.5754
 5523SOL    HW228029   2.093   4.075   2.449 -0.0698 -0.2583 -0.0531
 5524SOL     OW28030   1.023   3.443  12.495  0.0558  0.5706  0.2144
 5524SOL    HW128031   1.108   3.486  12.502  1.8266 -2.7141 -1.2971
 5524SOL    HW228032   0.979   3.513  12.447  0.9937 -1.1864 -3.1814
 5525SOL     OW28033   3.006   0.843   1.015 -0.0381 -0.0035  0.3355
 5525SOL    HW128034   3.014   0.881   1.102  2.7719  2.1130 -0.8516
 5525SOL    HW228035   3.010   0.750   1.035 -1.8797  0.2432  1.8598
 5526SOL     OW28036   3.404   1.485   8.220  0.5122 -0.5155  0.3965
 5526SOL    HW128037   3.445   1.449   8.299  2.7168  1.6862  0.2707
 5526SOL    HW228038   3.312   1.469   8.239 -0.1188  1.6823 -0.8268
 5527SOL     OW28039   1.400   0.974   8.600 -0.7938 -0.5015 -0.2962
 5527SOL    HW128040   1.341   0.980   8.676 -2.8309  3.3333 -2.2302
 5527SOL    HW228041   1.477   0.944   8.650 -0.3779  1.0193 -0.0294
 5528SOL     OW28042   2.004   4.580  12.183  0.3973  0.4960  0.2826
 5528SOL    HW128043   2.093   4.607  12.208  0.4841  1.4605 -1.0990
 5528SOL    HW228044   1.950   4.654  12.211  0.0696  0.2291  0.3542
 5529SOL     OW28045   2.535   2.058   0.716  0.1140  0.1330 -0.2241
 5529SOL    HW128046   2.496   1.971   0.724  0.8262  0.0184  2.0863
 5529SOL    HW228047   2.628   2.041   0.704  0.4285  1.5454  0.2432
 5530SOL     OW28048   1.142   3.193   4.568  0.2958  0.4693  0.3082
 5530SOL    HW128049   1.106   3.221   4.652 -3.4988  0.1779 -1.1817
 5530SOL    HW228050   1.168   3.110   4.607 -1.7351 -0.5584 -0.5255
 5531SOL     OW28051   3.821   2.153   2.790 -0.4125  0.3760 -0.1078
 5531SOL    HW128052   3.809   2.194   2.876 -1.0440  1.4280 -0.6912
 5531SOL    HW228053   3.888   2.211   2.755  1.6085 -1.2826  1.0057
 5532SOL     OW28054   1.318   0.648   0.463 -0.1357  0.3071 -0.1157
 5532SOL    HW128055   1.264   0.698   0.524 -1.1000 -0.7884 -0.0655
 5532SOL    HW228056   1.321   0.705   0.386 -0.2381 -1.3916 -1.3711
 5533SOL     OW28057   0.385   4.587  11.570 -0.5009 -0.5354  0.0713
 5533SOL    HW128058   0.434   4.506  11.552  1.9647  0.9091  0.3283
 5533SOL    HW228059   0.320   4.610  11.503 -0.9959 -0.7712  0.4680
 5534SOL     OW28060   2.039   1.429   5.388 -0.2349 -0.2813  0.3648
 5534SOL    HW128061   2.007   1.510   5.427 -2.3563 -0.5399 -0.8462
 5534SOL    HW228062   1.995   1.362   5.440 -1.7630  1.5475  1.3971
 5535SOL     OW28063   3.103   2.208  12.120  0.1952  0.0178  0.1423
 5535SOL    HW128064   3.092   2.115  12.138  3.0545 -0.2088  0.7139
 5535SOL    HW228065   3.082   2.207  12.027 -1.0110 -1.3521  0.4360
 5536SOL     OW28066   1.612   2.435   8.758 -0.1191  1.0559 -0.1998
 5536SOL    HW128067   1.543   2.479   8.807 -0.1672 -0.1283  0.8279
 5536SOL    HW228068   1.554   2.372   8.715 -1.7671  2.0270  0.6076
 5537SOL     OW28069   1.365   1.337   9.424  0.1874  0.2146 -0.3694
 5537SOL    HW128070   1.284   1.374   9.458  1.4967  1.7102  1.1103
 5537SOL    HW228071   1.390   1.279   9.496 -0.2297  1.0287  0.4228
 5538SOL     OW28072   4.106   0.800   6.201  0.9539 -0.2587  0.6637
 5538SOL    HW128073   4.032   0.858   6.182 -0.9165 -2.4197  1.3344
 5538SOL    HW228074   4.147   0.852   6.270 -0.9915  1.7067  0.3405
 5539SOL     OW28075   2.662   0.020  16.934 -0.0872 -0.1909 -0.3433
 5539SOL    HW128076   2.571   0.049  16.925  0.6071  1.6964 -1.2029
 5539SOL    HW228077   2.686   0.084  17.001 -3.1555  0.8666 -0.2751
 5540SOL     OW28078   0.555   0.106   4.168 -0.0686 -0.1054  0.0773
 5540SOL    HW128079   0.570   0.085   4.260  0.9437 -1.1284 -0.3138
 5540SOL    HW228080   0.647   0.107   4.144  0.5752  0.9111  2.5885
 5541SOL     OW28081   1.637   0.541   8.759  0.0437  0.6637  0.2696
 5541SOL    HW128082   1.572   0.528   8.690  3.1732 -0.5207 -2.4474
 5541SOL    HW228083   1.717   0.506   8.718 -0.2917  0.8430 -0.5450
 5542SOL     OW28084   0.194   3.230  10.316 -0.1766 -0.2474 -0.1545
 5542SOL    HW128085   0.183   3.163  10.384  0.9509  0.3051  0.5681
 5542SOL    HW228086   0.182   3.178  10.237 -1.7195 -0.0022 -0.0689
 5543SOL     OW28087   1.955   4.293   6.922  0.0877  0.4894 -0.3657
 5543SOL    HW128088   1.931   4.201   6.928  3.2004 -0.3009  0.1538
 5543SOL    HW228089   1.867   4.326   6.940  0.7054  1.1942  1.3940
 5544SOL     OW28090   0.283   3.516  17.025 -0.5959 -0.2377  0.4067
 5544SOL    HW128091   0.277   3.423  17.001 -0.3817 -0.0460 -0.3810
 5544SOL    HW228092   0.350   3.523  17.093  0.0695  0.0741 -0.2773
 5545SOL     OW28093   0.800   0.515   6.335 -0.4094  0.2138 -0.2109
 5545SOL    HW128094   0.893   0.536   6.347  0.1623 -2.1305 -0.5605
 5545SOL    HW228095   0.778   0.575   6.264 -4.4269 -0.4862  0.4586
 5546SOL     OW28096   2.551   2.656  10.867  0.3795 -0.0512 -0.2237
 5546SOL    HW128097   2.486   2.594  10.834  1.1733 -1.2712  0.4998
 5546SOL    HW228098   2.494   2.730  10.888 -0.4462  0.2181 -3.3912
 5547SOL     OW28099   1.192   3.802   0.274  0.9992 -0.0278 -0.0109
 5547SOL    HW128100   1.248   3.875   0.247  1.8559 -0.7670 -0.2122
 5547SOL    HW228101   1.111   3.848   0.251 -0.2703 -2.2180  0.0856
 5548SOL     OW28102   3.375   3.060   7.996 -0.4048 -0.0402  0.2654
 5548SOL    HW128103   3.361   2.965   8.006 -0.1676 -0.0642  0.3613
 5548SOL    HW228104   3.291   3.102   8.014 -0.2148  0.0395  0.9487
 5549SOL     OW28105   4.231   2.132  12.384 -0.1572  0.0410 -0.0326
 5549SOL    HW128106   4.204   2.128  12.293 -2.0487 -1.2305  0.5973
 5549SOL    HW228107   4.309   2.076  12.381 -0.0272  0.2930 -1.4220
 5550SOL     OW28108   0.889   0.365   5.864 -0.2771 -0.4204  0.1564
 5550SOL    HW128109   0.904   0.455   5.838 -1.2691 -0.9906 -2.3801
 5550SOL    HW228110   0.917   0.357   5.956 -1.0300 -1.2186  0.3187
 5551SOL     OW28111   2.056   1.423   1.132 -0.2913 -0.2654 -0.2871
 5551SOL    HW128112   2.044   1.518   1.127  0.2968 -0.2429 -1.2424
 5551SOL    HW228113   2.010   1.399   1.052  1.1036 -1.2516 -0.7998
 5552SOL     OW28114   1.129   2.499  17.278  0.3655 -0.6079 -0.1964
 5552SOL    HW128115   1.061   2.566  17.268  0.2488 -0.7461 -0.3312
 5552SOL    HW228116   1.185   2.496  17.201 -0.9274 -2.4689 -1.0607
 5553SOL     OW28117   2.032   2.223  16.345  0.1050  0.2046 -0.0597
 5553SOL    HW128118   2.050   2.259  16.259 -1.5308 -0.4810 -0.6818
 5553SOL    HW228119   1.939   2.201  16.352 -0.0572  0.6821 -0.7959
 5554SOL     OW28120   1.896   2.588   5.337 -0.2359 -0.4304  0.2929
 5554SOL    HW128121   1.975   2.545   5.369 -0.6652 -0.5554  1.1782
 5554SOL    HW228122   1.828   2.539   5.384  0.3203 -1.7367 -0.2656
 5555SOL     OW28123   0.949   0.641   8.564 -0.2285 -0.0945  0.7239
 5555SOL    HW128124   0.857   0.666   8.577 -0.7169 -0.0958 -2.5629
 5555SOL    HW228125   1.003   0.700   8.616  0.2663  0.4531 -0.4166
 5556SOL     OW28126   2.599   1.932   7.341 -0.0218  0.0329  0.0028
 5556SOL    HW128127   2.597   2.024   7.314  0.0655 -0.0153 -0.1640
 5556SOL    HW228128   2.543   1.920   7.418  1.0369  0.7129  0.8864
 5557SOL     OW28129   1.721   0.057   7.269 -0.2333  0.0009 -0.5096
 5557SOL    HW128130   1.688   0.100   7.191  0.6025  1.9920  0.2435
 5557SOL    HW228131   1.648   0.032   7.326  0.7015 -0.4624  0.4894
 5558SOL     OW28132   1.435   2.445   8.014 -0.6199 -0.8786 -0.0661
 5558SOL    HW128133   1.473   2.443   8.102  1.1648  1.6604 -0.8056
 5558SOL    HW228134   1.374   2.519   8.019  0.3631 -0.2092  2.0097
 5559SOL     OW28135   0.458   0.746  12.545 -0.5518  0.6234 -0.8096
 5559SOL    HW128136   0.494   0.778  12.462  1.7667  0.6427  0.1952
 5559SOL    HW228137   0.483   0.654  12.544 -3.4725 -0.1845  1.9533
 5560SOL     OW28138   0.061   3.420   6.864 -0.1386 -0.5802 -0.1064
 5560SOL    HW128139   4.693   3.409   6.833 -0.0334 -0.6911 -0.3667
 5560SOL    HW228140   0.054   3.369   6.945  1.9205  2.0283  1.7409
 5561SOL     OW28141   3.910   2.838   6.955  0.3489 -0.5344 -0.7679
 5561SOL    HW128142   3.952   2.772   6.899 -1.2645 -0.5383 -1.9881
 5561SOL    HW228143   3.869   2.780   7.019 -1.3240 -0.2150 -1.5406
 5562SOL     OW28144   4.365   3.994   5.076  0.0221  0.3435 -0.2607
 5562SOL    HW128145   4.332   4.068   5.025 -1.2179 -0.0652 -0.0517
 5562SOL    HW228146   4.456   3.994   5.045 -0.7422 -0.0422 -2.5745
 5563SOL     OW28147   1.987   3.220  16.428  0.0864 -0.1282  0.0793
 5563SOL    HW128148   1.911   3.207  16.371 -1.4536  0.2550  2.0651
 5563SOL    HW228149   1.965   3.154  16.494  1.2194 -0.9868 -0.3909
 5564SOL     OW28150   4.184   1.407   7.796 -0.2895 -0.1031  0.1320
 5564SOL    HW128151   4.221   1.488   7.832  0.9449 -0.5804 -0.0686
 5564SOL    HW228152   4.212   1.337   7.856 -1.0783 -1.7666 -1.4402
 5565SOL     OW28153   0.748   1.550  16.931  0.3839 -0.5093  0.0317
 5565SOL    HW128154   0.750   1.541  17.026 -0.2686  0.1438  0.1096
 5565SOL    HW228155   0.838   1.577  16.910  0.5982 -1.0612  0.2639
 5566SOL     OW28156   2.547   2.808  14.712 -0.9053 -0.1346  0.2844
 5566SOL    HW128157   2.488   2.778  14.781 -0.5503 -0.7338  0.3315
 5566SOL    HW228158   2.503   2.884  14.674 -0.6125 -0.9084 -1.6229
 5567SOL     OW28159   3.529   4.475   8.113 -0.5146  0.3966  0.2327
 5567SOL    HW128160   3.460   4.540   8.105  1.0208  2.1852  1.2976
 5567SOL    HW228161   3.552   4.480   8.206  0.0514  3.0743 -0.0575
 5568SOL     OW28162   1.285   4.134   8.304  0.3772  0.4820  0.0520
 5568SOL    HW128163   1.322   4.102   8.222  0.6748  0.6606  0.1171
 5568SOL    HW228164   1.283   4.230   8.297  0.8184  0.3644 -1.7072
 5569SOL     OW28165   4.310   2.156   7.718 -0.0937  0.0554  0.0266
 5569SOL    HW128166   4.254   2.183   7.644  1.2561  0.5977 -0.8087
 5569SOL    HW228167   4.399   2.151   7.683 -1.1685  1.1857 -2.9564
 5570SOL     OW28168   2.894   0.389  15.770  0.2167 -0.5353 -0.0765
 5570SOL    HW128169   2.987   0.411  15.760  0.0938 -0.0765 -0.2218
 5570SOL    HW228170   2.898   0.300  15.804  0.3891 -0.4176  0.2098
 5571SOL     OW28171   2.591   2.928   4.264  0.3253 -0.3421  0.1996
 5571SOL    HW128172   2.596   3.004   4.206  1.7864 -0.4237  0.2109
 5571SOL    HW228173   2.670   2.877   4.245 -0.1545 -1.3921  0.9960
 5572SOL     OW28174   3.677   4.609  11.714  0.2562 -0.6170  0.3210
 5572SOL    HW128175   3.720   4.658  11.783 -0.4297 -1.9258  1.6684
 5572SOL    HW228176   3.673   4.523  11.757  0.9706 -0.3197  0.9785
 5573SOL     OW28177   1.258   3.237   6.839  0.5770 -0.6016 -0.0159
 5573SOL    HW128178   1.331   3.286   6.803  1.5389 -2.2565 -0.3280
 5573SOL    HW228179   1.270   3.148   6.805 -1.1332 -1.4737  1.6226
 5574SOL     OW28180   4.679   1.204   5.768 -0.2663 -0.0568 -0.8278
 5574SOL    HW128181   4.703   1.214   5.860 -0.9756  0.8014 -0.7309
 5574SOL    HW228182   4.586   1.198   5.788  0.1845  1.7478  1.6668
 5575SOL     OW28183   0.251   0.984   6.302  0.4688 -0.3238 -0.2124
 5575SOL    HW128184   0.307   0.911   6.278 -1.2846 -1.4474 -0.8490
 5575SOL    HW228185   0.323   1.024   6.351  0.5687  0.8460 -1.3247
 5576SOL     OW28186   4.562   1.718  12.607 -0.1580 -0.0893 -1.0669
 5576SOL    HW128187   4.558   1.689  12.515 -1.5123 -2.1997 -0.3561
 5576SOL    HW228188   4.600   1.643  12.653 -0.1207 -0.6422 -1.9882
 5577SOL     OW28189   0.495   2.278   3.884  0.2787 -0.3449 -0.0622
 5577SOL    HW128190   0.410   2.237   3.900  0.4085 -0.2075  0.9920
 5577SOL    HW228191   0.555   2.209   3.910  1.9147  0.4229 -1.8703
 5578SOL     OW28192   2.364   0.572  12.363 -0.6838  0.6513 -0.2832
 5578SOL    HW128193   2.301   0.500  12.354  1.4949 -1.3999  0.9616
 5578SOL    HW228194   2.311   0.651  12.372 -0.7720  0.7136 -1.3193
 5579SOL     OW28195   1.159   1.149  15.883 -0.0744  0.1030  0.2715
 5579SOL    HW128196   1.235   1.093  15.904  1.9757  2.6324 -0.4220
 5579SOL    HW228197   1.147   1.186  15.971  1.1532 -0.5434  0.7268
 5580SOL     OW28198   2.802   3.769   4.920  0.2516  0.6078 -0.4931
 5580SOL    HW128199   2.734   3.834   4.941 -0.0673 -0.7282  2.6369
 5580SOL    HW228200   2.745   3.702   4.881  1.4525  0.6560 -2.3086
 5581SOL     OW28201   0.200   2.012   3.636 -0.3675  0.1475 -0.1455
 5581SOL    HW128202   0.207   1.988   3.728  2.2085  1.7857  0.0727
 5581SOL    HW228203   0.275   1.962   3.604 -0.7463 -0.6271  0.1639
 5582SOL     OW28204   1.788   0.708   3.930 -0.1469 -0.0515  0.5478
 5582SOL    HW128205   1.804   0.794   3.968  0.2989  1.1961 -2.4774
 5582SOL    HW228206   1.857   0.706   3.864 -1.2775 -0.2528 -0.6311
 5583SOL     OW28207   1.445   3.526  10.531  0.0877  0.5218  0.1090
 5583SOL    HW128208   1.395   3.603  10.557  1.9389  2.3590 -1.7348
 5583SOL    HW228209   1.369   3.474  10.506 -0.2611  1.6601 -1.1748
 5584SOL     OW28210   1.868   2.260   9.672 -0.1660 -0.4942  0.8748
 5584SOL    HW128211   1.872   2.168   9.645 -0.6051  0.0341 -0.9364
 5584SOL    HW228212   1.953   2.270   9.716  1.0855 -0.8039 -1.5042
 5585SOL     OW28213   1.920   2.256   7.588  0.6577 -0.1785  0.0982
 5585SOL    HW128214   1.837   2.289   7.556  0.6314 -2.7968 -2.6167
 5585SOL    HW228215   1.942   2.306   7.667  1.0864  2.5648 -1.7837
 5586SOL     OW28216   2.969   2.710   5.719  0.5830  0.4598  0.5915
 5586SOL    HW128217   2.897   2.673   5.771 -0.4192 -0.4342 -1.4413
 5586SOL    HW228218   3.027   2.738   5.789  0.6135  0.9482  0.3707
 5587SOL     OW28219   1.515   0.282  11.022  0.7288  0.2268  0.6158
 5587SOL    HW128220   1.603   0.250  11.043  1.7116  1.5357 -1.4937
 5587SOL    HW228221   1.469   0.199  11.033  1.1731 -0.2365 -1.1243
 5588SOL     OW28222   2.364   2.829  17.115 -0.2074  0.7554  0.0850
 5588SOL    HW128223   2.429   2.760  17.128 -0.9680 -0.3016 -1.7273
 5588SOL    HW228224   2.372   2.847  17.021 -0.7343 -1.2252 -0.3448
 5589SOL     OW28225   4.336   3.712  13.575  0.3015  0.2913  0.4320
 5589SOL    HW128226   4.333   3.629  13.527 -0.8337  1.6399 -1.7974
 5589SOL    HW228227   4.303   3.685  13.661 -0.7470 -0.8513 -0.3165
 5590SOL     OW28228   4.249   2.117   6.811  0.5080  0.3331 -0.1874
 5590SOL    HW128229   4.315   2.050   6.792  0.2994 -0.1495  0.8232
 5590SOL    HW228230   4.242   2.101   6.905 -1.0914 -3.0640 -0.8976
 5591SOL     OW28231   0.658   0.520   2.318  0.7021  0.2702  0.1481
 5591SOL    HW128232   0.716   0.463   2.268 -0.8755 -2.6503  1.6285
 5591SOL    HW228233   0.646   0.463   2.394  1.6695  1.5071  1.2164
 5592SOL     OW28234   3.190   4.547  14.805 -0.2646  0.0228  0.1419
 5592SOL    HW128235   3.198   4.527  14.711 -0.4834  0.2963  0.0661
 5592SOL    HW228236   3.202   4.641  14.814 -0.2967 -0.0300  0.7473
 5593SOL     OW28237   0.865   3.592   8.393  0.2025 -0.0233 -0.2964
 5593SOL    HW128238   0.928   3.521   8.399 -0.5645 -0.7374 -0.6647
 5593SOL    HW228239   0.784   3.543   8.408 -0.3817  1.1913  0.5705
 5594SOL     OW28240   3.876   3.115   4.931  0.0737 -0.1476 -0.1153
 5594SOL    HW128241   3.946   3.094   4.870  1.2903  2.7672  0.2420
 5594SOL    HW228242   3.808   3.154   4.877  0.4997  0.1130 -0.4644
 5595SOL     OW28243   1.334   1.349  16.033  0.3627 -0.3956 -0.0636
 5595SOL    HW128244   1.377   1.269  16.003  1.8227  0.4452 -0.2447
 5595SOL    HW228245   1.276   1.325  16.105 -0.3918  1.7582  0.0284
 5596SOL     OW28246   0.314   0.763  15.767  0.6034 -0.6072 -0.7943
 5596SOL    HW128247   0.315   0.839  15.708  0.3328  0.1513  0.1689
 5596SOL    HW228248   0.341   0.809  15.847 -0.6703  0.0614 -0.7492
 5597SOL     OW28249   2.818   3.818   6.512 -0.3859 -0.0623  0.1964
 5597SOL    HW128250   2.821   3.751   6.580  0.2873 -0.5073 -0.2785
 5597SOL    HW228251   2.868   3.890   6.551 -0.0878 -1.1091  1.7201
 5598SOL     OW28252   4.066   0.015   0.647 -0.2492  0.2431 -0.5194
 5598SOL    HW128253   4.138   0.072   0.673  0.6830 -1.7352  1.2419
 5598SOL    HW228254   4.011   0.020   0.725  0.2959  0.8885 -0.1767
 5599SOL     OW28255   4.670   2.716   5.632  0.5035  0.3292  0.1058
 5599SOL    HW128256   4.640   2.806   5.645  0.4477  0.4883 -1.1506
 5599SOL    HW228257   4.661   2.682   5.721  0.4889  0.0134 -0.0158
 5600SOL     OW28258   0.276   2.856   5.636  0.2539 -0.3074 -0.4577
 5600SOL    HW128259   0.317   2.840   5.551  1.3368  1.5804 -0.2818
 5600SOL    HW228260   0.345   2.829   5.696 -0.9051  0.6687  1.2931
 5601SOL     OW28261   4.296   3.519  13.781  0.3127  0.9415 -0.5304
 5601SOL    HW128262   4.284   3.435  13.736  0.5308  1.6950 -1.9927
 5601SOL    HW228263   4.386   3.509  13.812 -0.1936 -0.1575  0.5897
 5602SOL     OW28264   2.980   2.577   2.690  0.1839  0.0714  0.5322
 5602SOL    HW128265   3.000   2.564   2.782  0.2060  1.1217  0.6733
 5602SOL    HW228266   3.062   2.539   2.659 -0.8768 -0.9194 -1.0477
 5603SOL     OW28267   1.978   1.439   6.797 -0.4154 -0.4114  0.2592
 5603SOL    HW128268   1.940   1.479   6.876 -0.6615 -0.5720  0.2190
 5603SOL    HW228269   2.034   1.375   6.841 -0.9652 -1.1741 -0.1706
 5604SOL     OW28270   1.132   4.399  13.913  0.4830  0.0137  0.1758
 5604SOL    HW128271   1.160   4.489  13.901 -4.1243  1.3644 -0.2938
 5604SOL    HW228272   1.204   4.363  13.964  0.7475 -1.0064 -0.9003
 5605SOL     OW28273   0.490   0.288   4.550 -0.8058  0.1486  1.2903
 5605SOL    HW128274   0.445   0.207   4.527 -0.5843  0.2371  0.5407
 5605SOL    HW228275   0.420   0.351   4.568 -1.2587  0.0030 -0.0192
 5606SOL     OW28276   2.067   0.966   0.472 -0.0232  0.0815  0.0737
 5606SOL    HW128277   2.099   1.026   0.405 -0.4134 -0.4059 -0.5544
 5606SOL    HW228278   2.012   0.910   0.417 -0.2730  0.2831  0.1177
 5607SOL     OW28279   2.281   0.040   8.201  0.4102  0.0120 -0.1581
 5607SOL    HW128280   2.362   0.062   8.155 -0.4030  1.9539 -0.6661
 5607SOL    HW228281   2.277   4.668   8.183  2.5564 -0.0525 -0.3628
 5608SOL     OW28282   1.101   3.870   8.700  0.3174 -0.0342 -0.4523
 5608SOL    HW128283   1.173   3.845   8.642 -1.1828 -2.8971 -1.0497
 5608SOL    HW228284   1.035   3.889   8.633  0.2954  0.1405 -0.3816
 5609SOL     OW28285   2.738   0.388   7.245 -0.2895  0.0148 -0.5826
 5609SOL    HW128286   2.775   0.387   7.157 -1.5060  0.6611 -1.0963
 5609SOL    HW228287   2.644   0.403   7.233 -0.3934  1.4354  2.2034
 5610SOL     OW28288   4.233   3.981   3.321  0.3631 -0.2454  0.1908
 5610SOL    HW128289   4.157   4.038   3.315  0.4363 -0.1791 -0.1383
 5610SOL    HW228290   4.260   3.959   3.231 -2.0546  2.1047 -1.0898
 5611SOL     OW28291   2.821   2.157   7.600 -0.1797 -0.3365  0.1707
 5611SOL    HW128292   2.881   2.131   7.530  2.8747  2.5356  1.6900
 5611SOL    HW228293   2.758   2.208   7.550  0.0564  0.5429  0.7609
 5612SOL     OW28294   2.752   3.345   6.687 -0.3086 -0.1821  0.2787
 5612SOL    HW128295   2.763   3.350   6.782 -1.7729 -2.4861  0.5841
 5612SOL    HW228296   2.665   3.305   6.688 -0.8760  1.0925  1.3837
 5613SOL     OW28297   3.364   0.138   4.590 -0.3594  0.6827 -0.8675
 5613SOL    HW128298   3.362   0.057   4.640  1.2098  0.1458 -1.7046
 5613SOL    HW228299   3.275   0.172   4.607 -1.1176 -2.6317  1.6023
 5614SOL     OW28300   3.190   1.270  17.020  0.0114  0.3315  0.2096
 5614SOL    HW128301   3.280   1.286  17.049 -0.5490  0.7082  1.7893
 5614SOL    HW228302   3.205   1.209  16.948  1.2791  1.1575 -0.2226
 5615SOL     OW28303   1.254   0.624   5.135  0.1821 -0.1054  0.0833
 5615SOL    HW128304   1.214   0.585   5.213 -0.8682 -0.4144 -0.6074
 5615SOL    HW228305   1.206   0.706   5.128 -1.9052 -1.4868 -1.8539
 5616SOL     OW28306   2.295   3.799   5.369 -0.1206  0.2602 -0.1569
 5616SOL    HW128307   2.344   3.852   5.432 -0.3492 -0.4061  0.5799
 5616SOL    HW228308   2.325   3.840   5.288  0.1765  1.3978  0.5259
 5617SOL     OW28309   2.488   1.416   2.611  0.1412 -0.2744 -0.1033
 5617SOL    HW128310   2.396   1.400   2.592  0.1852  0.7892 -1.2197
 5617SOL    HW228311   2.520   1.397   2.523 -1.0326  0.8109 -0.7552
 5618SOL     OW28312   0.052   2.648   8.197  0.0428 -0.4365 -0.3091
 5618SOL    HW128313   4.720   2.691   8.130  0.6334  0.8424  0.0558
 5618SOL    HW228314   0.071   2.564   8.154  0.0185  1.1020 -3.3143
 5619SOL     OW28315   1.345   0.678   8.473 -0.3731 -0.1261  0.2773
 5619SOL    HW128316   1.414   0.637   8.421 -0.0504  0.4419  0.2650
 5619SOL    HW228317   1.378   0.767   8.475  1.7572 -0.9988  3.4426
 5620SOL     OW28318   0.583   3.190   8.857 -0.1286  0.5496  0.1603
 5620SOL    HW128319   0.578   3.204   8.952 -0.9498 -0.4362  0.2774
 5620SOL    HW228320   0.558   3.097   8.861  3.1328 -0.3789 -1.5504
 5621SOL     OW28321   4.575   0.216   4.828  0.2826 -0.0706 -0.0673
 5621SOL    HW128322   4.529   0.195   4.746  0.1555 -2.1453  0.5211
 5621SOL    HW228323   4.539   0.297   4.862  1.2640  0.0108  0.7627
 5622SOL     OW28324   4.694   1.816   5.431  0.1413 -0.6227  0.1954
 5622SOL    HW128325   4.719   1.902   5.395 -0.8569 -0.1937  0.5410
 5622SOL    HW228326   0.056   1.771   5.444 -0.1638 -0.7655  1.6918
 5623SOL     OW28327   0.069   0.747  13.242 -0.3773 -0.3566 -0.2458
 5623SOL    HW128328   0.124   0.714  13.171 -0.4352  0.2864 -0.5892
 5623SOL    HW228329   4.720   0.786  13.189  0.4186 -1.4897 -2.1518
 5624SOL     OW28330   0.948   0.480   1.969 -0.2667 -0.3938 -0.4081
 5624SOL    HW128331   0.992   0.469   2.053 -0.0040  1.4311 -0.2937
 5624SOL    HW228332   0.993   0.556   1.930  1.7428 -2.4498 -2.1084
 5625SOL     OW28333   0.930   0.696   3.190  0.5671  0.3200 -0.0981
 5625SOL    HW128334   0.857   0.749   3.156  0.4864  0.6184  0.5301
 5625SOL    HW228335   0.931   0.631   3.120  0.6633 -0.0444  0.2432
 5626SOL     OW28336   2.808   0.294   6.021  0.6143 -0.3747 -0.3582
 5626SOL    HW128337   2.766   0.356   5.961 -0.3858 -0.9333 -0.2404
 5626SOL    HW228338   2.757   0.213   6.013 -1.6341  1.0541 -0.3617
 5627SOL     OW28339   2.587   4.107  11.052 -0.0834 -0.5483  0.2535
 5627SOL    HW128340   2.631   4.040  11.000  1.1251  0.4818 -0.0554
 5627SOL    HW228341   2.499   4.099  11.015  1.0091  0.7131 -2.6085
 5628SOL     OW28342   0.775   2.407   8.114  0.7606  0.1230 -0.5440
 5628SOL    HW128343   0.721   2.329   8.127 -0.0863  1.0329  1.4054
 5628SOL    HW228344   0.842   2.370   8.057 -1.5509 -1.1907 -2.4523
 5629SOL     OW28345   2.910   1.399   3.426  0.0252 -0.6229  0.0237
 5629SOL    HW128346   2.923   1.321   3.481  0.7748 -2.2079 -2.3833
 5629SOL    HW228347   2.967   1.380   3.352 -2.2458 -2.7347 -1.2179
 5630SOL     OW28348   0.331   2.694   6.284  0.1784  0.1078  0.6021
 5630SOL    HW128349   0.280   2.627   6.238  2.2636  0.3795 -2.0908
 5630SOL    HW228350   0.336   2.765   6.220 -0.2399  0.0804  0.5395
 5631SOL     OW28351   1.843   4.266   3.984 -0.5614 -0.6865 -0.1619
 5631SOL    HW128352   1.876   4.225   4.063  0.5661 -0.6648 -0.6280
 5631SOL    HW228353   1.753   4.294   4.002 -0.4259  0.7970 -1.7443
 5632SOL     OW28354   1.416   0.787   7.006 -0.2856 -0.3134  0.6049
 5632SOL    HW128355   1.386   0.876   6.991  1.6654 -0.0781 -1.7651
 5632SOL    HW228356   1.492   0.789   6.948 -0.0225  2.4821  1.0559
 5633SOL     OW28357   1.043   3.364  12.771  0.0383  0.3427  0.8066
 5633SOL    HW128358   1.052   3.396  12.681  0.3473 -2.5025 -0.1850
 5633SOL    HW228359   1.086   3.434  12.819 -0.5497  0.9459  0.4478
 5634SOL     OW28360   3.985   2.523   8.841 -0.3446 -0.5977  0.0387
 5634SOL    HW128361   4.042   2.471   8.897  1.4283  2.3842  0.9812
 5634SOL    HW228362   3.989   2.611   8.878 -0.1988 -0.3448 -0.5669
 5635SOL     OW28363   3.574   0.112   2.808 -0.3780 -0.6077 -0.3490
 5635SOL    HW128364   3.579   0.171   2.884  1.2152  0.5315 -1.3186
 5635SOL    HW228365   3.628   0.155   2.741  0.2043  3.0638  2.4428
 5636SOL     OW28366   1.021   2.066   0.015  0.0122  0.2316  0.7005
 5636SOL    HW128367   0.959   2.006  17.661 -0.9779  1.4841  0.3856
 5636SOL    HW228368   1.011   2.142  17.647  0.9542 -1.2371 -1.4568
 5637SOL     OW28369   1.401   1.542  14.698 -0.8304  0.4099  0.2273
 5637SOL    HW128370   1.403   1.520  14.605  0.6662 -1.1166  0.6304
 5637SOL    HW228371   1.402   1.460  14.748 -2.5679  1.0886  1.3917
 5638SOL     OW28372   1.681   3.693  16.886  0.8546 -0.2773  0.2246
 5638SOL    HW128373   1.604   3.731  16.845  0.9762 -1.3055 -0.9511
 5638SOL    HW228374   1.739   3.769  16.887  1.7093 -0.9213 -0.1135
 5639SOL     OW28375   0.142   3.224   1.658  0.0265  1.1802 -0.7004
 5639SOL    HW128376   0.147   3.185   1.745  0.6213 -0.7470 -1.5919
 5639SOL    HW228377   0.116   3.146   1.610  2.1837 -0.3590  0.6210
 5640SOL     OW28378   0.030   0.235  15.992 -0.0162 -0.2793  0.0706
 5640SOL    HW128379   4.661   0.217  15.966  0.4720  0.8390 -2.4589
 5640SOL    HW228380   0.013   0.315  16.041 -0.4507 -0.1492 -0.2917
 5641SOL     OW28381   0.112   1.142   3.883  0.4955  0.0887  0.1248
 5641SOL    HW128382   0.124   1.061   3.933  0.3619  0.0095  0.0313
 5641SOL    HW228383   0.090   1.207   3.949  2.9967 -0.3520  1.3867
 5642SOL     OW28384   2.769   0.420   6.250 -0.3355  0.2543 -0.0201
 5642SOL    HW128385   2.688   0.395   6.293  0.0016  0.8059  0.9478
 5642SOL    HW228386   2.774   0.353   6.182  1.9626  1.1394 -0.7269
 5643SOL     OW28387   2.779   0.343  11.287 -0.1079  0.3888  0.3247
 5643SOL    HW128388   2.833   0.266  11.270  0.9060  0.7426  1.9625
 5643SOL    HW228389   2.847   0.397  11.328  1.0991 -0.9219  0.0322
 5644SOL     OW28390   3.428   2.133   6.341  0.4616  0.4080  0.4545
 5644SOL    HW128391   3.519   2.105   6.339  0.5306  0.6992 -0.7194
 5644SOL    HW228392   3.423   2.180   6.257 -3.5055 -1.4938 -0.3946
 5645SOL     OW28393   2.356   1.484  14.459  0.0256  0.4581 -0.1515
 5645SOL    HW128394   2.361   1.396  14.496  0.2434  0.1581 -0.8776
 5645SOL    HW228395   2.275   1.514  14.500  0.5367 -0.1162  1.2611
 5646SOL     OW28396   1.334   3.420   2.552  0.1182  0.1434 -0.9274
 5646SOL    HW128397   1.261   3.457   2.603  0.4518  0.8716 -0.9743
 5646SOL    HW228398   1.304   3.329   2.548  0.8658 -0.1631  0.2213
 5647SOL     OW28399   2.567   0.096   1.586  0.9699 -0.4890 -0.2202
 5647SOL    HW128400   2.654   0.099   1.626  0.5618 -1.5380  0.7561
 5647SOL    HW228401   2.544   0.008   1.617 -2.0038  0.8127  1.2399
 5648SOL     OW28402   1.078   4.367   3.389  0.4658  0.2451  0.3511
 5648SOL    HW128403   1.056   4.406   3.473  0.0140  1.2857 -0.2508
 5648SOL    HW228404   1.155   4.316   3.414  1.3983  0.4978 -2.0143
 5649SOL     OW28405   4.327   1.048   1.487 -0.0502 -0.4400  0.4162
 5649SOL    HW128406   4.367   1.134   1.486 -0.1640 -0.3904  0.1503
 5649SOL    HW228407   4.388   1.005   1.547  0.1086 -0.9310 -0.1023
 5650SOL     OW28408   3.984   1.733   2.901  0.6087  0.3965  0.4923
 5650SOL    HW128409   4.065   1.755   2.854  0.3683 -0.8114 -0.4694
 5650SOL    HW228410   3.995   1.649   2.946 -1.4338 -1.2656 -2.1279
 5651SOL     OW28411   1.263   2.677  12.925  0.3957  0.0496  0.0538
 5651SOL    HW128412   1.228   2.592  12.899 -0.5590  0.6814 -0.7571
 5651SOL    HW228413   1.340   2.651  12.974 -0.5162 -1.4852  0.6521
 5652SOL     OW28414   2.686   0.519  15.901  0.7012  0.1084 -0.2305
 5652SOL    HW128415   2.756   0.465  15.866 -0.2415 -0.9474 -0.5142
 5652SOL    HW228416   2.714   0.555  15.985 -2.2079  1.3032  0.2270
 5653SOL     OW28417   0.508   0.054   2.618  0.2428 -0.0402  0.0911
 5653SOL    HW128418   0.476   0.044   2.708  0.8601  0.8176  0.4019
 5653SOL    HW228419   0.432   0.020   2.571  0.5133  2.2788 -2.0318
 5654SOL     OW28420   0.247   3.341   5.647 -0.5425  0.2008 -0.6574
 5654SOL    HW128421   0.281   3.264   5.693 -1.3702  0.0008 -0.3800
 5654SOL    HW228422   0.320   3.403   5.646 -1.0861  0.8577  0.3003
 5655SOL     OW28423   3.432   2.665   9.042 -0.3480  0.1481 -0.1337
 5655SOL    HW128424   3.459   2.720   9.116  2.7203 -1.6195  0.0802
 5655SOL    HW228425   3.521   2.644   9.012 -0.2684  0.8794 -0.4135
 5656SOL     OW28426   0.138   3.032   6.597  0.0554  0.2009 -0.3819
 5656SOL    HW128427   0.186   3.105   6.637 -0.4873 -0.4293  1.4270
 5656SOL    HW228428   0.174   3.021   6.509 -1.9747 -2.0972 -0.9164
 5657SOL     OW28429   1.820   3.354   3.541  0.2454  0.2429  0.0687
 5657SOL    HW128430   1.903   3.392   3.571  0.1754  1.1528 -0.8793
 5657SOL    HW228431   1.784   3.307   3.615 -1.7127  2.1810  0.3569
 5658SOL     OW28432   0.202   4.656  12.914  0.6998  0.0732 -0.4135
 5658SOL    HW128433   0.263   4.596  12.871  2.7271  1.5108  0.4960
 5658SOL    HW228434   0.252   4.682  12.991 -0.7654  1.7614 -0.0227
 5659SOL     OW28435   3.494   0.060  11.326  0.2587 -0.3032  0.1153
 5659SOL    HW128436   3.562   0.012  11.373  1.0316 -1.7967 -2.5820
 5659SOL    HW228437   3.532   0.147  11.335 -0.8308  0.1833  0.0443
 5660SOL     OW28438   3.568   2.685  14.673 -0.1478 -0.0961  0.2424
 5660SOL    HW128439   3.601   2.698  14.584 -1.1940  2.1568  0.1913
 5660SOL    HW228440   3.473   2.682  14.660  0.0181 -0.3114 -0.9647
 5661SOL     OW28441   2.595   0.608   7.841  0.4041 -0.3021  0.3899
 5661SOL    HW128442   2.633   0.535   7.891 -0.6431 -1.6008 -0.7140
 5661SOL    HW228443   2.677   0.650   7.813 -1.0431  1.2523 -1.4727
 5662SOL     OW28444   4.619   2.711   0.048  0.6265 -0.2961 -0.1057
 5662SOL    HW128445   4.692   2.673  17.687  0.7662 -0.0261 -0.1071
 5662SOL    HW228446   4.577   2.638   0.093  0.3326 -1.0879 -1.6760
 5663SOL     OW28447   2.667   4.692   5.140  0.2886  0.1769 -0.2040
 5663SOL    HW128448   2.705   0.016   5.065  0.4331 -0.1207 -0.3116
 5663SOL    HW228449   2.584   0.017   5.149 -0.5049 -1.4003  0.5379
 5664SOL     OW28450   2.618   3.237   5.154  0.1557 -0.2810  0.1396
 5664SOL    HW128451   2.650   3.284   5.077 -0.8530 -0.8609 -0.6265
 5664SOL    HW228452   2.660   3.152   5.140 -0.1033 -0.3696 -0.0751
 5665SOL     OW28453   0.630   0.171  14.552  0.1152 -0.5207  0.3202
 5665SOL    HW128454   0.610   0.085  14.590  1.0304  0.0146  2.0178
 5665SOL    HW228455   0.713   0.189  14.596  0.9100 -0.9459 -0.9982
 5666SOL     OW28456   1.067   4.669  14.703  0.2663  0.2014 -0.1324
 5666SOL    HW128457   1.148   4.619  14.693 -0.9809 -1.7349 -0.5741
 5666SOL    HW228458   1.109   0.010  14.762 -2.2626  2.5434 -0.8374
 5667SOL     OW28459   4.656   4.083  16.235 -0.1909  0.1626  0.8861
 5667SOL    HW128460   4.654   4.124  16.148 -1.7796  3.4753  2.4861
 5667SOL    HW228461   4.703   4.140  16.295  1.1893 -1.5849  1.4455
 5668SOL     OW28462   3.036   1.947   8.945  0.4610  0.1161 -0.5339
 5668SOL    HW128463   2.978   1.950   8.869 -0.4740 -0.7511  0.1499
 5668SOL    HW228464   3.112   1.939   8.888  0.9308  1.7947 -0.1320
 5669SOL     OW28465   0.974   2.612   2.899  0.4062 -0.0067 -0.8478
 5669SOL    HW128466   0.893   2.624   2.849  0.0494 -0.2243 -0.3147
 5669SOL    HW228467   1.002   2.523   2.878  0.2908 -0.2648  0.1029
 5670SOL     OW28468   1.499   3.108   9.572 -0.0046  0.0803 -0.2187
 5670SOL    HW128469   1.509   3.038   9.507  1.3924  0.4113 -0.3633
 5670SOL    HW228470   1.424   3.156   9.537 -0.9353 -1.1594  0.0653
 5671SOL     OW28471   4.065   2.453   0.778 -0.5547 -0.7607  0.3004
 5671SOL    HW128472   4.044   2.441   0.871  0.3822  1.7058  0.8413
 5671SOL    HW228473   4.116   2.534   0.784 -1.5926  0.0934 -2.5828
 5672SOL     OW28474   0.275   1.339   5.350 -0.2312 -0.0124  0.3263
 5672SOL    HW128475   0.212   1.283   5.304 -0.1955  0.0802  0.1665
 5672SOL    HW228476   0.300   1.283   5.424  1.8588  0.1248 -0.2838
 5673SOL     OW28477   2.273   1.762  15.123 -0.3095 -0.2085 -0.2670
 5673SOL    HW128478   2.303   1.827  15.187 -1.8455  0.0528  0.1866
 5673SOL    HW228479   2.180   1.747  15.141 -0.5681  2.6034  0.7842
 5674SOL     OW28480   4.064   1.512   1.157 -0.2039  0.5384  0.2630
 5674SOL    HW128481   4.099   1.460   1.229  0.3738  0.7296  0.1182
 5674SOL    HW228482   4.088   1.600   1.183  0.8326 -0.1149  1.4993
 5675SOL     OW28483   0.939   3.269   3.298 -0.2250 -0.1457  0.6295
 5675SOL    HW128484   1.007   3.313   3.246 -1.3645  1.5975  0.6061
 5675SOL    HW228485   0.993   3.211   3.352  2.3398  2.8092  1.2537
 5676SOL     OW28486   4.479   3.987   6.462 -0.0999  0.1368 -0.2990
 5676SOL    HW128487   4.548   4.047   6.436 -2.1009  3.5272  2.1846
 5676SOL    HW228488   4.525   3.927   6.521  0.8072 -0.9411 -2.1143
 5677SOL     OW28489   3.782   0.532  16.223  0.3057  0.2882  0.0929
 5677SOL    HW128490   3.700   0.526  16.273 -0.8723 -1.1955 -2.0398
 5677SOL    HW228491   3.778   0.453  16.169  0.5246  3.1221 -4.1002
 5678SOL     OW28492   2.890   0.986   1.693  0.6106  0.1207 -0.3713
 5678SOL    HW128493   2.822   1.012   1.631 -0.6307  1.5442  1.6114
 5678SOL    HW228494   2.838   0.928   1.749 -1.7760  2.4822 -0.1585
 5679SOL     OW28495   4.381   0.478  13.300 -0.3798  0.6549  0.1362
 5679SOL    HW128496   4.451   0.417  13.327 -0.1110  1.4185  1.1893
 5679SOL    HW228497   4.404   0.564  13.335  0.0348 -0.2307  2.0889
 5680SOL     OW28498   0.770   2.176   2.745 -0.6625 -0.0748  0.3145
 5680SOL    HW128499   0.749   2.173   2.652  1.8822  1.0913 -0.2900
 5680SOL    HW228500   0.864   2.193   2.744 -0.8489  0.9136 -0.1715
 5681SOL     OW28501   3.430   2.392   5.091  0.1292  0.0083 -0.4904
 5681SOL    HW128502   3.348   2.406   5.044 -1.2518 -2.4794  1.1705
 5681SOL    HW228503   3.401   2.324   5.152 -0.1670  2.6210  2.2992
 5682SOL     OW28504   0.729   2.962  13.573 -0.6107  0.3344 -0.2575
 5682SOL    HW128505   0.756   2.934  13.486  2.8473  0.3715  0.8206
 5682SOL    HW228506   0.796   3.029  13.585 -1.5293  1.0923  0.6744
 5683SOL     OW28507   2.159   1.968  13.550 -0.2761  0.3863 -0.1760
 5683SOL    HW128508   2.193   2.054  13.575  2.1323 -0.7541  0.5233
 5683SOL    HW228509   2.224   1.933  13.489  0.4406  0.7299  0.3896
 5684SOL     OW28510   2.618   0.130  11.244  0.0821 -0.0693 -0.5152
 5684SOL    HW128511   2.674   0.207  11.254 -1.7608  1.2900 -0.6734
 5684SOL    HW228512   2.605   0.131  11.150 -0.2879  0.2858 -0.4600
 5685SOL     OW28513   4.606   3.443   3.275  0.1934 -0.2819  0.3535
 5685SOL    HW128514   4.611   3.531   3.238 -1.4196 -0.2915  0.0860
 5685SOL    HW228515   4.539   3.457   3.342 -0.8061 -1.3512 -0.4185
 5686SOL     OW28516   2.318   0.388   0.650  0.3026  0.0379  0.8082
 5686SOL    HW128517   2.400   0.392   0.600 -0.5960 -1.1967 -0.7473
 5686SOL    HW228518   2.259   0.399   0.576 -2.1150  1.8986  3.0327
 5687SOL     OW28519   2.705   1.827   3.139 -0.3338 -0.3749  0.0275
 5687SOL    HW128520   2.636   1.794   3.198 -1.0478  3.1449  1.1249
 5687SOL    HW228521   2.780   1.850   3.194 -0.4361  1.4245 -0.6023
 5688SOL     OW28522   1.676   4.500  12.126 -0.1301  0.1270  0.4313
 5688SOL    HW128523   1.673   4.416  12.079 -0.2784 -0.2425  1.1011
 5688SOL    HW228524   1.741   4.491  12.197  1.9086  0.5386 -1.3745
 5689SOL     OW28525   3.996   2.782   4.714 -0.1036 -0.3118  1.2027
 5689SOL    HW128526   4.041   2.754   4.794  1.0811 -0.0689  0.6162
 5689SOL    HW228527   3.912   2.739   4.728 -0.5948  0.6725  1.2995
 5690SOL     OW28528   4.242   1.414  15.261 -0.0437 -0.0060 -0.1011
 5690SOL    HW128529   4.171   1.475  15.281  1.1471  0.8488  1.5588
 5690SOL    HW228530   4.290   1.473  15.202  0.0577 -1.4151 -1.4272
 5691SOL     OW28531   3.063   0.705   7.373 -0.0062 -0.2609  0.1084
 5691SOL    HW128532   3.153   0.716   7.343 -0.8223  1.9391 -1.5325
 5691SOL    HW228533   3.026   0.793   7.367  0.1453 -0.2256 -0.3070
 5692SOL     OW28534   0.394   1.207   5.582  0.1796  0.8977 -0.0486
 5692SOL    HW128535   0.380   1.266   5.656  1.5558 -2.3358  2.7811
 5692SOL    HW228536   0.471   1.165   5.618 -0.3997 -0.8852 -0.9086
 5693SOL     OW28537   2.960   3.630   2.622 -0.6245  0.5092  0.0884
 5693SOL    HW128538   2.961   3.677   2.539 -1.2210 -1.5310 -1.0619
 5693SOL    HW228539   3.042   3.581   2.626 -0.8527 -0.0736 -2.1266
 5694SOL     OW28540   2.936   0.712   2.545  0.2271 -0.6314 -0.0928
 5694SOL    HW128541   2.949   0.807   2.547  0.6257 -0.6732 -0.6699
 5694SOL    HW228542   2.985   0.686   2.623 -0.7723  0.6239  0.9555
 5695SOL     OW28543   3.715   1.005  15.343  0.4875 -0.1561 -0.4563
 5695SOL    HW128544   3.651   1.066  15.308  0.6305  0.7231  0.7941
 5695SOL    HW228545   3.790   1.028  15.287 -0.9543  1.6123 -1.6404
 5696SOL     OW28546   1.397   4.603   1.933 -0.2416 -0.4107  0.1575
 5696SOL    HW128547   1.473   4.657   1.957 -1.2753  0.2162  2.0058
 5696SOL    HW228548   1.336   4.628   2.002 -0.8826  1.2157 -0.9858
 5697SOL     OW28549   4.508   3.016   1.059 -0.4959 -0.6466 -0.6429
 5697SOL    HW128550   4.449   3.089   1.072 -0.3989 -0.6166 -0.3646
 5697SOL    HW228551   4.589   3.061   1.035 -0.3579 -0.7174 -0.3136
 5698SOL     OW28552   0.725   3.639   4.487  0.0783 -0.2053  0.2264
 5698SOL    HW128553   0.788   3.578   4.525 -0.8011  0.4699  2.7603
 5698SOL    HW228554   0.647   3.624   4.540 -0.1009 -0.7563 -0.1934
 5699SOL     OW28555   0.705   2.011   1.635  0.0641 -0.1438 -0.2901
 5699SOL    HW128556   0.758   2.084   1.601  0.2438  0.2897  0.9421
 5699SOL    HW228557   0.673   1.976   1.552  0.5754 -1.5051  0.0727
 5700SOL     OW28558   0.615   3.672  15.620  0.0355  0.1751  0.0015
 5700SOL    HW128559   0.705   3.674  15.587 -0.4480  1.0006 -1.2505
 5700SOL    HW228560   0.592   3.765  15.624 -2.3881 -0.3811 -1.7671
 5701SOL     OW28561   4.276   1.828   7.588  0.1389 -0.2642 -0.1611
 5701SOL    HW128562   4.331   1.902   7.613 -0.7493 -0.4153  2.1511
 5701SOL    HW228563   4.233   1.802   7.669  1.2489 -2.3260 -0.2347
 5702SOL     OW28564   4.243   3.310   6.238  0.1206 -0.3155  0.4101
 5702SOL    HW128565   4.158   3.353   6.239  0.2617 -0.0596  2.0381
 5702SOL    HW228566   4.301   3.377   6.203 -1.4952  0.5739 -0.5377
 5703SOL     OW28567   1.475   3.985  13.012  0.5551 -0.3367  0.3981
 5703SOL    HW128568   1.476   4.057  13.075  0.5147  0.0125  0.0005
 5703SOL    HW228569   1.438   4.044  12.947  1.9938  0.6794  0.5245
 5704SOL     OW28570   3.232   4.466   8.995 -0.1444 -0.1323  0.4854
 5704SOL    HW128571   3.285   4.404   9.046 -2.0129 -2.1159  0.0553
 5704SOL    HW228572   3.157   4.414   8.967 -0.8261  0.5584  1.0236
 5705SOL     OW28573   3.009   0.787  13.539  0.1289 -0.0178 -0.6455
 5705SOL    HW128574   2.985   0.835  13.619  4.0981  0.2842  0.3651
 5705SOL    HW228575   2.944   0.717  13.532 -0.1924  0.4422 -2.1732
 5706SOL     OW28576   4.121   4.390   0.059  0.0711 -0.0789 -0.2601
 5706SOL    HW128577   4.032   4.411   0.033 -0.4259 -4.6260 -2.1674
 5706SOL    HW228578   4.156   4.477   0.079 -3.4713  1.4067 -0.4980
 5707SOL     OW28579   3.803   2.684   4.944 -0.1031  0.0395  0.2394
 5707SOL    HW128580   3.831   2.601   4.984  0.7958  0.4729  0.5243
 5707SOL    HW228581   3.822   2.752   5.009  0.4947 -1.3179  1.4929
 5708SOL     OW28582   3.811   2.712  14.798  0.1657 -0.2259 -0.3546
 5708SOL    HW128583   3.724   2.705  14.760  0.7408 -0.3928 -1.6496
 5708SOL    HW228584   3.854   2.644  14.747 -0.8672 -0.3506 -1.0623
 5709SOL     OW28585   4.579   3.165   9.661  0.3449 -0.1154 -0.0963
 5709SOL    HW128586   4.537   3.251   9.662 -0.0002 -0.2901  0.3849
 5709SOL    HW228587   4.513   3.113   9.616 -0.0320 -0.7892  1.2373
 5710SOL     OW28588   2.219   1.652   3.312 -0.1408 -0.1515  0.0379
 5710SOL    HW128589   2.235   1.603   3.231 -0.6746 -0.3087  0.0302
 5710SOL    HW228590   2.259   1.589   3.373 -2.0580 -0.1864  1.2268
 5711SOL     OW28591   0.099   0.648   0.974  0.3949 -0.3769 -0.2094
 5711SOL    HW128592   0.120   0.737   1.003 -0.7725  0.1129 -0.8583
 5711SOL    HW228593   0.052   0.615   1.051  0.1865 -0.5449 -0.4107
 5712SOL     OW28594   4.257   3.462   9.235 -0.8818  0.1935  0.1021
 5712SOL    HW128595   4.167   3.434   9.249 -0.2358 -1.2584  1.3872
 5712SOL    HW228596   4.302   3.379   9.251 -0.8729  0.3088  0.6831
 5713SOL     OW28597   4.527   2.821   2.816 -0.1053 -0.0285  0.3212
 5713SOL    HW128598   4.477   2.759   2.762 -2.2816 -0.0980  2.4055
 5713SOL    HW228599   4.523   2.776   2.900  0.7454 -1.5871 -0.4604
 5714SOL     OW28600   1.939   0.606   7.882 -0.1685  0.0065  0.5401
 5714SOL    HW128601   1.909   0.646   7.800  1.4801 -0.3423 -0.2320
 5714SOL    HW228602   1.875   0.534   7.884  0.4342 -0.5104  1.2452
 5715SOL     OW28603   3.932   3.379   6.927 -0.7215 -0.1446 -0.2030
 5715SOL    HW128604   3.958   3.287   6.935 -0.9559 -0.3083 -1.3583
 5715SOL    HW228605   3.934   3.406   7.019 -0.0837 -0.2203 -0.1983
 5716SOL     OW28606   3.215   1.407   0.057 -0.1661  0.3653 -0.4069
 5716SOL    HW128607   3.251   1.343   0.119 -1.9669 -0.6450 -0.3885
 5716SOL    HW228608   3.157   1.359  17.686 -1.6084  0.3624  0.9958
 5717SOL     OW28609   1.613   1.902   8.397  0.0944  0.2496  0.4296
 5717SOL    HW128610   1.604   1.841   8.470  1.2069  0.1453  0.4789
 5717SOL    HW228611   1.614   1.841   8.323 -0.2999 -0.8811  1.3729
 5718SOL     OW28612   3.880   1.000  12.689 -0.4202  0.1104 -0.1123
 5718SOL    HW128613   3.873   0.954  12.773  1.3711 -1.5595 -0.8540
 5718SOL    HW228614   3.839   0.936  12.631 -1.6132  1.8691 -1.2037
 5719SOL     OW28615   1.754   0.017  12.122  0.4920  0.3459 -0.2432
 5719SOL    HW128616   1.818   0.001  12.053 -0.6117 -0.1886 -1.1395
 5719SOL    HW228617   1.716   4.651  12.113 -0.3665  0.8551 -1.5673
 5720SOL     OW28618   4.721   1.091   7.332  0.4304 -0.0431 -0.3829
 5720SOL    HW128619   0.061   1.053   7.395  1.3146 -0.1050 -1.2824
 5720SOL    HW228620   4.672   1.015   7.301  0.2018 -0.1499  0.2431
 5721SOL     OW28621   0.538   1.229   8.438 -0.3291 -0.0607  0.1377
 5721SOL    HW128622   0.451   1.263   8.458 -0.3783 -0.0359 -0.1176
 5721SOL    HW228623   0.593   1.280   8.497  1.0657 -1.9019  0.4351
 5722SOL     OW28624   0.339   1.900   6.287 -0.3016  0.1488  0.0298
 5722SOL    HW128625   0.425   1.865   6.311  0.2722  0.5190 -1.5338
 5722SOL    HW228626   0.321   1.850   6.207 -2.3600  1.1938 -0.1660
 5723SOL     OW28627   2.463   2.094  12.317 -0.9921 -0.1332  0.1101
 5723SOL    HW128628   2.446   2.006  12.284 -2.5702  0.4581 -0.6350
 5723SOL    HW228629   2.551   2.111  12.283 -1.6907  0.2342 -1.4844
 5724SOL     OW28630   2.110   2.764   6.205 -0.2703 -0.2672  0.2897
 5724SOL    HW128631   2.072   2.702   6.267  0.3629 -0.0089  0.9315
 5724SOL    HW228632   2.187   2.797   6.251  0.3172 -0.3083 -0.6527
 5725SOL     OW28633   1.344   3.219   3.794 -0.3902  0.9359  0.2998
 5725SOL    HW128634   1.251   3.201   3.808 -0.2214 -0.1489 -0.0019
 5725SOL    HW228635   1.364   3.235   3.886  1.1040  0.0773  0.1243
 5726SOL     OW28636   0.972   3.637  11.214  0.1489 -0.7402 -0.6947
 5726SOL    HW128637   1.050   3.601  11.173  0.7833  0.9713 -0.9976
 5726SOL    HW228638   0.970   3.729  11.187  2.0731  0.2840  2.7290
 5727SOL     OW28639   3.359   0.608   7.509 -0.0925 -0.8416  0.1303
 5727SOL    HW128640   3.353   0.629   7.416  0.3447 -2.5082 -0.2806
 5727SOL    HW228641   3.444   0.564   7.502  0.0012 -1.1446  2.9376
 5728SOL     OW28642   2.070   4.555   4.293 -0.0502  0.3495 -0.3358
 5728SOL    HW128643   2.096   4.647   4.292  0.7014  0.1487  0.7691
 5728SOL    HW228644   2.140   4.524   4.350 -0.7805  0.6213  0.6931
 5729SOL     OW28645   1.011   1.741   4.573 -0.1462 -0.2675  0.3464
 5729SOL    HW128646   0.974   1.811   4.626 -1.2289 -2.9631  3.1221
 5729SOL    HW228647   1.013   1.658   4.622  2.8849  0.6141  1.7384
 5730SOL     OW28648   3.069   0.210   3.237  0.2777 -0.3913  0.0544
 5730SOL    HW128649   2.981   0.247   3.242 -0.1822 -1.6707  1.2309
 5730SOL    HW228650   3.104   0.196   3.325 -0.6910  3.7842  1.1198
 5731SOL     OW28651   1.109   4.069   9.077  0.2588 -0.0175 -0.0162
 5731SOL    HW128652   1.201   4.051   9.057  0.5632  1.1502  0.3658
 5731SOL    HW228653   1.078   3.990   9.123 -3.2949  0.9983 -0.6390
 5732SOL     OW28654   1.084   2.689  15.432  0.0421  0.2571 -0.1928
 5732SOL    HW128655   1.172   2.712  15.402  0.6491 -1.0293  0.6012
 5732SOL    HW228656   1.075   2.761  15.494  1.9597 -1.4606  2.0834
 5733SOL     OW28657   3.643   4.644   6.268 -0.4957 -0.2949 -0.4373
 5733SOL    HW128658   3.645   4.678   6.179  1.7186  1.3088  0.2162
 5733SOL    HW228659   3.657   4.551   6.251 -0.8647 -0.2682 -0.8778
 5734SOL     OW28660   1.902   1.589   8.551  0.5400  0.2897  0.5114
 5734SOL    HW128661   1.911   1.571   8.645  1.2166  2.8605  0.9319
 5734SOL    HW228662   1.958   1.666   8.549 -0.4148  1.0283  1.9417
 5735SOL     OW28663   2.350   1.952   3.150 -0.3613  0.0922  0.0579
 5735SOL    HW128664   2.407   1.956   3.074 -2.2806 -1.5851 -1.4740
 5735SOL    HW228665   2.400   1.893   3.207 -1.6220 -0.1977  0.8761
 5736SOL     OW28666   2.750   0.598  10.410  0.1986  0.3873 -0.4130
 5736SOL    HW128667   2.776   0.569  10.498 -1.0760 -3.1499 -1.1613
 5736SOL    HW228668   2.661   0.620  10.439 -0.5273 -2.2827 -0.5698
 5737SOL     OW28669   0.307   1.997   7.534 -0.0196 -0.8028 -0.1268
 5737SOL    HW128670   0.358   2.043   7.468 -0.5741 -2.0466 -1.4147
 5737SOL    HW228671   0.375   1.966   7.594  0.0486  0.1391  0.2768
 5738SOL     OW28672   0.136   4.521  16.345  0.1499 -0.6828 -0.1900
 5738SOL    HW128673   0.216   4.552  16.386 -0.6957 -0.3343  1.1951
 5738SOL    HW228674   0.147   4.567  16.262  0.1153 -4.0067 -2.0439
 5739SOL     OW28675   1.686   1.420   9.128  0.1823  0.3165  0.3137
 5739SOL    HW128676   1.705   1.509   9.099 -0.0476  0.1369 -0.3792
 5739SOL    HW228677   1.591   1.423   9.133  0.1598 -2.1800  1.5657
 5740SOL     OW28678   2.541   1.232   7.048 -0.7863  0.2620 -0.0493
 5740SOL    HW128679   2.619   1.252   6.996 -0.1210 -0.4224  0.7007
 5740SOL    HW228680   2.578   1.205   7.132 -1.5853 -2.6474 -0.6441
 5741SOL     OW28681   0.708   4.623   3.581  0.6450  0.0922 -0.0302
 5741SOL    HW128682   0.760   4.667   3.648  0.9376 -1.9085  1.0570
 5741SOL    HW228683   0.730   4.533   3.603 -0.4358 -0.0943  0.2741
 5742SOL     OW28684   2.252   1.031   5.328 -0.1081  0.7976  0.6675
 5742SOL    HW128685   2.251   0.935   5.324  0.0987  0.8915 -1.7963
 5742SOL    HW228686   2.219   1.045   5.239 -1.3697 -0.8940  0.8632
 5743SOL     OW28687   3.055   4.676   0.716  0.4552  0.2663  0.4990
 5743SOL    HW128688   3.150   4.671   0.710  0.5388  1.6523  0.7270
 5743SOL    HW228689   3.039   4.583   0.734 -0.1330  0.3824  0.5890
 5744SOL     OW28690   1.999   1.471   1.953  0.0623 -0.3453  0.0783
 5744SOL    HW128691   1.966   1.382   1.958  0.0663 -0.3039  0.8444
 5744SOL    HW228692   2.071   1.470   2.017  0.5005  2.2045 -0.3829
 5745SOL     OW28693   4.139   3.471   9.682  0.7336 -0.2612 -0.0254
 5745SOL    HW128694   4.218   3.422   9.706 -1.1286 -1.9446  2.7381
 5745SOL    HW228695   4.166   3.561   9.696 -1.4930  0.2155  1.2153
 5746SOL     OW28696   4.568   2.796  17.076  0.1830 -0.8888 -0.2829
 5746SOL    HW128697   4.547   2.789  17.169 -0.9690  2.1401 -0.3375
 5746SOL    HW228698   4.637   2.862  17.072  1.1017 -1.7953  0.4491
 5747SOL     OW28699   2.019   0.623   1.358  0.0092 -0.3258 -0.4298
 5747SOL    HW128700   1.987   0.705   1.320  0.9519  0.0254 -0.4644
 5747SOL    HW228701   2.066   0.586   1.283 -2.1891 -1.2493 -1.3221
 5748SOL     OW28702   1.936   2.485  12.428 -0.0951  0.0840 -0.1481
 5748SOL    HW128703   1.963   2.399  12.461  1.7526  1.1451  1.1544
 5748SOL    HW228704   1.971   2.487  12.339 -0.4893  0.3508 -0.2937
 5749SOL     OW28705   2.099   3.315   4.481 -0.1578  0.0791 -0.5035
 5749SOL    HW128706   2.177   3.337   4.430 -0.1200  0.4039 -0.3043
 5749SOL    HW228707   2.032   3.367   4.436 -1.4230 -0.6803  0.5035
 5750SOL     OW28708   4.708   1.018  17.235 -0.9476  0.5558  0.5111
 5750SOL    HW128709   4.672   0.935  17.203 -3.3504  1.4710  0.8142
 5750SOL    HW228710   0.044   1.048  17.164 -0.4995 -0.7485  0.3145
 5751SOL     OW28711   2.123   3.350   4.740 -0.0109  0.0787 -0.5451
 5751SOL    HW128712   2.116   3.350   4.644  0.3839  1.8191 -0.5775
 5751SOL    HW228713   2.205   3.308   4.764 -0.1865  1.4029  2.3260
 5752SOL     OW28714   1.150   3.592   4.578 -0.4382 -0.2423  0.0144
 5752SOL    HW128715   1.132   3.670   4.630 -0.3476 -0.2264  0.0228
 5752SOL    HW228716   1.091   3.599   4.503  0.7204  0.2933 -0.8626
 5753SOL     OW28717   0.549   2.726   6.453 -0.0835 -0.5644  0.1003
 5753SOL    HW128718   0.502   2.799   6.493  1.6855  0.9361 -0.5613
 5753SOL    HW228719   0.487   2.682   6.395  2.5554 -1.0202 -2.4027
 5754SOL     OW28720   1.393   1.042   0.512  0.1151 -0.0650 -0.5977
 5754SOL    HW128721   1.378   1.114   0.573 -0.9572 -0.5420 -0.3124
 5754SOL    HW228722   1.400   1.093   0.431  0.6473 -1.3598 -1.3807
 5755SOL     OW28723   0.624   3.628   3.877  0.0433 -0.0163  0.0124
 5755SOL    HW128724   0.564   3.703   3.870  0.4233  0.2627 -0.2825
 5755SOL    HW228725   0.598   3.594   3.962 -0.1695  1.4594  0.5364
 5756SOL     OW28726   3.860   3.280   2.718 -0.8016 -0.8439  0.1509
 5756SOL    HW128727   3.826   3.279   2.629  2.4997 -1.7887 -1.1052
 5756SOL    HW228728   3.954   3.277   2.697 -0.2290  0.5876  2.4580
 5757SOL     OW28729   1.874   1.117   7.108  0.2438 -0.0778  0.3521
 5757SOL    HW128730   1.785   1.139   7.137  0.2459 -0.8149  0.9325
 5757SOL    HW228731   1.916   1.091   7.191 -0.0398  3.1021  1.4820
 5758SOL     OW28732   4.043   1.382  12.240  0.3222  0.1312 -0.2661
 5758SOL    HW128733   3.994   1.365  12.320  2.1082  0.1487  0.8143
 5758SOL    HW228734   3.973   1.362  12.178  0.0598  0.4824 -0.0836
 5759SOL     OW28735   2.289   1.220   7.441  0.4499  0.0275  0.0828
 5759SOL    HW128736   2.246   1.289   7.492 -1.0706  0.8469 -2.3377
 5759SOL    HW228737   2.303   1.249   7.351 -0.0865  3.8802  1.2157
 5760SOL     OW28738   3.274   3.797   7.825  0.6901 -0.3031  0.3260
 5760SOL    HW128739   3.255   3.784   7.918  1.3896 -1.7391  0.2663
 5760SOL    HW228740   3.206   3.735   7.797  3.1931 -1.9757 -1.9695
 5761SOL     OW28741   2.101   4.170   0.775  0.1941 -0.2245 -0.2159
 5761SOL    HW128742   2.134   4.165   0.685  0.8424  1.6454 -0.0803
 5761SOL    HW228743   2.009   4.147   0.768  0.7890 -2.2379 -1.6718
 5762SOL     OW28744   3.738   4.418   7.778 -0.2289  0.4275  0.2323
 5762SOL    HW128745   3.659   4.442   7.826 -0.4640 -2.1943  1.1582
 5762SOL    HW228746   3.721   4.324   7.774  0.3025  0.3221  0.4861
 5763SOL     OW28747   0.670   3.701   4.937 -0.5299 -0.3444 -0.5449
 5763SOL    HW128748   0.618   3.778   4.917  0.3107 -0.0878 -1.7093
 5763SOL    HW228749   0.717   3.674   4.859 -2.5570  0.0361 -1.8813
 5764SOL     OW28750   3.325   0.609  13.895  0.4588  0.0401 -0.1827
 5764SOL    HW128751   3.368   0.542  13.948  2.5538  1.2847 -0.3511
 5764SOL    HW228752   3.296   0.667  13.965  1.5076 -0.7915  0.9432
 5765SOL     OW28753   3.184   3.893   1.148 -0.1064  0.0147 -0.7274
 5765SOL    HW128754   3.260   3.943   1.121 -0.2570  0.6214 -0.0317
 5765SOL    HW228755   3.189   3.905   1.243  1.4219  0.0261 -0.8087
 5766SOL     OW28756   1.262   3.566  17.319 -0.3802  0.5791 -0.1520
 5766SOL    HW128757   1.306   3.598  17.241 -1.5102  1.7987 -0.2917
 5766SOL    HW228758   1.298   3.621  17.390 -0.1689  0.1362  0.0833
 5767SOL     OW28759   3.762   0.860  16.387 -0.3528 -0.4547  0.6067
 5767SOL    HW128760   3.761   0.832  16.295  3.3406 -1.1075  0.8005
 5767SOL    HW228761   3.772   0.776  16.431  1.8474 -1.2900 -1.5309
 5768SOL     OW28762   1.599   0.558   7.044 -0.3884 -0.3592 -0.0036
 5768SOL    HW128763   1.606   0.575   7.138  0.1727  0.8324 -0.2680
 5768SOL    HW228764   1.555   0.639   7.018  1.0845 -0.0930 -1.6739
 5769SOL     OW28765   4.538   2.045  13.069  0.6664 -0.6360 -0.6985
 5769SOL    HW128766   4.447   2.072  13.057  0.7121  0.1356  0.7054
 5769SOL    HW228767   4.517   1.952  13.077 -1.7608 -0.0161  0.1667
 5770SOL     OW28768   3.606   3.289  14.046  0.1799  0.2851 -0.2970
 5770SOL    HW128769   3.543   3.328  14.107 -0.3336 -0.3742 -0.4019
 5770SOL    HW228770   3.680   3.273  14.104 -0.4018  1.0270  0.6638
 5771SOL     OW28771   0.335   4.169  16.270  0.3970  0.6950 -0.7746
 5771SOL    HW128772   0.274   4.106  16.232  2.1077 -2.7475  2.2251
 5771SOL    HW228773   0.344   4.120  16.352  0.1571  1.1399 -0.4841
 5772SOL     OW28774   2.621   1.450   5.472 -0.0384  0.2670 -0.1031
 5772SOL    HW128775   2.568   1.372   5.486  1.6632 -1.4836 -3.5378
 5772SOL    HW228776   2.678   1.423   5.400 -1.9366  2.1298 -2.3112
 5773SOL     OW28777   3.953   2.692   3.838  0.3691 -0.5106  0.1926
 5773SOL    HW128778   3.948   2.598   3.822  1.1095 -0.6378  0.7031
 5773SOL    HW228779   4.016   2.723   3.774 -0.8996  1.9806  0.1229
 5774SOL     OW28780   4.121   1.878   8.841  0.0677  0.5460 -1.1045
 5774SOL    HW128781   4.075   1.960   8.858  0.6997  0.8860 -1.0454
 5774SOL    HW228782   4.047   1.817   8.843  0.8565 -0.3952 -1.0841
 5775SOL     OW28783   4.444   2.448  17.440 -0.1454 -0.0956  0.1116
 5775SOL    HW128784   4.482   2.383  17.381  0.9116  1.1465 -0.5797
 5775SOL    HW228785   4.388   2.402  17.503 -3.4149  2.9215 -0.5662
 5776SOL     OW28786   4.211   2.914   3.165  0.1869  0.0113 -0.1852
 5776SOL    HW128787   4.230   2.831   3.120 -2.4830 -1.2304  1.0180
 5776SOL    HW228788   4.124   2.939   3.134 -0.0109  0.7442  0.9609
 5777SOL     OW28789   0.955   1.801  14.034  0.0739  0.3572  0.3379
 5777SOL    HW128790   0.932   1.722  13.985  0.1254  1.3824 -1.3216
 5777SOL    HW228791   0.984   1.761  14.116 -1.0837  0.3492  0.7578
 5778SOL     OW28792   2.058   1.406  10.897 -0.3460  0.3775  0.3118
 5778SOL    HW128793   1.974   1.399  10.852 -0.4113  0.3769  0.4348
 5778SOL    HW228794   2.092   1.493  10.873  1.0376  0.1217  1.3530
 5779SOL     OW28795   1.770   2.413   3.041 -0.0007 -0.1926  0.1698
 5779SOL    HW128796   1.676   2.427   3.038  0.3281  2.0039  0.1038
 5779SOL    HW228797   1.781   2.395   3.135  0.7696  2.0874  0.5190
 5780SOL     OW28798   0.878   3.609   7.328  0.5966  0.3511  0.1907
 5780SOL    HW128799   0.914   3.681   7.275  0.7126 -1.3823 -2.0717
 5780SOL    HW228800   0.958   3.577   7.369 -0.7464 -1.3215  1.4577
 5781SOL     OW28801   1.448   3.443   7.711  0.4429  0.8561 -0.0979
 5781SOL    HW128802   1.535   3.418   7.682 -0.6511 -2.2205 -0.7618
 5781SOL    HW228803   1.457   3.417   7.803  1.7289  1.2793 -0.1068
 5782SOL     OW28804   0.172   1.481  17.286 -0.0329 -0.1414  0.1013
 5782SOL    HW128805   0.129   1.397  17.276  1.7882 -0.9866 -0.6228
 5782SOL    HW228806   0.190   1.485  17.380 -0.1545  0.0189  0.1170
 5783SOL     OW28807   0.792   2.452  15.829  0.5007 -0.0321  0.3093
 5783SOL    HW128808   0.740   2.451  15.909  1.1058  0.8969  0.7029
 5783SOL    HW228809   0.766   2.533  15.786  1.3651  0.5720  0.9362
 5784SOL     OW28810   1.336   0.108   3.794  0.3209 -0.1377  0.0613
 5784SOL    HW128811   1.252   0.141   3.762  0.3730  0.0323  0.0991
 5784SOL    HW228812   1.360   0.187   3.844  1.5559 -1.7085  1.9515
 5785SOL     OW28813   1.252   2.520   3.788  0.5329 -0.3305 -0.2359
 5785SOL    HW128814   1.295   2.605   3.793  0.4282 -0.4479  2.3771
 5785SOL    HW228815   1.172   2.540   3.740  0.6755  1.6252  0.3668
 5786SOL     OW28816   2.721   2.454   6.597  0.3056  0.3890  0.0121
 5786SOL    HW128817   2.784   2.424   6.663 -1.3794  0.0720  1.4625
 5786SOL    HW228818   2.746   2.544   6.576 -1.3702  1.1018  1.0554
 5787SOL     OW28819   4.498   2.670  13.387  0.3788  0.0773 -0.1384
 5787SOL    HW128820   4.465   2.598  13.333  0.0130  1.3264 -1.5901
 5787SOL    HW228821   4.528   2.625  13.466  1.5696  0.1912 -0.5398
 5788SOL     OW28822   0.827   3.192   2.114 -0.1969 -0.2676 -0.6877
 5788SOL    HW128823   0.755   3.149   2.069 -0.5173 -1.6817  1.1994
 5788SOL    HW228824   0.870   3.114   2.150 -1.7109 -0.3491  0.9429
 5789SOL     OW28825   0.754   3.421  11.718  0.5162 -0.0487 -0.4896
 5789SOL    HW128826   0.673   3.370  11.719 -1.2478  2.8351  2.7746
 5789SOL    HW228827   0.792   3.392  11.635 -0.4898 -0.7928 -0.6861
 5790SOL     OW28828   1.933   1.228   1.291 -0.3799 -0.2483 -0.0069
 5790SOL    HW128829   1.844   1.245   1.323 -0.2304 -0.6672  0.6205
 5790SOL    HW228830   1.961   1.310   1.251 -0.2698  0.9920  2.6676
 5791SOL     OW28831   1.245   0.422   5.851  0.4932  0.9870  0.3929
 5791SOL    HW128832   1.254   0.498   5.909  1.2875 -0.8088  2.6211
 5791SOL    HW228833   1.174   0.381   5.900  1.9302 -2.2339 -0.2096
 5792SOL     OW28834   0.948   0.120  10.145  0.2557  0.5051  0.0233
 5792SOL    HW128835   0.893   0.152  10.074 -1.4013  0.9114  1.5083
 5792SOL    HW228836   1.016   0.187  10.138  1.2253 -0.6664 -2.1227
 5793SOL     OW28837   1.340   3.324   0.845  0.5527 -0.1719 -0.0994
 5793SOL    HW128838   1.366   3.243   0.800 -0.8702 -0.8706  0.3112
 5793SOL    HW228839   1.383   3.327   0.930  1.2447  2.2217 -0.5404
 5794SOL     OW28840   1.032   4.119   8.346  0.0807  0.1917 -0.2642
 5794SOL    HW128841   1.038   4.044   8.405  1.0607 -0.1176 -0.7655
 5794SOL    HW228842   1.118   4.114   8.305  1.2745  2.5368  1.9875
 5795SOL     OW28843   1.781   0.232   1.330 -0.5930 -0.1745  0.3105
 5795SOL    HW128844   1.831   0.229   1.411 -1.8752  4.0394  1.2777
 5795SOL    HW228845   1.819   0.158   1.282  0.5110  0.5178  0.1210
 5796SOL     OW28846   2.867   2.004   4.457  0.0340  0.1276  0.4592
 5796SOL    HW128847   2.792   1.963   4.500 -0.0285  0.1004  0.3252
 5796SOL    HW228848   2.925   1.931   4.435  0.9250  1.0667 -0.2662
 5797SOL     OW28849   2.600   2.198   8.219  0.2693 -0.2121  0.5737
 5797SOL    HW128850   2.606   2.159   8.306 -1.5849  0.2499  0.9143
 5797SOL    HW228851   2.684   2.243   8.210 -0.5689  0.8164 -2.0936
 5798SOL     OW28852   3.458   1.234  14.313  0.2516 -0.1446 -0.1870
 5798SOL    HW128853   3.453   1.328  14.330  0.8236 -0.0301 -0.6657
 5798SOL    HW228854   3.434   1.192  14.396  3.7126  3.0293  2.3909
 5799SOL     OW28855   2.046   0.125   2.891 -0.0037 -0.2811 -0.0377
 5799SOL    HW128856   2.035   0.039   2.931  1.5241 -1.4834 -2.1660
 5799SOL    HW228857   2.051   0.108   2.796 -0.2732  1.5407 -0.3714
 5800SOL     OW28858   1.530   2.221   5.142 -0.2359  0.3275 -0.0121
 5800SOL    HW128859   1.476   2.257   5.072 -0.8724  0.7965  0.7140
 5800SOL    HW228860   1.615   2.257   5.117  0.3669 -1.7888 -0.9290
 5801SOL     OW28861   2.920   0.471  14.456  0.2938 -0.0429  0.4445
 5801SOL    HW128862   2.889   0.523  14.530  0.5649  3.2996 -1.7829
 5801SOL    HW228863   2.972   0.540  14.416  0.7688  0.1460  1.3852
 5802SOL     OW28864   3.224   2.093  15.332  0.0875  0.3165  0.4940
 5802SOL    HW128865   3.184   2.086  15.246  0.7500  0.7236  0.1492
 5802SOL    HW228866   3.299   2.148  15.309  0.4405  0.7837  2.6681
 5803SOL     OW28867   1.107   2.498  16.554  0.0974  0.1997 -0.0910
 5803SOL    HW128868   1.152   2.465  16.631 -0.4161 -0.2551  0.0128
 5803SOL    HW228869   1.182   2.537  16.509 -1.5602  0.4456 -2.7182
 5804SOL     OW28870   3.400   3.886  11.120 -0.7696 -0.0365  0.2759
 5804SOL    HW128871   3.484   3.916  11.154  1.2602 -1.8509 -3.2081
 5804SOL    HW228872   3.432   3.798  11.141 -0.9667 -0.5648 -1.6492
 5805SOL     OW28873   2.706   4.604   7.703  0.1239 -0.7044 -0.2825
 5805SOL    HW128874   2.716   4.638   7.614 -1.2825 -3.1684 -1.3912
 5805SOL    HW228875   2.662   4.681   7.741 -0.0276 -2.5733  3.3944
 5806SOL     OW28876   2.031   2.844   7.037  0.2407 -0.3663 -0.5121
 5806SOL    HW128877   1.974   2.813   7.106 -0.5465  2.3355  0.0654
 5806SOL    HW228878   1.981   2.909   6.987  1.9549  0.1264 -1.5905
 5807SOL     OW28879   2.653   2.143   5.157  0.3195  0.2284 -0.0858
 5807SOL    HW128880   2.711   2.206   5.200  0.0527  0.4458 -0.0435
 5807SOL    HW228881   2.569   2.173   5.190  0.4894  1.4143 -0.7000
 5808SOL     OW28882   4.434   0.419   4.022  0.1544 -0.0751  0.2128
 5808SOL    HW128883   4.372   0.356   3.984 -1.7609 -0.0709  3.3170
 5808SOL    HW228884   4.474   0.448   3.941 -0.9402  0.6375 -0.0698
 5809SOL     OW28885   3.597   2.231   6.936  0.2244  0.2353 -0.6164
 5809SOL    HW128886   3.504   2.239   6.913  0.4942  1.9230 -1.1206
 5809SOL    HW228887   3.590   2.149   6.986 -0.8123 -1.1788 -3.0867
 5810SOL     OW28888   2.535   3.647   9.148  0.3299  0.4211 -0.1427
 5810SOL    HW128889   2.488   3.670   9.068 -0.1148  0.9975  0.2823
 5810SOL    HW228890   2.589   3.572   9.124  0.4850  0.5541 -0.2098
 5811SOL     OW28891   4.476   4.164   4.415  0.1021 -0.2975  0.5526
 5811SOL    HW128892   4.569   4.185   4.426 -0.1878  3.0127 -2.9885
 5811SOL    HW228893   4.454   4.199   4.329 -0.0969 -2.8953 -0.4556
 5812SOL     OW28894   1.262   0.414   2.020  0.1808 -0.2005 -0.1972
 5812SOL    HW128895   1.247   0.335   1.968  1.0694  0.8222 -1.9908
 5812SOL    HW228896   1.282   0.472   1.947 -0.7508  1.3429  0.7708
 5813SOL     OW28897   0.454   3.044  13.450 -0.5728  0.2481 -0.5112
 5813SOL    HW128898   0.446   3.136  13.476  0.2755 -0.0095  0.6428
 5813SOL    HW228899   0.530   3.015  13.500 -1.1703  0.0554  0.2892
 5814SOL     OW28900   4.646   1.978   3.383  0.2935 -0.2270  0.3716
 5814SOL    HW128901   4.674   1.987   3.474  0.9117 -0.3780  0.1923
 5814SOL    HW228902   4.551   1.989   3.392 -0.0596 -1.4769 -1.8484
 5815SOL     OW28903   3.680   1.076   8.651  0.8214 -0.1129 -0.0474
 5815SOL    HW128904   3.728   0.993   8.650  0.1808 -0.5472  3.9403
 5815SOL    HW228905   3.741   1.148   8.633  0.4355  0.2746  0.1712
 5816SOL     OW28906   1.185   0.564   2.916  0.2718  0.1469  0.1567
 5816SOL    HW128907   1.099   0.530   2.941 -0.3281  0.7686 -1.0743
 5816SOL    HW228908   1.185   0.645   2.967 -1.2014  0.5351 -0.4908
 5817SOL     OW28909   2.364   3.215   5.715  0.2315 -0.1313  0.2929
 5817SOL    HW128910   2.314   3.288   5.751  1.7103  2.4733 -2.9293
 5817SOL    HW228911   2.444   3.257   5.685 -1.5859  2.5381 -0.8570
 5818SOL     OW28912   4.572   1.375   4.415 -0.3942  0.2188  0.3339
 5818SOL    HW128913   4.499   1.324   4.381 -0.6849  0.4730  0.5854
 5818SOL    HW228914   4.548   1.403   4.503 -0.2293 -1.2334  0.8364
 5819SOL     OW28915   3.465   3.934   5.516  0.6482 -0.2362 -0.5709
 5819SOL    HW128916   3.401   4.001   5.490 -0.2057 -0.8874 -0.1758
 5819SOL    HW228917   3.412   3.884   5.579  0.4892 -1.2980 -1.5507
 5820SOL     OW28918   2.412   3.532   7.776  0.1141 -0.6154  0.1929
 5820SOL    HW128919   2.470   3.606   7.795 -0.8773  0.2350 -0.1175
 5820SOL    HW228920   2.460   3.479   7.713 -1.4035 -1.2707 -0.3917
 5821SOL     OW28921   1.227   2.433  16.981  0.5736  0.6894 -0.1711
 5821SOL    HW128922   1.150   2.484  16.956 -0.1027 -0.1300  0.2324
 5821SOL    HW228923   1.269   2.409  16.899 -0.8424  0.8786 -0.9362
 5822SOL     OW28924   0.523   2.063   6.041 -0.5270  0.4860 -0.0480
 5822SOL    HW128925   0.518   1.979   5.995 -0.3324  0.5209 -0.1327
 5822SOL    HW228926   0.469   2.124   5.990 -2.8531 -2.3121 -0.8820
 5823SOL     OW28927   3.668   3.824   4.985  0.4983  0.7188  0.0668
 5823SOL    HW128928   3.664   3.785   5.073  1.8351  2.2602  0.8121
 5823SOL    HW228929   3.733   3.894   4.990  0.6015  0.6358 -0.0980
 5824SOL     OW28930   3.448   2.920   7.285 -0.0209  0.4412  0.6263
 5824SOL    HW128931   3.488   3.001   7.318 -0.8060  0.3842  1.6814
 5824SOL    HW228932   3.511   2.869   7.336 -1.8362  0.4967  2.8716
 5825SOL     OW28933   2.520   4.297   1.634  0.1735  0.6316  0.3587
 5825SOL    HW128934   2.509   4.244   1.554 -2.4248  0.2866  0.9624
 5825SOL    HW228935   2.472   4.248   1.700 -0.2368  1.0375  0.3597
 5826SOL     OW28936   0.204   0.286   7.265  0.2196  0.5624  0.2741
 5826SOL    HW128937   0.229   0.256   7.353 -0.2928  0.7365  0.4756
 5826SOL    HW228938   0.109   0.279   7.273  0.4011 -1.9840  0.1726
 5827SOL     OW28939   4.153   2.601   5.577  0.0199 -0.1100 -0.0870
 5827SOL    HW128940   4.094   2.527   5.559 -0.5272  0.5073 -0.9002
 5827SOL    HW228941   4.128   2.664   5.509 -1.2932 -2.9276 -2.2907
 5828SOL     OW28942   3.370   2.595  12.722  1.0029 -0.3011 -0.0844
 5828SOL    HW128943   3.429   2.599  12.646  0.1409 -2.9593 -0.9035
 5828SOL    HW228944   3.378   2.680  12.765 -0.3566 -0.2017 -0.0246
 5829SOL     OW28945   4.366   3.456   9.955  0.4308 -0.0305 -0.0477
 5829SOL    HW128946   4.408   3.492  10.034 -1.5591  0.9869  0.5340
 5829SOL    HW228947   4.276   3.485   9.967  0.3217 -0.9219  1.3156
 5830SOL     OW28948   4.405   2.884   8.244  0.3149  0.2150  0.4547
 5830SOL    HW128949   4.343   2.822   8.205 -0.3273  1.1492  0.0123
 5830SOL    HW228950   4.441   2.836   8.318  1.9589  0.9572  0.1248
 5831SOL     OW28951   1.551   0.471   4.808  0.0894 -0.0323 -0.2614
 5831SOL    HW128952   1.511   0.502   4.727 -0.0574  0.1632 -0.1130
 5831SOL    HW228953   1.557   0.548   4.864 -1.0888  0.9527 -1.4767
 5832SOL     OW28954   0.446   1.424  11.846  0.5060 -0.1460 -0.6678
 5832SOL    HW128955   0.404   1.341  11.828  0.9286 -0.6065  0.5017
 5832SOL    HW228956   0.375   1.474  11.885  0.7078 -0.8854  0.6369
 5833SOL     OW28957   0.689   3.012  12.815  0.4727 -0.1305  0.5339
 5833SOL    HW128958   0.756   3.038  12.751 -1.6338  1.8021 -0.8675
 5833SOL    HW228959   0.636   2.955  12.759 -0.1207 -0.4545  1.4390
 5834SOL     OW28960   0.080   0.466   3.412  0.4373  0.6109 -0.3219
 5834SOL    HW128961   0.115   0.457   3.323 -0.9903 -0.4498 -0.7709
 5834SOL    HW228962   0.136   0.539   3.439 -0.0834  0.9393 -0.1447
 5835SOL     OW28963   0.009   4.150   2.468  0.8008 -0.0854 -0.5724
 5835SOL    HW128964   4.639   4.121   2.469  0.3161  1.4478  0.9552
 5835SOL    HW228965   0.048   4.073   2.427  0.0152 -1.1887  0.7167
 5836SOL     OW28966   4.314   3.470  11.735  0.4132  0.2339  0.2304
 5836SOL    HW128967   4.272   3.385  11.719 -0.2035  0.4434  0.7363
 5836SOL    HW228968   4.341   3.455  11.825  1.8253  0.2988 -0.1805
 5837SOL     OW28969   3.937   0.582  12.893 -0.4507  0.1957 -0.1366
 5837SOL    HW128970   3.852   0.538  12.893  0.3095 -1.2376  0.3981
 5837SOL    HW228971   3.991   0.529  12.836 -0.1369 -1.2159  1.4844
 5838SOL     OW28972   4.685   0.884  16.561 -0.1021 -0.2169 -0.3741
 5838SOL    HW128973   4.594   0.875  16.533  0.7917 -1.5394 -2.8300
 5838SOL    HW228974   4.676   0.921  16.649 -1.4727  0.8193 -0.9639
 5839SOL     OW28975   1.303   2.387   1.893  0.3975  0.6746  0.0768
 5839SOL    HW128976   1.216   2.423   1.905  1.2721  3.2010 -1.2027
 5839SOL    HW228977   1.345   2.465   1.857 -0.4403  1.8649  1.6739
 5840SOL     OW28978   1.623   2.601   4.255 -0.0652  0.0074  0.5067
 5840SOL    HW128979   1.698   2.632   4.306 -1.6789 -1.2354  3.6180
 5840SOL    HW228980   1.586   2.687   4.233  0.8551  1.5892  5.2031
 5841SOL     OW28981   2.812   3.283  10.321 -0.5360  0.3756 -0.1162
 5841SOL    HW128982   2.866   3.237  10.386  0.3341  0.5881 -0.6836
 5841SOL    HW228983   2.852   3.370  10.323  1.0708 -0.3934  1.4353
 5842SOL     OW28984   2.213   1.742   9.445 -0.1688 -0.1843 -0.4527
 5842SOL    HW128985   2.131   1.774   9.407 -0.7307  1.1504  1.9165
 5842SOL    HW228986   2.258   1.708   9.368 -2.4929 -2.2105 -0.9409
 5843SOL     OW28987   0.827   2.999  15.297 -0.0001  0.2095  0.4345
 5843SOL    HW128988   0.880   2.956  15.229 -1.0777 -0.8512  0.2668
 5843SOL    HW228989   0.883   3.072  15.325 -0.2169 -0.4683  2.6375
 5844SOL     OW28990   3.012   4.000   6.636  0.5662 -0.0487 -0.1890
 5844SOL    HW128991   2.932   4.051   6.650  1.0806  1.1369 -1.5812
 5844SOL    HW228992   3.073   4.046   6.694 -1.4440  0.3791  1.5994
 5845SOL     OW28993   0.844   4.153   6.217 -0.5171 -0.4364 -0.3949
 5845SOL    HW128994   0.774   4.200   6.260 -0.1499 -0.5113  0.2757
 5845SOL    HW228995   0.798   4.138   6.134  2.6424  1.1975 -2.4319
 5846SOL     OW28996   1.159   3.824   5.738  0.0265 -0.2420  0.2070
 5846SOL    HW128997   1.160   3.741   5.786 -0.6886 -0.2645  0.1843
 5846SOL    HW228998   1.199   3.790   5.658 -2.0641 -4.1092  0.7815
 5847SOL     OW28999   2.209   2.849   5.598  0.3291 -0.1758 -0.3726
 5847SOL    HW129000   2.201   2.756   5.576  2.2845  0.6099 -4.5942
 5847SOL    HW229001   2.301   2.855   5.626  0.5330  0.0036 -1.0643
 5848SOL     OW29002   3.343   2.310   9.305 -0.3818  0.4759 -0.2413
 5848SOL    HW129003   3.354   2.249   9.378 -1.8252  1.0639  0.4658
 5848SOL    HW229004   3.255   2.339   9.329 -1.1470 -0.7955 -1.5350
 5849SOL     OW29005   2.620   4.582   2.709 -0.7744 -0.3992  0.3868
 5849SOL    HW129006   2.525   4.578   2.698 -0.5610  1.3718 -2.3906
 5849SOL    HW229007   2.627   4.574   2.804 -1.0261 -1.5543  0.3092
 5850SOL     OW29008   0.596   4.055   4.512  0.0920  0.5220  0.0655
 5850SOL    HW129009   0.525   4.003   4.473 -0.4984  0.1740  1.6146
 5850SOL    HW229010   0.603   4.122   4.443  3.2400  0.4510  0.3212
 5851SOL     OW29011   3.757   2.403   7.078  0.5516 -0.0906 -0.3827
 5851SOL    HW129012   3.711   2.339   7.023  0.1278  1.2731 -1.6123
 5851SOL    HW229013   3.703   2.392   7.156 -1.6761 -0.7538 -2.0083
 5852SOL     OW29014   3.197   0.600   1.892 -0.3557 -0.4510 -0.1966
 5852SOL    HW129015   3.223   0.508   1.895 -1.5284 -0.7652  0.4447
 5852SOL    HW229016   3.117   0.600   1.840 -0.0561 -0.7875 -0.6549
 5853SOL     OW29017   4.608   4.080   4.735 -0.1105 -0.3916  0.0058
 5853SOL    HW129018   4.514   4.092   4.744  0.0310  0.5509  0.2732
 5853SOL    HW229019   4.633   4.129   4.813  1.3966 -1.0044 -0.0764
 5854SOL     OW29020   3.654   0.279   9.732 -0.0385  0.1329  0.6602
 5854SOL    HW129021   3.607   0.336   9.671  0.7498  2.0730  1.8869
 5854SOL    HW229022   3.605   0.197   9.731  0.9870 -0.4875  1.4521
 5855SOL     OW29023   0.559   0.186   6.522 -0.4693 -0.2502 -0.1749
 5855SOL    HW129024   0.610   0.191   6.441  0.5478 -0.2192  0.4789
 5855SOL    HW229025   0.544   0.280   6.534  1.5465 -0.0982  1.1211
 5856SOL     OW29026   0.989   0.881   4.125  0.1742 -0.2337 -0.2679
 5856SOL    HW129027   0.976   0.966   4.168  0.2963 -0.4190  0.1381
 5856SOL    HW229028   1.084   0.870   4.129  0.1411 -0.7843 -0.9446
 5857SOL     OW29029   3.577   1.526  10.678 -0.1929  0.6482 -0.4595
 5857SOL    HW129030   3.641   1.538  10.748 -0.7359 -1.0855  0.3285
 5857SOL    HW229031   3.591   1.435  10.652 -0.1483  0.1666  1.2312
 5858SOL     OW29032   0.694   1.312   2.833 -0.5188 -0.0702 -0.1245
 5858SOL    HW129033   0.734   1.243   2.886  1.1615  1.1647  0.1995
 5858SOL    HW229034   0.606   1.276   2.816 -0.4818 -0.5551  0.6924
 5859SOL     OW29035   4.479   0.280   4.582 -0.2178  0.0180 -1.0130
 5859SOL    HW129036   4.553   0.326   4.543  0.9398 -1.2661 -0.3429
 5859SOL    HW229037   4.465   0.218   4.511  0.5723 -1.4981  0.1510
 5860SOL     OW29038   4.533   2.409  13.247 -0.0151  0.2647 -0.6884
 5860SOL    HW129039   4.600   2.426  13.313 -0.5158 -0.4788  0.0239
 5860SOL    HW229040   4.487   2.334  13.286 -2.2739  0.8469 -2.2289
 5861SOL     OW29041   2.172   2.261   6.235  0.5975  0.2877  0.0240
 5861SOL    HW129042   2.254   2.214   6.220 -0.0555 -0.6808 -0.4916
 5861SOL    HW229043   2.129   2.190   6.282  2.0523 -0.3620  0.3614
 5862SOL     OW29044   3.906   3.587   1.794 -0.3096  0.6986  0.0917
 5862SOL    HW129045   3.916   3.601   1.888 -1.8112 -2.2703  0.7281
 5862SOL    HW229046   3.997   3.571   1.769 -0.2079 -1.5992  1.9212
 5863SOL     OW29047   0.478   4.040   8.437 -0.5856  0.6664 -0.0875
 5863SOL    HW129048   0.557   4.092   8.447  0.0729 -0.6151  1.3552
 5863SOL    HW229049   0.424   4.112   8.404 -1.7908 -0.3715 -0.3806
 5864SOL     OW29050   3.149   0.086  14.761 -0.1363 -0.2670  0.4021
 5864SOL    HW129051   3.084   0.093  14.691  2.2770 -0.9304 -1.9141
 5864SOL    HW229052   3.149   0.176  14.793 -0.2798  0.1477 -0.7462
 5865SOL     OW29053   2.904   0.638   9.383 -0.1564 -0.4346  0.7314
 5865SOL    HW129054   2.932   0.670   9.297  1.6090 -2.0249  0.6950
 5865SOL    HW229055   2.979   0.646   9.442  1.3993  1.1505 -1.4812
 5866SOL     OW29056   1.665   0.621   3.229  0.2580  0.2017  0.3301
 5866SOL    HW129057   1.639   0.714   3.228 -0.8937 -0.1211 -0.6059
 5866SOL    HW229058   1.591   0.583   3.182 -0.1876  1.3372  0.0952
 5867SOL     OW29059   4.435   0.782   1.012 -0.3985  0.0176  0.5835
 5867SOL    HW129060   4.479   0.711   1.059  1.9224  1.2855  0.3312
 5867SOL    HW229061   4.367   0.812   1.072 -2.1999  0.8429 -1.8662
 5868SOL     OW29062   2.787   3.837  11.223  0.3431  0.0178  0.1319
 5868SOL    HW129063   2.693   3.825  11.237  0.0331 -0.0821 -2.0688
 5868SOL    HW229064   2.814   3.749  11.248 -0.1045  0.0548  0.7656
 5869SOL     OW29065   4.091   2.851   4.417 -0.6539  0.0485  0.6732
 5869SOL    HW129066   4.027   2.805   4.362 -2.1924  0.7646  1.8547
 5869SOL    HW229067   4.045   2.861   4.500 -0.5563  2.4514  0.4462
 5870SOL     OW29068   2.199   0.674   7.419 -0.2926 -0.2231 -0.1312
 5870SOL    HW129069   2.249   0.752   7.442  0.2627 -0.5538 -0.2023
 5870SOL    HW229070   2.259   0.604   7.445  0.1794  0.2539  0.0588
 5871SOL     OW29071   2.143   0.791   7.702 -0.2111 -0.2984 -0.4975
 5871SOL    HW129072   2.176   0.704   7.679  1.3382  1.1132 -3.5506
 5871SOL    HW229073   2.198   0.833   7.637 -0.2005 -1.0627 -0.9853
 5872SOL     OW29074   4.180   3.026   6.442  0.9666  0.0419  0.1251
 5872SOL    HW129075   4.186   2.934   6.417  0.2698  0.2325 -0.7359
 5872SOL    HW229076   4.262   3.062   6.409  0.1042 -0.1119 -2.1262
 5873SOL     OW29077   2.768   2.850   2.114  0.3737  0.7250 -0.0368
 5873SOL    HW129078   2.706   2.784   2.144  1.7300 -0.0715  0.9942
 5873SOL    HW229079   2.738   2.916   2.176  0.5340 -0.6449  1.4960
 5874SOL     OW29080   0.086   3.474   1.536  0.4467  0.8378 -0.0652
 5874SOL    HW129081   0.096   3.413   1.609 -0.2998 -0.7785 -1.3255
 5874SOL    HW229082   0.059   3.408   1.472  2.8587 -0.7789  0.5609
 5875SOL     OW29083   1.885   0.141  13.511  0.0318  0.1831 -0.0485
 5875SOL    HW129084   1.925   0.229  13.512  0.6380 -0.1383  2.0624
 5875SOL    HW229085   1.915   0.105  13.594 -0.7061  0.2475  0.2424
 5876SOL     OW29086   1.418   2.838   1.572 -0.1151 -0.0192 -0.6045
 5876SOL    HW129087   1.362   2.806   1.502  0.0348 -0.6569 -0.4276
 5876SOL    HW229088   1.478   2.900   1.531  0.7679 -1.2412 -1.1617
 5877SOL     OW29089   4.501   0.549   2.942  0.7227  0.4334  0.4305
 5877SOL    HW129090   4.474   0.478   3.000  0.5812  2.1588  2.5071
 5877SOL    HW229091   4.424   0.607   2.945  3.4236  4.0535 -0.5908
 5878SOL     OW29092   1.962   4.641  10.802  0.1413 -0.3635  0.2151
 5878SOL    HW129093   1.907   4.704  10.756 -0.5966 -1.5109 -0.4520
 5878SOL    HW229094   1.966   4.687  10.887  1.2912 -1.4028  0.7178
 5879SOL     OW29095   1.977   1.432  13.481 -0.3829 -0.1357 -0.3416
 5879SOL    HW129096   1.943   1.521  13.492 -1.3216 -0.2218 -2.5912
 5879SOL    HW229097   2.041   1.454  13.414 -0.4059 -0.0107 -0.3218
 5880SOL     OW29098   4.060   0.210   7.298 -0.1492  0.0176 -0.6904
 5880SOL    HW129099   4.041   0.300   7.324  1.5641 -0.6898  2.9747
 5880SOL    HW229100   3.997   0.176   7.362 -1.2559  3.5043  0.0717
 5881SOL     OW29101   3.861   0.696   4.600 -0.4732  0.2904  0.3565
 5881SOL    HW129102   3.793   0.756   4.568  0.2631  1.8528  1.6889
 5881SOL    HW229103   3.847   0.620   4.544 -0.9301 -1.7084  3.1515
 5882SOL     OW29104   0.375   3.888   7.051 -0.0649 -0.3919  0.1591
 5882SOL    HW129105   0.287   3.899   7.016 -0.4883 -1.2244  0.9585
 5882SOL    HW229106   0.416   3.880   6.965  1.5649  1.7496  0.7295
 5883SOL     OW29107   2.732   0.256  10.884  0.2166  0.5996  0.6544
 5883SOL    HW129108   2.774   0.339  10.909  2.0476  0.2855 -1.3519
 5883SOL    HW229109   2.807   0.196  10.886  1.1552  1.7041 -2.1764
 5884SOL     OW29110   1.881   4.040   3.846  0.3621 -0.3403  0.2988
 5884SOL    HW129111   1.859   4.127   3.880 -0.6344  0.3499 -2.0664
 5884SOL    HW229112   1.843   3.984   3.913 -1.4682  0.8184  0.2294
 5885SOL     OW29113   4.329   4.117   8.343  0.2086 -0.3050 -0.3237
 5885SOL    HW129114   4.424   4.109   8.335  0.2934  0.1296  0.2729
 5885SOL    HW229115   4.321   4.207   8.313 -1.7349  0.0180  1.1478
 5886SOL     OW29116   1.720   2.564   8.545 -0.1138  0.6515  0.2219
 5886SOL    HW129117   1.693   2.523   8.627  0.9196  0.4662  0.4741
 5886SOL    HW229118   1.654   2.630   8.523 -0.1187  0.0918 -1.4847
 5887SOL     OW29119   2.401   3.886   4.194 -0.3428 -0.0883  0.5170
 5887SOL    HW129120   2.436   3.868   4.106 -1.5780 -1.8896  0.3931
 5887SOL    HW229121   2.310   3.867   4.174 -0.9133  0.5850  2.4846
 5888SOL     OW29122   2.026   1.144   9.640 -0.4226 -0.5937 -0.5228
 5888SOL    HW129123   2.072   1.194   9.706 -2.2216  0.8100 -0.3323
 5888SOL    HW229124   2.037   1.058   9.681  0.1520 -1.2205 -1.9667
 5889SOL     OW29125   2.154   0.930   9.334 -0.4769  0.7180 -0.1538
 5889SOL    HW129126   2.201   0.949   9.253 -0.2258 -0.1858 -0.2137
 5889SOL    HW229127   2.128   1.021   9.350  0.7160  1.3540 -1.8105
 5890SOL     OW29128   2.065   0.640   2.421 -0.2909  0.1668 -0.3930
 5890SOL    HW129129   2.058   0.733   2.445  0.2726  0.2113 -0.3984
 5890SOL    HW229130   2.059   0.593   2.504 -0.2451 -1.5062 -1.3343
 5891SOL     OW29131   2.092   4.575   5.304 -0.5702 -0.0022 -0.4726
 5891SOL    HW129132   2.127   4.554   5.391 -2.2413 -0.3808  0.1049
 5891SOL    HW229133   2.097   4.486   5.269  0.9218  0.2291 -0.8493
 5892SOL     OW29134   3.682   3.597   5.732 -0.1018  0.0320  0.6703
 5892SOL    HW129135   3.746   3.632   5.670  1.3646 -0.5720  1.8436
 5892SOL    HW229136   3.708   3.507   5.747  0.1532  0.0744  0.4919
 5893SOL     OW29137   3.911   0.310   6.753 -0.3531  0.3643  0.2927
 5893SOL    HW129138   3.900   0.220   6.726 -0.2917 -0.1409  1.9234
 5893SOL    HW229139   3.822   0.345   6.752 -0.4385  0.3016  3.4984
 5894SOL     OW29140   1.472   1.369  16.319  0.0243  0.2823 -0.4818
 5894SOL    HW129141   1.526   1.300  16.278  1.9420  0.1785  2.2298
 5894SOL    HW229142   1.442   1.427  16.249  0.5675  0.8582 -0.2338
 5895SOL     OW29143   3.287   4.295  10.049 -0.2571 -0.1193 -0.0534
 5895SOL    HW129144   3.325   4.316  10.134  1.4497  1.6836 -1.2662
 5895SOL    HW229145   3.208   4.347  10.057 -0.4459 -0.5358  0.7586
 5896SOL     OW29146   1.406   2.493   2.810 -0.2476  0.2045 -0.7248
 5896SOL    HW129147   1.399   2.458   2.722  1.4598  0.7494 -1.0732
 5896SOL    HW229148   1.341   2.564   2.804 -1.3667 -0.7539  0.1204
 5897SOL     OW29149   0.498   0.448   1.907  0.0135  0.1515 -0.1381
 5897SOL    HW129150   0.448   0.415   1.981 -0.8134  1.2692 -0.1993
 5897SOL    HW229151   0.426   0.460   1.845 -0.2125 -2.4170 -0.3855
 5898SOL     OW29152   1.670   4.052   2.614  0.1021 -0.5865 -0.4730
 5898SOL    HW129153   1.666   4.034   2.708 -0.5238  0.4658 -0.3010
 5898SOL    HW229154   1.719   4.133   2.605  1.9357 -1.5466  0.8207
 5899SOL     OW29155   2.836   0.425   3.628  0.1231 -0.4426  0.4635
 5899SOL    HW129156   2.910   0.364   3.621 -0.4297 -0.7970 -2.2726
 5899SOL    HW229157   2.819   0.421   3.534  0.1578 -2.9735  0.5663
 5900SOL     OW29158   2.930   2.622  10.085  0.4067  0.1677 -0.6743
 5900SOL    HW129159   2.962   2.633  10.175  1.8282 -0.4732 -1.0976
 5900SOL    HW229160   2.943   2.529  10.070  5.0041  0.7833 -0.5314
 5901SOL     OW29161   1.124   1.728   3.172  0.0951  0.0476 -0.2460
 5901SOL    HW129162   1.100   1.737   3.080 -0.1261  1.4934 -0.0503
 5901SOL    HW229163   1.146   1.636   3.186 -2.6685 -0.5417  0.0593
 5902SOL     OW29164   0.391   4.720   5.614  0.7097  0.5967 -0.0993
 5902SOL    HW129165   0.378   0.093   5.606 -3.1627  0.0603 -0.2290
 5902SOL    HW229166   0.445   0.005   5.692  0.3569  3.0080 -0.0626
 5903SOL     OW29167   1.366   0.929   3.366  0.3518 -0.1378  0.5511
 5903SOL    HW129168   1.314   0.853   3.340 -0.9589  1.3231 -1.1168
 5903SOL    HW229169   1.454   0.910   3.335 -0.2511 -1.0996 -0.5805
 5904SOL     OW29170   4.145   1.209   7.512 -0.3600 -0.1631  0.3334
 5904SOL    HW129171   4.052   1.215   7.533  0.2484  1.9816  2.4386
 5904SOL    HW229172   4.170   1.301   7.506  1.1747 -0.5671  0.5219
 5905SOL     OW29173   3.495   3.588  10.008  0.3842 -0.2696  0.4100
 5905SOL    HW129174   3.569   3.606   9.949 -0.2073 -1.9015 -0.8432
 5905SOL    HW229175   3.430   3.555   9.946  0.3975  2.3673 -1.0152
 5906SOL     OW29176   1.235   3.084   6.493  0.1581 -0.3194  0.0579
 5906SOL    HW129177   1.155   3.042   6.526 -0.1741  0.8199  0.6886
 5906SOL    HW229178   1.294   3.024   6.538  0.4998 -0.3714 -0.4633
 5907SOL     OW29179   3.484   4.587   6.636  0.2909  0.3848  0.4321
 5907SOL    HW129180   3.509   4.506   6.590  0.6999 -0.3390  1.9304
 5907SOL    HW229181   3.555   4.597   6.699 -0.0114  0.2270  0.7955
 5908SOL     OW29182   3.524   0.461   4.372 -0.1345  0.5823  0.1391
 5908SOL    HW129183   3.595   0.519   4.348  0.1941  0.0629 -0.1380
 5908SOL    HW229184   3.444   0.512   4.355 -0.1942  0.9208  1.4063
 5909SOL     OW29185   1.034   4.125   8.785  0.2054  0.2018  0.1165
 5909SOL    HW129186   1.018   4.130   8.879 -0.9658 -1.2504 -0.0091
 5909SOL    HW229187   1.078   4.040   8.773  0.1301  0.4845 -2.1414
 5910SOL     OW29188   2.805   2.097   9.229  0.0435 -0.5730  0.1819
 5910SOL    HW129189   2.782   2.144   9.309  3.1545 -1.9788  1.9168
 5910SOL    HW229190   2.736   2.128   9.171  0.9363 -0.7009 -0.9514
 5911SOL     OW29191   1.718   3.550  10.498 -0.0684 -0.2876  0.5361
 5911SOL    HW129192   1.627   3.537  10.524  0.2541 -1.1271  1.2659
 5911SOL    HW229193   1.721   3.638  10.462  0.7025 -0.6217 -0.2222
 5912SOL     OW29194   1.240   1.830  14.600 -0.1596  0.5002  0.3831
 5912SOL    HW129195   1.212   1.755  14.652 -1.4125  1.1873  0.7116
 5912SOL    HW229196   1.186   1.905  14.628 -2.0792 -0.1811 -1.4961
 5913SOL     OW29197   3.585   4.525   1.074 -0.0091 -0.5615 -0.4135
 5913SOL    HW129198   3.635   4.546   1.153 -1.7140  0.8380  0.3170
 5913SOL    HW229199   3.542   4.441   1.085 -0.9343 -0.2601 -1.7342
 5914SOL     OW29200   3.914   3.883   3.587 -0.1848  0.0352 -0.7672
 5914SOL    HW129201   3.919   3.841   3.501 -1.7532  1.3236 -1.4840
 5914SOL    HW229202   3.858   3.824   3.637  0.6718  1.2328  1.5898
 5915SOL     OW29203   1.645   2.853   4.495 -0.4968  0.0473  0.4209
 5915SOL    HW129204   1.693   2.936   4.496  0.5596 -0.5137 -2.6070
 5915SOL    HW229205   1.609   2.856   4.406  0.8066  0.9897 -0.0864
 5916SOL     OW29206   2.915   0.852  11.578  1.2392  0.0346  0.2716
 5916SOL    HW129207   2.992   0.811  11.617 -0.4164 -1.7190  1.7334
 5916SOL    HW229208   2.851   0.782  11.597  2.0407 -0.6447  0.4497
 5917SOL     OW29209   2.691   0.113  17.377 -0.0349  0.5054  0.1067
 5917SOL    HW129210   2.735   0.046  17.325 -0.8764  1.8961 -2.4194
 5917SOL    HW229211   2.669   0.070  17.460  2.2300  0.5172  0.7020
 5918SOL     OW29212   3.383   2.780  15.743  0.8633 -0.6590  0.0979
 5918SOL    HW129213   3.367   2.705  15.800 -3.5064  0.9713  0.9917
 5918SOL    HW229214   3.478   2.768  15.745  1.1336  1.2398 -0.8083
 5919SOL     OW29215   0.923   2.306   3.391  0.5530  0.2260 -0.3686
 5919SOL    HW129216   0.890   2.263   3.312 -0.4824  0.4037 -0.0386
 5919SOL    HW229217   0.846   2.349   3.427 -0.4644 -0.3853 -1.8067
 5920SOL     OW29218   2.979   4.415   0.781 -0.1628 -0.1531  0.0309
 5920SOL    HW129219   2.893   4.403   0.820 -0.8898 -0.5265 -1.6894
 5920SOL    HW229220   3.013   4.326   0.770  0.6981  0.0250  1.2658
 5921SOL     OW29221   4.172   0.961  13.338 -0.2247  0.2336  0.0266
 5921SOL    HW129222   4.239   0.895  13.320 -0.7118 -0.4321  0.6543
 5921SOL    HW229223   4.218   1.006  13.409 -1.8144  2.6103 -0.4474
 5922SOL     OW29224   2.287   3.253   2.529  0.0109 -0.1310 -0.4911
 5922SOL    HW129225   2.201   3.272   2.567  0.0325  2.0064 -1.5398
 5922SOL    HW229226   2.314   3.176   2.580  1.7429  0.4332 -0.5687
 5923SOL     OW29227   0.189   4.583   4.159  0.3842 -0.2366 -0.2368
 5923SOL    HW129228   0.194   4.578   4.255 -2.4590 -1.2526 -0.1498
 5923SOL    HW229229   0.187   4.678   4.147  0.9628 -0.3042 -0.8475
 5924SOL     OW29230   2.628   1.963   9.494  0.5437 -0.8262 -0.0685
 5924SOL    HW129231   2.682   1.888   9.470 -1.5293 -1.8045 -1.7069
 5924SOL    HW229232   2.562   1.954   9.425 -0.4177  0.8985  0.6108
 5925SOL     OW29233   0.239   2.032   3.888 -0.7259  0.0267 -0.0120
 5925SOL    HW129234   0.226   2.123   3.913 -2.1441  0.1563 -1.1822
 5925SOL    HW229235   0.246   1.989   3.973  0.7703 -2.9114 -1.6272
 5926SOL     OW29236   3.321   0.426   5.499 -0.1304 -0.4096 -0.0577
 5926SOL    HW129237   3.259   0.412   5.428  0.2351  1.3211 -0.7215
 5926SOL    HW229238   3.270   0.449   5.577 -1.2051  0.0509 -0.8918
 5927SOL     OW29239   3.189   4.021  10.534  0.2395 -0.1981 -0.3628
 5927SOL    HW129240   3.185   3.972  10.452  3.7383  2.2944 -2.0475
 5927SOL    HW229241   3.267   3.983  10.575  1.9944  0.1194 -3.4216
 5928SOL     OW29242   2.716   4.083   9.087  0.2777 -0.5802  0.2289
 5928SOL    HW129243   2.732   4.173   9.116 -0.6250 -0.9032  1.6812
 5928SOL    HW229244   2.710   4.037   9.170 -0.4884  1.6597  1.4182
 5929SOL     OW29245   4.455   3.068   4.295  0.3488  0.0340  0.2751
 5929SOL    HW129246   4.466   3.149   4.246 -0.1828  0.6573  1.1646
 5929SOL    HW229247   4.523   3.072   4.363 -0.8800  0.6834  1.4709
 5930SOL     OW29248   2.587   3.444   4.382  0.3613  0.6302  0.4366
 5930SOL    HW129249   2.631   3.523   4.352 -1.1646  0.2260 -2.9111
 5930SOL    HW229250   2.643   3.406   4.450  0.4261  0.3602  0.2331
 5931SOL     OW29251   4.237   0.654   5.103 -0.1557  0.6130  0.2003
 5931SOL    HW129252   4.235   0.639   5.008  0.5409  0.4001  0.2227
 5931SOL    HW229253   4.204   0.743   5.110 -0.6389  0.7214 -3.3179
 5932SOL     OW29254   2.203   0.535   8.503  0.0946  0.1792 -0.0699
 5932SOL    HW129255   2.112   0.541   8.473 -0.0643 -1.5463  0.0818
 5932SOL    HW229256   2.250   0.608   8.463 -0.2719  1.5659  2.0314
 5933SOL     OW29257   1.519   1.422   0.392  0.3441  0.4636 -0.1164
 5933SOL    HW129258   1.429   1.416   0.424  1.3407  0.8429  2.7938
 5933SOL    HW229259   1.512   1.502   0.341 -0.0161  0.5825  0.1152
 5934SOL     OW29260   0.725   1.058   0.843  0.0493  0.0138 -0.3285
 5934SOL    HW129261   0.671   1.126   0.803  0.8874  0.0831 -1.3425
 5934SOL    HW229262   0.806   1.105   0.864 -0.7765  0.9940  0.7220
 5935SOL     OW29263   0.264   0.898   2.324  0.0641 -0.0460 -0.2959
 5935SOL    HW129264   0.290   0.845   2.249  0.7131  0.3569 -0.3586
 5935SOL    HW229265   0.292   0.846   2.399 -2.9415 -0.9752  0.1928
 5936SOL     OW29266   1.059   1.777   7.838  0.1796  0.1959  0.5885
 5936SOL    HW129267   1.070   1.780   7.743  0.6541 -0.4003  0.6260
 5936SOL    HW229268   1.143   1.817   7.863 -0.6240  2.1054  0.2492
 5937SOL     OW29269   2.149   2.375   7.042 -0.2211  0.4584  0.0679
 5937SOL    HW129270   2.131   2.385   7.136  0.1857 -0.8115  0.2794
 5937SOL    HW229271   2.180   2.465   7.028  1.7603 -0.5451 -1.9054
 5938SOL     OW29272   4.591   3.575   4.713  0.1803 -0.4817  0.0477
 5938SOL    HW129273   4.618   3.522   4.788  1.7779  2.2884  1.4682
 5938SOL    HW229274   4.522   3.514   4.686 -0.8959  0.7411  0.0438
 5939SOL     OW29275   3.280   0.331   2.429  0.7880  0.0242  0.0035
 5939SOL    HW129276   3.195   0.317   2.471  0.3959  0.0449 -0.7793
 5939SOL    HW229277   3.263   0.406   2.372  1.6087 -0.5190 -0.9617
 5940SOL     OW29278   4.314   0.239   7.437  0.0750  0.5464 -0.4186
 5940SOL    HW129279   4.310   0.144   7.451 -0.7583  0.7431  0.6625
 5940SOL    HW229280   4.243   0.248   7.375  0.5338 -2.3240 -1.3560
 5941SOL     OW29281   0.382   1.458   3.107 -0.1604 -0.1563 -0.4356
 5941SOL    HW129282   0.392   1.529   3.043  0.9870 -0.0029 -0.0835
 5941SOL    HW229283   0.442   1.492   3.173  0.0077  0.5083 -0.9245
 5942SOL     OW29284   3.292   1.715   3.857  0.2023 -0.1118  0.4167
 5942SOL    HW129285   3.213   1.661   3.851 -0.5665  0.9253  1.0801
 5942SOL    HW229286   3.253   1.797   3.825  0.3429  0.1062  0.8072
 5943SOL     OW29287   3.492   0.249   6.615 -0.2220  0.4043  0.3298
 5943SOL    HW129288   3.551   0.186   6.573  0.0799  1.2419 -0.4965
 5943SOL    HW229289   3.555   0.300   6.666 -1.9988  0.4060  2.5072
 5944SOL     OW29290   2.031   2.468   6.314 -0.0919  0.5844  0.2657
 5944SOL    HW129291   1.973   2.467   6.238 -0.5197  0.9850  0.5871
 5944SOL    HW229292   2.097   2.402   6.293  0.9728  1.8651 -0.3825
 5945SOL     OW29293   3.017   0.782  10.093 -0.0489 -0.1398  0.0410
 5945SOL    HW129294   3.021   0.763  10.187 -0.4685 -0.8962 -0.0986
 5945SOL    HW229295   3.112   0.791  10.084  0.0080  1.0426  1.7496
 5946SOL     OW29296   4.693   2.277   3.007 -0.0854  0.1023  0.2301
 5946SOL    HW129297   4.633   2.331   2.957  1.2811  2.9061  1.6226
 5946SOL    HW229298   4.630   2.206   3.022 -1.7902  1.0087 -2.7633
 5947SOL     OW29299   4.135   2.845   3.679 -0.3277 -0.3586  0.0913
 5947SOL    HW129300   4.207   2.856   3.742  0.7920  0.7747 -1.3626
 5947SOL    HW229301   4.187   2.851   3.598 -0.6659 -0.8568 -0.1607
 5948SOL     OW29302   4.100   3.594   5.999  0.0054 -0.3588  0.3421
 5948SOL    HW129303   4.101   3.689   5.982  0.4777 -0.4930 -0.3786
 5948SOL    HW229304   4.077   3.568   5.910 -0.7444  3.0974 -0.4937
 5949SOL     OW29305   2.136   0.026  11.176  0.2476 -0.0972  0.2662
 5949SOL    HW129306   2.209   0.085  11.154  0.7961 -0.7920  0.2446
 5949SOL    HW229307   2.062   0.044  11.118  1.0377 -0.8106 -0.9557
 5950SOL     OW29308   0.619   3.383  10.370  0.8082  0.3782  0.3001
 5950SOL    HW129309   0.629   3.457  10.430 -0.8755 -0.3099  1.4092
 5950SOL    HW229310   0.643   3.429  10.289  0.9359  1.6330  1.0525
 5951SOL     OW29311   3.409   1.246   5.537  0.5432  0.3085 -0.1208
 5951SOL    HW129312   3.431   1.318   5.478 -1.0602  0.5151 -0.4546
 5951SOL    HW229313   3.331   1.275   5.584  0.9193  1.1337 -0.0115
 5952SOL     OW29314   1.421   1.496   8.871  0.7210 -0.1030 -0.3775
 5952SOL    HW129315   1.422   1.402   8.890  0.3830 -0.3756 -1.7120
 5952SOL    HW229316   1.470   1.524   8.948 -3.7528  1.0211  2.0515
 5953SOL     OW29317   2.186   3.450   5.713 -0.0474  0.7360  0.1290
 5953SOL    HW129318   2.232   3.508   5.652 -0.1976 -0.3058 -0.9631
 5953SOL    HW229319   2.114   3.509   5.734 -0.2028  0.3739  0.6093
 5954SOL     OW29320   4.248   1.174   1.798  0.3508 -0.4017 -0.6096
 5954SOL    HW129321   4.229   1.263   1.769  0.9090 -0.1888 -0.3325
 5954SOL    HW229322   4.198   1.128   1.732  0.3696  1.0977 -1.6674
 5955SOL     OW29323   4.363   3.846  15.124 -0.3201  0.0706 -0.2746
 5955SOL    HW129324   4.357   3.935  15.090  1.8707  0.2809 -0.0746
 5955SOL    HW229325   4.278   3.839  15.169  0.3289  3.0925  1.3808
 5956SOL     OW29326   2.938   0.713   2.057 -0.2122 -0.1024  0.1159
 5956SOL    HW129327   2.993   0.680   1.986 -0.9493 -3.1022  0.9448
 5956SOL    HW229328   3.005   0.752   2.113 -0.3906  0.0489  0.2268
 5957SOL     OW29329   2.471   0.518   2.047  0.1184 -0.2243 -0.5674
 5957SOL    HW129330   2.440   0.505   1.957  0.3954  0.3070 -0.7400
 5957SOL    HW229331   2.547   0.460   2.045  0.5085  0.2216  2.2985
 5958SOL     OW29332   1.267   2.409  12.692  0.1610  0.0712  0.9331
 5958SOL    HW129333   1.277   2.491  12.642 -1.1054 -1.9684 -2.6979
 5958SOL    HW229334   1.360   2.388  12.682  0.6903  3.1588 -0.6214
 5959SOL     OW29335   0.289   4.345   2.462 -0.1047 -0.1386  0.3794
 5959SOL    HW129336   0.325   4.419   2.414  1.8206 -0.9748  0.5409
 5959SOL    HW229337   0.284   4.279   2.392 -0.6559  0.7608 -0.4276
 5960SOL     OW29338   0.476   2.547  14.165  0.0702 -0.6501 -1.0588
 5960SOL    HW129339   0.555   2.499  14.139  0.6839 -0.1012 -0.1895
 5960SOL    HW229340   0.406   2.485  14.185 -1.6597  0.7982 -2.6815
 5961SOL     OW29341   2.942   3.727  15.663 -0.2132 -0.6306 -0.8365
 5961SOL    HW129342   2.914   3.780  15.588 -1.1110 -1.0410 -0.7845
 5961SOL    HW229343   2.896   3.774  15.732 -0.4705 -1.9618 -0.0874
 5962SOL     OW29344   1.030   0.272   1.201  0.1558 -0.2180 -0.8332
 5962SOL    HW129345   1.073   0.214   1.264 -2.6333 -0.1668  1.1052
 5962SOL    HW229346   0.957   0.225   1.161 -0.3161  0.5962 -0.9332
 5963SOL     OW29347   0.980   1.002   9.011  0.1385  0.3937 -0.5092
 5963SOL    HW129348   1.020   1.064   9.072 -1.8757 -0.4802  1.7204
 5963SOL    HW229349   0.891   1.038   9.010 -0.4555 -0.9843  1.0022
 5964SOL     OW29350   0.215   4.476  17.365  0.0452 -0.1566  0.2952
 5964SOL    HW129351   0.166   4.452  17.444 -1.0314  3.1316  0.6588
 5964SOL    HW229352   0.302   4.487  17.404 -1.6633  1.6069  3.5996
 5965SOL     OW29353   2.230   1.945   7.239  0.6395 -0.0976 -0.2123
 5965SOL    HW129354   2.286   1.954   7.316  0.8266  0.3589 -0.4009
 5965SOL    HW229355   2.210   2.036   7.216 -0.5011  0.1223  1.7103
 5966SOL     OW29356   2.335   4.369  11.684 -0.1677  0.2410  0.0616
 5966SOL    HW129357   2.344   4.414  11.600 -0.5486  1.8817  0.8926
 5966SOL    HW229358   2.423   4.331  11.686  0.2889  1.3555  0.6547
 5967SOL     OW29359   4.198   3.238  12.954  0.8534  0.2127 -0.5853
 5967SOL    HW129360   4.215   3.155  12.998 -1.7863 -0.7902 -1.4548
 5967SOL    HW229361   4.139   3.215  12.883 -1.4235 -0.7947  1.6160
 5968SOL     OW29362   1.426   2.348  12.961  0.4207  0.6295  0.1713
 5968SOL    HW129363   1.498   2.316  12.907  0.0370  1.1351 -0.6507
 5968SOL    HW229364   1.458   2.433  12.990  2.3593 -1.0042  2.7108
 5969SOL     OW29365   2.161   0.796   6.228  0.2419 -0.2509 -0.0021
 5969SOL    HW129366   2.097   0.857   6.192  1.4538  0.1383 -1.5278
 5969SOL    HW229367   2.098   0.724   6.234 -1.1744  0.9035 -0.9854
 5970SOL     OW29368   3.100   1.764   5.937  0.0431  0.1880 -0.1208
 5970SOL    HW129369   3.039   1.706   5.891 -0.4485  0.1880  0.5237
 5970SOL    HW229370   3.085   1.845   5.890  0.6281  0.0674 -0.5222
 5971SOL     OW29371   2.815   2.685  10.973  0.3181  0.1521  0.4235
 5971SOL    HW129372   2.726   2.679  10.938 -0.5827  0.4792  2.6908
 5971SOL    HW229373   2.803   2.730  11.057  1.2188 -0.4993  0.8925
 5972SOL     OW29374   1.082   2.036   4.407 -0.5102  0.3581  0.3667
 5972SOL    HW129375   1.113   1.987   4.331  0.0032 -0.1956  0.9247
 5972SOL    HW229376   1.152   2.008   4.466 -0.3315  0.2722  0.1092
 5973SOL     OW29377   0.512   1.106   6.117 -0.1838 -0.1996 -0.6837
 5973SOL    HW129378   0.444   1.171   6.134  1.3163  0.6472  2.0403
 5973SOL    HW229379   0.592   1.156   6.128  0.2165 -0.4765 -2.2473
 5974SOL     OW29380   2.784   3.044   7.646  0.3038  0.2330  0.5231
 5974SOL    HW129381   2.826   2.990   7.579 -0.2672  0.4302  0.0110
 5974SOL    HW229382   2.790   2.989   7.724 -1.3573  0.2333  0.6322
 5975SOL     OW29383   3.324   3.411   7.189 -0.0233 -0.0091  0.0292
 5975SOL    HW129384   3.347   3.390   7.279 -1.6930  0.3746  0.5467
 5975SOL    HW229385   3.352   3.501   7.173  2.1356 -0.7234 -0.2431
 5976SOL     OW29386   1.936   1.170   4.847 -0.1262  0.4336  0.5483
 5976SOL    HW129387   1.995   1.116   4.794 -1.4226 -0.7037  0.2750
 5976SOL    HW229388   1.990   1.188   4.924  0.7338 -1.9832  0.5219
 5977SOL     OW29389   3.803   0.025   8.055  0.1724 -0.2917  0.5796
 5977SOL    HW129390   3.843   4.678   8.002  0.2103 -0.2834  0.5980
 5977SOL    HW229391   3.716   0.036   8.014  0.0780  0.9886  1.1365
 5978SOL     OW29392   3.386   3.125  13.522  0.2555 -0.1601 -0.1671
 5978SOL    HW129393   3.330   3.051  13.497  1.5498 -1.3212  0.3434
 5978SOL    HW229394   3.356   3.137  13.612  0.5773  1.1821 -0.2440
 5979SOL     OW29395   2.967   0.485   3.057 -0.1232  0.1702  0.4107
 5979SOL    HW129396   2.985   0.545   3.129  2.0198  0.3291 -0.2531
 5979SOL    HW229397   3.057   0.452   3.050 -0.5619 -0.6739 -1.2689
 5980SOL     OW29398   1.932   3.630   6.138  0.0855 -0.3040 -0.0986
 5980SOL    HW129399   1.870   3.623   6.065  1.6942 -1.0508 -1.3959
 5980SOL    HW229400   1.915   3.549   6.186  0.2698 -0.9627 -1.1488
 5981SOL     OW29401   1.546   1.256   6.566 -0.3157  0.1816 -0.9324
 5981SOL    HW129402   1.545   1.262   6.470 -1.0917  1.2573 -0.8595
 5981SOL    HW229403   1.594   1.174   6.577  1.0991  0.9733 -1.2300
 5982SOL     OW29404   2.478   1.621   1.388  0.4524 -0.2757  0.5029
 5982SOL    HW129405   2.493   1.711   1.419  0.0404  1.0278 -3.0894
 5982SOL    HW229406   2.404   1.593   1.442 -1.0318  0.8484 -0.9461
 5983SOL     OW29407   0.961   3.352   9.441 -0.4215 -0.0958  0.3366
 5983SOL    HW129408   1.040   3.405   9.447 -0.7205  0.6122 -2.0926
 5983SOL    HW229409   0.972   3.300   9.520  0.8153  1.0903  0.9307
 5984SOL     OW29410   2.013   1.738   2.991  0.0871 -0.4462 -0.9249
 5984SOL    HW129411   2.009   1.791   3.071  2.4256 -0.4164 -0.8314
 5984SOL    HW229412   2.073   1.791   2.938 -1.2208  0.6512 -1.3074
 5985SOL     OW29413   4.713   3.683   4.253 -0.8268  0.0026  0.2804
 5985SOL    HW129414   4.693   3.599   4.295  1.3106 -1.1725 -0.9990
 5985SOL    HW229415   4.624   3.716   4.256 -0.0189  2.5749 -4.7272
 5986SOL     OW29416   4.271   3.720   3.422 -0.5731 -0.5373 -0.0908
 5986SOL    HW129417   4.288   3.812   3.404  1.0187 -0.8389 -0.1124
 5986SOL    HW229418   4.179   3.716   3.395 -0.1850  1.0375 -1.6376
 5987SOL     OW29419   2.141   1.677   2.662  0.0746 -0.1314  0.3357
 5987SOL    HW129420   2.059   1.722   2.681  0.7128  1.6434 -1.0831
 5987SOL    HW229421   2.154   1.713   2.574 -0.3398 -1.0059 -0.0775
 5988SOL     OW29422   1.785   3.055   7.573 -0.2051  0.7766 -0.7749
 5988SOL    HW129423   1.792   3.039   7.667 -1.0850 -1.0794 -1.0216
 5988SOL    HW229424   1.734   2.980   7.542 -2.4190  1.5227  1.0572
 5989SOL     OW29425   2.002   3.876   9.730 -0.4728 -0.1454  0.7802
 5989SOL    HW129426   1.975   3.847   9.643 -0.7149  0.8028  0.5475
 5989SOL    HW229427   1.915   3.894   9.766  0.6115  3.2168  1.7358
 5990SOL     OW29428   4.173   0.608   5.916 -0.3187 -0.1890 -0.6288
 5990SOL    HW129429   4.145   0.685   5.867 -2.4709 -0.5856 -0.0008
 5990SOL    HW229430   4.267   0.627   5.924 -0.2622 -0.8560  0.2814
 5991SOL     OW29431   3.459   4.107  11.723 -0.3006 -0.5021  0.1622
 5991SOL    HW129432   3.479   4.162  11.648  0.1258 -1.0296 -0.1089
 5991SOL    HW229433   3.533   4.046  11.731 -1.7132 -1.8832  2.9321
 5992SOL     OW29434   0.849   2.023   7.061  0.2237  0.0931  0.0993
 5992SOL    HW129435   0.898   1.974   6.994 -0.9708  0.0912 -0.7792
 5992SOL    HW229436   0.831   1.952   7.122 -0.1699  0.0978 -0.0097
 5993SOL     OW29437   2.657   3.872  10.624 -0.2668 -0.2628  0.5483
 5993SOL    HW129438   2.723   3.919  10.574 -1.4273  0.8724  0.0629
 5993SOL    HW229439   2.591   3.863  10.555  3.1436  0.3124 -2.7952
 5994SOL     OW29440   0.079   2.321   4.591  0.2208 -0.0361 -0.8229
 5994SOL    HW129441   4.707   2.328   4.574  0.1310  1.6026  0.3469
 5994SOL    HW229442   0.109   2.375   4.518 -1.2014 -0.4100 -1.6877
 5995SOL     OW29443   3.868   3.998  16.631  0.0814  0.1118 -0.0533
 5995SOL    HW129444   3.782   4.012  16.593  0.5001  1.8737 -0.3416
 5995SOL    HW229445   3.907   3.936  16.569  0.7231  0.8874 -0.4311
 5996SOL     OW29446   0.554   2.572   1.069  0.0916  0.5651  0.7036
 5996SOL    HW129447   0.528   2.661   1.047 -0.2852  0.3918  0.4578
 5996SOL    HW229448   0.560   2.571   1.164 -1.0874  3.7788  0.7898
 5997SOL     OW29449   1.869   1.744   4.107 -0.2129 -0.0667 -0.6634
 5997SOL    HW129450   1.797   1.758   4.170  1.8939  2.3617  1.2293
 5997SOL    HW229451   1.886   1.654   4.132 -0.0691  0.6907  2.0179
 5998SOL     OW29452   3.706   4.058   5.395 -0.4133 -0.4753 -0.1972
 5998SOL    HW129453   3.636   4.014   5.443  0.4339  1.1518  2.5758
 5998SOL    HW229454   3.697   4.017   5.309  0.6394 -3.2078  1.0004
 5999SOL     OW29455   1.146   0.420   8.960 -0.5024  0.2244 -0.0234
 5999SOL    HW129456   1.222   0.457   9.004 -0.4973  1.0698 -0.7344
 5999SOL    HW229457   1.075   0.442   9.020  0.8719  1.3628  1.1905
 6000SOL     OW29458   3.640   2.897   5.474 -0.7574 -0.2137 -0.4601
 6000SOL    HW129459   3.550   2.904   5.506 -0.0949 -1.2137  1.5866
 6000SOL    HW229460   3.679   2.894   5.561  1.4549  0.8076 -1.4163
 6001SOL     OW29461   2.504   1.361   3.721  0.3164 -0.7190 -0.4293
 6001SOL    HW129462   2.556   1.435   3.690 -1.7206 -0.4077 -3.0225
 6001SOL    HW229463   2.561   1.289   3.694  0.9421  0.3271 -1.8990
 6002SOL     OW29464   0.666   4.438   1.825  0.5560 -0.5297  0.7628
 6002SOL    HW129465   0.690   4.455   1.734 -2.2182 -0.8719 -0.0403
 6002SOL    HW229466   0.587   4.490   1.837  0.3809 -0.5875 -0.0743
 6003SOL     OW29467   0.970   2.271   6.166 -0.5253 -0.2635  0.0866
 6003SOL    HW129468   0.906   2.200   6.170 -1.1110  0.3289  1.4052
 6003SOL    HW229469   0.916   2.348   6.149  1.0225  0.8581  0.2389
 6004SOL     OW29470   2.838   2.443  14.365 -0.7607 -0.1673 -0.0719
 6004SOL    HW129471   2.827   2.467  14.457 -0.7795  0.6518 -0.2910
 6004SOL    HW229472   2.795   2.518  14.325 -0.7360  0.4621  1.0928
 6005SOL     OW29473   0.554   0.872   4.165  0.6968  0.0460 -0.1987
 6005SOL    HW129474   0.593   0.808   4.225  0.1333 -1.1450 -1.1149
 6005SOL    HW229475   0.623   0.872   4.099  0.5457  0.9695 -0.3593
 6006SOL     OW29476   1.596   2.331   7.643 -0.0149 -0.0677 -0.0911
 6006SOL    HW129477   1.590   2.425   7.660 -1.5212 -0.5882  2.2512
 6006SOL    HW229478   1.510   2.313   7.607  1.0402 -1.4147 -1.9425
 6007SOL     OW29479   3.627   1.983   8.472 -0.3013 -0.2131  0.4970
 6007SOL    HW129480   3.692   1.918   8.449  1.0277  1.1075  0.5248
 6007SOL    HW229481   3.602   2.013   8.384 -0.2050  0.5292  0.7252
 6008SOL     OW29482   1.151   1.138  11.275  0.0009  0.1221 -0.4524
 6008SOL    HW129483   1.214   1.204  11.304  0.6648 -0.1428 -1.2982
 6008SOL    HW229484   1.203   1.058  11.269 -2.1320 -1.4219  1.4349
 6009SOL     OW29485   4.054   4.306   2.953 -0.0169  0.7976  0.3528
 6009SOL    HW129486   4.022   4.270   2.870  0.8250 -1.6620  1.1245
 6009SOL    HW229487   4.072   4.393   2.915  2.1690  0.2555  0.1680
 6010SOL     OW29488   0.079   2.057   4.681  0.3458  0.0827 -0.2536
 6010SOL    HW129489   0.000   2.034   4.632  0.1108  0.2517  0.0486
 6010SOL    HW229490   0.092   2.148   4.654  3.1004 -0.3987 -0.5959
 6011SOL     OW29491   3.936   1.927   0.257 -0.4905  0.3638 -0.3622
 6011SOL    HW129492   3.858   1.921   0.312  1.4456  0.9878  2.4270
 6011SOL    HW229493   3.999   1.912   0.327  0.5939  0.6236 -1.2809
 6012SOL     OW29494   2.590   3.918   3.909 -0.2566  0.1481  1.0621
 6012SOL    HW129495   2.528   3.938   3.839 -0.2488 -0.5445  0.8483
 6012SOL    HW229496   2.589   3.822   3.903 -0.6487  0.1999  0.3485
 6013SOL     OW29497   1.428   2.626   4.854 -0.2885 -0.0549  0.3842
 6013SOL    HW129498   1.499   2.575   4.815  0.5013  0.1763  1.5200
 6013SOL    HW229499   1.457   2.716   4.840  0.8867 -0.8633 -2.4222
 6014SOL     OW29500   1.183   1.261   8.901 -0.7503  0.1263  0.3908
 6014SOL    HW129501   1.120   1.322   8.862  0.8854  0.4395 -1.7541
 6014SOL    HW229502   1.177   1.288   8.993 -0.7510 -0.6440  0.6179
 6015SOL     OW29503   3.393   1.498   7.435 -0.1600 -0.2397 -0.5483
 6015SOL    HW129504   3.387   1.587   7.400 -0.0373 -0.6895 -1.7135
 6015SOL    HW229505   3.487   1.485   7.448 -0.5107 -3.4029 -1.1364
 6016SOL     OW29506   4.690   2.814   7.970  0.3700  0.8701  0.0106
 6016SOL    HW129507   4.668   2.777   7.885 -1.8304 -0.7608  1.2946
 6016SOL    HW229508   0.047   2.860   7.940 -1.1276  2.4128 -1.5106
 6017SOL     OW29509   4.220   4.077   5.326  0.0472  0.1249 -0.5286
 6017SOL    HW129510   4.290   4.080   5.262  0.4572 -1.8411 -0.1762
 6017SOL    HW229511   4.267   4.097   5.408  1.1340 -0.8956 -0.9099
 6018SOL     OW29512   0.261   1.962   5.072 -0.0509  0.2871  0.3845
 6018SOL    HW129513   0.254   1.991   4.981 -0.5594  1.9288  0.9596
 6018SOL    HW229514   0.351   1.928   5.067 -0.9278 -1.8379 -0.8850
 6019SOL     OW29515   4.409   3.949   5.855  0.2609  0.7220  0.1395
 6019SOL    HW129516   4.417   4.044   5.866 -0.8540  0.8907 -0.4081
 6019SOL    HW229517   4.334   3.929   5.798 -0.4240  3.2286  0.1488
 6020SOL     OW29518   3.317   0.360   1.832 -0.3455 -0.2101 -0.1158
 6020SOL    HW129519   3.274   0.314   1.760 -1.2291 -0.6560  0.6913
 6020SOL    HW229520   3.393   0.397   1.787  2.1932 -1.6366  2.9144
 6021SOL     OW29521   2.850   2.807   4.227  0.3348  0.5411 -0.7297
 6021SOL    HW129522   2.921   2.862   4.193  2.0985 -2.2260 -1.5444
 6021SOL    HW229523   2.870   2.728   4.175  0.0400 -0.1962  0.2785
 6022SOL     OW29524   4.032   1.474   6.294  0.2367  0.5633 -0.5129
 6022SOL    HW129525   4.028   1.541   6.225  1.1812 -1.2014 -2.2727
 6022SOL    HW229526   3.979   1.408   6.250  0.9691  0.7163 -1.6099
 6023SOL     OW29527   3.219   3.897  10.254 -0.1800 -0.4422  0.2953
 6023SOL    HW129528   3.191   3.965  10.192  1.8060 -0.0848 -0.2069
 6023SOL    HW229529   3.307   3.877  10.223  0.4270  0.9620  1.0639
 6024SOL     OW29530   0.449   1.427   5.155  0.0750 -0.1558  0.2128
 6024SOL    HW129531   0.392   1.424   5.078  2.1314 -1.6914 -1.2574
 6024SOL    HW229532   0.391   1.382   5.216  2.0705  0.0315  2.2456
 6025SOL     OW29533   3.247   1.901   7.377  0.0123 -0.3123  0.1990
 6025SOL    HW129534   3.235   1.892   7.471  0.4119  0.0048  0.2803
 6025SOL    HW229535   3.213   1.819   7.342 -3.4711  2.1484 -2.1741
 6026SOL     OW29536   2.926   0.022  12.003 -0.1871 -0.4178 -0.7884
 6026SOL    HW129537   2.870   4.687  11.949  0.1097  0.2646 -1.8038
 6026SOL    HW229538   2.988   4.678  12.035 -1.1014  0.3876  2.5810
 6027SOL     OW29539   3.447   3.068   7.709 -0.1089  0.2573 -0.2067
 6027SOL    HW129540   3.431   3.083   7.802  0.4877  1.6983 -0.3385
 6027SOL    HW229541   3.526   3.014   7.715 -0.4086 -0.1455  0.0893
 6028SOL     OW29542   3.900   1.150   9.147 -0.0765  0.0376  0.1969
 6028SOL    HW129543   3.993   1.170   9.143 -0.5673  1.8779 -1.6862
 6028SOL    HW229544   3.866   1.191   9.068  0.9932 -1.1714 -0.8887
 6029SOL     OW29545   0.928   2.302  16.662 -0.2392 -0.3306  0.2586
 6029SOL    HW129546   0.982   2.331  16.589  1.2950  1.5232  2.1137
 6029SOL    HW229547   0.845   2.281  16.619 -1.5986  1.2465  2.1237
 6030SOL     OW29548   2.033   4.241  14.632 -0.0349 -0.2882 -0.5320
 6030SOL    HW129549   2.062   4.206  14.716 -0.4338 -1.5350 -0.9219
 6030SOL    HW229550   1.945   4.256  14.667  0.5526  2.4838 -0.1946
 6031SOL     OW29551   3.402   4.428   4.596  0.1681  0.0241  0.2517
 6031SOL    HW129552   3.453   4.392   4.668 -0.2628 -0.2675  0.4079
 6031SOL    HW229553   3.363   4.350   4.557  1.7430 -2.2090  3.1691
 6032SOL     OW29554   2.214   2.511  16.380  0.2085 -0.8599 -0.2723
 6032SOL    HW129555   2.254   2.498  16.294  1.8936  1.2842  0.1547
 6032SOL    HW229556   2.180   2.424  16.396 -0.9898 -0.8208 -2.5459
 6033SOL     OW29557   4.143   4.311  14.845 -0.3343 -0.5126  0.2285
 6033SOL    HW129558   4.210   4.244  14.829  0.7835  0.5991  0.2866
 6033SOL    HW229559   4.128   4.355  14.761  1.6771 -0.2493  0.0116
 6034SOL     OW29560   0.861   1.209   6.981  0.1653 -0.2083 -0.3469
 6034SOL    HW129561   0.929   1.277   6.984 -0.2104  0.1234  0.6298
 6034SOL    HW229562   0.863   1.186   6.888  0.0430 -1.4603 -0.0418
 6035SOL     OW29563   1.899   2.110   8.795 -0.3643  0.9001  0.1918
 6035SOL    HW129564   1.924   2.164   8.870 -1.3444  1.7823 -0.1300
 6035SOL    HW229565   1.976   2.052   8.794 -1.0142  0.0198  0.5283
 6036SOL     OW29566   3.590   4.342   5.575  0.0230 -0.3389 -0.2111
 6036SOL    HW129567   3.523   4.300   5.522 -1.3248  1.2636  0.2240
 6036SOL    HW229568   3.653   4.372   5.509  1.4509  3.0443  2.6126
 6037SOL     OW29569   3.713   1.767   0.438  0.5439 -0.0056  0.6031
 6037SOL    HW129570   3.647   1.813   0.489 -0.7376 -1.4820  0.2501
 6037SOL    HW229571   3.771   1.724   0.501  0.3648  0.5490  1.1480
 6038SOL     OW29572   0.323   2.992   2.300 -0.3347  0.5344  0.1947
 6038SOL    HW129573   0.339   2.898   2.289  1.3348  0.8393 -0.0446
 6038SOL    HW229574   0.239   2.994   2.345 -0.3680  0.5707  0.1301
 6039SOL     OW29575   0.169   2.235   6.302 -0.4010  0.0203  0.2053
 6039SOL    HW129576   0.168   2.170   6.372  0.6476  1.0285  1.1707
 6039SOL    HW229577   0.089   2.205   6.259 -0.2717  0.7383 -0.5330
 6040SOL     OW29578   3.095   3.953  14.804 -0.3131 -0.2306 -0.1013
 6040SOL    HW129579   3.027   4.017  14.825  0.1286 -0.0752  0.8442
 6040SOL    HW229580   3.078   3.941  14.710  0.3212 -1.4056 -0.0601
 6041SOL     OW29581   0.285   3.601   5.155  0.5122  0.0339  0.0938
 6041SOL    HW129582   0.197   3.565   5.145  0.6692 -0.2266 -0.3421
 6041SOL    HW229583   0.300   3.591   5.249 -2.0901  1.2029  0.6282
 6042SOL     OW29584   4.492   1.973   3.929  0.1119 -0.0763  0.3562
 6042SOL    HW129585   4.402   2.005   3.935 -0.2496 -0.5183 -2.4899
 6042SOL    HW229586   4.541   2.048   3.896 -0.2969  0.3046  0.6200
 6043SOL     OW29587   4.467   0.688   5.267 -0.2906  0.2516 -0.2038
 6043SOL    HW129588   4.404   0.649   5.206 -0.4978 -0.4767  0.4695
 6043SOL    HW229589   4.517   0.751   5.216  0.9934 -0.2370  0.4590
 6044SOL     OW29590   1.578   2.875   4.214 -0.5472  0.0756 -0.7426
 6044SOL    HW129591   1.537   2.936   4.152  0.4077 -0.1431 -1.6002
 6044SOL    HW229592   1.658   2.856   4.164  2.1634 -0.3288  3.7784
 6045SOL     OW29593   1.097   0.315   7.124  0.2694 -0.0345  0.3217
 6045SOL    HW129594   1.190   0.301   7.140 -0.1283 -0.2182  2.5345
 6045SOL    HW229595   1.086   0.284   7.035  0.7368 -1.0763  0.6255
 6046SOL     OW29596   2.665   0.617   5.109 -0.2580  0.2237 -0.1429
 6046SOL    HW129597   2.582   0.631   5.156  0.1470 -2.0050  1.2057
 6046SOL    HW229598   2.707   0.702   5.127 -0.8078  0.4090  0.2871
 6047SOL     OW29599   2.441   0.048  13.835  0.8586 -0.0768  0.1224
 6047SOL    HW129600   2.414   0.100  13.910  0.3575 -1.4528  0.8971
 6047SOL    HW229601   2.423   0.119  13.773  1.0749 -1.6284 -1.7094
 6048SOL     OW29602   2.258   2.607   4.239  0.2359 -0.3005  0.0911
 6048SOL    HW129603   2.271   2.516   4.262  0.7414 -0.6959 -1.7267
 6048SOL    HW229604   2.317   2.622   4.165  0.6142 -0.4129  0.3745
 6049SOL     OW29605   0.524   3.080   6.108  0.0918  0.5365  0.6292
 6049SOL    HW129606   0.563   3.164   6.086 -0.5209  0.5375 -0.4709
 6049SOL    HW229607   0.537   3.024   6.031  1.2802  1.9183 -0.1740
 6050SOL     OW29608   1.259   2.993  13.737 -0.3292  0.3572 -0.3291
 6050SOL    HW129609   1.197   3.064  13.751 -2.9292 -1.2905 -3.3178
 6050SOL    HW229610   1.317   3.026  13.668  0.4988 -1.0163 -0.3026
 6051SOL     OW29611   1.694   4.143   1.466  1.0790  0.7226  0.0523
 6051SOL    HW129612   1.673   4.218   1.410  1.4606 -0.3894 -1.5969
 6051SOL    HW229613   1.708   4.195   1.545 -1.4243  2.9586 -0.9833
 6052SOL     OW29614   0.694   2.005   3.756  0.0715  0.0621 -0.1856
 6052SOL    HW129615   0.643   2.023   3.836 -0.2769  0.1306 -0.4212
 6052SOL    HW229616   0.755   2.078   3.771  0.8475 -0.5276 -0.5332
 6053SOL     OW29617   3.088   3.796   3.660 -0.0509 -0.2336  0.1131
 6053SOL    HW129618   3.088   3.840   3.576 -2.7945  0.3351  0.4113
 6053SOL    HW229619   2.999   3.767   3.678 -0.5806  1.2848 -0.1146
 6054SOL     OW29620   4.119   4.339   2.483 -0.0465 -0.0010 -0.2421
 6054SOL    HW129621   4.094   4.385   2.403  0.9723 -0.1766 -0.6628
 6054SOL    HW229622   4.205   4.302   2.463 -0.5582  0.1619 -2.7279
 6055SOL     OW29623   4.169   2.585  17.534 -0.2142  0.8999 -0.2838
 6055SOL    HW129624   4.238   2.593  17.468 -0.1072 -1.9433 -0.4864
 6055SOL    HW229625   4.095   2.579  17.474  0.0610  0.4075 -0.5638
 6056SOL     OW29626   1.619   4.669   1.668  0.4456 -0.0633  0.0578
 6056SOL    HW129627   1.670   4.720   1.732  1.6521  0.1913 -1.1030
 6056SOL    HW229628   1.528   4.676   1.697  0.8821 -1.0714  1.6539
 6057SOL     OW29629   3.467   4.382   3.948  0.5607 -0.0075 -0.0229
 6057SOL    HW129630   3.424   4.359   3.866 -0.1772  0.2130  0.2927
 6057SOL    HW229631   3.409   4.343   4.014  1.0543 -1.7960 -0.6527
 6058SOL     OW29632   0.437   2.951   0.742  0.1497  0.1281  0.1685
 6058SOL    HW129633   0.439   2.856   0.752 -1.4299  0.1921  1.0229
 6058SOL    HW229634   0.529   2.972   0.725 -0.1474 -0.7304 -2.5356
 6059SOL     OW29635   1.567   2.117   4.809  0.3223  0.2966  0.0112
 6059SOL    HW129636   1.635   2.185   4.800  0.5505 -0.0034 -0.5341
 6059SOL    HW229637   1.532   2.117   4.720  0.7349  0.8854 -0.1564
 6060SOL     OW29638   0.658   2.646   8.179 -0.6898 -0.1019 -0.0471
 6060SOL    HW129639   0.691   2.562   8.147 -0.5629  0.6739 -1.9880
 6060SOL    HW229640   0.577   2.651   8.129 -1.1276 -1.8228  0.5131
 6061SOL     OW29641   1.631   3.843   0.042  0.1168 -0.8489 -0.2098
 6061SOL    HW129642   1.707   3.899   0.054 -1.0756  0.6847  0.1236
 6061SOL    HW229643   1.652   3.771   0.101  1.5955  0.3815  0.7566
 6062SOL     OW29644   3.630   1.259   7.232  0.2115 -0.3494 -0.1399
 6062SOL    HW129645   3.676   1.192   7.181  2.5926  1.5312 -0.4525
 6062SOL    HW229646   3.565   1.196   7.265  1.3915 -1.8603 -0.6949
 6063SOL     OW29647   2.471   0.408  17.430  0.5612  0.0564 -0.2919
 6063SOL    HW129648   2.472   0.377  17.521 -3.6646  1.8205  0.3509
 6063SOL    HW229649   2.500   0.327  17.388  2.6880 -0.2737  1.7869
 6064SOL     OW29650   4.334   2.919   4.839  0.2947  0.2694  1.1002
 6064SOL    HW129651   4.324   2.824   4.834 -1.5280  0.4468  1.1980
 6064SOL    HW229652   4.359   2.917   4.931  0.4900 -1.6916  1.0159
 6065SOL     OW29653   2.891   1.920   7.185  0.2387 -0.4747 -0.1433
 6065SOL    HW129654   2.899   1.825   7.196 -0.7689 -0.6442 -0.8731
 6065SOL    HW229655   2.887   1.917   7.089 -0.6782 -2.5255 -0.0318
 6066SOL     OW29656   2.123   0.058  14.968 -0.3293  0.8198 -0.0317
 6066SOL    HW129657   2.029   0.043  14.971  0.1559 -2.3099 -0.3594
 6066SOL    HW229658   2.156   4.689  14.962 -2.1343  0.2048 -0.6346
 6067SOL     OW29659   1.341   2.778   4.540 -0.1516  0.3787  0.2499
 6067SOL    HW129660   1.421   2.811   4.499  0.6599  0.8277  2.1723
 6067SOL    HW229661   1.360   2.685   4.542 -1.0153  0.1872 -0.5516
 6068SOL     OW29662   2.606   0.123   6.024  0.3088  0.2464 -0.0555
 6068SOL    HW129663   2.528   0.103   6.075  0.4888 -2.4121 -0.8052
 6068SOL    HW229664   2.583   0.090   5.937  0.0432  0.5634 -0.1055
 6069SOL     OW29665   1.601   3.911  12.625 -0.4072  0.5682 -0.8658
 6069SOL    HW129666   1.679   3.864  12.653 -0.9513  1.2826  1.8051
 6069SOL    HW229667   1.624   3.941  12.537 -3.9612  2.2458 -1.2312
 6070SOL     OW29668   0.430   3.815   3.903  0.6459  0.1023 -0.0743
 6070SOL    HW129669   0.430   3.902   3.863 -1.0500 -0.2709 -0.8919
 6070SOL    HW229670   0.414   3.845   3.993  0.2339 -1.7524  0.4742
 6071SOL     OW29671   0.304   1.634   7.435  0.0495  1.0257  0.3453
 6071SOL    HW129672   0.231   1.616   7.375  0.5409  1.1514 -0.2898
 6071SOL    HW229673   0.269   1.617   7.523  0.4826  3.2582  0.9595
 6072SOL     OW29674   1.632   2.108  16.772 -0.3108 -0.0862 -0.5157
 6072SOL    HW129675   1.537   2.121  16.767  0.1202  2.6484 -1.1253
 6072SOL    HW229676   1.645   2.089  16.865  0.2721 -0.1364 -0.6078
 6073SOL     OW29677   3.784   3.138  13.006 -0.5484  0.2393 -0.4578
 6073SOL    HW129678   3.787   3.145  13.102 -0.4552 -0.4144 -0.4121
 6073SOL    HW229679   3.812   3.225  12.976  0.4317  0.4343  1.0027
 6074SOL     OW29680   2.413   3.791   2.689 -0.1488 -0.4696  0.4601
 6074SOL    HW129681   2.388   3.851   2.759  0.5545 -0.4291  0.6743
 6074SOL    HW229682   2.361   3.718   2.723 -1.8780 -0.4124 -2.0522
 6075SOL     OW29683   3.828   2.840   6.069  0.4063  0.0569 -0.1523
 6075SOL    HW129684   3.875   2.905   6.123 -0.6902  0.2016  0.6197
 6075SOL    HW229685   3.769   2.797   6.131  0.4894  0.6026  0.3120
 6076SOL     OW29686   4.482   1.682   5.521 -0.4217  0.1223 -0.6107
 6076SOL    HW129687   4.566   1.719   5.493 -1.6162  1.0016 -3.0697
 6076SOL    HW229688   4.445   1.757   5.568  1.4731 -0.0505  1.1457
 6077SOL     OW29689   3.060   1.383  12.647  0.6547  0.3044 -0.5925
 6077SOL    HW129690   2.992   1.438  12.606 -0.0422 -1.2517 -1.5236
 6077SOL    HW229691   3.138   1.381  12.593 -0.5690 -1.8359 -2.2490
 6078SOL     OW29692   4.193   0.472  17.389  0.3188  0.2855  0.7913
 6078SOL    HW129693   4.206   0.467  17.483 -1.6556 -1.7575  0.9693
 6078SOL    HW229694   4.103   0.441  17.380  1.0576 -1.6429  0.0824
 6079SOL     OW29695   0.075   4.659   4.729  0.2301  0.0040  0.2231
 6079SOL    HW129696   0.070   4.629   4.820 -0.0768 -0.1259  0.1608
 6079SOL    HW229697   4.707   4.637   4.702 -0.5639  0.4933  2.4593
 6080SOL     OW29698   3.680   2.693  12.945 -0.9454 -0.0163  0.0218
 6080SOL    HW129699   3.611   2.759  12.956 -1.5208 -0.3101 -1.8856
 6080SOL    HW229700   3.638   2.632  13.005  0.4396  0.7125  1.7485
 6081SOL     OW29701   1.787   4.067  17.178 -0.2030 -0.1371  0.3649
 6081SOL    HW129702   1.844   4.049  17.253  2.2328 -1.2133 -1.7554
 6081SOL    HW229703   1.742   4.150  17.195 -1.3288 -1.1540  2.2959
 6082SOL     OW29704   3.298   1.783   9.056  0.0750  0.4039  0.3217
 6082SOL    HW129705   3.209   1.758   9.035  0.5921  0.3365 -1.7552
 6082SOL    HW229706   3.282   1.875   9.077  0.3340  0.0999  1.8635
 6083SOL     OW29707   4.109   3.325   1.961 -0.1118 -0.3930 -0.3219
 6083SOL    HW129708   4.139   3.235   1.947  0.7958 -0.1245 -0.0854
 6083SOL    HW229709   4.037   3.324   1.897 -1.4188 -0.8329  1.1631
 6084SOL     OW29710   3.235   1.573   5.358  0.5580  0.4820  0.4984
 6084SOL    HW129711   3.185   1.630   5.299  0.3422 -0.1758  0.0548
 6084SOL    HW229712   3.170   1.571   5.428 -2.0550 -0.1748 -1.9496
 6085SOL     OW29713   3.211   0.221   5.742  0.2845  0.1667 -0.0901
 6085SOL    HW129714   3.210   0.127   5.761  0.7026  0.6611  2.3342
 6085SOL    HW229715   3.119   0.242   5.760  0.8943  0.3266  2.8070
 6086SOL     OW29716   3.901   2.799   5.632 -0.4568  0.5139  0.4812
 6086SOL    HW129717   3.938   2.835   5.552 -2.3816  1.1312 -0.1051
 6086SOL    HW229718   3.975   2.804   5.693  0.0729  0.1768 -0.1360
 6087SOL     OW29719   1.040   3.557   7.684 -0.2359 -0.3605 -0.1427
 6087SOL    HW129720   0.985   3.485   7.653  2.3549 -1.9164 -1.1286
 6087SOL    HW229721   0.981   3.615   7.731  1.3723 -0.8399  2.5292
 6088SOL     OW29722   4.547   0.839  13.132 -1.1381  0.6906 -0.1224
 6088SOL    HW129723   4.577   0.903  13.067 -1.9437 -0.6199 -1.8098
 6088SOL    HW229724   4.464   0.814  13.091 -0.4761 -0.5729 -0.7020
 6089SOL     OW29725   3.155   1.565   6.975 -0.4019  0.2627 -0.4330
 6089SOL    HW129726   3.141   1.478   6.937 -1.4753  0.6815 -0.9930
 6089SOL    HW229727   3.214   1.599   6.908  0.5048 -0.5074 -0.0186
 6090SOL     OW29728   1.793   0.204   3.678  0.6556  0.0493 -0.3825
 6090SOL    HW129729   1.787   0.163   3.764 -1.9843  0.6418 -0.3020
 6090SOL    HW229730   1.703   0.187   3.649  0.9495 -1.2676 -0.5390
 6091SOL     OW29731   1.472   0.922   4.977 -0.0479  0.4817  0.2573
 6091SOL    HW129732   1.560   0.906   5.012 -0.7157 -1.5038  0.9811
 6091SOL    HW229733   1.427   0.957   5.054  0.2956  1.4854  0.0074
 6092SOL     OW29734   2.013   4.708   6.080 -0.1363 -0.2081  0.3370
 6092SOL    HW129735   2.083   0.020   6.137 -0.4359 -0.7990  1.0436
 6092SOL    HW229736   2.033   0.042   6.004 -0.3799  0.7636  0.9814
 6093SOL     OW29737   3.875   1.532  14.327 -0.2454 -0.3679  0.1105
 6093SOL    HW129738   3.960   1.517  14.368 -0.1508 -0.8524 -0.2529
 6093SOL    HW229739   3.819   1.554  14.402 -0.6333  1.0541 -0.6096
 6094SOL     OW29740   2.447   1.618   9.264  0.4103  0.1465  0.4853
 6094SOL    HW129741   2.536   1.588   9.249  0.5331  0.8574 -0.2023
 6094SOL    HW229742   2.402   1.536   9.286 -0.1082 -0.2259 -1.9334
 6095SOL     OW29743   3.342   4.652   4.754 -0.3043  0.9490 -0.0848
 6095SOL    HW129744   3.353   4.578   4.695  0.8505  0.0840  1.2226
 6095SOL    HW229745   3.263   4.632   4.803  0.1373 -0.5525  0.0238
 6096SOL     OW29746   0.975   2.183   5.515 -0.0371 -0.2354 -0.6118
 6096SOL    HW129747   1.040   2.251   5.497 -0.3624  0.2844  0.1852
 6096SOL    HW229748   0.941   2.171   5.426 -0.7546 -1.5931 -0.1470
 6097SOL     OW29749   2.624   0.790  17.498  0.0477 -0.2707 -0.1864
 6097SOL    HW129750   2.615   0.802  17.592 -4.8800 -2.2083 -0.3945
 6097SOL    HW229751   2.662   0.703  17.496  2.4368  0.7594  0.8248
 6098SOL     OW29752   1.203   0.859   0.602 -0.1498 -0.2868  0.1596
 6098SOL    HW129753   1.269   0.894   0.542 -1.3193  0.4207 -0.6912
 6098SOL    HW229754   1.173   0.938   0.645  0.7484  0.8657 -1.3210
 6099SOL     OW29755   3.564   1.953  17.516  0.1675 -0.3491 -0.5478
 6099SOL    HW129756   3.513   1.877  17.488 -0.8068 -0.5511  1.7747
 6099SOL    HW229757   3.571   1.943  17.611 -0.9363 -0.2664 -0.4517
 6100SOL     OW29758   0.843   3.019   3.550  0.1638 -0.0313  0.5499
 6100SOL    HW129759   0.785   3.046   3.621 -0.2445  1.9919 -0.5541
 6100SOL    HW229760   0.783   3.027   3.476  1.9380  1.1613 -0.7694
 6101SOL     OW29761   2.063   3.101  15.719  0.5923  0.3095  0.4256
 6101SOL    HW129762   2.106   3.157  15.783 -0.0311 -0.0169  1.1343
 6101SOL    HW229763   2.118   3.026  15.695  1.8470  1.0536  1.0211
 6102SOL     OW29764   1.933   0.187   0.399  0.3207 -0.5060 -0.2681
 6102SOL    HW129765   1.906   0.138   0.321 -0.2309 -2.5543  1.2074
 6102SOL    HW229766   1.878   0.159   0.472  0.6123  0.6897  0.4018
 6103SOL     OW29767   1.189   2.593  11.968  0.5742  0.5684  0.1352
 6103SOL    HW129768   1.127   2.620  11.901  0.7124  0.2401 -0.1214
 6103SOL    HW229769   1.155   2.652  12.035 -1.2763  0.4502 -0.7095
 6104SOL     OW29770   4.648   1.837   0.865 -0.0398  0.0342 -0.1311
 6104SOL    HW129771   4.569   1.889   0.853 -0.2836 -0.3489 -0.1766
 6104SOL    HW229772   4.680   1.874   0.948 -1.6145 -0.1807  0.5634
 6105SOL     OW29773   2.709   4.531   4.378  0.9373  0.4255 -0.4360
 6105SOL    HW129774   2.707   4.597   4.448 -0.4805  0.1573 -0.2229
 6105SOL    HW229775   2.629   4.552   4.331  0.3239 -0.2604  0.2786
 6106SOL     OW29776   1.271   1.333   6.011 -0.1189  0.8701  0.1246
 6106SOL    HW129777   1.276   1.369   5.922  2.9500 -1.4797 -0.6668
 6106SOL    HW229778   1.342   1.375   6.060 -2.2392  3.4636  1.0019
 6107SOL     OW29779   0.997   0.902   6.759  0.2538 -0.2894 -0.3817
 6107SOL    HW129780   1.028   0.873   6.845 -3.4336 -0.3048  0.9200
 6107SOL    HW229781   0.957   0.825   6.718 -1.6957  0.5598 -0.0420
 6108SOL     OW29782   2.218   0.125   3.470  0.0926 -0.3296 -0.1029
 6108SOL    HW129783   2.240   0.190   3.403  1.6873  1.1272  1.8765
 6108SOL    HW229784   2.131   0.152   3.501 -0.0675 -1.8182  0.7690
 6109SOL     OW29785   0.007   2.020  16.179  0.2883  0.2761 -0.2472
 6109SOL    HW129786   0.003   2.112  16.151 -0.3347  0.2002 -0.4002
 6109SOL    HW229787   0.099   1.999  16.163  0.2008 -0.6379  0.4751
 6110SOL     OW29788   3.791   3.227   4.231  0.1681  0.0880  0.2712
 6110SOL    HW129789   3.719   3.265   4.281 -1.2098 -2.0074 -0.1252
 6110SOL    HW229790   3.778   3.140   4.268  1.2154 -0.8106 -1.5172
 6111SOL     OW29791   2.942   2.726   7.173 -0.0880  0.0892 -0.3600
 6111SOL    HW129792   2.962   2.681   7.256  0.8959 -1.4515 -1.4353
 6111SOL    HW229793   3.023   2.771   7.150 -0.7764  2.6464  2.1449
 6112SOL     OW29794   2.766   1.454   2.083  0.4261  0.2468  0.0205
 6112SOL    HW129795   2.754   1.545   2.059 -0.0430  0.4044  0.8716
 6112SOL    HW229796   2.737   1.452   2.174 -0.1214  1.0497 -0.1397
 6113SOL     OW29797   3.135   3.846  15.067 -0.3002  0.3089 -0.0504
 6113SOL    HW129798   3.133   3.838  14.972 -2.4329 -1.1917  0.1063
 6113SOL    HW229799   3.179   3.931  15.068  0.9073 -0.3403  2.0934
 6114SOL     OW29800   3.075   4.620  11.175 -0.5191  0.3990 -0.5517
 6114SOL    HW129801   3.016   4.665  11.235 -2.5143 -3.0551  0.0671
 6114SOL    HW229802   3.012   4.565  11.129  0.5128  0.1016 -1.6376
 6115SOL     OW29803   2.787   1.778   4.008  0.3669  0.6045 -0.1981
 6115SOL    HW129804   2.785   1.760   4.102  0.5603 -0.0226 -0.3147
 6115SOL    HW229805   2.804   1.872   4.009  0.0922  0.6760 -2.0948
 6116SOL     OW29806   0.560   0.967   7.734  0.0695  0.2121 -0.3434
 6116SOL    HW129807   0.551   1.018   7.653  1.6593 -0.1168 -0.7376
 6116SOL    HW229808   0.646   0.927   7.721 -0.3749 -0.9387  0.3144
 6117SOL     OW29809   2.204   0.251   0.339  0.2991  0.2603  0.0272
 6117SOL    HW129810   2.273   0.193   0.370 -0.0620 -0.4580 -0.4901
 6117SOL    HW229811   2.123   0.213   0.372  1.8268 -1.9970  1.2024
 6118SOL     OW29812   4.411   1.394   7.496  0.4593  0.1006 -0.0259
 6118SOL    HW129813   4.431   1.362   7.408  0.5818 -1.0905  0.4243
 6118SOL    HW229814   4.434   1.310   7.537  1.0643 -0.6756 -1.9364
 6119SOL     OW29815   3.638   2.560  15.292 -0.2689 -0.4276 -0.0818
 6119SOL    HW129816   3.697   2.601  15.355  0.8605  0.4559 -1.7169
 6119SOL    HW229817   3.557   2.592  15.332 -0.9920  0.8361 -2.5633
 6120SOL     OW29818   2.536   2.013   3.547 -0.0910 -0.1618 -0.4470
 6120SOL    HW129819   2.502   2.072   3.613  3.1409  0.5106  0.6222
 6120SOL    HW229820   2.551   2.074   3.475 -2.1337  0.0010 -0.7288
 6121SOL     OW29821   2.047   1.984   6.725  0.1398 -0.4455 -0.3153
 6121SOL    HW129822   2.126   1.984   6.779  0.1755 -1.3094 -0.3649
 6121SOL    HW229823   2.011   2.071   6.745 -2.1546 -1.3110 -0.6681
 6122SOL     OW29824   1.515   2.862   8.790  0.9644  0.2967  0.2451
 6122SOL    HW129825   1.451   2.926   8.820  2.6508  0.9101  2.5599
 6122SOL    HW229826   1.579   2.866   8.862  0.8242  0.9501  0.3347
 6123SOL     OW29827   4.475   4.353   3.338  0.2238 -0.4221 -0.1701
 6123SOL    HW129828   4.436   4.339   3.424  0.7939 -0.1373  0.1393
 6123SOL    HW229829   4.409   4.309   3.285 -1.5985 -0.0893  1.8098
 6124SOL     OW29830   2.108   2.398   2.754  0.1193  0.3512 -0.2513
 6124SOL    HW129831   2.135   2.313   2.718 -2.2091 -0.3036 -0.4608
 6124SOL    HW229832   2.125   2.392   2.848 -1.5916 -0.0204  0.0228
 6125SOL     OW29833   2.050   1.387   8.192 -0.0345 -0.1859 -0.2458
 6125SOL    HW129834   1.979   1.425   8.244  0.5803  1.7505 -0.7981
 6125SOL    HW229835   2.119   1.383   8.259  0.1507 -2.9192 -0.5905
 6126SOL     OW29836   0.160   3.326   9.384 -0.2840  0.1440 -0.1376
 6126SOL    HW129837   0.147   3.263   9.455  1.9059  0.7433  0.8352
 6126SOL    HW229838   0.252   3.346   9.405 -0.3159  0.8108 -0.6251
 6127SOL     OW29839   0.966   1.253  11.535 -0.1012 -0.3973  0.6177
 6127SOL    HW129840   1.034   1.305  11.492 -1.6422  0.0880 -1.2350
 6127SOL    HW229841   1.022   1.205  11.597  2.2996  0.8132 -0.6279
 6128SOL     OW29842   4.369   3.244   1.161 -0.4335  0.1666  0.1040
 6128SOL    HW129843   4.424   3.317   1.134  0.7941 -1.5952 -2.1587
 6128SOL    HW229844   4.408   3.213   1.243  0.7449 -0.4841 -0.6969
 6129SOL     OW29845   3.835   2.969   4.023  0.3308 -0.8065 -0.1261
 6129SOL    HW129846   3.789   2.926   4.095 -0.2023  0.8851  0.5394
 6129SOL    HW229847   3.774   3.020   3.971  0.4804 -1.0742 -0.5647
 6130SOL     OW29848   3.188   4.660   4.321  0.0980 -0.1470 -0.2050
 6130SOL    HW129849   3.261   4.681   4.378  0.8398 -1.6788 -0.5885
 6130SOL    HW229850   3.155   0.027   4.303 -1.9549 -1.2898 -2.1313
 6131SOL     OW29851   2.609   4.635   0.334 -0.3023 -0.4910 -0.1853
 6131SOL    HW129852   2.665   4.617   0.410  0.9557  1.2808 -0.6676
 6131SOL    HW229853   2.630   4.558   0.281 -0.5550  0.9513 -2.3848
 6132SOL     OW29854   1.584   3.070   6.795 -0.0477  0.5166 -1.0492
 6132SOL    HW129855   1.658   3.106   6.747  1.6751  0.8479  1.8612
 6132SOL    HW229856   1.592   3.106   6.883 -0.3584 -0.0677 -0.7797
 6133SOL     OW29857   3.457   0.328   4.780  0.0666 -0.4909 -0.7234
 6133SOL    HW129858   3.483   0.287   4.698  1.7214  1.2156 -1.0453
 6133SOL    HW229859   3.516   0.279   4.837  1.6917  0.0750 -1.9273
 6134SOL     OW29860   3.440   1.045   7.512  0.0551  0.0666 -0.0427
 6134SOL    HW129861   3.394   0.971   7.553  1.2103 -0.9617 -0.6255
 6134SOL    HW229862   3.400   1.057   7.426  0.2154 -2.1760 -0.4205
 6135SOL     OW29863   2.134   4.522   3.461 -0.3481  0.4804  0.0953
 6135SOL    HW129864   2.097   4.593   3.513 -0.4703 -0.0490  0.7278
 6135SOL    HW229865   2.063   4.459   3.469  0.5015 -0.4418  0.3829
 6136SOL     OW29866   2.976   0.959  17.682  0.5341  0.3356 -0.1091
 6136SOL    HW129867   2.968   0.865  17.664 -1.1130  0.6157 -0.8226
 6136SOL    HW229868   2.907   0.966   0.060 -0.9034 -2.3761 -1.2884
 6137SOL     OW29869   1.342   4.203  11.158 -0.4934  0.5481 -0.3358
 6137SOL    HW129870   1.395   4.190  11.079 -0.9752 -1.4352 -0.3465
 6137SOL    HW229871   1.297   4.286  11.144  0.3941  0.9585 -0.8258
 6138SOL     OW29872   2.913   2.205  15.970 -0.1149  0.2747  0.1555
 6138SOL    HW129873   2.932   2.191  15.877 -0.7305 -0.0377  0.0830
 6138SOL    HW229874   2.986   2.160  16.013  1.2714 -0.0178 -2.4472
 6139SOL     OW29875   1.654   2.833   2.712 -0.0977 -0.0925 -0.0470
 6139SOL    HW129876   1.645   2.739   2.728 -1.4094  0.2217  1.0296
 6139SOL    HW229877   1.683   2.861   2.798  1.7085  0.3961 -0.8257
 6140SOL     OW29878   1.389   3.949   1.720  0.8375  0.2903 -0.6454
 6140SOL    HW129879   1.330   3.900   1.778  1.2107 -0.4988 -0.9459
 6140SOL    HW229880   1.339   3.923   1.642  1.1008 -0.6939 -0.4735
 6141SOL     OW29881   3.131   0.074  14.242  0.8226 -0.1146  0.5388
 6141SOL    HW129882   3.144   0.092  14.149  0.7071 -0.5050  0.4439
 6141SOL    HW229883   3.222   0.062  14.270  1.0633  0.2556 -0.0853
 6142SOL     OW29884   0.782   2.934   5.591  0.1387 -0.0877 -0.0153
 6142SOL    HW129885   0.817   2.938   5.680 -2.3227 -0.2499  0.9639
 6142SOL    HW229886   0.764   2.840   5.582  0.4852 -0.0828 -0.7547
 6143SOL     OW29887   0.792   0.012   6.614 -0.3434  0.0595 -0.2489
 6143SOL    HW129888   0.803   0.092   6.562  2.3265 -0.9190 -1.2070
 6143SOL    HW229889   0.769   0.041   6.702 -0.4764 -2.2463  0.4745
 6144SOL     OW29890   1.461   3.832   2.143 -0.8298 -0.0542  0.2990
 6144SOL    HW129891   1.434   3.862   2.229  0.2709 -1.5943  1.1786
 6144SOL    HW229892   1.462   3.918   2.100  0.5010 -0.4476 -0.4622
 6145SOL     OW29893   2.513   2.886   0.922  0.0931  0.1824  0.1302
 6145SOL    HW129894   2.543   2.976   0.936  0.4309 -0.1017  1.2177
 6145SOL    HW229895   2.503   2.887   0.827  0.4082  0.6961  0.1026
 6146SOL     OW29896   2.034   1.576   2.335  0.2165 -0.2769  0.4061
 6146SOL    HW129897   1.965   1.570   2.401  1.6526  0.9232  2.0114
 6146SOL    HW229898   2.037   1.487   2.301  0.6749 -0.4204  0.8173
 6147SOL     OW29899   4.348   4.670  12.977  0.4281 -0.2340 -0.4770
 6147SOL    HW129900   4.310   4.585  13.003  0.1028  0.2499  0.6554
 6147SOL    HW229901   4.340   0.008  13.052 -0.9234 -1.4602  0.3656
 6148SOL     OW29902   3.658   2.617   4.534  0.2838 -0.5040  0.2417
 6148SOL    HW129903   3.736   2.564   4.517  0.5915 -0.4961  1.6937
 6148SOL    HW229904   3.625   2.573   4.612 -1.2281  0.2022  0.0158
 6149SOL     OW29905   3.008   3.803   5.840 -0.2803 -0.1203  0.1715
 6149SOL    HW129906   2.949   3.760   5.901 -1.2325  1.6751  0.5133
 6149SOL    HW229907   2.948   3.842   5.776 -2.0100 -0.5165  1.5588
 6150SOL     OW29908   0.182   1.653   3.007  0.1918  0.0991 -0.0177
 6150SOL    HW129909   0.227   1.593   3.067 -0.1489 -0.2892 -0.1530
 6150SOL    HW229910   0.168   1.598   2.930 -0.3242  1.0845 -0.6248
 6151SOL     OW29911   3.572   2.364  16.849  0.1376  0.1255  0.2477
 6151SOL    HW129912   3.539   2.402  16.930 -1.3301 -0.4910 -0.0612
 6151SOL    HW229913   3.664   2.345  16.863 -0.2457 -1.5647  0.4416
 6152SOL     OW29914   4.550   2.615   7.388  0.0747 -0.1659 -0.2088
 6152SOL    HW129915   4.574   2.602   7.296 -1.5198 -0.2736 -0.6077
 6152SOL    HW229916   4.498   2.694   7.369  0.1567 -0.3173 -1.0585
 6153SOL     OW29917   1.722   1.857   7.367  0.1675  0.3956 -0.0530
 6153SOL    HW129918   1.715   1.951   7.352 -2.1150  0.2222 -0.1909
 6153SOL    HW229919   1.759   1.851   7.455  2.2831 -0.8851 -1.0274
 6154SOL     OW29920   2.925   0.780   3.476  0.1308  0.1012  0.0955
 6154SOL    HW129921   2.857   0.769   3.543 -0.0566 -1.2825 -0.3228
 6154SOL    HW229922   2.999   0.737   3.518  0.8722  2.3684  1.1241
 6155SOL     OW29923   0.090   2.393   2.744  0.3164 -0.0470 -0.2554
 6155SOL    HW129924   0.041   2.317   2.712 -0.1312 -0.0776  0.5135
 6155SOL    HW229925   0.041   2.469   2.711  0.3470  0.7205  1.4814
 6156SOL     OW29926   0.060   4.519  10.919 -0.1079  0.2602  0.2526
 6156SOL    HW129927   0.126   4.470  10.968 -1.8261 -1.0850  1.2213
 6156SOL    HW229928   0.065   4.607  10.959  0.1753  0.0056  0.7840
 6157SOL     OW29929   2.959   1.108  16.285  0.0615 -0.6685 -0.1432
 6157SOL    HW129930   2.886   1.105  16.347  0.0564 -1.1006 -0.1709
 6157SOL    HW229931   2.973   1.015  16.265  2.3053 -0.1394 -1.0202
 6158SOL     OW29932   0.113   1.983   2.557 -0.4089  0.2539 -0.1322
 6158SOL    HW129933   0.064   1.911   2.516  2.9368 -1.9899 -0.1586
 6158SOL    HW229934   0.193   1.935   2.577 -0.5450 -0.1617 -0.5785
 6159SOL     OW29935   3.066   3.629   7.774 -0.3159  0.5967  0.3055
 6159SOL    HW129936   3.032   3.558   7.829  1.3128  0.5870  1.2896
 6159SOL    HW229937   2.984   3.675   7.756  0.3493  1.9576  0.7102
 6160SOL     OW29938   3.980   2.821  15.493 -0.3062  0.2142 -0.3168
 6160SOL    HW129939   4.010   2.881  15.425 -1.0567 -1.0081 -1.7356
 6160SOL    HW229940   4.055   2.762  15.504 -0.2643  0.2983 -0.1451
 6161SOL     OW29941   4.053   4.716   0.380 -0.0785 -0.0190 -0.6489
 6161SOL    HW129942   4.138   4.672   0.379 -0.9693 -1.7017 -2.1530
 6161SOL    HW229943   4.054   0.005   0.476  1.1226  1.2222 -0.7980
 6162SOL     OW29944   4.038   0.120  15.966  0.5257 -0.1190 -0.5272
 6162SOL    HW129945   4.055   0.209  15.934  0.4593  0.8765  2.1245
 6162SOL    HW229946   4.127   0.094  15.987 -0.2850 -1.8918  0.6826
 6163SOL     OW29947   1.556   1.419   8.344 -0.0250 -0.3310  0.4848
 6163SOL    HW129948   1.540   1.392   8.253 -0.4318  0.4536  0.3222
 6163SOL    HW229949   1.602   1.338   8.366 -0.1320  0.1212  2.3408
 6164SOL     OW29950   2.616   0.989   7.604 -0.4309 -0.4963  0.4810
 6164SOL    HW129951   2.568   1.005   7.685  0.6518 -0.8066  1.1843
 6164SOL    HW229952   2.700   1.030   7.625 -0.8432  0.7751 -0.3196
 6165SOL     OW29953   3.988   0.543   0.617 -0.6275 -0.2988  0.2541
 6165SOL    HW129954   4.076   0.578   0.633 -0.3853 -0.7434 -0.1173
 6165SOL    HW229955   3.923   0.613   0.627 -0.2711 -0.1553  1.5149
 6166SOL     OW29956   1.421   2.547   0.320 -0.0346  1.0816  0.5414
 6166SOL    HW129957   1.505   2.502   0.328 -0.3778  0.5160  0.9741
 6166SOL    HW229958   1.452   2.635   0.299 -2.0239  1.3627 -1.1955
 6167SOL     OW29959   4.508   3.424  17.407 -0.4120 -0.1156 -0.1046
 6167SOL    HW129960   4.602   3.444  17.408 -0.5887  0.6762  1.4261
 6167SOL    HW229961   4.473   3.481  17.339  1.6378 -0.5143 -1.5034
 6168SOL     OW29962   0.542   1.145   3.594 -0.1592  0.4819 -0.2819
 6168SOL    HW129963   0.591   1.086   3.538  0.0192  1.0755 -0.7518
 6168SOL    HW229964   0.454   1.110   3.609 -0.2156  0.2158 -1.2720
 6169SOL     OW29965   4.406   1.454   8.195  0.5424 -0.2308  0.4166
 6169SOL    HW129966   4.383   1.442   8.103  1.9336  1.5391 -0.1720
 6169SOL    HW229967   4.387   1.370   8.236  0.2928  0.2597  1.2959
 6170SOL     OW29968   1.326   4.193   2.470 -0.7815  0.7293  0.4301
 6170SOL    HW129969   1.291   4.259   2.410  0.7700 -0.0794 -1.3489
 6170SOL    HW229970   1.369   4.251   2.533  0.9005  0.1917 -0.2212
 6171SOL     OW29971   4.643   1.276  12.860  0.1411  0.2451 -0.4368
 6171SOL    HW129972   4.682   1.241  12.940  0.3010  2.3084  0.3856
 6171SOL    HW229973   4.584   1.202  12.842 -0.0979 -0.3037  2.5059
 6172SOL     OW29974   1.024   2.210  12.258  0.4987 -0.2994 -0.1349
 6172SOL    HW129975   0.939   2.215  12.215  0.2086  0.6987  0.5628
 6172SOL    HW229976   1.038   2.115  12.259  3.1797  0.0953  1.2550
 6173SOL     OW29977   3.666   4.391   6.161  0.1391  0.0810 -0.3422
 6173SOL    HW129978   3.705   4.307   6.186  1.1712  1.2777  2.0094
 6173SOL    HW229979   3.674   4.388   6.065 -1.7481 -0.0258 -0.4931
 6174SOL     OW29980   2.380   3.727   7.182 -0.0851  0.4457  0.3437
 6174SOL    HW129981   2.352   3.758   7.268 -0.5042  1.9600 -0.3485
 6174SOL    HW229982   2.438   3.657   7.213  0.0252  0.5661  0.4132
 6175SOL     OW29983   3.868   1.614   5.886  0.1520  0.2152  0.1451
 6175SOL    HW129984   3.846   1.571   5.804 -0.8048 -0.2608  0.6459
 6175SOL    HW229985   3.788   1.634   5.934  0.1326  1.2015 -0.2827
 6176SOL     OW29986   1.591   4.050   0.614  0.4954  0.5632 -0.2588
 6176SOL    HW129987   1.639   3.969   0.629 -0.5636 -0.1103 -0.5180
 6176SOL    HW229988   1.603   4.047   0.519  1.2247 -1.6309 -0.1114
 6177SOL     OW29989   3.970   1.512   0.510 -0.2418 -0.0779  0.1214
 6177SOL    HW129990   4.007   1.489   0.595 -1.3400  0.5270  0.7680
 6177SOL    HW229991   3.875   1.504   0.521 -0.1135  0.4778  1.5725
 6178SOL     OW29992   2.334   2.896   6.668  0.6084  0.4307  0.1513
 6178SOL    HW129993   2.259   2.839   6.682 -0.2815  2.0303  2.0239
 6178SOL    HW229994   2.346   2.926   6.759  0.8383  0.6614  0.0478
 6179SOL     OW29995   4.294   0.143   5.995  0.7102 -0.4456  0.0043
 6179SOL    HW129996   4.252   0.181   5.918  1.0392  0.5482  0.3185
 6179SOL    HW229997   4.316   0.218   6.050 -1.4382  0.7792 -0.8393
 6180SOL     OW29998   2.659   2.021   7.827  0.2805 -0.4658 -0.0265
 6180SOL    HW129999   2.733   2.036   7.768  1.4919 -0.7168  1.4095
 6180SOL    HW230000   2.713   2.007   7.905 -0.5254 -0.7782  0.4689
 6181SOL     OW30001   1.870   4.217   8.686 -0.7677  0.3503 -0.0994
 6181SOL    HW130002   1.872   4.189   8.777 -2.6362  2.2404  0.5158
 6181SOL    HW230003   1.799   4.165   8.648 -0.1141 -1.5894  1.3371
 6182SOL     OW30004   1.580   1.494   7.302 -0.4645  1.0061 -0.2954
 6182SOL    HW130005   1.525   1.557   7.349 -2.6708  0.3066 -1.9413
 6182SOL    HW230006   1.638   1.556   7.257  0.0431  1.0538  0.4291
 6183SOL     OW30007   4.111   0.144   2.220 -0.1070 -0.0818 -0.2261
 6183SOL    HW130008   4.129   0.103   2.304 -1.1324  1.6772  0.8555
 6183SOL    HW230009   4.016   0.154   2.225 -0.2914 -1.3616 -1.1853
 6184SOL     OW30010   0.899   3.507   9.195  0.1236  0.0568  0.5496
 6184SOL    HW130011   0.985   3.539   9.222  1.2426 -0.3285 -2.5393
 6184SOL    HW230012   0.879   3.455   9.273  2.0868  0.2300  1.1536
 6185SOL     OW30013   1.727   0.230   3.225  0.8322 -1.0843  0.0993
 6185SOL    HW130014   1.758   0.266   3.142  1.9661 -0.8076  0.6430
 6185SOL    HW230015   1.634   0.212   3.212  0.7362 -1.3735  1.2013
 6186SOL     OW30016   3.547   3.489   4.663  0.1551  0.1713  0.2556
 6186SOL    HW130017   3.616   3.452   4.609  0.6667 -0.8357  1.5977
 6186SOL    HW230018   3.597   3.563   4.696  2.8392 -1.4465 -0.1717
 6187SOL     OW30019   0.165   4.024   5.392 -0.1502 -0.1455 -0.7625
 6187SOL    HW130020   0.241   3.984   5.349  0.1993  0.6395 -0.8736
 6187SOL    HW230021   0.103   3.953   5.377 -0.5947 -0.3777  2.1464
 6188SOL     OW30022   4.078   0.219   5.555 -0.4053 -0.6102  0.3695
 6188SOL    HW130023   4.135   0.258   5.489 -0.2084 -3.1042 -0.9298
 6188SOL    HW230024   4.052   0.136   5.515 -1.7248 -0.5512  1.1126
 6189SOL     OW30025   4.625   3.377   4.892  0.0430 -0.0013 -0.0316
 6189SOL    HW130026   4.685   3.325   4.838  0.1410  1.9361 -1.7884
 6189SOL    HW230027   4.575   3.304   4.928 -1.2546  1.2523  0.7499
 6190SOL     OW30028   0.451   2.435   5.858  0.1528 -0.0976 -1.0622
 6190SOL    HW130029   0.382   2.431   5.923  0.6818 -2.5756 -0.6461
 6190SOL    HW230030   0.458   2.346   5.823 -2.0354 -0.7598  0.2382
 6191SOL     OW30031   0.573   1.660  11.724 -0.2352 -0.6279 -0.3238
 6191SOL    HW130032   0.661   1.641  11.693  0.8938 -1.2240  3.2377
 6191SOL    HW230033   0.553   1.579  11.772 -1.7500  0.4558  0.8757
 6192SOL     OW30034   4.628   4.014   7.994  0.0857  0.3751 -0.0224
 6192SOL    HW130035   4.685   4.049   8.063 -0.7828  4.0843 -1.2115
 6192SOL    HW230036   4.549   4.068   7.992 -2.2542 -3.0676 -0.4433
 6193SOL     OW30037   2.987   0.044   6.099 -0.0699  0.3438  0.1931
 6193SOL    HW130038   2.916   0.099   6.132 -0.0786  0.7594 -0.5125
 6193SOL    HW230039   2.979   4.688   6.155 -0.3874  0.3208  0.1132
 6194SOL     OW30040   0.367   1.539  13.983 -0.7767  0.2640 -0.2583
 6194SOL    HW130041   0.399   1.625  14.007  1.0462  0.1651 -2.3716
 6194SOL    HW230042   0.361   1.552  13.888 -1.7299 -0.2020 -0.2634
 6195SOL     OW30043   1.458   2.990   1.341 -0.2447  0.0788 -0.0062
 6195SOL    HW130044   1.479   2.937   1.264 -2.9686  0.3656 -0.9325
 6195SOL    HW230045   1.520   3.058   1.314 -0.7070  0.6557  0.3941
 6196SOL     OW30046   0.011   0.585  14.555 -0.0796 -0.5669  0.2457
 6196SOL    HW130047   0.088   0.528  14.548 -0.6604 -1.2356 -0.7193
 6196SOL    HW230048   0.012   0.622  14.466  0.3933  0.8839  0.8634
 6197SOL     OW30049   2.573   1.130   8.806 -0.2994  0.4223  0.4441
 6197SOL    HW130050   2.586   1.173   8.722 -0.1637  2.6329  1.5936
 6197SOL    HW230051   2.523   1.194   8.857 -1.5949 -1.7418  1.8576
 6198SOL     OW30052   4.561   2.382   4.333  0.0816 -0.5889  0.0148
 6198SOL    HW130053   4.603   2.297   4.318 -0.9336 -1.0765 -0.0685
 6198SOL    HW230054   4.599   2.439   4.267  2.1811 -2.4896 -0.4272
 6199SOL     OW30055   2.930   2.747   1.685  0.1451  0.1245  0.3920
 6199SOL    HW130056   2.939   2.777   1.775 -2.6203 -1.2134  1.1157
 6199SOL    HW230057   2.837   2.722   1.689 -0.1514  0.7988 -2.1274
 6200SOL     OW30058   0.376   0.576   7.391  0.4583 -0.1610 -0.2721
 6200SOL    HW130059   0.338   0.499   7.434  1.4256  0.5915  1.9744
 6200SOL    HW230060   0.458   0.586   7.440 -0.5019  2.9718  0.6737
 6201SOL     OW30061   3.391   1.792   5.900  0.1104  0.0215  0.1576
 6201SOL    HW130062   3.396   1.856   5.829 -4.0307  2.9487  2.4802
 6201SOL    HW230063   3.297   1.775   5.899 -0.0801  1.0400 -0.1028
 6202SOL     OW30064   4.580   1.068   5.502 -0.3133 -0.3363  0.0186
 6202SOL    HW130065   4.651   1.091   5.561 -0.1604  0.2181 -0.3831
 6202SOL    HW230066   4.634   1.027   5.434  0.1484  1.2067 -0.5400
 6203SOL     OW30067   1.393   2.716   8.341 -0.3976 -0.2380  0.1799
 6203SOL    HW130068   1.335   2.650   8.380  0.8912 -1.3157  0.2863
 6203SOL    HW230069   1.459   2.732   8.408 -1.1993  0.3776  0.8167
 6204SOL     OW30070   2.825   1.239   8.834  0.1775 -0.2267 -0.4373
 6204SOL    HW130071   2.793   1.327   8.814  0.8700 -0.0693 -0.8410
 6204SOL    HW230072   2.742   1.196   8.856 -0.9298  2.5894  0.8350
 6205SOL     OW30073   0.188   4.319  11.575 -0.5070  0.0777 -0.5239
 6205SOL    HW130074   0.130   4.244  11.586 -1.0328  0.6637  0.6435
 6205SOL    HW230075   0.158   4.375  11.646  0.1751 -0.9898  0.6253
 6206SOL     OW30076   1.428   3.021  11.902 -0.3067 -0.1436  0.4088
 6206SOL    HW130077   1.383   3.105  11.902  0.6572  0.3937 -1.7987
 6206SOL    HW230078   1.376   2.979  11.834 -0.5260  1.1002 -0.1780
 6207SOL     OW30079   4.267   0.983  17.343 -0.2724  0.0175  0.2533
 6207SOL    HW130080   4.188   1.010  17.392  0.1659  1.2124  0.2983
 6207SOL    HW230081   4.343   0.997  17.399  0.1450  0.1463 -0.3503
 6208SOL     OW30082   4.673   1.610   2.246  0.4946 -0.5372 -0.4761
 6208SOL    HW130083   0.026   1.557   2.217  0.1268 -1.6324  0.5807
 6208SOL    HW230084   4.633   1.631   2.161 -2.6985  3.8207  2.1418
 6209SOL     OW30085   2.859   3.109   9.382 -0.0627  0.0140  0.4618
 6209SOL    HW130086   2.795   3.070   9.323 -0.2231 -2.6458  2.4225
 6209SOL    HW230087   2.834   3.200   9.367 -1.8457 -0.6032 -0.2151
 6210SOL     OW30088   0.843   2.316  15.552  0.1756 -0.0973  0.0437
 6210SOL    HW130089   0.803   2.383  15.607  0.1516 -0.4966  0.5114
 6210SOL    HW230090   0.839   2.234  15.601  1.2232 -0.6219 -0.7461
 6211SOL     OW30091   0.316   2.454  14.792 -0.0931  0.7138  0.3394
 6211SOL    HW130092   0.241   2.470  14.849 -0.9433  3.3687 -1.5231
 6211SOL    HW230093   0.359   2.540  14.791  1.6202 -0.1382 -1.2629
 6212SOL     OW30094   2.971   3.529  12.205  0.2633  0.2505 -0.0409
 6212SOL    HW130095   2.966   3.568  12.118  1.0897  0.5929  0.0636
 6212SOL    HW230096   2.887   3.562  12.235 -0.1956 -1.0556  0.1013
 6213SOL     OW30097   1.755   4.705  17.174  0.2208  0.0612  0.5468
 6213SOL    HW130098   1.815   4.646  17.128 -0.5230 -1.6068  1.7321
 6213SOL    HW230099   1.818   0.006  17.244  2.9270 -0.3911 -1.7323
 6214SOL     OW30100   2.457   2.214   7.687 -0.1394 -0.3519  0.0478
 6214SOL    HW130101   2.543   2.246   7.715 -0.0904 -0.5690  0.1398
 6214SOL    HW230102   2.428   2.189   7.774 -0.5492  2.2160  0.6459
 6215SOL     OW30103   3.929   2.041  15.937 -0.2346  0.5150  0.3472
 6215SOL    HW130104   3.860   2.088  15.890 -0.7918  0.4054  1.0470
 6215SOL    HW230105   3.974   1.977  15.883 -0.0138 -1.3692  2.7670
 6216SOL     OW30106   0.612   0.633  13.917  0.1804 -0.4859 -0.0409
 6216SOL    HW130107   0.521   0.654  13.897 -0.2220 -1.1730  1.1002
 6216SOL    HW230108   0.648   0.715  13.952 -0.4197 -0.3917  0.3459
 6217SOL     OW30109   2.567   3.159   6.733 -0.0960 -0.3458 -0.2228
 6217SOL    HW130110   2.497   3.183   6.673  2.5454 -1.6916 -3.8497
 6217SOL    HW230111   2.538   3.075   6.769 -1.8039  0.5039  0.3763
 6218SOL     OW30112   3.510   4.068  10.451  0.2764  0.0819 -0.2873
 6218SOL    HW130113   3.588   4.013  10.463  0.6800  0.3318 -1.7777
 6218SOL    HW230114   3.455   3.994  10.478  0.4616  0.5119  1.2459
 6219SOL     OW30115   1.430   0.118   0.636 -0.1203  0.1595  0.4547
 6219SOL    HW130116   1.427   0.203   0.679 -0.1369  0.5182 -0.2657
 6219SOL    HW230117   1.341   0.110   0.603 -0.8319 -0.7233  2.5457
 6220SOL     OW30118   0.437   4.280  15.756 -0.5089 -0.2236  0.1805
 6220SOL    HW130119   0.386   4.200  15.750  1.4548 -1.4815  0.4113
 6220SOL    HW230120   0.526   4.250  15.740 -0.2624 -0.0915  1.2495
 6221SOL     OW30121   3.521   1.959   0.700  0.0234  0.2245  0.6080
 6221SOL    HW130122   3.610   1.970   0.734 -0.4746  0.8583  1.7074
 6221SOL    HW230123   3.484   1.899   0.765 -0.6148 -0.8798 -0.7689
 6222SOL     OW30124   0.756   1.016   1.741  0.6875  0.2407 -0.0188
 6222SOL    HW130125   0.792   0.928   1.733 -2.1268 -0.8767 -0.3873
 6222SOL    HW230126   0.811   1.063   1.678  0.2004  1.3831  0.4046
 6223SOL     OW30127   3.863   1.046   3.433  0.7294 -0.0026 -0.3309
 6223SOL    HW130128   3.803   0.972   3.445 -1.1295  1.5567 -0.0873
 6223SOL    HW230129   3.862   1.047   3.338  0.1672  1.0582 -0.3115
 6224SOL     OW30130   1.954   1.277  16.676 -0.5399 -0.1645 -0.5390
 6224SOL    HW130131   1.944   1.268  16.771 -0.6060  2.4586 -0.3045
 6224SOL    HW230132   1.906   1.359  16.667 -1.4177 -0.7246 -0.9808
 6225SOL     OW30133   0.680   0.081   4.400 -0.0153 -0.1713  0.2372
 6225SOL    HW130134   0.761   0.084   4.450 -0.6731 -4.3292  1.5631
 6225SOL    HW230135   0.633   0.150   4.445 -1.8250 -1.8241  0.8979
 6226SOL     OW30136   4.505   2.354   2.772  0.5321 -0.4222  0.8812
 6226SOL    HW130137   4.448   2.389   2.703 -0.6178 -1.0843  1.4925
 6226SOL    HW230138   4.544   2.280   2.726  0.2563 -1.3388  2.1123
 6227SOL     OW30139   3.703   3.988   6.597 -0.1111 -0.1935  0.2690
 6227SOL    HW130140   3.620   3.966   6.640 -0.3050 -0.6863 -0.3582
 6227SOL    HW230141   3.748   3.904   6.610  0.7951  0.3649  0.7382
 6228SOL     OW30142   3.766   1.948   2.501  0.0410 -0.1993 -0.0851
 6228SOL    HW130143   3.859   1.967   2.492 -0.3677  1.1125 -1.5164
 6228SOL    HW230144   3.743   1.947   2.408 -0.2715  1.3052 -0.0188
 6229SOL     OW30145   1.871   1.062  12.993 -0.1389  0.0953  0.3541
 6229SOL    HW130146   1.878   1.071  13.089  0.9262  1.5476  0.1408
 6229SOL    HW230147   1.890   0.969  12.981 -1.4308 -0.0949 -0.1229
 6230SOL     OW30148   4.402   0.809  17.007 -0.0737 -0.0263 -0.6429
 6230SOL    HW130149   4.325   0.774  17.052  1.1375 -1.3779  0.4167
 6230SOL    HW230150   4.361   0.825  16.922  0.7902 -0.3803 -1.1220
 6231SOL     OW30151   3.498   3.549   2.756 -0.1874  0.1274  0.1839
 6231SOL    HW130152   3.591   3.561   2.737  0.0247 -0.5162  0.8049
 6231SOL    HW230153   3.492   3.598   2.838 -0.9749 -0.7754  0.6748
 6232SOL     OW30154   0.316   1.287   8.053 -1.1538 -0.2865  0.3252
 6232SOL    HW130155   0.410   1.285   8.073 -1.2568  2.3536  1.0687
 6232SOL    HW230156   0.264   1.262   8.129 -0.7064  0.2229  0.7999
 6233SOL     OW30157   3.422   3.858  10.604  0.0578  0.8229  0.2335
 6233SOL    HW130158   3.409   3.766  10.629 -0.1289  0.5358 -0.9121
 6233SOL    HW230159   3.490   3.893  10.661  0.3885 -0.4324  0.6131
 6234SOL     OW30160   0.019   1.526   2.526 -0.2662  0.1650 -0.6827
 6234SOL    HW130161   4.690   1.546   2.446  0.2417  1.8480 -0.5731
 6234SOL    HW230162   4.714   1.442   2.563  2.5121  0.5320  2.0776
 6235SOL     OW30163   0.229   4.210   9.394 -0.6396  0.3678  0.3209
 6235SOL    HW130164   0.222   4.223   9.488 -0.0501 -0.1553  0.4331
 6235SOL    HW230165   0.288   4.281   9.368 -1.6834  1.0130 -0.2964
 6236SOL     OW30166   1.539   3.765   3.394 -0.6898 -0.2679  0.1961
 6236SOL    HW130167   1.565   3.769   3.302 -0.9413  1.1666  0.1893
 6236SOL    HW230168   1.543   3.671   3.412  1.6087  0.1707  2.0610
 6237SOL     OW30169   4.526   4.346   5.479  0.3629  0.0952 -0.1575
 6237SOL    HW130170   4.562   4.411   5.539  1.1615 -0.8163  0.3474
 6237SOL    HW230171   4.512   4.391   5.396 -2.4990 -1.2302 -0.3828
 6238SOL     OW30172   1.148   0.099   2.410 -0.0364 -0.0687 -0.4040
 6238SOL    HW130173   1.086   0.125   2.341 -0.5598  0.5233  0.2992
 6238SOL    HW230174   1.101   0.025   2.448  2.1204 -0.5270  1.3711
 6239SOL     OW30175   2.066   1.925   7.919 -0.1216 -0.1833  0.0341
 6239SOL    HW130176   2.027   1.839   7.902 -0.5290 -0.0392  0.2331
 6239SOL    HW230177   1.987   1.978   7.909 -1.5517 -2.0992  1.1793
 6240SOL     OW30178   3.824   3.665  14.559  0.0104  0.7653 -0.2283
 6240SOL    HW130179   3.862   3.703  14.479  1.3039  0.5909  0.3026
 6240SOL    HW230180   3.745   3.718  14.571 -0.0573  0.8292 -0.9642
 6241SOL     OW30181   2.008   1.450   2.996 -0.3227 -0.1265  0.4884
 6241SOL    HW130182   2.067   1.525   2.987  0.9495 -1.2560 -0.6676
 6241SOL    HW230183   2.065   1.375   2.977  0.1323  0.8142 -2.0142
 6242SOL     OW30184   3.740   2.263  17.132  0.3692 -0.1752  0.4756
 6242SOL    HW130185   3.783   2.268  17.047 -0.2058 -1.1039  0.1372
 6242SOL    HW230186   3.809   2.208  17.170  1.0666  0.4218  0.0671
 6243SOL     OW30187   1.735   1.908   6.008 -0.5730 -0.7688  0.1164
 6243SOL    HW130188   1.816   1.931   6.054 -0.0582 -0.4054 -0.9597
 6243SOL    HW230189   1.710   1.997   5.982 -0.2810 -0.4657  0.8677
 6244SOL     OW30190   3.993   3.058  15.299 -0.3449  0.5489  0.9239
 6244SOL    HW130191   3.931   3.082  15.230 -0.5395  0.0481  0.9281
 6244SOL    HW230192   4.074   3.036  15.252 -1.5527  1.0982 -1.3884
 6245SOL     OW30193   0.755   1.140  17.231 -0.7012 -0.2268  0.9157
 6245SOL    HW130194   0.676   1.156  17.180  0.5691 -0.2790 -1.0850
 6245SOL    HW230195   0.786   1.230  17.240 -2.4703  0.6362 -1.5845
 6246SOL     OW30196   1.182   0.009   3.298  0.2421 -0.4894 -0.1925
 6246SOL    HW130197   1.220   4.694   3.219  0.9242  3.2492 -1.5709
 6246SOL    HW230198   1.092   4.702   3.282  0.2147 -1.0790  0.9999
 6247SOL     OW30199   4.251   0.034  10.006  0.5288  0.1068  0.2900
 6247SOL    HW130200   4.328   0.011   9.954  0.2446  1.6999 -0.8296
 6247SOL    HW230201   4.223   0.111   9.957  1.3251  1.8681  2.5914
 6248SOL     OW30202   2.882   0.766  16.107 -0.3866 -0.1948 -0.1885
 6248SOL    HW130203   2.870   0.672  16.095  2.8739 -1.1729  4.1087
 6248SOL    HW230204   2.842   0.772  16.194 -1.3828 -0.5592 -0.6205
 6249SOL     OW30205   3.152   1.808   6.480  0.0880 -0.3831 -0.0444
 6249SOL    HW130206   3.182   1.894   6.450  2.1056 -0.8385  0.6611
 6249SOL    HW230207   3.172   1.799   6.574 -0.2440  1.4333  0.2039
 6250SOL     OW30208   2.182   4.242   6.802  0.3706 -0.1881  0.5133
 6250SOL    HW130209   2.240   4.288   6.863  0.8823 -1.3457  0.9119
 6250SOL    HW230210   2.099   4.273   6.838  1.8167  2.9408  1.1387
 6251SOL     OW30211   1.939   0.445   3.949  0.1765  0.3790  0.7750
 6251SOL    HW130212   1.981   0.532   3.950  0.1524  0.3958  0.0281
 6251SOL    HW230213   2.017   0.395   3.926 -0.2343 -0.0419  0.3071
 6252SOL     OW30214   2.932   1.097  13.329  0.7828 -0.6535  0.3106
 6252SOL    HW130215   2.961   1.155  13.399  2.0838 -0.1894 -0.6211
 6252SOL    HW230216   2.971   1.135  13.251  0.5083 -2.0735 -0.5222
 6253SOL     OW30217   1.648   2.104   7.455 -0.6565 -0.3188  0.8001
 6253SOL    HW130218   1.669   2.197   7.443  1.0223 -0.8269 -0.2103
 6253SOL    HW230219   1.644   2.089   7.549 -1.3780  0.6760  0.9296
 6254SOL     OW30220   0.732   4.125   3.607 -0.1306 -0.4539  0.2093
 6254SOL    HW130221   0.719   4.114   3.513 -0.6573  1.9287  0.0065
 6254SOL    HW230222   0.651   4.083   3.635  0.0477 -0.3376  0.8984
 6255SOL     OW30223   1.781   2.399   4.101  0.7747  0.1126 -0.2041
 6255SOL    HW130224   1.699   2.430   4.062 -0.7030 -1.8854  1.3108
 6255SOL    HW230225   1.761   2.307   4.114 -1.2207  0.8122  1.7941
 6256SOL     OW30226   4.439   3.619   7.563 -0.1631 -0.0702  0.0224
 6256SOL    HW130227   4.400   3.629   7.476  0.0956 -1.6929 -0.2780
 6256SOL    HW230228   4.482   3.705   7.563  0.9894 -0.6398  0.4227
 6257SOL     OW30229   4.395   2.246   0.252 -0.2694  0.0677 -0.1592
 6257SOL    HW130230   4.457   2.174   0.262 -1.4918 -0.7320  1.6914
 6257SOL    HW230231   4.313   2.200   0.233  0.2047  0.7493 -3.7098
 6258SOL     OW30232   3.739   2.880  16.057  0.3069  0.6764 -0.1586
 6258SOL    HW130233   3.810   2.855  15.998 -1.1061  1.3666 -2.1285
 6258SOL    HW230234   3.758   2.971  16.080  0.5834  0.6309 -0.2086
 6259SOL     OW30235   3.411   4.118   6.347 -0.0662 -0.0578 -0.1928
 6259SOL    HW130236   3.327   4.074   6.350  0.0661 -0.2830  0.1467
 6259SOL    HW230237   3.472   4.052   6.314 -0.6243 -1.6345  1.9542
 6260SOL     OW30238   3.182   1.576   8.397 -0.5262  0.0852  0.1252
 6260SOL    HW130239   3.115   1.613   8.340  2.2265  2.2344 -1.7388
 6260SOL    HW230240   3.148   1.488   8.412  1.4170 -0.9201 -1.3380
 6261SOL     OW30241   1.518   0.541  10.395 -0.0728  0.0829 -0.0735
 6261SOL    HW130242   1.572   0.618  10.410  0.9779 -0.3727 -1.5356
 6261SOL    HW230243   1.553   0.491  10.469 -1.4403  0.6921  0.9772
 6262SOL     OW30244   3.615   4.450   5.301 -0.0117 -0.7597  0.1990
 6262SOL    HW130245   3.530   4.422   5.266 -1.1041  0.4180  1.9179
 6262SOL    HW230246   3.604   4.545   5.297  1.2227 -0.7612 -3.2283
 6263SOL     OW30247   1.162   4.273   5.075 -0.4793 -0.1882 -0.0925
 6263SOL    HW130248   1.084   4.260   5.128 -1.9850 -1.3180 -2.5724
 6263SOL    HW230249   1.189   4.183   5.061  3.2782  0.7596  1.1292
 6264SOL     OW30250   3.608   4.342   8.881  0.3018 -0.3029  0.3490
 6264SOL    HW130251   3.635   4.319   8.970 -3.4954  0.4494  1.6943
 6264SOL    HW230252   3.592   4.437   8.886 -1.2715 -0.6065  0.9502
 6265SOL     OW30253   1.686   2.801   3.248 -0.5614  0.6003 -0.3686
 6265SOL    HW130254   1.658   2.814   3.339  1.2495  1.9996 -0.0036
 6265SOL    HW230255   1.780   2.789   3.252 -0.6281  0.3490  0.4636
 6266SOL     OW30256   2.703   4.069  14.188 -0.3621 -0.0388  0.4005
 6266SOL    HW130257   2.751   4.004  14.239 -2.4709  0.1435  2.5655
 6266SOL    HW230258   2.765   4.087  14.117  0.3496  1.0188  1.2913
 6267SOL     OW30259   2.081   1.032  15.488 -0.2497  0.3151  0.3741
 6267SOL    HW130260   2.079   1.126  15.472 -2.6401 -0.0053 -1.1436
 6267SOL    HW230261   2.168   1.027  15.528  0.7630 -2.0594 -2.1091
 6268SOL     OW30262   4.096   2.180   5.085 -0.2536  0.4191 -0.0597
 6268SOL    HW130263   4.139   2.195   5.170 -2.7275  4.3947  0.5078
 6268SOL    HW230264   4.074   2.087   5.088 -1.0431  0.6052 -0.0872
 6269SOL     OW30265   4.050   2.256   5.725 -0.3573 -0.1317  0.0986
 6269SOL    HW130266   4.145   2.266   5.737 -0.3245 -0.6149  0.2236
 6269SOL    HW230267   4.022   2.299   5.806  1.8727  2.1026 -0.2908
 6270SOL     OW30268   1.357   1.373   9.924  0.0722  0.1210 -0.0418
 6270SOL    HW130269   1.424   1.429   9.963  0.0327 -0.4035  0.7811
 6270SOL    HW230270   1.281   1.430   9.937 -0.5698 -0.9970  1.1266
 6271SOL     OW30271   1.836   0.293   5.175  0.0892 -0.2978  0.1144
 6271SOL    HW130272   1.911   0.253   5.131  0.5892  2.6162 -1.6373
 6271SOL    HW230273   1.853   0.273   5.267 -0.2037  0.1693  0.2692
 6272SOL     OW30274   3.672   4.568  11.085  0.0887 -0.1545 -0.4226
 6272SOL    HW130275   3.761   4.548  11.115 -0.1474  0.6913  0.8214
 6272SOL    HW230276   3.697   4.626  11.012  3.0631 -0.3107  0.4579
 6273SOL     OW30277   2.122   2.725  16.508  0.4793  0.2479 -0.5806
 6273SOL    HW130278   2.152   2.644  16.468  0.4647  0.2606 -0.6169
 6273SOL    HW230279   2.207   2.744  16.548 -0.3241  0.5528  0.9785
 6274SOL     OW30280   3.436   3.352   8.299 -0.5152  0.7741  0.0277
 6274SOL    HW130281   3.467   3.431   8.255 -0.4038  0.8545  0.2472
 6274SOL    HW230282   3.514   3.297   8.305 -1.6360 -0.8724 -0.7119
 6275SOL     OW30283   1.140   1.724  15.855 -0.3713 -0.2281 -0.2402
 6275SOL    HW130284   1.215   1.666  15.871 -0.0578  0.0813 -0.5904
 6275SOL    HW230285   1.179   1.775  15.785  1.1615 -0.1620  0.6611
 6276SOL     OW30286   0.558   3.924   2.910  0.3953 -0.6053  0.9216
 6276SOL    HW130287   0.540   3.863   2.838 -0.0120 -0.1290  0.6214
 6276SOL    HW230288   0.492   3.993   2.908  0.5734 -0.5065 -1.5133
 6277SOL     OW30289   2.274   0.334   5.776 -0.1322  0.1252 -0.5927
 6277SOL    HW130290   2.351   0.316   5.723 -0.7935  1.2897 -1.9609
 6277SOL    HW230291   2.328   0.341   5.855 -0.7508  1.9460 -0.3244
 6278SOL     OW30292   4.325   2.891  15.196 -0.5777  0.1642 -0.5565
 6278SOL    HW130293   4.398   2.946  15.168  0.4932 -1.5177 -1.0573
 6278SOL    HW230294   4.281   2.875  15.112 -2.2854 -2.4857  0.8095
 6279SOL     OW30295   4.660   0.921   1.054 -0.2129  0.0725  0.0225
 6279SOL    HW130296   4.589   0.860   1.032 -0.5749  0.4562  0.1424
 6279SOL    HW230297   4.646   0.953   1.142 -1.2410 -0.4871  0.0556
 6280SOL     OW30298   4.569   3.011   6.594 -0.4992 -0.3209  0.3841
 6280SOL    HW130299   4.660   3.029   6.616  0.0119 -0.2031 -1.8872
 6280SOL    HW230300   4.577   3.003   6.499 -0.6364  1.1892  0.2450
 6281SOL     OW30301   3.335   0.127  15.058 -0.2244  0.1214  0.6407
 6281SOL    HW130302   3.312   0.142  15.150  1.4374  0.8179  0.9391
 6281SOL    HW230303   3.387   0.205  15.042  1.0056 -0.3627  2.2407
 6282SOL     OW30304   0.719   2.645   5.603 -0.2207 -0.1858 -0.1968
 6282SOL    HW130305   0.754   2.629   5.691 -0.7801 -1.8789 -0.2919
 6282SOL    HW230306   0.734   2.563   5.557 -0.0112  0.3781 -1.1385
 6283SOL     OW30307   0.319   3.039   3.573 -0.6791  0.5506 -0.3326
 6283SOL    HW130308   0.342   3.132   3.575  0.3655  0.2906 -0.2044
 6283SOL    HW230309   0.322   3.034   3.478  0.2628  1.1473 -0.3332
 6284SOL     OW30310   2.581   1.558   8.005 -0.6513  0.0016  0.1595
 6284SOL    HW130311   2.500   1.578   7.958  1.3902  0.1807 -3.2633
 6284SOL    HW230312   2.647   1.597   7.948  0.8017 -0.8265  1.2538
 6285SOL     OW30313   3.053   0.883   5.461 -0.6630 -0.0516  0.3646
 6285SOL    HW130314   3.085   0.864   5.373 -0.5136  1.4275  0.1109
 6285SOL    HW230315   2.959   0.881   5.447 -0.6745 -1.1496  0.5720
 6286SOL     OW30316   1.595   2.585   7.669  0.5401  0.2412  0.1204
 6286SOL    HW130317   1.672   2.623   7.712 -0.7782  0.2273  2.5206
 6286SOL    HW230318   1.605   2.634   7.588  1.6420  0.4055  0.3548
 6287SOL     OW30319   0.140   2.633   0.922 -0.2934  0.1690  0.4872
 6287SOL    HW130320   0.130   2.576   0.999 -0.2369 -0.3086  0.1344
 6287SOL    HW230321   0.080   2.707   0.936 -2.4958 -0.7473 -4.0136
 6288SOL     OW30322   4.354   1.652  15.157  0.0020  0.2603 -0.4484
 6288SOL    HW130323   4.291   1.720  15.133  0.3305  0.6191 -0.3041
 6288SOL    HW230324   4.434   1.689  15.118 -0.4261  0.0703 -1.5076
 6289SOL     OW30325   3.936   2.433   5.004  0.2230  0.3690  0.1616
 6289SOL    HW130326   3.923   2.374   4.929 -0.9713  1.2776 -0.3458
 6289SOL    HW230327   3.986   2.374   5.060 -0.5669 -1.5603 -1.1208
 6290SOL     OW30328   4.011   0.644   2.701  0.0823  0.3902  0.1212
 6290SOL    HW130329   3.969   0.695   2.770 -1.2535  0.7333 -0.9195
 6290SOL    HW230330   4.077   0.701   2.662  0.2513 -0.7120 -1.2375
 6291SOL     OW30331   3.317   3.462   9.856 -0.0376 -0.2422 -0.4275
 6291SOL    HW130332   3.279   3.451   9.943  0.5193  0.0881 -0.1466
 6291SOL    HW230333   3.244   3.446   9.796 -0.3888  0.0626 -0.0861
 6292SOL     OW30334   0.172   3.827   0.049  0.1300 -0.4574  0.3152
 6292SOL    HW130335   0.230   3.862  17.670 -1.3749 -1.3112 -1.4545
 6292SOL    HW230336   0.188   3.734   0.030 -0.9340 -0.3116 -1.3158
 6293SOL     OW30337   4.040   1.757  16.019  0.0392 -0.0360  0.3328
 6293SOL    HW130338   3.973   1.693  16.040  1.5219 -2.1847 -1.4188
 6293SOL    HW230339   4.017   1.781  15.929 -1.3324 -0.4734  0.5670
 6294SOL     OW30340   4.538   3.676  11.829  0.5072 -1.1591 -0.3134
 6294SOL    HW130341   4.567   3.702  11.916  3.2291  0.9598 -1.8571
 6294SOL    HW230342   4.546   3.581  11.835  1.2466 -1.0023  1.2418
 6295SOL     OW30343   2.711   0.526   2.561 -0.2254  0.2824  0.3252
 6295SOL    HW130344   2.718   0.514   2.656  0.2562 -0.2410  0.2205
 6295SOL    HW230345   2.767   0.602   2.548  1.4545 -0.4124  3.2684
 6296SOL     OW30346   0.458   3.957   0.146  0.0763  0.2050 -0.3294
 6296SOL    HW130347   0.441   3.953   0.240  1.3671  2.5680  0.0233
 6296SOL    HW230348   0.395   4.025   0.123 -0.0528  0.0157 -0.5326
 6297SOL     OW30349   3.465   2.448   4.331  0.2339 -0.0129  0.2820
 6297SOL    HW130350   3.391   2.507   4.347 -0.1090 -0.4930  0.4780
 6297SOL    HW230351   3.521   2.466   4.406  1.8750  0.7512 -1.1442
 6298SOL     OW30352   1.131   2.268   3.131 -0.1360  0.0029  0.0005
 6298SOL    HW130353   1.048   2.226   3.154 -1.0026  0.7170 -1.8208
 6298SOL    HW230354   1.117   2.359   3.157  1.4745 -0.3137  1.9734
 6299SOL     OW30355   1.346   3.663  17.068  0.5657 -0.3937  0.0441
 6299SOL    HW130356   1.302   3.749  17.066  2.3540  0.4620 -1.8678
 6299SOL    HW230357   1.349   3.647  16.974  0.3665 -0.9581  0.1339
 6300SOL     OW30358   0.727   3.618  13.444  0.0510  0.7851 -0.4527
 6300SOL    HW130359   0.715   3.676  13.368  0.5330 -0.0793 -1.1959
 6300SOL    HW230360   0.715   3.683  13.513 -2.9142  1.0682 -1.2409
 6301SOL     OW30361   2.042   2.441   3.989 -0.6247 -0.0399  0.2631
 6301SOL    HW130362   1.957   2.434   4.032 -0.7288 -1.5448 -0.1998
 6301SOL    HW230363   2.043   2.536   3.999 -2.2546  0.2433 -2.3555
 6302SOL     OW30364   2.797   2.764   4.487 -0.1698  0.2374 -0.1215
 6302SOL    HW130365   2.821   2.856   4.497  0.1595  0.3041 -1.6117
 6302SOL    HW230366   2.801   2.760   4.392 -0.3268  0.1064 -0.1222
 6303SOL     OW30367   3.512   1.376  16.484  0.8488 -0.5941 -0.3111
 6303SOL    HW130368   3.426   1.364  16.524  1.1292  2.0310  1.0162
 6303SOL    HW230369   3.490   1.437  16.414  1.4551  1.0643  0.9461
 6304SOL     OW30370   1.970   0.795   6.615  0.5154  0.2230 -0.4382
 6304SOL    HW130371   1.984   0.811   6.708 -0.1854  2.0005 -0.6517
 6304SOL    HW230372   2.002   0.872   6.568 -1.3901  1.1913 -0.1515
 6305SOL     OW30373   0.417   2.484   3.195  0.7479 -0.5849  0.2222
 6305SOL    HW130374   0.448   2.539   3.124  1.5732 -2.7624 -1.1197
 6305SOL    HW230375   0.385   2.414   3.138  4.0323 -1.2022 -0.8778
 6306SOL     OW30376   1.851   1.112  16.037  0.8017  0.1703 -0.5441
 6306SOL    HW130377   1.843   1.201  16.002  2.0242  0.5689  0.1994
 6306SOL    HW230378   1.897   1.135  16.118 -2.4049 -1.1575  1.6668
 6307SOL     OW30379   2.178   0.363   7.146 -0.0257 -0.4763  0.0239
 6307SOL    HW130380   2.135   0.383   7.229  2.5340  0.1800  1.1980
 6307SOL    HW230381   2.126   0.285   7.131  0.6802 -0.6593 -1.5439
 6308SOL     OW30382   3.531   0.084   3.445  0.4405  0.4677  0.2268
 6308SOL    HW130383   3.463   0.111   3.383  0.8534 -0.8366 -0.7984
 6308SOL    HW230384   3.492   0.002   3.477  0.8633  0.5198  0.8772
 6309SOL     OW30385   2.975   1.381  17.197  0.5130 -0.2825 -0.0622
 6309SOL    HW130386   2.999   1.356  17.108 -0.1914  0.7337 -0.5512
 6309SOL    HW230387   2.937   1.465  17.169  0.4807 -1.5454 -3.8017
 6310SOL     OW30388   4.084   0.940   5.580 -0.3786  0.6838  0.0116
 6310SOL    HW130389   4.179   0.943   5.594 -0.5221 -0.6144  1.2613
 6310SOL    HW230390   4.084   0.938   5.484 -1.6210  2.2403 -0.0352
 6311SOL     OW30391   2.158   3.774   9.177  0.2256  0.1030  0.5379
 6311SOL    HW130392   2.199   3.858   9.157  2.1061 -1.4245 -2.0909
 6311SOL    HW230393   2.119   3.746   9.094 -1.5318  0.7102  1.1639
 6312SOL     OW30394   0.171   2.758   2.216  0.1461  0.1848 -0.4703
 6312SOL    HW130395   0.211   2.687   2.167  2.2281 -0.2699  1.9080
 6312SOL    HW230396   0.169   2.722   2.304 -1.9399  2.4870  0.4236
 6313SOL     OW30397   2.659   4.434  16.019 -0.5206 -0.3491 -0.3321
 6313SOL    HW130398   2.585   4.416  16.076 -0.3046 -1.7116 -0.4856
 6313SOL    HW230399   2.733   4.459  16.076 -2.6685  2.5868  1.1874
 6314SOL     OW30400   0.885   2.558  15.275  0.1415  0.0188  0.4947
 6314SOL    HW130401   0.923   2.570  15.187  1.1669 -0.5860  0.8485
 6314SOL    HW230402   0.952   2.597  15.331  0.1615 -1.9671  1.8456
 6315SOL     OW30403   1.981   0.548   6.564  0.2001 -0.2890  0.1516
 6315SOL    HW130404   1.966   0.642   6.580  0.4867 -0.3273  0.6451
 6315SOL    HW230405   2.046   0.558   6.494 -1.3679 -2.1940 -1.5376
 6316SOL     OW30406   4.486   3.009   4.643 -0.3292 -0.1321  0.2839
 6316SOL    HW130407   4.419   3.010   4.712 -1.0830  1.1507 -0.4811
 6316SOL    HW230408   4.482   2.917   4.617  2.0078 -0.4972  1.2454
 6317SOL     OW30409   0.545   0.356   2.517 -0.3014 -0.2994  0.0013
 6317SOL    HW130410   0.463   0.344   2.468 -0.3676 -0.2619  0.1040
 6317SOL    HW230411   0.569   0.264   2.529 -1.6362 -0.5644  0.6457
 6318SOL     OW30412   4.508   2.571   6.884  0.5674 -0.3404  0.2343
 6318SOL    HW130413   4.471   2.519   6.812  1.9152 -0.3534 -0.4501
 6318SOL    HW230414   4.496   2.661   6.852 -0.1988 -0.8376 -0.9110
 6319SOL     OW30415   1.900   2.631   2.956  0.1392 -0.3396  0.1350
 6319SOL    HW130416   1.910   2.606   2.864 -1.5256 -3.1842  0.6983
 6319SOL    HW230417   1.857   2.553   2.993 -0.2145  0.1992  0.8584
 6320SOL     OW30418   1.989   2.045   1.867  0.0146  0.0370  0.5832
 6320SOL    HW130419   2.039   2.070   1.945 -1.0138  3.1262  0.2538
 6320SOL    HW230420   1.992   2.123   1.811 -2.4495 -1.0509 -1.0410
 6321SOL     OW30421   2.701   1.518   9.221  0.0789 -0.0452 -0.0704
 6321SOL    HW130422   2.759   1.566   9.280 -2.3566  0.9388  1.5309
 6321SOL    HW230423   2.710   1.428   9.254 -0.5967  0.0793  0.4482
 6322SOL     OW30424   2.730   3.928   7.176  0.3655 -0.5761 -0.5500
 6322SOL    HW130425   2.645   3.927   7.221 -0.9145 -0.7243 -2.9200
 6322SOL    HW230426   2.756   3.836   7.179 -0.1349 -0.7849 -2.6144
 6323SOL     OW30427   1.023   4.462   8.771 -0.0290  0.3200  0.3983
 6323SOL    HW130428   0.964   4.404   8.723 -0.5765  2.6636 -1.7507
 6323SOL    HW230429   1.036   4.423   8.857 -0.3960  0.7658  0.6577
 6324SOL     OW30430   2.530   3.260   0.844  0.1927 -0.3109  0.9385
 6324SOL    HW130431   2.604   3.257   0.784  0.8973  1.0044  1.7501
 6324SOL    HW230432   2.577   3.207   0.909  2.2761  2.0028  1.3154
 6325SOL     OW30433   1.471   0.630   4.579  0.4733 -0.3713  0.4272
 6325SOL    HW130434   1.470   0.726   4.584  0.5583 -0.4442  1.6709
 6325SOL    HW230435   1.541   0.617   4.515 -0.0361  1.0381 -0.4176
 6326SOL     OW30436   3.641   3.615   0.200 -0.0539 -0.3689 -0.4763
 6326SOL    HW130437   3.692   3.651   0.273 -3.2942  1.5853  0.8742
 6326SOL    HW230438   3.657   3.523   0.219  1.8525 -0.1491 -1.0383
 6327SOL     OW30439   3.380   3.230  16.918  0.1690 -0.2148 -0.0513
 6327SOL    HW130440   3.451   3.234  16.982 -1.3795  0.5534  1.6030
 6327SOL    HW230441   3.424   3.229  16.832 -1.4661  0.4799 -0.8917
 6328SOL     OW30442   1.806   1.451   0.488  0.2172 -0.2436 -0.2873
 6328SOL    HW130443   1.820   1.517   0.555  0.7146  0.5786 -1.2085
 6328SOL    HW230444   1.832   1.505   0.413  1.5311  0.7132  0.8607
 6329SOL     OW30445   3.566   3.750   8.839 -0.0266 -0.1143  0.4288
 6329SOL    HW130446   3.598   3.696   8.767 -2.5536 -0.1368 -0.6739
 6329SOL    HW230447   3.505   3.802   8.787  1.5678  0.6904 -0.6105
 6330SOL     OW30448   0.523   2.903   2.675 -0.3193 -0.2249 -0.8665
 6330SOL    HW130449   0.485   2.966   2.736 -0.6837 -0.9659 -0.3328
 6330SOL    HW230450   0.449   2.842   2.676  0.7708 -1.5407 -0.5305
 6331SOL     OW30451   2.839   1.512   7.487  0.0603  0.1502 -0.4601
 6331SOL    HW130452   2.756   1.471   7.511  0.3764 -0.2738 -0.0918
 6331SOL    HW230453   2.885   1.494   7.568 -1.8684 -1.1062  0.3724
 6332SOL     OW30454   2.668   1.593   3.728  0.0218 -0.0734  0.7701
 6332SOL    HW130455   2.596   1.657   3.722 -0.2243 -0.3476  0.8239
 6332SOL    HW230456   2.697   1.576   3.638 -0.6863 -1.1116  0.7504
 6333SOL     OW30457   0.909   3.660   7.906  0.9818  0.3202 -0.5816
 6333SOL    HW130458   0.916   3.724   7.977 -2.1487  0.2925 -0.2303
 6333SOL    HW230459   0.851   3.588   7.933  2.0850 -0.0712  0.7944
 6334SOL     OW30460   2.433   1.950  13.813  0.0006  0.1411  0.3662
 6334SOL    HW130461   2.352   1.993  13.841  0.1360 -0.7630  2.1360
 6334SOL    HW230462   2.496   2.022  13.806 -0.7218  0.8908  1.5157
 6335SOL     OW30463   3.576   1.994   6.662  0.2710  0.7753 -0.0681
 6335SOL    HW130464   3.575   2.016   6.755 -0.0291  1.2580 -0.1842
 6335SOL    HW230465   3.667   2.010   6.638  0.8363 -2.8644 -0.3583
 6336SOL     OW30466   1.094   3.046   1.766 -0.1150  0.1010 -0.6154
 6336SOL    HW130467   1.126   3.063   1.854 -1.0663 -1.9185  0.1316
 6336SOL    HW230468   0.999   3.059   1.775  0.1067  0.7397  0.6951
 6337SOL     OW30469   2.481   1.759   6.763 -0.2371  0.3482 -0.2625
 6337SOL    HW130470   2.431   1.698   6.816 -0.1446 -0.0169 -0.5974
 6337SOL    HW230471   2.557   1.789   6.813 -0.3616 -1.2287  0.8445
 6338SOL     OW30472   2.066   0.656   8.756 -0.7118 -0.4314 -0.1335
 6338SOL    HW130473   2.006   0.724   8.728  0.2383  1.0869  1.4623
 6338SOL    HW230474   2.008   0.581   8.746  0.4841 -1.5885  1.6118
 6339SOL     OW30475   1.463   1.611   4.804 -0.2054  0.7084 -0.7664
 6339SOL    HW130476   1.386   1.587   4.753 -0.7995  0.6979  0.1289
 6339SOL    HW230477   1.490   1.524   4.833  0.5600  1.5559  1.0633
 6340SOL     OW30478   1.805   1.015   8.885 -0.3009 -0.3530 -0.1358
 6340SOL    HW130479   1.776   1.058   8.965  0.5065  1.1361 -0.6319
 6340SOL    HW230480   1.895   1.049   8.883  0.1118 -1.4078  1.1952
 6341SOL     OW30481   3.804   1.616  12.453  0.4707  0.1599 -0.4191
 6341SOL    HW130482   3.761   1.647  12.532  1.1672 -0.1888  0.0984
 6341SOL    HW230483   3.886   1.664  12.456  0.2132  0.3836  2.2885
 6342SOL     OW30484   4.696   1.252   8.761  0.1896  0.0234  0.3108
 6342SOL    HW130485   4.606   1.277   8.782  0.4496 -0.4962  2.0641
 6342SOL    HW230486   4.707   1.161   8.788  1.8407  0.4908  1.2378
 6343SOL     OW30487   3.317   2.032  16.897 -0.1917 -0.1098  0.4652
 6343SOL    HW130488   3.387   2.011  16.959  0.4991  0.3781 -0.1469
 6343SOL    HW230489   3.237   2.056  16.943 -0.3694 -1.0465  0.6532
 6344SOL     OW30490   4.316   1.900  10.074  1.0115  0.1752 -0.5062
 6344SOL    HW130491   4.261   1.826  10.046 -0.9274  1.3064  0.2520
 6344SOL    HW230492   4.316   1.887  10.169 -1.4770  2.3795 -0.1974
 6345SOL     OW30493   3.951   3.776   4.248 -0.1590 -0.0308  0.3605
 6345SOL    HW130494   3.946   3.763   4.343 -2.3771  1.5642  0.4556
 6345SOL    HW230495   3.995   3.693   4.230  2.8278  1.5227  0.5161
 6346SOL     OW30496   0.160   0.296   3.075 -0.1793 -0.5772  0.0571
 6346SOL    HW130497   0.131   0.351   3.002 -1.0455  1.2467  1.8089
 6346SOL    HW230498   0.090   0.233   3.090 -1.5164  1.2108  1.2728
 6347SOL     OW30499   2.477   3.102   2.774  0.8780  0.2821 -0.0198
 6347SOL    HW130500   2.457   3.193   2.754  1.0045  0.0881 -1.0328
 6347SOL    HW230501   2.456   3.091   2.867 -2.1904 -0.3255 -0.7732
 6348SOL     OW30502   1.557   2.936   3.728  0.1388  0.2062 -0.5838
 6348SOL    HW130503   1.530   3.001   3.662  0.1800 -1.2736 -2.0494
 6348SOL    HW230504   1.651   2.953   3.726 -0.2165  2.0614 -1.9028
 6349SOL     OW30505   0.092   0.298   5.294 -0.0539  0.0952  0.2691
 6349SOL    HW130506   0.179   0.320   5.329 -0.0319  0.2621  0.1077
 6349SOL    HW230507   0.063   0.375   5.245  2.9814  0.3345 -1.1267
 6350SOL     OW30508   2.178   3.542   0.509 -0.1711  0.0693  0.1362
 6350SOL    HW130509   2.256   3.520   0.561  0.0641  0.5834 -0.0061
 6350SOL    HW230510   2.125   3.462   0.518  1.7561 -1.1017  0.9357
 6351SOL     OW30511   1.022   1.674   0.048  0.2546  0.2455 -0.1613
 6351SOL    HW130512   1.015   1.578   0.044  0.7706  0.1680  0.8185
 6351SOL    HW230513   1.086   1.693  17.667  0.3651 -0.3940 -0.2410
 6352SOL     OW30514   2.266   0.428   8.753 -0.2127 -0.1042 -0.3396
 6352SOL    HW130515   2.224   0.506   8.790  1.7121  0.3526  0.8757
 6352SOL    HW230516   2.253   0.447   8.660  2.1964 -1.5022 -0.9568
 6353SOL     OW30517   2.667   3.849   7.978 -0.4993 -0.1703 -0.2438
 6353SOL    HW130518   2.607   3.874   7.908 -1.4461 -0.9013  0.3222
 6353SOL    HW230519   2.687   3.761   7.946 -0.6598  0.4255 -1.9604
 6354SOL     OW30520   4.706   1.735   9.026  0.3275 -0.0224  0.1173
 6354SOL    HW130521   4.712   1.772   9.113  0.9650 -1.0603  0.5240
 6354SOL    HW230522   0.064   1.775   8.991 -0.2620  2.2770  1.4134
 6355SOL     OW30523   3.283   4.068   0.111 -0.2579 -0.1396 -0.1002
 6355SOL    HW130524   3.267   4.128   0.038 -1.1769  0.2846  0.4486
 6355SOL    HW230525   3.376   4.047   0.102 -0.4490 -1.0965  0.1453
 6356SOL     OW30526   3.729   4.130   1.525  0.2056 -0.1054 -0.2448
 6356SOL    HW130527   3.773   4.212   1.546 -1.0029  1.0329 -2.1294
 6356SOL    HW230528   3.647   4.162   1.486  0.2508  0.5998  0.2364
 6357SOL     OW30529   1.881   2.232   3.473  0.0637 -0.0647  0.3604
 6357SOL    HW130530   1.801   2.246   3.523  0.1344 -0.5826  0.6170
 6357SOL    HW230531   1.876   2.145   3.432  1.1065 -0.2201  0.5746
 6358SOL     OW30532   0.027   3.803   5.323  0.0923 -0.1733 -0.3795
 6358SOL    HW130533   0.095   3.737   5.315  1.0791  0.5697  1.7675
 6358SOL    HW230534   4.674   3.761   5.281 -0.4626 -0.2011  0.6211
 6359SOL     OW30535   0.334   0.054   4.533 -0.0684  0.4435  0.1488
 6359SOL    HW130536   0.377   4.710   4.588 -1.6326 -0.3798  0.4155
 6359SOL    HW230537   0.249   0.011   4.525 -0.4113  0.8531  1.5706
 6360SOL     OW30538   0.451   4.542   3.619 -0.4128 -0.2594  0.2309
 6360SOL    HW130539   0.387   4.613   3.617  1.2195  1.1152 -1.9296
 6360SOL    HW230540   0.537   4.569   3.588 -0.2949  1.9939  2.5486
 6361SOL     OW30541   3.859   0.626   2.402 -0.0348  0.7101 -0.2635
 6361SOL    HW130542   3.929   0.571   2.438 -0.4534 -0.4881 -1.2990
 6361SOL    HW230543   3.854   0.587   2.314 -1.0141 -1.0467  0.5649
 6362SOL     OW30544   0.633   3.391   9.331 -0.2648  0.0403  0.2735
 6362SOL    HW130545   0.596   3.450   9.265  2.3489 -0.0498 -1.2785
 6362SOL    HW230546   0.569   3.396   9.402  0.5739  2.6280  0.8242
 6363SOL     OW30547   3.225   4.680   5.770  0.2816  0.2982  0.4993
 6363SOL    HW130548   3.288   4.619   5.807  1.4664  1.9294  1.1821
 6363SOL    HW230549   3.216   4.647   5.680  2.3784  2.0990 -0.3692
 6364SOL     OW30550   2.779   0.081   1.740 -0.1639  0.5442  0.3462
 6364SOL    HW130551   2.870   0.080   1.768 -0.4273  0.7205  1.2104
 6364SOL    HW230552   2.743   0.002   1.782 -1.7466  1.1543  0.1285
 6365SOL     OW30553   2.526   2.940   3.114 -0.4845  0.7282  0.4612
 6365SOL    HW130554   2.531   2.860   3.061  0.3067  0.1627  1.3879
 6365SOL    HW230555   2.455   2.992   3.077 -2.7141 -1.9105  0.9819
 6366SOL     OW30556   1.080   0.478   2.194 -0.5228 -0.0176 -0.1897
 6366SOL    HW130557   1.096   0.570   2.176  0.0742 -0.0383  0.2368
 6366SOL    HW230558   1.142   0.431   2.136  0.1203 -1.1160  1.3774
 6367SOL     OW30559   4.480   2.684   4.094 -0.4086  0.0206  0.0939
 6367SOL    HW130560   4.416   2.749   4.123 -1.1627 -1.3959  1.5859
 6367SOL    HW230561   4.422   2.617   4.059  1.0222 -1.1679  0.0107
 6368SOL     OW30562   3.931   0.150  16.255 -0.5515 -0.1175  0.2659
 6368SOL    HW130563   3.838   0.160  16.274 -0.5869  1.0288 -0.5485
 6368SOL    HW230564   3.965   0.239  16.263 -0.6886  0.3189 -4.3491
 6369SOL     OW30565   3.325   3.351   7.447 -0.0987  0.2987  0.2609
 6369SOL    HW130566   3.250   3.405   7.472 -3.0119 -2.0569 -3.3243
 6369SOL    HW230567   3.370   3.369   7.529 -0.3467  2.6340 -0.1266
 6370SOL     OW30568   2.144   3.689   7.463  0.0241  0.0779 -0.3185
 6370SOL    HW130569   2.089   3.713   7.388  3.5775 -0.2269 -3.0072
 6370SOL    HW230570   2.171   3.772   7.503 -1.5278  0.1293  0.6181
 6371SOL     OW30571   3.872   0.114   0.821  0.3199  0.4149 -0.0483
 6371SOL    HW130572   3.908   0.202   0.829 -1.8759  1.2972  0.2024
 6371SOL    HW230573   3.876   0.083   0.911 -3.3600  2.4766  0.8187
 6372SOL     OW30574   3.726   1.658   1.537 -0.4848  0.6536  0.1288
 6372SOL    HW130575   3.656   1.593   1.539  0.5013 -0.4639 -1.8692
 6372SOL    HW230576   3.743   1.673   1.630  0.8343 -0.5019  0.0694
 6373SOL     OW30577   2.704   3.685   7.350  0.0518  0.2519 -0.6168
 6373SOL    HW130578   2.717   3.727   7.435  0.9140 -2.6240  0.6688
 6373SOL    HW230579   2.791   3.645   7.342  1.0773  2.1727  0.7730
 6374SOL     OW30580   0.562   1.617   8.243  0.0043  0.4349  0.2846
 6374SOL    HW130581   0.493   1.554   8.265  1.4859 -1.1364  0.4999
 6374SOL    HW230582   0.637   1.582   8.292 -0.7405 -1.4634  0.0978
 6375SOL     OW30583   2.471   1.622   4.457  0.0939 -0.5451  0.1542
 6375SOL    HW130584   2.476   1.549   4.395  0.1693  0.9995 -1.6486
 6375SOL    HW230585   2.413   1.680   4.408  0.1498  0.1766  0.9415
 6376SOL     OW30586   1.626   0.184   5.078  0.3413  0.0588 -0.3668
 6376SOL    HW130587   1.593   0.154   5.162 -2.6313  1.0406 -1.1757
 6376SOL    HW230588   1.701   0.232   5.114 -0.2854  1.7247 -1.2936
 6377SOL     OW30589   1.446   3.257  16.293  0.0484  0.4272  0.2335
 6377SOL    HW130590   1.400   3.337  16.266  0.6521  1.2020  1.4539
 6377SOL    HW230591   1.393   3.227  16.367 -1.6681  0.8808 -0.8366
 6378SOL     OW30592   2.165   4.680   0.553  0.2425 -0.1805 -0.1772
 6378SOL    HW130593   2.227   4.693   0.481  0.0888 -0.2321 -0.3186
 6378SOL    HW230594   2.214   4.700   0.633  0.3178 -0.3264 -0.1862
 6379SOL     OW30595   2.871   0.799   5.909 -0.1436 -0.6040  0.0289
 6379SOL    HW130596   2.884   0.882   5.955  1.1468 -1.0605  0.5030
 6379SOL    HW230597   2.888   0.832   5.821  0.7389 -0.9237  0.0775
 6380SOL     OW30598   1.672   0.959   0.362  0.1205 -0.2821  0.2346
 6380SOL    HW130599   1.576   0.967   0.359  0.0758 -0.6577  0.6422
 6380SOL    HW230600   1.696   1.044   0.397  2.6465 -0.2207 -1.6754
 6381SOL     OW30601   2.520   3.119   7.493  0.2056  0.3331  0.4991
 6381SOL    HW130602   2.573   3.191   7.461  0.6591 -0.1614  0.1289
 6381SOL    HW230603   2.587   3.060   7.528  0.2737  1.7178  2.7060
 6382SOL     OW30604   4.518   3.369  15.456 -0.0918 -0.5565  0.8630
 6382SOL    HW130605   4.558   3.457  15.456 -0.5317 -0.3586  1.0730
 6382SOL    HW230606   4.569   3.322  15.390  0.9593  0.8347  0.6720
 6383SOL     OW30607   2.118   0.510   2.713 -0.1832 -0.0508 -0.3208
 6383SOL    HW130608   2.061   0.436   2.691 -1.2894  0.5450  0.5801
 6383SOL    HW230609   2.181   0.468   2.772  2.7584  1.7384 -2.1406
 6384SOL     OW30610   2.057   2.488   3.631  0.4341 -0.4442  0.0142
 6384SOL    HW130611   2.063   2.450   3.718  1.0712 -1.2141 -0.3606
 6384SOL    HW230612   2.147   2.505   3.605  0.3123  0.5465  0.2250
 6385SOL     OW30613   3.129   0.922  16.908 -0.5942 -0.2718 -0.0218
 6385SOL    HW130614   3.179   0.987  16.859  0.8395  0.4885  2.4665
 6385SOL    HW230615   3.144   0.855  16.842 -1.8391  1.3659 -2.0082
 6386SOL     OW30616   4.238   2.714   0.767 -0.0332 -0.0341  0.2099
 6386SOL    HW130617   4.249   2.736   0.859  3.4911  0.6865 -0.3640
 6386SOL    HW230618   4.326   2.678   0.751  0.8248  0.9266  2.9364
 6387SOL     OW30619   0.805   1.581  15.466 -0.2581 -0.0134  0.5746
 6387SOL    HW130620   0.807   1.612  15.375  0.7602  0.1460  0.6472
 6387SOL    HW230621   0.898   1.588  15.490  0.3262  2.5136 -2.3579
 6388SOL     OW30622   4.549   4.425   9.407  0.4135  0.4322  0.4796
 6388SOL    HW130623   4.588   4.376   9.335 -0.5675 -1.2548  1.0739
 6388SOL    HW230624   4.526   4.351   9.464  1.3614  0.6439  1.1236
 6389SOL     OW30625   3.422   4.555   3.493 -0.3088 -0.2727 -0.1878
 6389SOL    HW130626   3.472   4.520   3.566 -1.4700  1.4432  1.4578
 6389SOL    HW230627   3.438   4.485   3.430  3.0764  1.7247 -1.5410
 6390SOL     OW30628   3.131   3.918   1.410 -0.0355 -0.1443  0.2773
 6390SOL    HW130629   3.059   3.980   1.412 -0.0147 -0.1133 -0.0453
 6390SOL    HW230630   3.079   3.838   1.396 -0.3092 -0.0882  0.9377
 6391SOL     OW30631   0.420   2.437   1.913 -0.2065 -0.0456 -0.1594
 6391SOL    HW130632   0.391   2.346   1.898 -3.0621  0.9483 -0.7054
 6391SOL    HW230633   0.340   2.475   1.878 -0.1775  0.4041  0.2721
 6392SOL     OW30634   3.317   4.690   0.752 -0.3819 -0.1978  0.0010
 6392SOL    HW130635   3.352   4.602   0.734  0.2859  0.2037 -0.6563
 6392SOL    HW230636   3.394   4.719   0.802  0.8934 -0.6207 -1.7239
 6393SOL     OW30637   1.641   4.572   8.537 -1.0188 -0.3738 -0.5281
 6393SOL    HW130638   1.559   4.615   8.561  0.8014  3.3254 -0.7984
 6393SOL    HW230639   1.677   4.556   8.624  1.0927  0.9457 -1.1518
 6394SOL     OW30640   0.371   2.026   3.046 -0.4106 -0.0089  0.0955
 6394SOL    HW130641   0.429   1.950   3.046  1.8535  1.7004 -2.4630
 6394SOL    HW230642   0.426   2.085   2.993  1.3202 -0.6065  1.2077
 6395SOL     OW30643   0.157   3.958   6.918  0.1817  0.0132  0.2751
 6395SOL    HW130644   0.180   3.896   6.849 -0.3766  1.0063 -0.8031
 6395SOL    HW230645   0.090   4.016   6.883  1.0375 -0.4209 -2.0852
 6396SOL     OW30646   1.928   4.509  10.289 -0.0010 -0.2149  0.1748
 6396SOL    HW130647   2.011   4.507  10.337  0.0681 -1.0501  0.0171
 6396SOL    HW230648   1.925   4.601  10.263 -0.9440 -0.7958 -1.8423
 6397SOL     OW30649   2.042   3.532   8.155 -0.8564  0.3267 -0.8371
 6397SOL    HW130650   1.976   3.539   8.086 -1.9755  1.7596  0.3847
 6397SOL    HW230651   2.052   3.623   8.183  2.5565  0.2912 -1.8778
 6398SOL     OW30652   3.780   4.518   6.746  0.8405  0.2903 -0.2393
 6398SOL    HW130653   3.772   4.427   6.772 -2.6831 -0.4462 -3.8719
 6398SOL    HW230654   3.734   4.571   6.811 -0.1302 -0.4022 -0.3690
 6399SOL     OW30655   2.136   3.210  11.540  0.6003 -0.0428  0.8799
 6399SOL    HW130656   2.116   3.246  11.626  0.9581  1.4620  0.3406
 6399SOL    HW230657   2.232   3.213  11.540  0.6207 -0.8092  0.9530
 6400SOL     OW30658   0.401   3.687   2.272  0.1065 -0.1927  0.8297
 6400SOL    HW130659   0.314   3.678   2.309 -1.1708 -0.1407 -2.1550
 6400SOL    HW230660   0.408   3.593   2.256 -0.7519 -0.4670  2.0872
 6401SOL     OW30661   0.022   1.145   4.387 -0.7231 -0.5365 -0.6069
 6401SOL    HW130662   0.114   1.165   4.372 -1.1806  0.9859 -1.4613
 6401SOL    HW230663   4.721   1.224   4.436  1.8197 -0.1529 -0.0555
 6402SOL     OW30664   1.899   1.592   0.261  0.0501 -0.4037 -0.1415
 6402SOL    HW130665   1.975   1.542   0.231  0.1098 -0.3752 -0.0401
 6402SOL    HW230666   1.867   1.639   0.184 -3.7569 -0.8858  1.1486
 6403SOL     OW30667   2.793   0.835   0.172 -0.1582 -0.3584  0.1157
 6403SOL    HW130668   2.836   0.763   0.126 -1.2840 -1.0296  0.1015
 6403SOL    HW230669   2.777   0.812   0.263  0.3147 -0.1017  0.2611
 6404SOL     OW30670   3.013   1.441   3.164 -0.2536 -0.6069  0.0262
 6404SOL    HW130671   3.093   1.389   3.158 -0.0198 -0.2207 -0.2790
 6404SOL    HW230672   3.048   1.529   3.151 -2.3016  0.4455  1.6438
 6405SOL     OW30673   0.183   4.529  17.076  0.1435 -0.2419 -0.2850
 6405SOL    HW130674   0.099   4.575  17.072  0.9961  1.1258 -2.5766
 6405SOL    HW230675   0.198   4.519  17.170  2.6041  0.6724 -0.5837
 6406SOL     OW30676   3.956   4.624   2.461  0.2241  0.3047  0.5585
 6406SOL    HW130677   3.969   4.629   2.556 -2.5169  0.3635  0.9217
 6406SOL    HW230678   4.048   4.638   2.438 -0.6463  2.2000 -1.6944
 6407SOL     OW30679   0.965   1.634  14.969 -0.6787 -0.0769 -0.4068
 6407SOL    HW130680   1.036   1.629  14.905 -1.9495 -0.6966 -1.7465
 6407SOL    HW230681   0.908   1.696  14.923 -0.7083  0.2434  0.0636
 6408SOL     OW30682   4.080   4.165  12.782  0.0071 -1.2022 -0.6138
 6408SOL    HW130683   4.123   4.117  12.853 -2.1110 -0.0559  1.4504
 6408SOL    HW230684   4.015   4.210  12.837  0.9142 -1.6954  0.8773
 6409SOL     OW30685   3.965   3.717   3.365 -0.0970 -0.3719 -0.3136
 6409SOL    HW130686   3.962   3.774   3.288 -0.0070 -0.6515 -0.5234
 6409SOL    HW230687   3.915   3.641   3.335 -1.6512 -0.0914  1.5549
 6410SOL     OW30688   0.125   2.065   5.920 -0.1162 -0.4586  0.0153
 6410SOL    HW130689   0.050   2.092   5.973 -0.4484  0.0602 -0.7210
 6410SOL    HW230690   0.117   1.970   5.915  0.4767 -0.4758 -0.5451
 6411SOL     OW30691   0.951   3.320   5.511 -0.1675  0.2253  0.1211
 6411SOL    HW130692   1.020   3.385   5.509  1.5485 -1.6248 -0.4728
 6411SOL    HW230693   0.993   3.238   5.536  1.8448  0.8744 -1.1675
 6412SOL     OW30694   2.310   2.814  13.887 -0.4313  0.2547 -0.6312
 6412SOL    HW130695   2.221   2.832  13.915  0.3860  2.7089  0.4010
 6412SOL    HW230696   2.296   2.739  13.830  0.9514 -0.7160  0.2820
 6413SOL     OW30697   1.232   1.078   5.548  0.1061  0.0224 -0.3658
 6413SOL    HW130698   1.272   1.052   5.465 -2.2214 -2.0902 -0.8036
 6413SOL    HW230699   1.310   1.100   5.599 -0.9996 -1.4260  1.9636
 6414SOL     OW30700   2.267   3.319   0.847  0.6532 -0.5835 -0.3820
 6414SOL    HW130701   2.359   3.293   0.847  0.6505 -0.5915 -1.1692
 6414SOL    HW230702   2.225   3.241   0.809 -0.5938 -0.3291  0.4852
 6415SOL     OW30703   3.168   2.372   3.324  0.0111  0.0757  0.3461
 6415SOL    HW130704   3.218   2.384   3.405  1.1644 -2.0363 -0.0503
 6415SOL    HW230705   3.210   2.439   3.271  0.6088  0.7846  1.7121
 6416SOL     OW30706   2.035   2.844   7.864  0.4803  0.5002  0.4809
 6416SOL    HW130707   2.079   2.834   7.779 -0.3573 -2.4839  0.4095
 6416SOL    HW230708   2.074   2.924   7.899  0.7999  0.3098  0.5534
 6417SOL     OW30709   4.300   0.761  11.217 -0.4705 -0.1883  0.4257
 6417SOL    HW130710   4.332   0.840  11.174 -0.5559 -0.9413 -0.9927
 6417SOL    HW230711   4.254   0.721  11.143 -1.0856  0.7693  0.2994
 6418SOL     OW30712   3.210   4.634   2.173  0.0130 -0.3016 -0.4652
 6418SOL    HW130713   3.299   4.620   2.207  0.3479  2.7406 -0.1255
 6418SOL    HW230714   3.163   4.647   2.255 -0.4646 -0.7289 -0.6730
 6419SOL     OW30715   3.410   4.275   7.176 -0.0204 -0.0017  0.6243
 6419SOL    HW130716   3.356   4.196   7.174 -0.8737  0.6171 -0.4944
 6419SOL    HW230717   3.495   4.233   7.160  0.4762  1.0295  0.5013
 6420SOL     OW30718   2.636   2.122   1.638 -0.4143  0.0555 -0.1118
 6420SOL    HW130719   2.652   2.205   1.682 -0.5647  0.0130  0.0235
 6420SOL    HW230720   2.728   2.107   1.618 -0.1032  0.2109  1.2234
 6421SOL     OW30721   4.528   0.174  17.080 -0.0221 -0.5974 -0.0656
 6421SOL    HW130722   4.433   0.172  17.091  0.0607 -0.7457  0.6495
 6421SOL    HW230723   4.539   0.260  17.040  1.0246 -0.4919  0.4438
 6422SOL     OW30724   3.384   4.607   4.090 -0.4699  0.4955 -0.0461
 6422SOL    HW130725   3.417   4.539   4.031 -0.6782 -1.2813  1.9064
 6422SOL    HW230726   3.418   4.577   4.174  2.1575 -2.3945 -2.1675
 6423SOL     OW30727   0.338   0.769   2.546  0.2026  0.1578  0.0873
 6423SOL    HW130728   0.361   0.695   2.602 -1.2370 -2.3253 -2.6435
 6423SOL    HW230729   0.276   0.806   2.609  1.4882  1.1134  0.8045
 6424SOL     OW30730   4.335   1.726   6.168  0.3410 -0.1039  0.2693
 6424SOL    HW130731   4.349   1.716   6.074  0.3940 -2.4154  0.5279
 6424SOL    HW230732   4.309   1.818   6.168  1.3726  0.1821  3.0246
 6425SOL     OW30733   0.617   2.429   4.697  0.0014  0.1146  0.2608
 6425SOL    HW130734   0.523   2.429   4.681  0.0734 -1.5989 -0.0815
 6425SOL    HW230735   0.623   2.370   4.772  1.1151  2.9456  2.4275
 6426SOL     OW30736   1.664   2.546   5.918 -0.1889  0.4059  0.4796
 6426SOL    HW130737   1.672   2.635   5.953  0.1425  0.3896  0.4459
 6426SOL    HW230738   1.722   2.562   5.844  0.9276 -1.6453  0.8943
 6427SOL     OW30739   0.840   3.904  11.708  0.2918 -0.0921 -0.4690
 6427SOL    HW130740   0.919   3.959  11.710  1.1146 -1.3778  1.6935
 6427SOL    HW230741   0.859   3.862  11.624 -2.3488 -2.3945  0.1062
 6428SOL     OW30742   1.738   2.203  16.302  0.0830 -0.0569  0.0194
 6428SOL    HW130743   1.738   2.199  16.397 -2.0749 -2.2193 -0.0656
 6428SOL    HW230744   1.657   2.160  16.275 -0.0259 -1.2295  2.2883
 6429SOL     OW30745   3.050   2.936   4.840  0.8908 -0.2544  0.0504
 6429SOL    HW130746   3.004   2.918   4.922  3.3484 -1.2333  1.2096
 6429SOL    HW230747   3.066   2.847   4.809 -0.4264 -1.3425  2.5148
 6430SOL     OW30748   0.530   3.161   2.054  0.4092  0.3346 -0.0439
 6430SOL    HW130749   0.545   3.137   2.146  0.3543 -1.1403 -0.4173
 6430SOL    HW230750   0.449   3.116   2.029  0.8239 -0.3974 -0.0631
 6431SOL     OW30751   2.836   1.261   8.280 -0.1264  0.5392  0.0295
 6431SOL    HW130752   2.766   1.216   8.327  0.7951 -0.3109  0.5943
 6431SOL    HW230753   2.888   1.269   8.360  0.5509 -1.3655 -0.2185
 6432SOL     OW30754   1.460   4.047   6.839 -0.6539 -0.2546 -0.5703
 6432SOL    HW130755   1.437   4.112   6.773  0.6655 -0.1926 -0.9725
 6432SOL    HW230756   1.521   4.001   6.781  1.0584  0.6255  0.5261
 6433SOL     OW30757   1.403   4.618   5.391 -0.6786 -0.1426  0.0568
 6433SOL    HW130758   1.400   4.536   5.342 -0.0964  0.0894 -0.3593
 6433SOL    HW230759   1.371   4.597   5.479 -0.1882 -0.1579  0.2358
 6434SOL     OW30760   3.872   2.124   8.541  0.2237 -0.3636 -0.3942
 6434SOL    HW130761   3.907   2.053   8.489  2.8588  1.4355 -1.0744
 6434SOL    HW230762   3.949   2.163   8.583 -0.6321 -0.5336  1.3521
 6435SOL     OW30763   4.188   1.216   6.292  0.0092  0.0962  0.1790
 6435SOL    HW130764   4.119   1.281   6.280  1.6783  2.2715  2.3342
 6435SOL    HW230765   4.191   1.174   6.206 -0.7784 -0.9149  0.6428
 6436SOL     OW30766   3.526   1.168   8.012 -0.1889 -0.2307 -0.1580
 6436SOL    HW130767   3.516   1.168   8.107  2.2903  1.6790  0.0978
 6436SOL    HW230768   3.508   1.075   7.999  0.1979 -0.6360  2.2357
 6437SOL     OW30769   1.712   1.137  10.380 -0.1160 -0.5503  0.3485
 6437SOL    HW130770   1.710   1.150  10.286  1.9097 -2.7091 -0.0112
 6437SOL    HW230771   1.786   1.076  10.382  1.0655  0.8985  0.8700
 6438SOL     OW30772   0.925   0.733   4.366 -0.2558 -0.1839 -0.2368
 6438SOL    HW130773   0.916   0.755   4.273 -1.9805 -0.2405 -0.0906
 6438SOL    HW230774   0.993   0.787   4.406  0.5788 -1.1468 -0.3538
 6439SOL     OW30775   1.011   4.438  15.595  0.3441  0.1707 -0.6606
 6439SOL    HW130776   1.055   4.502  15.539 -0.8629  0.5743 -1.1689
 6439SOL    HW230777   1.088   4.390  15.624 -0.5220 -2.0832 -2.1173
 6440SOL     OW30778   4.069   2.520   2.883  0.1786 -0.4244 -0.6189
 6440SOL    HW130779   4.047   2.506   2.975 -0.4252 -1.4404 -0.9244
 6440SOL    HW230780   4.123   2.444   2.864 -0.0969 -0.7466 -0.0789
 6441SOL     OW30781   1.788   0.282   2.976  0.3991  0.0178  0.7734
 6441SOL    HW130782   1.814   0.363   2.932 -1.1104 -0.3293 -0.7805
 6441SOL    HW230783   1.841   0.218   2.928  0.8928  2.1531 -1.5400
 6442SOL     OW30784   3.648   0.451   2.473  0.0630 -0.1115 -0.0720
 6442SOL    HW130785   3.570   0.506   2.478 -0.5900 -0.9516 -0.8828
 6442SOL    HW230786   3.719   0.500   2.432 -0.0758  0.1981  0.0620
 6443SOL     OW30787   4.484   3.234   4.045 -1.0013 -0.2805  0.1132
 6443SOL    HW130788   4.528   3.280   3.974  0.0321 -1.8886 -0.2959
 6443SOL    HW230789   4.467   3.145   4.014  1.5151 -1.4846  2.2055
 6444SOL     OW30790   2.862   2.108   8.048 -0.1233 -0.0256 -0.1623
 6444SOL    HW130791   2.865   2.134   8.140  1.8530 -1.3609  0.1471
 6444SOL    HW230792   2.852   2.187   7.996 -0.4547 -0.4808 -0.7968
 6445SOL     OW30793   1.922   1.857   2.548 -0.8196 -0.6897 -0.1842
 6445SOL    HW130794   1.957   1.914   2.617  4.2595 -0.4652 -2.9848
 6445SOL    HW230795   1.834   1.835   2.579 -0.6609  1.8200  2.0595
 6446SOL     OW30796   0.188   3.863   1.548  0.0371 -0.3748 -0.5680
 6446SOL    HW130797   0.102   3.825   1.567 -0.8945  2.0296  0.0154
 6446SOL    HW230798   0.162   3.938   1.493  0.4735  0.7251  0.7394
 6447SOL     OW30799   1.308   3.234  15.871 -0.1811 -0.4448 -0.7977
 6447SOL    HW130800   1.393   3.277  15.873 -0.6422  0.4317 -0.3533
 6447SOL    HW230801   1.273   3.258  15.956  1.1982 -0.1706 -0.3108
 6448SOL     OW30802   1.479   2.248   8.613  0.3852  0.1311 -0.0737
 6448SOL    HW130803   1.473   2.159   8.649 -0.4332  0.0646 -0.3933
 6448SOL    HW230804   1.490   2.224   8.521 -0.0465  0.4848 -0.2136
 6449SOL     OW30805   2.958   0.994   2.444  0.8707  0.1827 -0.7285
 6449SOL    HW130806   2.979   1.051   2.370 -1.5761  0.9999 -0.7804
 6449SOL    HW230807   2.910   0.922   2.403 -0.4783  1.4017 -1.2684
 6450SOL     OW30808   4.353   2.675   2.646 -0.3763  0.2673 -0.1533
 6450SOL    HW130809   4.364   2.584   2.618 -0.6062  0.6347 -1.4312
 6450SOL    HW230810   4.258   2.679   2.662  0.0024  0.6528  2.0134
 6451SOL     OW30811   4.574   4.624   3.569  0.0657  0.1044 -0.5173
 6451SOL    HW130812   4.505   4.560   3.587  1.9157 -1.2872  1.4986
 6451SOL    HW230813   4.587   4.657   3.658  2.0803 -0.9663 -0.4199
 6452SOL     OW30814   1.736   4.486  11.709  0.1458 -0.1583  0.2684
 6452SOL    HW130815   1.643   4.471  11.687 -0.0520  0.2025  0.8631
 6452SOL    HW230816   1.768   4.400  11.736 -1.9871 -0.8994  0.4702
 6453SOL     OW30817   4.404   2.150  11.200  0.1670 -0.2387 -0.0252
 6453SOL    HW130818   4.375   2.208  11.130 -0.5506 -1.3333 -0.6309
 6453SOL    HW230819   4.488   2.122  11.163  0.8380  0.9215  0.6066
 6454SOL     OW30820   1.082   4.308   4.238 -0.1863 -0.3731  0.6462
 6454SOL    HW130821   1.021   4.353   4.297 -0.7376 -1.2699  0.7619
 6454SOL    HW230822   1.154   4.371   4.246 -2.3887  2.3587 -1.0015
 6455SOL     OW30823   1.073   2.275   2.201  0.1708 -0.5597 -0.2186
 6455SOL    HW130824   1.100   2.332   2.128  1.9468 -0.3394  0.6306
 6455SOL    HW230825   1.010   2.219   2.155 -0.4985 -1.6896  2.1261
 6456SOL     OW30826   0.395   3.973   9.616 -0.0731  0.4925  0.5293
 6456SOL    HW130827   0.450   4.049   9.638 -0.5857  0.9000  0.4216
 6456SOL    HW230828   0.368   3.955   9.706  1.6740  0.5590  1.0536
 6457SOL     OW30829   4.224   0.710  17.641 -0.4086 -0.2144  0.7023
 6457SOL    HW130830   4.236   0.617  17.662  2.2283  0.5557  2.6419
 6457SOL    HW230831   4.131   0.709  17.618 -0.2056 -0.4867 -0.0768
 6458SOL     OW30832   2.122   3.982  16.688  0.0913  0.2787  0.0171
 6458SOL    HW130833   2.136   4.075  16.700  1.2474  0.1169 -0.1476
 6458SOL    HW230834   2.091   3.951  16.773 -0.3871 -2.5116 -1.1510
 6459SOL     OW30835   2.455   3.077   8.650  0.1350  0.6669  0.3719
 6459SOL    HW130836   2.516   3.151   8.646  1.3848 -0.3531  0.6271
 6459SOL    HW230837   2.393   3.104   8.719  0.8346 -0.7295  1.5378
 6460SOL     OW30838   1.263   1.016   8.832 -0.3354  0.6101 -0.8924
 6460SOL    HW130839   1.189   1.036   8.889 -0.4063 -0.5415 -0.5843
 6460SOL    HW230840   1.294   1.106   8.831 -1.0347  0.8541 -0.6957
 6461SOL     OW30841   3.387   2.500   7.294  0.0790 -0.0231 -0.4187
 6461SOL    HW130842   3.392   2.495   7.389 -2.0170 -0.4195 -0.3360
 6461SOL    HW230843   3.461   2.440   7.281  1.6425  1.2102  2.5778
 6462SOL     OW30844   1.930   1.947  13.401  0.3611  0.0542  0.2501
 6462SOL    HW130845   1.952   1.854  13.404 -2.0218 -0.5639 -1.6688
 6462SOL    HW230846   1.991   1.970  13.471  1.7843 -2.2815 -0.2251
 6463SOL     OW30847   3.186   3.943   6.402  0.1050 -0.1951 -0.3536
 6463SOL    HW130848   3.145   3.961   6.486 -0.3551  0.9894 -0.8278
 6463SOL    HW230849   3.113   3.934   6.341 -0.6599  0.5952  0.4587
 6464SOL     OW30850   3.909   3.691   4.547 -0.1834  0.1496 -0.5459
 6464SOL    HW130851   3.820   3.684   4.583 -0.3673 -1.1043 -1.2342
 6464SOL    HW230852   3.937   3.601   4.529 -1.4308  0.1992 -2.6543
 6465SOL     OW30853   0.113   0.006   3.049 -0.0938 -0.2651  0.0823
 6465SOL    HW130854   0.061   4.652   3.023  1.0442 -0.8929 -0.3909
 6465SOL    HW230855   0.111   0.013   3.145  1.0782 -0.9169  0.1572
 6466SOL     OW30856   1.353   0.201   7.152  0.7819 -0.1216 -0.4222
 6466SOL    HW130857   1.441   0.229   7.130  0.6354  0.4319 -0.3087
 6466SOL    HW230858   1.349   0.226   7.245 -0.4269 -0.6773 -0.3213
 6467SOL     OW30859   2.772   2.003   2.880  0.7686  0.4290  0.3095
 6467SOL    HW130860   2.834   2.055   2.828  1.4771 -1.7009 -0.9775
 6467SOL    HW230861   2.823   1.955   2.945  1.1874 -2.0688 -1.8290
 6468SOL     OW30862   0.169   2.203  11.088 -0.6392 -0.1504  0.0661
 6468SOL    HW130863   0.167   2.242  11.176  1.9622  0.1281 -0.0104
 6468SOL    HW230864   0.228   2.128  11.088 -0.6758 -0.1777  0.9347
 6469SOL     OW30865   3.513   1.549   1.667  0.5612 -0.7284 -0.0587
 6469SOL    HW130866   3.446   1.486   1.692 -0.8190  0.6755 -0.2292
 6469SOL    HW230867   3.472   1.633   1.644  3.0488  0.2853 -0.7621
 6470SOL     OW30868   3.153   4.350  11.597  0.0661  0.7110 -0.4534
 6470SOL    HW130869   3.227   4.399  11.634  0.1365  0.6157 -0.4655
 6470SOL    HW230870   3.128   4.414  11.531  0.1565  1.2093 -0.0084
 6471SOL     OW30871   0.923   2.775  16.810  0.2456 -0.2170  0.8531
 6471SOL    HW130872   0.930   2.844  16.876  0.3997 -0.9836  1.6480
 6471SOL    HW230873   0.831   2.751  16.819  0.1907 -0.8905 -1.7270
 6472SOL     OW30874   2.667   3.651   3.859 -0.3653 -0.5397  0.0361
 6472SOL    HW130875   2.602   3.581   3.866 -0.2814 -0.4237  2.1165
 6472SOL    HW230876   2.720   3.635   3.938  0.5061  0.4840 -0.3485
 6473SOL     OW30877   1.948   1.296   8.533  0.4275 -0.3023 -0.1159
 6473SOL    HW130878   1.900   1.372   8.565  1.6072  0.4511 -0.1127
 6473SOL    HW230879   1.996   1.267   8.611  0.5050 -0.1381 -0.1006
 6474SOL     OW30880   1.442   4.386   0.292 -0.3525 -0.0267  0.1266
 6474SOL    HW130881   1.433   4.417   0.382  1.2318  0.4294  0.1190
 6474SOL    HW230882   1.395   4.461   0.255 -0.0193  0.2133  0.1868
 6475SOL     OW30883   2.404   4.598   1.882 -0.4695 -0.8566 -0.2796
 6475SOL    HW130884   2.469   4.644   1.935 -0.4035 -1.3147  0.0340
 6475SOL    HW230885   2.461   4.558   1.817  0.6610 -0.1773  0.3097
 6476SOL     OW30886   2.233   3.210   0.022 -0.7153  0.3685 -0.0321
 6476SOL    HW130887   2.238   3.217  17.615  2.0452 -1.3771 -0.0323
 6476SOL    HW230888   2.186   3.129   0.043  2.1200 -1.2563  0.0659
 6477SOL     OW30889   3.329   0.686   7.220  0.1208  0.0457  0.1182
 6477SOL    HW130890   3.289   0.629   7.154  0.3315 -2.1088  1.8669
 6477SOL    HW230891   3.411   0.707   7.175  0.9234  0.0518  1.6185
 6478SOL     OW30892   3.442   4.689  12.581  0.2192  0.3830  0.1595
 6478SOL    HW130893   3.527   0.005  12.559  1.2112 -1.9334  0.1542
 6478SOL    HW230894   3.450   4.594  12.580 -0.7725  0.3096 -1.4143
 6479SOL     OW30895   2.008   1.716  15.202 -0.0844 -0.0596 -0.0905
 6479SOL    HW130896   1.959   1.795  15.182 -0.2378 -0.5526 -1.6720
 6479SOL    HW230897   1.947   1.665  15.255  1.7518 -2.3581 -0.1810
 6480SOL     OW30898   0.265   2.471   4.945 -0.1331  0.2300 -0.2515
 6480SOL    HW130899   0.258   2.437   5.035 -1.3585 -0.9787 -0.8016
 6480SOL    HW230900   0.173   2.473   4.920 -0.0446 -0.9204 -0.6689
 6481SOL     OW30901   2.627   2.949   5.328  0.4645  0.2085 -0.4202
 6481SOL    HW130902   2.599   2.887   5.261 -0.6542 -0.7087  0.8956
 6481SOL    HW230903   2.547   2.998   5.346  0.2908 -0.0638 -0.4448
 6482SOL     OW30904   0.243   2.017   8.472  0.8115 -0.0013 -0.4475
 6482SOL    HW130905   0.211   2.075   8.540 -2.2080 -0.2003 -1.6927
 6482SOL    HW230906   0.162   2.011   8.421 -0.4338 -1.7129  1.6916
 6483SOL     OW30907   0.323   4.456   9.366  0.1252 -0.1095 -0.6275
 6483SOL    HW130908   0.263   4.522   9.333 -1.4530 -1.7909 -1.1310
 6483SOL    HW230909   0.395   4.512   9.396  0.7941 -1.0889 -0.3905
 6484SOL     OW30910   1.324   3.335  15.615  0.5746  0.1874  0.2518
 6484SOL    HW130911   1.298   3.275  15.685  0.5186 -1.3573 -1.0968
 6484SOL    HW230912   1.239   3.376  15.599 -0.7233 -2.4715  0.4096
 6485SOL     OW30913   2.065   1.882   5.822  0.1955 -0.2335  0.5904
 6485SOL    HW130914   2.141   1.879   5.764  0.0790  3.5992  0.2912
 6485SOL    HW230915   2.098   1.872   5.911  0.4563 -1.0213  0.4111
 6486SOL     OW30916   4.485   2.743   3.462 -0.6600 -0.3779 -0.0119
 6486SOL    HW130917   4.539   2.794   3.522  0.8641 -1.3166 -0.6053
 6486SOL    HW230918   4.547   2.716   3.395  1.1345  1.1887  1.0256
 6487SOL     OW30919   2.367   3.074   3.504  0.6959 -0.2525 -0.4026
 6487SOL    HW130920   2.437   3.133   3.476  0.0674  0.9232  0.5049
 6487SOL    HW230921   2.359   3.091   3.598 -1.3337  0.7521 -0.7738
 6488SOL     OW30922   3.047   2.662   7.894 -0.4642 -0.4001 -0.3842
 6488SOL    HW130923   3.124   2.686   7.842  0.2429 -1.8662 -0.0189
 6488SOL    HW230924   3.092   2.593   7.943 -2.8399 -1.7729 -0.1393
 6489SOL     OW30925   3.677   3.838   3.001  0.0382  0.3258  0.5336
 6489SOL    HW130926   3.684   3.786   3.082  0.8832 -0.3893 -0.0047
 6489SOL    HW230927   3.628   3.774   2.949  2.2664 -0.4536 -0.5831
 6490SOL     OW30928   2.589   2.302   3.840  0.3742  0.1526 -0.2490
 6490SOL    HW130929   2.664   2.330   3.788  1.7528  0.5885  1.9501
 6490SOL    HW230930   2.519   2.295   3.776 -3.7201  0.7512  4.1830
 6491SOL     OW30931   3.125   3.197   8.859  0.3498  0.3446 -0.1829
 6491SOL    HW130932   3.117   3.149   8.776 -0.4127 -1.9987  1.2258
 6491SOL    HW230933   3.101   3.285   8.828 -0.0063  0.0771 -0.6766
 6492SOL     OW30934   2.371   2.176   5.281 -0.8566  0.1625 -0.2858
 6492SOL    HW130935   2.327   2.192   5.364  0.5511  0.6847  0.3680
 6492SOL    HW230936   2.396   2.263   5.251 -2.3110  0.8516  0.4809
 6493SOL     OW30937   1.773   4.040   2.320 -0.5724  0.0586 -0.2502
 6493SOL    HW130938   1.681   4.011   2.321 -1.3701  2.6205 -0.1121
 6493SOL    HW230939   1.783   4.095   2.397 -2.5150 -1.5601  1.1552
 6494SOL     OW30940   0.550   1.475  16.773  0.0290 -0.3957  0.5336
 6494SOL    HW130941   0.621   1.516  16.823 -0.0027  0.4224 -0.0967
 6494SOL    HW230942   0.482   1.479  16.840 -0.0969  0.8947  0.3271
 6495SOL     OW30943   4.216   2.493   7.248 -0.5586 -0.1922 -0.0370
 6495SOL    HW130944   4.297   2.447   7.228 -0.5058 -0.8154  1.6254
 6495SOL    HW230945   4.185   2.496   7.158  0.2925 -0.7858 -0.3414
 6496SOL     OW30946   3.524   0.352   2.068  0.5884  0.1928  0.7629
 6496SOL    HW130947   3.479   0.268   2.074  0.8509 -0.0579 -0.8019
 6496SOL    HW230948   3.519   0.375   1.975  1.7586 -0.3646  0.5610
 6497SOL     OW30949   1.013   1.160   4.185  0.0321 -0.0559 -0.2622
 6497SOL    HW130950   0.967   1.236   4.219 -0.4700 -0.7388  0.5797
 6497SOL    HW230951   1.032   1.196   4.099 -0.9510  1.6946  0.2659
 6498SOL     OW30952   2.704   1.752   5.429  0.2058  0.5775 -0.0683
 6498SOL    HW130953   2.675   1.662   5.420  0.7323  0.0917  2.9838
 6498SOL    HW230954   2.778   1.756   5.367  1.3578  0.0586  1.2685
 6499SOL     OW30955   0.398   3.066   2.914 -0.0160  0.6272  0.3353
 6499SOL    HW130956   0.336   3.115   2.968 -0.3746  0.2299  0.2798
 6499SOL    HW230957   0.483   3.092   2.951 -0.5734  0.2117  1.9106
 6500SOL     OW30958   2.555   3.351   4.034 -0.1538  0.0927  0.4134
 6500SOL    HW130959   2.618   3.323   4.100  1.0021 -1.5693 -1.4008
 6500SOL    HW230960   2.604   3.351   3.952 -2.4762  1.2602 -0.9500
 6501SOL     OW30961   3.889   1.188   1.608 -0.0625  0.2354  0.2101
 6501SOL    HW130962   3.955   1.165   1.543  0.5631  0.7909  0.6481
 6501SOL    HW230963   3.898   1.119   1.674 -1.2611  0.3691  0.5166
 6502SOL     OW30964   3.406   2.843  12.811 -0.0615  0.0509  0.2559
 6502SOL    HW130965   3.360   2.918  12.773 -0.9253 -0.4630  0.2691
 6502SOL    HW230966   3.453   2.874  12.888 -2.3801 -0.1942  1.7772
 6503SOL     OW30967   4.122   1.563   3.991 -0.9606 -0.2408 -0.2236
 6503SOL    HW130968   4.163   1.495   4.044  1.7866  0.4952 -1.3659
 6503SOL    HW230969   4.167   1.556   3.907 -0.9711 -1.9870 -0.0878
 6504SOL     OW30970   0.978   2.521   3.715  0.5924 -0.1703  0.3164
 6504SOL    HW130971   0.890   2.533   3.751  0.7488 -0.6537  0.8598
 6504SOL    HW230972   0.966   2.558   3.627 -0.1910 -0.0035  0.4892
 6505SOL     OW30973   0.643   2.324   1.050  0.0699  0.5822  0.3376
 6505SOL    HW130974   0.610   2.412   1.069 -0.7019  0.0797  1.2907
 6505SOL    HW230975   0.587   2.305   0.975  1.7060  1.2027 -1.0367
 6506SOL     OW30976   2.817   4.042  16.165  0.1854 -0.3766  0.0476
 6506SOL    HW130977   2.723   4.042  16.183  0.2203  0.1738  0.2405
 6506SOL    HW230978   2.831   4.070  16.075  2.3389  2.2572  1.2031
 6507SOL     OW30979   3.224   3.054   5.039 -0.1322  0.0693 -0.1658
 6507SOL    HW130980   3.198   2.994   4.970 -0.0363 -1.5836  1.2359
 6507SOL    HW230981   3.237   3.134   4.988 -2.2218 -0.4778 -1.5634
 6508SOL     OW30982   4.080   1.113   1.405  0.0515  0.2325 -0.2280
 6508SOL    HW130983   4.152   1.068   1.450 -0.1323 -1.6014 -1.7892
 6508SOL    HW230984   4.063   1.045   1.340 -1.3292  0.1102  0.2676
 6509SOL     OW30985   1.367   1.245   5.131  0.4186 -0.1435 -0.0170
 6509SOL    HW130986   1.413   1.324   5.159  0.8138 -0.4322  0.1474
 6509SOL    HW230987   1.361   1.253   5.036  1.2901 -0.4497 -0.1050
 6510SOL     OW30988   4.057   3.816  11.469 -0.2009  0.5652 -0.7348
 6510SOL    HW130989   4.144   3.827  11.430  0.6235  1.7742  1.4035
 6510SOL    HW230990   4.015   3.783  11.390 -1.3080 -1.9954  0.9309
 6511SOL     OW30991   4.159   1.013   4.358 -0.6944 -0.1446 -0.7042
 6511SOL    HW130992   4.187   0.924   4.378  0.0499  0.2829  0.1356
 6511SOL    HW230993   4.097   1.031   4.428  1.3309  0.3907  0.9248
 6512SOL     OW30994   0.835   1.299   3.789  0.0675 -0.0138 -0.2446
 6512SOL    HW130995   0.853   1.249   3.709 -2.8939 -1.9127  0.2644
 6512SOL    HW230996   0.740   1.305   3.782 -0.1491 -3.9962 -0.9846
 6513SOL     OW30997   2.162   2.908  13.091  0.4120  0.3061 -0.7544
 6513SOL    HW130998   2.165   2.921  12.996  0.1885  0.6895 -0.7096
 6513SOL    HW230999   2.236   2.963  13.117 -1.0225  2.0255 -0.2976
 6514SOL     OW31000   2.078   1.690   6.708  0.8446  0.1907  0.4670
 6514SOL    HW131001   2.029   1.617   6.744  3.3549 -2.2997 -1.1951
 6514SOL    HW231002   2.036   1.763   6.753 -0.9730  0.0158 -0.9263
 6515SOL     OW31003   2.189   0.955  16.811  0.6539 -0.3268 -0.0720
 6515SOL    HW131004   2.119   0.968  16.746  0.3741 -0.9361  0.1074
 6515SOL    HW231005   2.153   0.880  16.859 -0.7472  0.5614  0.2659
 6516SOL     OW31006   1.561   0.201   9.628  0.2219 -0.3360 -0.0422
 6516SOL    HW131007   1.552   0.248   9.545 -1.3484  0.8516  0.7940
 6516SOL    HW231008   1.512   0.265   9.679  2.7931  0.8485  0.9248
 6517SOL     OW31009   1.791   0.895   5.920 -0.0967  0.2400 -0.0686
 6517SOL    HW131010   1.741   0.814   5.936  1.2830 -0.1842  2.1102
 6517SOL    HW231011   1.883   0.871   5.916  0.5336  2.1643  2.8869
 6518SOL     OW31012   0.514   0.648   7.986 -0.1226 -0.3397  0.2137
 6518SOL    HW131013   0.577   0.706   8.028  1.1390 -1.2547 -0.4150
 6518SOL    HW231014   0.572   0.594   7.932  0.7960 -0.7934  1.6570
 6519SOL     OW31015   0.703   4.010  14.298  0.0421  0.4725  0.2906
 6519SOL    HW131016   0.654   4.078  14.344 -0.6918  0.1926 -0.0628
 6519SOL    HW231017   0.666   4.019  14.210 -0.4542  1.4373  0.6010
 6520SOL     OW31018   4.011   2.130   6.046 -1.0071  0.7165 -0.3769
 6520SOL    HW131019   4.052   2.214   6.027 -2.1283  0.8560 -2.1529
 6520SOL    HW231020   3.951   2.168   6.110 -0.7278 -1.8352  1.4004
 6521SOL     OW31021   4.597   1.963   6.054  0.0300 -0.1176  0.2767
 6521SOL    HW131022   4.552   2.047   6.062 -1.1400 -0.6786 -0.4218
 6521SOL    HW231023   4.615   1.947   6.147  0.0945  2.2417  0.6675
 6522SOL     OW31024   3.787   4.578   9.648 -1.0450  0.6039  0.6706
 6522SOL    HW131025   3.790   4.483   9.659  1.8551  0.8249  1.5115
 6522SOL    HW231026   3.793   4.577   9.552 -0.8864  0.1841  0.6845
 6523SOL     OW31027   1.677   3.963   4.358 -0.7431  0.0960  0.0648
 6523SOL    HW131028   1.721   3.885   4.392  2.1405  0.8348 -1.9327
 6523SOL    HW231029   1.604   3.963   4.419 -2.4356 -2.5858 -1.9355
 6524SOL     OW31030   3.639   1.118   0.328 -0.1581 -0.1397  0.7638
 6524SOL    HW131031   3.555   1.102   0.370 -0.1093 -0.7244  0.6447
 6524SOL    HW231032   3.700   1.094   0.398  0.6842 -1.2923 -0.3631
 6525SOL     OW31033   2.841   2.048   4.042 -0.1252 -0.1483  0.6357
 6525SOL    HW131034   2.784   2.112   4.083 -0.0210 -0.1600  0.7986
 6525SOL    HW231035   2.873   2.096   3.966 -1.5746  0.0995  0.1931
 6526SOL     OW31036   1.671   2.719   3.555 -0.2342  0.0404  0.5472
 6526SOL    HW131037   1.588   2.763   3.538 -0.4615 -0.0765  1.3833
 6526SOL    HW231038   1.689   2.760   3.640 -0.5955 -0.5469  0.9090
 6527SOL     OW31039   4.186   2.253   7.498 -0.0456 -0.1462  0.6996
 6527SOL    HW131040   4.248   2.324   7.477 -1.0114  0.8065  1.0896
 6527SOL    HW231041   4.207   2.184   7.435 -1.3649 -1.1093  1.3326
 6528SOL     OW31042   0.512   2.504   5.369  0.7317  0.1380  0.0891
 6528SOL    HW131043   0.548   2.453   5.441  1.7150  0.2502 -0.3197
 6528SOL    HW231044   0.492   2.428   5.314 -2.8862  0.6370  0.7098
 6529SOL     OW31045   4.402   4.090   5.557  0.2348  0.7287  0.0194
 6529SOL    HW131046   4.447   4.169   5.528 -2.9362  2.8129  0.7894
 6529SOL    HW231047   4.414   4.088   5.652  0.8740  0.4697 -0.0650
 6530SOL     OW31048   1.491   0.340   4.264 -0.2824 -0.3711  0.0536
 6530SOL    HW131049   1.465   0.292   4.343  1.7086 -1.0226  0.3180
 6530SOL    HW231050   1.574   0.296   4.244 -0.0589 -0.7170  1.7239
 6531SOL     OW31051   4.094   3.039   0.965  0.3802 -0.3003  0.2804
 6531SOL    HW131052   4.162   3.013   1.027  0.1698 -2.5311 -0.4374
 6531SOL    HW231053   4.022   2.980   0.987  0.1599  0.2446  1.0309
 6532SOL     OW31054   3.596   2.702   1.456  0.2109 -0.1958 -0.1922
 6532SOL    HW131055   3.530   2.740   1.512  1.7178  1.1907  0.6451
 6532SOL    HW231056   3.666   2.681   1.518 -0.5933  1.7607  1.3464
 6533SOL     OW31057   3.806   3.274   2.134  0.1741 -0.2785 -0.2102
 6533SOL    HW131058   3.854   3.348   2.170  0.4475 -1.0941  1.0951
 6533SOL    HW231059   3.745   3.254   2.204  0.3221  1.8723  0.5350
 6534SOL     OW31060   2.942   3.272   2.999 -0.2743 -0.2416 -0.0415
 6534SOL    HW131061   2.896   3.343   3.043 -1.6367 -0.4252 -1.1698
 6534SOL    HW231062   3.024   3.269   3.048 -0.5291 -1.5042  0.3285
 6535SOL     OW31063   3.279   0.266   8.643  1.2036  0.7560 -0.2291
 6535SOL    HW131064   3.345   0.238   8.579 -0.0245  0.6246 -1.4478
 6535SOL    HW231065   3.263   0.182   8.686 -0.6839  1.5377  0.6086
 6536SOL     OW31066   2.555   2.660  12.943 -0.1731 -0.2395 -0.2935
 6536SOL    HW131067   2.479   2.714  12.919 -1.4536 -1.5225  0.8647
 6536SOL    HW231068   2.625   2.725  12.932  1.2801 -1.5613  1.0717
 6537SOL     OW31069   4.647   0.978   6.995 -0.2353 -0.4259  0.3411
 6537SOL    HW131070   4.693   0.902   7.031  2.4982  1.2927  0.4282
 6537SOL    HW231071   4.558   0.969   7.029 -0.8163 -0.5198 -1.2150
 6538SOL     OW31072   2.421   1.791   9.023 -0.1663 -0.0573  0.4684
 6538SOL    HW131073   2.482   1.720   9.045  0.7421  0.6439  0.2076
 6538SOL    HW231074   2.459   1.827   8.943 -2.2199 -0.3847 -0.6412
 6539SOL     OW31075   3.423   2.793   6.045  0.3084 -0.0296  0.6144
 6539SOL    HW131076   3.497   2.780   6.104  0.7507 -0.6967 -0.0838
 6539SOL    HW231077   3.432   2.709   6.001  2.5783  0.1182  0.7949
 6540SOL     OW31078   3.144   1.355   4.809  0.1480  0.0431 -0.0836
 6540SOL    HW131079   3.147   1.389   4.720 -1.9847 -2.2852 -1.0497
 6540SOL    HW231080   3.213   1.288   4.807  0.8932  0.8576 -1.6242
 6541SOL     OW31081   3.184   2.539   9.127  0.4212 -0.0252 -0.0216
 6541SOL    HW131082   3.254   2.553   9.063  0.4822  1.0689  0.2727
 6541SOL    HW231083   3.226   2.566   9.209  0.9801 -0.2192 -0.2407
 6542SOL     OW31084   1.315   0.483   9.196 -0.6268  0.5094  0.3356
 6542SOL    HW131085   1.387   0.525   9.149 -0.1917  0.7195  1.1968
 6542SOL    HW231086   1.289   0.548   9.261 -1.3173 -0.2717  0.8348
 6543SOL     OW31087   1.602   1.947   7.956 -0.4662 -0.3227 -0.0831
 6543SOL    HW131088   1.620   1.985   8.042 -0.8244  1.4772 -0.8150
 6543SOL    HW231089   1.642   1.861   7.967  1.1552  0.1870 -2.0168
 6544SOL     OW31090   1.495   0.510  11.538 -0.0350 -0.0264 -0.2674
 6544SOL    HW131091   1.457   0.423  11.527  2.3785 -0.9876 -0.8467
 6544SOL    HW231092   1.495   0.527  11.632  1.6381 -1.4762 -0.0084
 6545SOL     OW31093   1.519   0.599   8.287  0.6239 -0.4464  0.5652
 6545SOL    HW131094   1.472   0.516   8.298  0.3055 -0.3692 -0.2410
 6545SOL    HW231095   1.564   0.574   8.207  0.5447 -1.4041  0.8147
 6546SOL     OW31096   4.473   4.378   1.566 -0.0930 -0.1147 -0.2957
 6546SOL    HW131097   4.505   4.291   1.589  1.8725  0.7869  0.4139
 6546SOL    HW231098   4.385   4.371   1.601 -0.3338 -3.0044 -1.5361
 6547SOL     OW31099   2.407   0.896   9.472  0.0538  0.0640  0.7296
 6547SOL    HW131100   2.484   0.844   9.447 -0.7710 -0.4772 -0.7087
 6547SOL    HW231101   2.449   0.951   9.538  2.4460 -0.6777 -0.1632
 6548SOL     OW31102   2.676   3.701   2.092 -0.0656  0.0654 -0.3823
 6548SOL    HW131103   2.617   3.753   2.038 -0.0615  1.0312  0.5470
 6548SOL    HW231104   2.624   3.627   2.122 -0.6590 -0.5706 -2.9561
 6549SOL     OW31105   3.521   2.254   3.861 -0.2836  0.2197  0.3161
 6549SOL    HW131106   3.527   2.162   3.887 -0.8377  0.0496 -0.1555
 6549SOL    HW231107   3.507   2.302   3.943  2.1148 -0.0613  0.8894
 6550SOL     OW31108   3.667   3.945   6.222 -0.2136 -0.3744 -0.2907
 6550SOL    HW131109   3.696   3.855   6.234  2.4066  0.3022 -1.4439
 6550SOL    HW231110   3.757   3.978   6.226 -0.3870 -0.0355  0.7329
 6551SOL     OW31111   0.777   0.786   4.900  0.2334  0.3656 -0.1446
 6551SOL    HW131112   0.852   0.833   4.938 -0.9031  1.2427  0.9987
 6551SOL    HW231113   0.770   0.827   4.814  0.4878 -0.8192 -0.7212
 6552SOL     OW31114   2.613   3.053   4.511  0.1728 -0.0421 -0.0876
 6552SOL    HW131115   2.704   3.030   4.528  0.0868 -0.9004 -0.8426
 6552SOL    HW231116   2.607   3.027   4.419  1.3660  0.1343 -0.2153
 6553SOL     OW31117   0.935   4.506   5.947 -0.2163 -0.5722  0.0030
 6553SOL    HW131118   0.992   4.429   5.937 -0.6202 -0.7100 -1.2482
 6553SOL    HW231119   0.853   4.466   5.918  0.6308 -1.1005 -1.6920
 6554SOL     OW31120   2.157   3.522   3.147  0.2736 -0.2302  0.6806
 6554SOL    HW131121   2.229   3.463   3.171  0.4944 -0.1410  0.2289
 6554SOL    HW231122   2.078   3.469   3.145 -0.9568  1.6829 -0.8394
 6555SOL     OW31123   3.177   0.208  15.565 -0.3513 -0.0062 -0.0933
 6555SOL    HW131124   3.199   0.200  15.658 -1.6070 -3.3421 -0.0821
 6555SOL    HW231125   3.256   0.242  15.523 -0.5028 -1.3814 -1.4451
 6556SOL     OW31126   3.393   3.959   8.196  0.2556  0.4428 -0.5577
 6556SOL    HW131127   3.397   3.995   8.284  1.2200  1.4007 -0.9902
 6556SOL    HW231128   3.422   4.037   8.149 -0.6028 -0.0683 -1.9194
 6557SOL     OW31129   1.475   2.248   5.692  0.1519  0.0549  0.2417
 6557SOL    HW131130   1.431   2.163   5.684 -1.2437  0.8825 -1.0033
 6557SOL    HW231131   1.430   2.289   5.765 -0.7960  0.9485 -0.8494
 6558SOL     OW31132   0.009   1.818  10.975  0.4823 -0.3062 -0.8408
 6558SOL    HW131133   0.093   1.783  11.007  0.8406  0.6766 -0.6960
 6558SOL    HW231134   4.715   1.749  10.911 -0.1428 -1.3564  0.4233
 6559SOL     OW31135   3.727   4.249   1.059 -0.4188 -0.7450 -0.0658
 6559SOL    HW131136   3.714   4.205   1.143  2.0849 -0.9490  0.2247
 6559SOL    HW231137   3.701   4.181   0.996 -0.9112 -0.5662 -0.0576
 6560SOL     OW31138   4.004   3.294   7.504 -0.1270 -0.0647  0.3737
 6560SOL    HW131139   3.925   3.301   7.451  0.4458  1.4524 -0.2964
 6560SOL    HW231140   3.975   3.326   7.590  1.8919  0.5195  0.8520
 6561SOL     OW31141   1.222   2.312   4.152  0.4450 -0.2984 -0.7738
 6561SOL    HW131142   1.165   2.280   4.222  0.4832  0.2975 -0.4740
 6561SOL    HW231143   1.155   2.348   4.094 -0.9900  0.4254  1.3581
 6562SOL     OW31144   2.380   0.735   4.905 -0.4401 -0.3221 -0.2581
 6562SOL    HW131145   2.309   0.691   4.951  1.3375 -2.6190  0.2922
 6562SOL    HW231146   2.338   0.820   4.890 -0.1693 -0.3407 -1.1456
 6563SOL     OW31147   2.696   0.271  17.103 -0.3475  0.0909  0.0553
 6563SOL    HW131148   2.677   0.223  17.183 -1.0987 -0.0606 -0.2203
 6563SOL    HW231149   2.784   0.304  17.124 -0.1064  0.2559 -1.1849
 6564SOL     OW31150   0.068   1.888   3.073  0.3316 -0.1577 -0.4441
 6564SOL    HW131151   0.111   1.807   3.047 -0.4321 -0.5207 -0.5471
 6564SOL    HW231152   0.115   1.959   3.028 -1.9601  1.2216 -0.6622
 6565SOL     OW31153   4.510   2.496   5.566  0.2668  0.5839  0.6194
 6565SOL    HW131154   4.551   2.581   5.584  1.3816  0.7290 -2.6256
 6565SOL    HW231155   4.520   2.493   5.471  2.5880  0.5371  0.8711
 6566SOL     OW31156   1.993   1.174   9.371  0.0792 -0.0040 -0.2938
 6566SOL    HW131157   1.917   1.117   9.380  0.4506 -0.6340 -1.1535
 6566SOL    HW231158   1.986   1.198   9.464 -0.9408 -1.7822  0.0962
 6567SOL     OW31159   1.901   1.905   4.684  0.1895 -0.1373 -0.1603
 6567SOL    HW131160   1.870   1.881   4.771 -1.4675  0.3735 -0.6028
 6567SOL    HW231161   1.856   1.835   4.637  0.7630 -0.9353  0.4814
 6568SOL     OW31162   2.578   0.984   4.974  0.0311  0.2306 -0.1941
 6568SOL    HW131163   2.510   1.038   5.015 -0.4661 -1.1761  0.8639
 6568SOL    HW231164   2.532   0.921   4.919  0.7498 -1.3583  1.0335
 6569SOL     OW31165   1.536   4.083   2.067 -0.3510 -0.2736  0.0868
 6569SOL    HW131166   1.505   4.164   2.107  0.5170  0.0826  0.0173
 6569SOL    HW231167   1.610   4.111   2.014  0.1612 -1.2243  0.3016
 6570SOL     OW31168   1.061   3.143   3.770  1.2334 -0.0147  0.6456
 6570SOL    HW131169   1.082   3.094   3.850 -0.3057  0.2120  1.1996
 6570SOL    HW231170   0.969   3.158   3.791  1.1439  0.1724  0.1018
 6571SOL     OW31171   2.365   2.545   8.934 -0.3079  0.1250  0.5493
 6571SOL    HW131172   2.430   2.551   9.004  0.0627  1.7962  0.0405
 6571SOL    HW231173   2.391   2.467   8.885 -1.7829 -0.7740  1.1742
 6572SOL     OW31174   2.169   0.421  12.553  0.0216 -0.0724 -0.5953
 6572SOL    HW131175   2.113   0.363  12.500 -1.3374  1.2491 -0.5892
 6572SOL    HW231176   2.100   0.484  12.571 -0.4232 -0.9052  0.6521
 6573SOL     OW31177   1.371   0.032   7.733  0.0658  0.3405 -0.3406
 6573SOL    HW131178   1.323   0.113   7.718 -1.1049 -0.5513 -1.4010
 6573SOL    HW231179   1.307   4.690   7.699 -0.4130  0.4053  0.4385
 6574SOL     OW31180   1.468   3.317   9.748  0.1318 -0.0500  0.3525
 6574SOL    HW131181   1.484   3.236   9.700  1.8266 -0.8778  2.3299
 6574SOL    HW231182   1.379   3.302   9.780  0.0653  0.3108  0.3392
 6575SOL     OW31183   2.659   0.878   3.278  0.1875 -0.2579 -0.1830
 6575SOL    HW131184   2.571   0.846   3.257 -0.4553  0.7581  1.0291
 6575SOL    HW231185   2.653   0.882   3.373  0.3386  1.6265 -0.2627
 6576SOL     OW31186   3.554   1.163   4.134  0.0659  0.2512  0.4529
 6576SOL    HW131187   3.469   1.164   4.091  0.1262 -0.2691  0.3218
 6576SOL    HW231188   3.621   1.125   4.077 -0.1428 -1.1586  1.1527
 6577SOL     OW31189   3.327   3.280   4.246  0.2588  0.4544  0.0948
 6577SOL    HW131190   3.368   3.196   4.228 -2.1191 -0.2401 -2.0676
 6577SOL    HW231191   3.349   3.335   4.171  1.8661  0.9032  0.8873
 6578SOL     OW31192   2.495   1.868   9.289  0.6686 -0.5964 -0.3933
 6578SOL    HW131193   2.468   1.778   9.270 -0.2144 -0.9571  2.6478
 6578SOL    HW231194   2.512   1.886   9.197  0.4128  0.5321 -0.2113
 6579SOL     OW31195   1.845   2.443   8.318  0.1626 -0.3214  0.3304
 6579SOL    HW131196   1.798   2.486   8.389 -1.5811  1.5294 -1.9422
 6579SOL    HW231197   1.911   2.384   8.354  1.3331 -0.1636 -1.5462
 6580SOL     OW31198   4.100   4.260  10.563 -0.7981  0.0203 -0.3453
 6580SOL    HW131199   4.148   4.299  10.637  0.0986 -0.5794 -0.6111
 6580SOL    HW231200   4.070   4.341  10.521 -0.7497 -0.7541 -1.8621
 6581SOL     OW31201   0.879   0.681   3.735  0.3828 -0.6805 -0.9880
 6581SOL    HW131202   0.816   0.634   3.680 -1.0819  2.4598 -2.0083
 6581SOL    HW231203   0.926   0.606   3.771  2.1176  0.8291 -0.0987
 6582SOL     OW31204   3.174   3.309   7.846 -0.3765  0.6610  0.2644
 6582SOL    HW131205   3.212   3.334   7.930 -2.8937  0.5806  1.4199
 6582SOL    HW231206   3.133   3.224   7.859  2.5833 -0.8683 -0.5650
 6583SOL     OW31207   3.580   2.049   8.167 -0.2277 -0.2155  0.1599
 6583SOL    HW131208   3.675   2.063   8.164 -0.0040 -1.7476  0.0422
 6583SOL    HW231209   3.546   2.130   8.128 -1.0842 -0.3410  0.6483
 6584SOL     OW31210   0.627   3.759   5.211  0.5560 -0.0460 -0.1388
 6584SOL    HW131211   0.653   3.746   5.119 -2.6520 -1.3356 -0.8679
 6584SOL    HW231212   0.711   3.739   5.252 -0.0355  0.6633  1.4259
 6585SOL     OW31213   2.881   1.351   2.712  0.3249 -0.0201  0.0565
 6585SOL    HW131214   2.868   1.306   2.628 -0.1989 -0.3308  0.3054
 6585SOL    HW231215   2.793   1.334   2.746  0.9089 -1.2309  0.9298
 6586SOL     OW31216   0.181   2.794   4.675 -0.1103 -0.1250  0.0454
 6586SOL    HW131217   0.259   2.758   4.716  1.3557  1.9499 -0.9148
 6586SOL    HW231218   0.154   2.731   4.608  0.4424 -0.6084  0.2813
 6587SOL     OW31219   2.143   3.358  17.437  0.7244 -0.1426 -0.5535
 6587SOL    HW131220   2.050   3.335  17.427  1.0012 -2.3951  2.0133
 6587SOL    HW231221   2.184   3.272  17.428 -0.1881 -0.6582  0.1229
 6588SOL     OW31222   1.615   0.364   6.389  0.0174  0.1350 -0.0646
 6588SOL    HW131223   1.673   0.289   6.375  1.9582  2.2398 -3.4228
 6588SOL    HW231224   1.592   0.374   6.296 -1.7022  1.0725  0.4643
 6589SOL     OW31225   3.546   2.177   3.599  0.4325 -0.2350 -0.0416
 6589SOL    HW131226   3.532   2.220   3.684 -2.6586  0.5056 -0.9246
 6589SOL    HW231227   3.458   2.141   3.592  0.2126 -0.1902  2.3522
 6590SOL     OW31228   0.128   1.695  15.941  0.1811  0.2163  0.2371
 6590SOL    HW131229   0.119   1.783  15.978  2.3140  0.7681 -0.4994
 6590SOL    HW231230   0.222   1.691  15.923  0.8723  0.2986  3.8126
 6591SOL     OW31231   2.567   0.819   7.981 -0.2136 -0.0427 -0.1022
 6591SOL    HW131232   2.641   0.810   8.041  0.0970 -0.2216 -0.5139
 6591SOL    HW231233   2.573   0.747   7.919 -0.9925  1.0683 -1.4601
 6592SOL     OW31234   4.071   0.348   3.144  0.2483 -0.1169 -0.1119
 6592SOL    HW131235   4.020   0.304   3.076  0.9945 -1.0878 -0.0398
 6592SOL    HW231236   4.018   0.341   3.224  2.3609 -2.9360  1.0519
 6593SOL     OW31237   2.373   1.239   5.703 -0.1213  0.2859 -0.2694
 6593SOL    HW131238   2.282   1.211   5.707 -0.2537  0.7564 -0.1040
 6593SOL    HW231239   2.389   1.224   5.610 -0.4402 -1.2121 -0.0844
 6594SOL     OW31240   1.019   1.557   6.192 -0.1927 -0.3606 -0.2617
 6594SOL    HW131241   1.062   1.625   6.140 -0.0151  1.5381  2.3824
 6594SOL    HW231242   1.089   1.525   6.250 -0.0930 -0.3496 -0.3754
 6595SOL     OW31243   2.607   4.539   6.331  0.0808 -0.6141 -0.1322
 6595SOL    HW131244   2.536   4.478   6.313 -0.1959 -0.4930  0.5392
 6595SOL    HW231245   2.662   4.523   6.254  1.2557 -2.2797  1.0394
 6596SOL     OW31246   0.733   1.492   5.222 -0.0690  0.3093 -0.1743
 6596SOL    HW131247   0.743   1.428   5.293 -0.8548  0.5987  0.1968
 6596SOL    HW231248   0.644   1.468   5.196  1.1231 -1.1689 -2.8987
 6597SOL     OW31249   3.650   2.732   3.950  0.1747  0.0903  0.5634
 6597SOL    HW131250   3.728   2.788   3.950 -0.5313  1.0629 -0.7899
 6597SOL    HW231251   3.636   2.705   3.859  0.6278 -1.1561  0.8646
 6598SOL     OW31252   1.943   0.920   9.111 -0.2298 -0.2161  0.1560
 6598SOL    HW131253   1.894   0.992   9.151  0.5625  1.7010 -2.3532
 6598SOL    HW231254   1.892   0.875   9.043  1.6826  0.7191 -1.8938
 6599SOL     OW31255   2.046   3.672   8.553  0.1834 -0.0975 -0.7067
 6599SOL    HW131256   2.017   3.759   8.578  2.4829 -0.3411  2.8456
 6599SOL    HW231257   2.109   3.687   8.483  0.6741  0.8070 -0.0673
 6600SOL     OW31258   2.061   4.275   1.204 -0.1749  0.5502  0.0180
 6600SOL    HW131259   2.079   4.238   1.290  0.0247  1.6266  0.4438
 6600SOL    HW231260   2.120   4.226   1.146  0.8739  1.4471  0.3124
 6601SOL     OW31261   1.091   3.230   7.527 -0.1492 -0.1966  0.9390
 6601SOL    HW131262   0.997   3.242   7.545 -0.2504 -0.5004  0.6095
 6601SOL    HW231263   1.082   3.170   7.453  0.0864 -0.2336  0.9406
 6602SOL     OW31264   3.543   4.532  10.127 -0.3700 -0.3271 -0.4891
 6602SOL    HW131265   3.541   4.466  10.196  0.5042  1.1214  0.9437
 6602SOL    HW231266   3.558   4.482  10.048  0.7721  0.5001 -0.7978
 6603SOL     OW31267   2.068   1.341  15.502 -0.9324 -0.8600  0.1708
 6603SOL    HW131268   1.984   1.348  15.456 -0.2217 -1.0171 -1.1407
 6603SOL    HW231269   2.036   1.311  15.587 -1.1258  0.6250  0.6213
 6604SOL     OW31270   4.514   0.074   7.629 -0.4799  0.6716 -0.3926
 6604SOL    HW131271   4.532   0.078   7.724 -0.4862  0.7620 -0.3959
 6604SOL    HW231272   4.573   0.141   7.595  2.3223 -0.3857  2.3120
 6605SOL     OW31273   3.574   1.889  16.686 -0.5077 -0.3421 -0.0755
 6605SOL    HW131274   3.652   1.894  16.741 -1.7553  0.1145  1.6844
 6605SOL    HW231275   3.538   1.969  16.724  0.5895 -0.0451  0.3287
 6606SOL     OW31276   2.926   3.991   1.751  0.1995  0.3453 -0.2311
 6606SOL    HW131277   2.946   3.903   1.783 -1.2016 -0.1278 -0.6274
 6606SOL    HW231278   3.016   4.018   1.735  0.2663 -1.4582 -2.9160
 6607SOL     OW31279   3.970   1.345   3.258  0.3544  0.1430  0.0177
 6607SOL    HW131280   3.926   1.369   3.340 -0.6073 -1.7484  0.0693
 6607SOL    HW231281   3.892   1.341   3.202 -0.2943  2.9915  0.7166
 6608SOL     OW31282   1.446   4.559   2.318 -0.3938 -0.2315 -0.4082
 6608SOL    HW131283   1.385   4.487   2.336 -1.7370  0.6818 -1.2619
 6608SOL    HW231284   1.381   4.616   2.276 -1.1760 -0.9224 -0.1483
 6609SOL     OW31285   4.536   1.047  17.455 -0.4082 -0.0324 -0.2518
 6609SOL    HW131286   4.571   1.121  17.504 -1.3737 -0.1849  0.7039
 6609SOL    HW231287   4.564   1.059  17.365  0.8863  0.5270  0.2213
 6610SOL     OW31288   1.342   3.947   3.446  0.2334  0.6043  0.4199
 6610SOL    HW131289   1.421   3.893   3.445  0.3822  0.8385 -0.1765
 6610SOL    HW231290   1.284   3.873   3.428  1.5194 -0.0453 -1.0302
 6611SOL     OW31291   0.701   2.378   3.554  0.4214  0.4048  0.5851
 6611SOL    HW131292   0.626   2.428   3.584  0.1822 -0.3105  1.1678
 6611SOL    HW231293   0.664   2.316   3.492  0.7610  0.0340  0.7579
 6612SOL     OW31294   3.274   2.153   5.450 -0.0334 -0.1970  0.9032
 6612SOL    HW131295   3.271   2.232   5.504  0.3886  0.0530  0.5639
 6612SOL    HW231296   3.236   2.203   5.378 -2.2349 -0.3884  1.9373
 6613SOL     OW31297   1.303   1.864   7.921 -0.1220 -0.3371  0.2924
 6613SOL    HW131298   1.360   1.788   7.934 -0.1374  0.1398  3.0466
 6613SOL    HW231299   1.365   1.933   7.945 -0.1192 -1.1898  2.6485
 6614SOL     OW31300   1.339   3.122   5.918  0.2215 -0.1623 -0.5120
 6614SOL    HW131301   1.293   3.139   5.835 -2.8800  0.1529  1.2581
 6614SOL    HW231302   1.286   3.054   5.960  0.5780 -0.8100 -1.1158
 6615SOL     OW31303   1.254   4.374   8.604  0.2862  0.8088  1.2425
 6615SOL    HW131304   1.247   4.413   8.517 -1.0411  1.5187  1.6697
 6615SOL    HW231305   1.180   4.407   8.654 -0.3483  2.6345 -0.9230
 6616SOL     OW31306   2.155   1.701   5.576  0.1862  0.0983  0.2127
 6616SOL    HW131307   2.172   1.632   5.639 -0.6018  0.7442  1.1294
 6616SOL    HW231308   2.204   1.664   5.502 -0.5501 -1.2654  0.4010
 6617SOL     OW31309   1.824   1.952   2.209  0.1754 -0.5445 -0.5062
 6617SOL    HW131310   1.824   1.968   2.304  2.0322 -0.7551 -0.4832
 6617SOL    HW231311   1.798   2.039   2.179 -0.5250 -0.7167 -0.3946
 6618SOL     OW31312   3.829   1.516   3.844  0.1122  0.3360 -0.4233
 6618SOL    HW131313   3.900   1.544   3.902  1.5217 -2.0216 -1.0336
 6618SOL    HW231314   3.749   1.529   3.896  1.2295 -0.8972  1.5870
 6619SOL     OW31315   3.141   3.858   1.860  0.4045 -0.4134  0.4475
 6619SOL    HW131316   3.199   3.792   1.821  0.6562 -0.2960  0.6202
 6619SOL    HW231317   3.194   3.872   1.939  0.6733 -0.9039  0.3601
 6620SOL     OW31318   2.399   4.220   2.636  0.2447  0.0876  0.9989
 6620SOL    HW131319   2.475   4.162   2.636  0.2770  0.1280  2.1846
 6620SOL    HW231320   2.336   4.159   2.674 -2.0999  0.1773 -2.7689
 6621SOL     OW31321   1.170   3.152   2.038 -0.2856 -0.2198 -0.0443
 6621SOL    HW131322   1.260   3.168   2.065 -0.0215  1.2079 -1.8113
 6621SOL    HW231323   1.125   3.233   2.060 -0.2378 -0.7063  1.8058
 6622SOL     OW31324   3.843   4.184   2.320 -0.3956 -0.1194  0.5379
 6622SOL    HW131325   3.838   4.278   2.336 -1.3358  0.2117 -1.7228
 6622SOL    HW231326   3.935   4.170   2.344  0.5934  2.7352 -1.5643
 6623SOL     OW31327   1.700   1.097   8.640  0.3569  0.0691 -0.1719
 6623SOL    HW131328   1.662   1.014   8.668 -0.0634 -0.2354 -1.6441
 6623SOL    HW231329   1.759   1.106   8.715  1.8639 -1.3506 -1.1856
 6624SOL     OW31330   2.319   2.327   4.273 -0.6491  0.3099 -0.6880
 6624SOL    HW131331   2.371   2.249   4.253 -0.3432  0.3458 -0.0158
 6624SOL    HW231332   2.290   2.315   4.363 -0.5809  1.9036 -0.4445
 6625SOL     OW31333   0.313   4.230   8.386  0.5940  0.0998 -0.1025
 6625SOL    HW131334   0.326   4.284   8.308  1.3199 -0.2630 -0.2326
 6625SOL    HW231335   0.276   4.288   8.451  0.4978  1.1738 -1.1197
 6626SOL     OW31336   0.069   3.233   8.277  0.2839 -0.7553  0.4440
 6626SOL    HW131337   0.045   3.242   8.185  1.4897 -1.8456  0.0242
 6626SOL    HW231338   0.131   3.162   8.265  0.0800 -0.9350  0.4527
 6627SOL     OW31339   0.946   0.845   2.818  0.6193  0.3321 -0.4410
 6627SOL    HW131340   0.966   0.934   2.845  0.9152  0.6714 -1.7854
 6627SOL    HW231341   1.020   0.822   2.763  1.2287  2.3478 -0.4457
 6628SOL     OW31342   3.468   1.422   2.970 -0.8335  0.5674 -0.1190
 6628SOL    HW131343   3.534   1.480   3.008  0.3438 -0.3678 -0.7703
 6628SOL    HW231344   3.520   1.347   2.942 -0.5323  0.9630 -0.6123
 6629SOL     OW31345   3.003   1.874  10.718  0.5587  0.0496  0.4543
 6629SOL    HW131346   2.954   1.804  10.760  1.9810  0.2085  2.4051
 6629SOL    HW231347   3.063   1.915  10.781 -0.2113  3.4405 -1.0079
 6630SOL     OW31348   3.059   1.609  10.801 -0.2485 -0.3198 -0.2598
 6630SOL    HW131349   3.121   1.598  10.874  0.2997  0.8969 -0.5538
 6630SOL    HW231350   3.072   1.531  10.747 -0.1304  0.2809 -1.0851
 6631SOL     OW31351   1.932   1.600   6.353 -0.3176 -0.5734 -0.6092
 6631SOL    HW131352   1.911   1.659   6.425  2.0461 -1.3851  0.7219
 6631SOL    HW231353   1.984   1.649   6.290 -2.4790  1.4945 -0.8106
 6632SOL     OW31354   2.649   3.872   9.293  0.3405 -0.0550  0.0316
 6632SOL    HW131355   2.597   3.819   9.233 -0.3043 -1.7275  2.0682
 6632SOL    HW231356   2.572   3.914   9.331  0.0910 -1.0535  0.6284
 6633SOL     OW31357   2.393   2.275   1.963 -0.2547  0.2635  0.1512
 6633SOL    HW131358   2.393   2.240   2.052 -0.3603 -0.7457 -0.2530
 6633SOL    HW231359   2.326   2.343   1.973  0.5395  1.4089 -2.3185
 6634SOL     OW31360   2.920   1.624   2.671  0.3511  0.2854 -0.1431
 6634SOL    HW131361   2.881   1.648   2.755  1.5898 -1.1399  0.8339
 6634SOL    HW231362   2.919   1.528   2.668  0.1530  0.2157  2.4666
 6635SOL     OW31363   2.838   4.707  17.616 -0.1773 -0.5868 -0.1819
 6635SOL    HW131364   2.915   0.006  17.670  1.0490  1.2299 -2.5994
 6635SOL    HW231365   2.783   0.061  17.636  0.5555  0.1506 -0.9221
 6636SOL     OW31366   1.207   4.400   2.312  0.1607  0.0554 -0.0086
 6636SOL    HW131367   1.141   4.445   2.364 -0.5294 -1.8737  0.8140
 6636SOL    HW231368   1.165   4.363   2.235  1.7119  0.2782 -0.9658
 6637SOL     OW31369   1.714   4.392   7.076 -0.9046 -0.2549 -0.2196
 6637SOL    HW131370   1.619   4.399   7.082 -1.0160 -0.3410 -1.8391
 6637SOL    HW231371   1.735   4.319   7.134 -0.6492 -0.7287 -0.9079
 6638SOL     OW31372   4.342   0.957   7.102 -0.3696  0.1127  0.1228
 6638SOL    HW131373   4.346   0.862   7.097  1.4982  0.0547  2.8767
 6638SOL    HW231374   4.278   0.974   7.171 -1.9910  0.6082 -1.4758
 6639SOL     OW31375   0.140   4.026   3.904  0.1620 -0.1675 -0.3302
 6639SOL    HW131376   0.155   3.961   3.835  0.1315 -0.6574  0.1212
 6639SOL    HW231377   0.230   4.057   3.915  0.9523 -2.8239  0.7891
 6640SOL     OW31378   2.373   0.282  13.700  0.1527  0.5076 -0.4915
 6640SOL    HW131379   2.278   0.283  13.689  0.0230 -0.5975  0.6367
 6640SOL    HW231380   2.393   0.271  13.607 -0.3895  3.4944 -0.9934
 6641SOL     OW31381   1.792   1.679   7.942 -0.3875  0.1512  0.2225
 6641SOL    HW131382   1.715   1.663   7.888  0.6031 -0.0680 -1.1125
 6641SOL    HW231383   1.805   1.589   7.971  0.1280 -0.4125 -1.7804
 6642SOL     OW31384   3.678   4.310   6.902 -0.3174  0.2938 -0.2705
 6642SOL    HW131385   3.590   4.272   6.900  0.2577 -1.0792  0.6084
 6642SOL    HW231386   3.694   4.351   6.987  1.6989  2.7338 -1.8302
 6643SOL     OW31387   3.277   1.257   6.099  0.3370  0.4824  0.0855
 6643SOL    HW131388   3.206   1.320   6.108 -1.1995 -1.0986 -0.8804
 6643SOL    HW231389   3.236   1.196   6.161  0.3895  1.4396  1.0479
 6644SOL     OW31390   0.691   4.208   7.000  0.5305 -0.3024 -0.0082
 6644SOL    HW131391   0.617   4.200   6.940  0.3064 -0.8615  0.3541
 6644SOL    HW231392   0.683   4.121   7.039 -1.5320  0.8143  2.0208
 6645SOL     OW31393   0.494   2.511   4.019  0.6809  0.1501  0.4613
 6645SOL    HW131394   0.483   2.418   4.001  2.7476 -0.1691  0.7467
 6645SOL    HW231395   0.562   2.501   4.087  0.4737  1.3780  0.8498
 6646SOL     OW31396   1.804   0.161  16.239 -0.3928  0.2331  0.3854
 6646SOL    HW131397   1.811   0.239  16.183 -1.0641  1.4385  1.9895
 6646SOL    HW231398   1.896   0.136  16.248 -0.6467 -0.7874  0.0820
 6647SOL     OW31399   0.791   1.900   7.828  0.1049  0.2735  0.4952
 6647SOL    HW131400   0.868   1.850   7.854 -0.0513 -0.2720 -0.0921
 6647SOL    HW231401   0.729   1.875   7.897 -0.3619  0.1281  0.0213
 6648SOL     OW31402   0.727   1.012   7.179  0.2530  0.0727  0.5620
 6648SOL    HW131403   0.702   0.927   7.143  0.3097  0.2023  0.2145
 6648SOL    HW231404   0.745   1.076   7.110  2.1077 -0.9059  0.1517
 6649SOL     OW31405   4.075   0.319  11.948  0.3994  0.2519  0.4793
 6649SOL    HW131406   4.149   0.379  11.957  1.6972 -1.1492 -1.0233
 6649SOL    HW231407   4.004   0.357  12.000  1.0807  1.0032  0.8664
 6650SOL     OW31408   2.211   2.027  13.939 -0.5919  0.5687  0.0225
 6650SOL    HW131409   2.206   2.071  14.024 -2.7667  1.4655 -0.5443
 6650SOL    HW231410   2.177   1.940  13.958  2.5373 -0.3981  1.1980
 6651SOL     OW31411   1.606   1.979   7.693 -0.1800  0.5070  0.1075
 6651SOL    HW131412   1.517   1.957   7.665  0.6389  0.3664 -2.4605
 6651SOL    HW231413   1.601   1.950   7.784 -0.7313 -0.9563 -0.3901
 6652SOL     OW31414   0.224   0.117   7.675  0.0823  1.0223 -0.3383
 6652SOL    HW131415   0.264   0.134   7.760  0.0711  0.2258 -0.1755
 6652SOL    HW231416   0.171   0.040   7.694  0.1174  1.0015 -0.3260
 6653SOL     OW31417   3.640   4.620   8.884  0.1456 -0.7665 -0.6857
 6653SOL    HW131418   3.554   4.635   8.922 -0.1418 -5.6081  0.6395
 6653SOL    HW231419   3.698   4.662   8.948  1.1953 -3.7176  0.3107
 6654SOL     OW31420   0.816   3.215  12.677 -0.5863  0.0576 -0.2093
 6654SOL    HW131421   0.904   3.242  12.701 -0.4618 -1.4057  0.9833
 6654SOL    HW231422   0.779   3.303  12.682  0.4643  0.6097 -2.1094
 6655SOL     OW31423   4.527   0.869  14.783  0.0678 -0.4317  0.1825
 6655SOL    HW131424   4.454   0.890  14.842  0.0542  0.4004 -0.1249
 6655SOL    HW231425   4.525   0.773  14.785 -1.4399 -0.4255 -0.4531
 6656SOL     OW31426   3.960   2.154   6.827  0.2461 -0.2953 -0.0561
 6656SOL    HW131427   4.036   2.097   6.839  1.2201  1.0601  0.2497
 6656SOL    HW231428   3.946   2.176   6.920 -2.1574 -0.6183 -0.3429
 6657SOL     OW31429   3.826   0.126   4.643  0.1570  0.7160 -0.0122
 6657SOL    HW131430   3.917   0.156   4.644  0.5922 -0.6435  0.4987
 6657SOL    HW231431   3.794   0.157   4.558 -0.1087  0.3756 -0.0379
 6658SOL     OW31432   1.847   2.632  16.574 -0.5618 -0.3255  0.5435
 6658SOL    HW131433   1.834   2.574  16.499 -0.5751  0.4440 -0.0458
 6658SOL    HW231434   1.938   2.659  16.564 -0.3070 -1.3879 -0.1199
 6659SOL     OW31435   2.852   4.350   5.317 -0.0976 -0.1029 -0.0281
 6659SOL    HW131436   2.840   4.432   5.366  0.0169 -0.8365  1.2330
 6659SOL    HW231437   2.824   4.287   5.383  0.7580  1.2031  1.5954
 6660SOL     OW31438   4.049   3.511   4.236 -0.5174  0.4627  0.0862
 6660SOL    HW131439   4.125   3.496   4.180  0.2577  0.4527  1.1342
 6660SOL    HW231440   4.057   3.436   4.295 -0.8952  1.0044  0.8340
 6661SOL     OW31441   2.371   3.079  13.135 -0.9941 -0.4589  0.4238
 6661SOL    HW131442   2.447   3.079  13.077 -1.9196  2.4307 -0.7789
 6661SOL    HW231443   2.361   3.172  13.154  1.5670  0.3354 -2.1499
 6662SOL     OW31444   0.583   4.114  12.282  0.2991  0.1457  0.2362
 6662SOL    HW131445   0.599   4.060  12.205  0.1518 -1.0148  1.0150
 6662SOL    HW231446   0.543   4.196  12.252  0.1566 -0.1291 -0.3107
 6663SOL     OW31447   2.075   1.867   8.744 -0.7510  0.3440  0.0561
 6663SOL    HW131448   2.035   1.897   8.663 -2.4582 -0.3694  0.6250
 6663SOL    HW231449   2.164   1.843   8.719 -0.3534 -0.4073  2.1873
 6664SOL     OW31450   2.270   1.683  11.726 -0.0833  0.5074  0.3181
 6664SOL    HW131451   2.275   1.655  11.634  2.6061 -0.6793  0.8253
 6664SOL    HW231452   2.206   1.621  11.761 -1.4223  1.3924 -0.5643
 6665SOL     OW31453   1.351   0.858   5.926 -0.2148 -0.4197  0.0989
 6665SOL    HW131454   1.291   0.933   5.934  2.4581  1.5355  1.7757
 6665SOL    HW231455   1.380   0.838   6.014  0.3063  1.0307  0.2552
 6666SOL     OW31456   1.689   1.729  13.863  0.1328 -0.0870 -0.0117
 6666SOL    HW131457   1.775   1.750  13.825  0.4579  2.0661  1.9515
 6666SOL    HW231458   1.626   1.722  13.791  1.3069 -2.1658 -0.8433
 6667SOL     OW31459   3.707   2.203  17.554 -0.5546  0.3876 -0.0240
 6667SOL    HW131460   3.668   2.122  17.519  3.0520 -1.0121 -0.7603
 6667SOL    HW231461   3.727   2.165  17.639  2.5750  0.4192 -0.7603
 6668SOL     OW31462   3.153   3.950  15.884 -0.2464  0.0721 -0.4056
 6668SOL    HW131463   3.204   3.878  15.920  2.2915  1.7989 -0.5654
 6668SOL    HW231464   3.068   3.906  15.891  0.5401 -0.9855  2.5687
 6669SOL     OW31465   2.256   0.759   5.267  0.1634 -0.0602  0.3370
 6669SOL    HW131466   2.329   0.715   5.311  0.2793 -0.3174 -0.1114
 6669SOL    HW231467   2.217   0.681   5.226  1.2252  0.7032 -2.0902
 6670SOL     OW31468   1.937   4.706   3.295  0.0650  0.1855  0.1404
 6670SOL    HW131469   1.899   0.069   3.320 -0.8246 -0.6090  1.4586
 6670SOL    HW231470   2.008   4.691   3.357 -1.4220  3.2361  2.5882
 6671SOL     OW31471   4.103   1.232   3.755 -0.5174  0.0671 -0.1991
 6671SOL    HW131472   4.150   1.315   3.767  1.6846 -0.8075 -2.6509
 6671SOL    HW231473   4.136   1.214   3.667  0.6920  3.0064 -0.3721
 6672SOL     OW31474   2.287   2.817   8.945  0.0760  0.9785  0.1673
 6672SOL    HW131475   2.378   2.835   8.920 -0.3456  0.3670 -1.8255
 6672SOL    HW231476   2.287   2.722   8.946 -0.1900  0.9890  1.1838
 6673SOL     OW31477   2.499   0.193  11.005 -0.0727  0.4249  0.2567
 6673SOL    HW131478   2.420   0.188  10.951  0.1338 -1.5956  0.1133
 6673SOL    HW231479   2.561   0.230  10.942  0.2567 -0.6937 -0.0785
 6674SOL     OW31480   1.844   1.716   5.801  0.4162  0.6189  0.2218
 6674SOL    HW131481   1.931   1.756   5.807  0.3476  0.4443  2.6360
 6674SOL    HW231482   1.791   1.777   5.853 -1.8057 -2.6962  1.8026
 6675SOL     OW31483   0.487   2.770   8.487 -0.1322  0.9979 -0.4543
 6675SOL    HW131484   0.431   2.725   8.551  2.7005 -0.3244  1.1170
 6675SOL    HW231485   0.449   2.746   8.403 -0.8525 -0.0948  0.1897
 6676SOL     OW31486   4.521   1.863  16.855 -0.1497  0.1002  0.2784
 6676SOL    HW131487   4.577   1.838  16.781  0.8799  2.4410  0.2526
 6676SOL    HW231488   4.545   1.793  16.915  0.5679  0.5949  0.5715
 6677SOL     OW31489   3.075   1.101  11.793 -0.4680 -0.2749  0.3227
 6677SOL    HW131490   3.090   1.178  11.739 -1.0680 -1.5192 -1.6204
 6677SOL    HW231491   3.129   1.045  11.736  1.0251  0.1571  1.2979
 6678SOL     OW31492   3.262   2.292   0.188 -0.5951 -0.1519 -0.2452
 6678SOL    HW131493   3.293   2.366   0.241 -0.0032 -0.6102  0.0400
 6678SOL    HW231494   3.182   2.265   0.232  1.4228 -2.2141  2.1910
 6679SOL     OW31495   2.983   0.110   7.097 -0.2743  0.1256 -0.2019
 6679SOL    HW131496   3.046   0.080   7.031  2.7577 -0.1633  2.8198
 6679SOL    HW231497   2.930   0.035   7.120 -0.8200 -0.5309 -3.5178
 6680SOL     OW31498   3.380   3.665  10.811 -0.1686 -0.0750 -0.2400
 6680SOL    HW131499   3.351   3.743  10.858  1.2828  0.3412 -0.0396
 6680SOL    HW231500   3.314   3.598  10.830  0.2678  0.2971  2.6430
 6681SOL     OW31501   2.935   3.420  10.655  0.0071  0.2779 -0.0340
 6681SOL    HW131502   2.864   3.427  10.719 -1.8298 -0.1030 -2.0591
 6681SOL    HW231503   2.913   3.480  10.584  0.4394 -0.0937 -0.4723
 6682SOL     OW31504   0.530   3.367   4.025 -0.3188 -0.1821 -0.1801
 6682SOL    HW131505   0.598   3.300   4.025 -0.9859 -0.8614 -1.3514
 6682SOL    HW231506   0.492   3.356   3.938  1.6685 -0.2186 -1.0364
 6683SOL     OW31507   1.733   2.294  15.772  0.1438  0.8332 -0.0006
 6683SOL    HW131508   1.659   2.320  15.826  0.1398 -2.1895  1.4617
 6683SOL    HW231509   1.702   2.208  15.742 -0.7459  1.0206  0.4064
 6684SOL     OW31510   4.156   1.396  11.389 -0.2217  0.5145  0.2713
 6684SOL    HW131511   4.173   1.303  11.373 -1.4733 -0.0185  1.9986
 6684SOL    HW231512   4.111   1.417  11.308  0.8231  0.4348 -0.3250
 6685SOL     OW31513   1.966   0.623   4.747  0.0958  0.5049  0.1183
 6685SOL    HW131514   1.883   0.664   4.774 -0.6832 -0.8926 -0.1755
 6685SOL    HW231515   1.927   0.540   4.719 -0.6955  0.2543  1.9577
 6686SOL     OW31516   2.863   2.546   9.435 -0.1143  0.0970 -0.5361
 6686SOL    HW131517   2.807   2.618   9.465 -1.4210 -1.1057 -0.0889
 6686SOL    HW231518   2.803   2.473   9.451 -0.2185  0.6463  1.6287
 6687SOL     OW31519   2.415   1.337   6.397 -0.6709 -0.4271  0.0813
 6687SOL    HW131520   2.422   1.309   6.489  1.8084  0.6822  0.2227
 6687SOL    HW231521   2.415   1.432   6.411  1.5353  0.0810 -3.4212
 6688SOL     OW31522   2.362   1.838   0.715 -0.2698 -0.0021  0.2512
 6688SOL    HW131523   2.325   1.827   0.802 -1.8005 -0.3136 -0.4413
 6688SOL    HW231524   2.351   1.753   0.671  2.0124 -0.4685  0.5712
 6689SOL     OW31525   3.537   0.534   8.235 -0.1820 -0.2050  0.1065
 6689SOL    HW131526   3.464   0.529   8.172 -1.5313  0.7609  1.5862
 6689SOL    HW231527   3.493   0.581   8.306  0.9307 -0.1829  0.7853
 6690SOL     OW31528   4.409   4.068  15.322 -0.5150  0.3601  0.3219
 6690SOL    HW131529   4.406   4.083  15.228  2.6258 -0.3273  0.1275
 6690SOL    HW231530   4.321   4.095  15.350 -0.8083  0.5033 -0.7360
 6691SOL     OW31531   0.047   2.810   3.069  0.2941 -0.1814 -0.2298
 6691SOL    HW131532   0.115   2.852   3.122 -0.5089 -0.1710  0.7887
 6691SOL    HW231533   0.068   2.717   3.066  0.0771 -0.2810  1.3966
 6692SOL     OW31534   3.264   3.054  15.810 -0.6652 -0.0905 -0.5668
 6692SOL    HW131535   3.303   2.969  15.789 -0.9379 -0.3198 -0.1597
 6692SOL    HW231536   3.176   3.033  15.779 -0.2262 -1.6418 -0.7647
 6693SOL     OW31537   2.953   2.761   9.851 -0.3132  0.1289  0.0322
 6693SOL    HW131538   2.971   2.714   9.933  2.8197  0.1905 -0.6364
 6693SOL    HW231539   3.031   2.814   9.836 -1.0180  1.2212  0.2091
 6694SOL     OW31540   1.537   4.326   1.801 -0.5471  0.2102 -0.0992
 6694SOL    HW131541   1.536   4.297   1.893 -2.6573  0.1655 -0.1352
 6694SOL    HW231542   1.456   4.376   1.807 -1.5105 -1.2589 -0.9108
 6695SOL     OW31543   1.695   3.863   7.485 -0.1676  0.0005 -0.1503
 6695SOL    HW131544   1.722   3.831   7.571  0.8324  2.2289  0.3680
 6695SOL    HW231545   1.653   3.785   7.446 -0.8067  0.9650 -1.4022
 6696SOL     OW31546   0.912   0.203  14.358 -0.1876 -0.1694 -0.0590
 6696SOL    HW131547   0.865   0.281  14.386 -1.2021 -0.0167 -2.2295
 6696SOL    HW231548   0.998   0.231  14.326  0.1595 -1.7245 -0.5232
 6697SOL     OW31549   0.375   3.506   8.542 -0.0425  0.4485  0.0212
 6697SOL    HW131550   0.313   3.554   8.487  0.5912  1.8550  0.5167
 6697SOL    HW231551   0.401   3.578   8.600  1.4098  1.2813 -1.6749
 6698SOL     OW31552   3.875   4.613   2.731 -0.1349 -0.5141  0.1327
 6698SOL    HW131553   3.878   4.702   2.766 -0.8994 -0.7554  0.8000
 6698SOL    HW231554   3.818   4.574   2.797 -2.1241  3.6215  0.8642
 6699SOL     OW31555   0.701   1.503   3.952 -0.2649  0.4686  0.4539
 6699SOL    HW131556   0.746   1.475   3.872  0.3412 -0.1307  1.0052
 6699SOL    HW231557   0.677   1.423   3.999 -0.8121  1.1883  1.3897
 6700SOL     OW31558   1.938   2.464   9.917 -0.0508  0.1449 -0.2298
 6700SOL    HW131559   1.958   2.402   9.988  2.2091  0.0671 -0.9242
 6700SOL    HW231560   1.846   2.443   9.903  0.0402  0.6116 -1.5081
 6701SOL     OW31561   3.609   1.210   2.905 -0.2291  0.0400 -0.1649
 6701SOL    HW131562   3.667   1.139   2.879  1.5757  0.8641  1.6325
 6701SOL    HW231563   3.559   1.201   2.823 -2.5772 -0.4666  1.3113
 6702SOL     OW31564   1.306   3.427   4.715  0.1849 -0.4610 -0.0010
 6702SOL    HW131565   1.239   3.385   4.770  1.5135 -0.1319  1.8631
 6702SOL    HW231566   1.258   3.475   4.647  0.5978  1.5975  1.1379
 6703SOL     OW31567   2.618   2.083   8.480 -0.4553 -0.0088 -0.6272
 6703SOL    HW131568   2.682   2.154   8.487  0.5517 -0.9870  0.0717
 6703SOL    HW231569   2.662   2.004   8.447  4.1114  2.0819  0.4555
 6704SOL     OW31570   1.312   2.750   7.401 -0.0361  0.1623 -0.2683
 6704SOL    HW131571   1.308   2.671   7.347  1.0503 -0.0868  0.0027
 6704SOL    HW231572   1.300   2.714   7.490 -1.0999 -1.1126 -0.9292
 6705SOL     OW31573   4.495   1.142   6.756  1.0962 -0.2744  0.4633
 6705SOL    HW131574   4.497   1.233   6.783  0.2618  0.0381 -0.5020
 6705SOL    HW231575   4.541   1.093   6.824  0.6784 -1.8165 -0.3509
 6706SOL     OW31576   0.753   2.557   3.833  0.1343  0.1898 -0.0948
 6706SOL    HW131577   0.686   2.571   3.767  0.6870  0.8058 -0.5243
 6706SOL    HW231578   0.703   2.556   3.914  1.8724 -1.3044  0.9822
 6707SOL     OW31579   4.378   3.647   9.093 -0.1204  0.4539 -0.5165
 6707SOL    HW131580   4.350   3.575   9.149 -0.0182  2.2536  1.8480
 6707SOL    HW231581   4.471   3.639   9.113 -0.2068  0.4501 -0.1264
 6708SOL     OW31582   1.744   3.700   2.717  0.4077 -0.3182 -0.7141
 6708SOL    HW131583   1.780   3.715   2.630  0.5231 -1.0763 -0.7932
 6708SOL    HW231584   1.661   3.747   2.715 -0.6092 -2.2069 -1.9507
 6709SOL     OW31585   1.394   3.117   3.111 -0.9373  0.0981 -0.0617
 6709SOL    HW131586   1.355   3.070   3.037 -1.6847  1.2332 -0.3934
 6709SOL    HW231587   1.371   3.060   3.184 -3.5915  1.2663 -0.0054
 6710SOL     OW31588   2.070   2.856   5.131 -0.6333 -0.3123 -0.2848
 6710SOL    HW131589   1.990   2.874   5.180 -0.6759 -1.7141  0.1730
 6710SOL    HW231590   2.117   2.795   5.188 -1.1135  0.6643  1.1640
 6711SOL     OW31591   3.676   3.866   0.412 -0.5930 -0.4108 -0.6435
 6711SOL    HW131592   3.699   3.923   0.486 -0.8129  0.6659 -1.4158
 6711SOL    HW231593   3.640   3.935   0.357  0.2528  1.0404  0.6043
 6712SOL     OW31594   2.877   0.508   2.801  0.6353  0.1025  0.6112
 6712SOL    HW131595   2.832   0.590   2.822  1.5017  0.2835  1.7455
 6712SOL    HW231596   2.919   0.497   2.887  0.0309 -0.3700  0.8405
 6713SOL     OW31597   1.091   1.386   2.856 -0.0868 -0.0406  0.3814
 6713SOL    HW131598   1.164   1.425   2.904  0.7216  0.6718 -1.4601
 6713SOL    HW231599   1.118   1.404   2.766  0.8085  1.5857  0.9792
 6714SOL     OW31600   2.145   3.917   5.037 -0.3077  0.2740 -0.0899
 6714SOL    HW131601   2.231   3.944   5.069  0.0465 -0.5892 -0.3157
 6714SOL    HW231602   2.142   3.824   5.058  1.5479  0.1481 -0.3598
 6715SOL     OW31603   1.254   0.202   4.153  0.1733  0.0901 -0.0107
 6715SOL    HW131604   1.278   0.126   4.100 -0.3767 -1.3032  1.7532
 6715SOL    HW231605   1.341   0.235   4.171  1.1476 -1.2850 -2.1891
 6716SOL     OW31606   4.043   3.491   5.724  0.4841  0.2588 -0.7901
 6716SOL    HW131607   3.970   3.430   5.731 -0.3029  1.1873 -0.9285
 6716SOL    HW231608   4.027   3.529   5.638 -1.3005 -1.2078 -1.0926
 6717SOL     OW31609   3.785   0.450   2.180 -0.0159 -0.2826 -0.2585
 6717SOL    HW131610   3.827   0.367   2.157 -1.2382 -0.9007 -0.2610
 6717SOL    HW231611   3.702   0.439   2.132 -1.6375  0.8358  2.2968
 6718SOL     OW31612   0.799   4.321   4.924  0.3499  0.7137  0.6057
 6718SOL    HW131613   0.742   4.298   4.851  0.9353 -0.6093  0.5634
 6718SOL    HW231614   0.742   4.373   4.980 -0.2322  1.3202 -0.5644
 6719SOL     OW31615   1.207   3.140   8.327  0.1707  0.1840 -0.4456
 6719SOL    HW131616   1.270   3.212   8.325 -0.8345  1.1671  2.5368
 6719SOL    HW231617   1.205   3.103   8.238  0.2597 -0.7470 -0.0617
 6720SOL     OW31618   3.844   1.314   0.200 -0.4488 -0.0378 -0.0608
 6720SOL    HW131619   3.855   1.220   0.216  1.0071  0.3636  1.2716
 6720SOL    HW231620   3.928   1.353   0.224 -0.3454  0.2199 -0.8267
 6721SOL     OW31621   4.687   2.853   1.187  0.0576  0.2022  0.4196
 6721SOL    HW131622   4.623   2.909   1.143  1.7849  0.1093 -2.2328
 6721SOL    HW231623   4.633   2.774   1.177 -0.1152  0.6606 -2.5035
 6722SOL     OW31624   1.493   2.802   5.287 -0.1103 -0.4659  0.5172
 6722SOL    HW131625   1.509   2.725   5.232  2.3014  0.7685 -0.4914
 6722SOL    HW231626   1.423   2.767   5.343  0.0004 -1.2526  0.1654
 6723SOL     OW31627   0.816   3.438   2.514 -0.2691 -0.1427 -0.0025
 6723SOL    HW131628   0.797   3.422   2.607 -1.2312 -1.1143 -0.3695
 6723SOL    HW231629   0.767   3.518   2.497 -1.1184 -0.8660 -0.9404
 6724SOL     OW31630   3.067   4.428   1.765  0.0847  0.1987  0.5034
 6724SOL    HW131631   3.041   4.382   1.845 -1.1982  0.0329 -0.0142
 6724SOL    HW231632   3.099   4.513   1.798 -1.5227  0.7501  0.6696
 6725SOL     OW31633   4.231   1.790   2.783  0.0568 -0.0040 -0.6859
 6725SOL    HW131634   4.301   1.825   2.839 -0.4030 -0.4211  0.1598
 6725SOL    HW231635   4.236   1.870   2.731  0.2299  0.9226  0.7403
 6726SOL     OW31636   0.410   1.554  12.986  0.4507  0.5163  0.2511
 6726SOL    HW131637   0.438   1.466  13.011  0.2435 -0.2742 -2.3551
 6726SOL    HW231638   0.472   1.612  13.031  0.8811 -1.3628  2.0510
 6727SOL     OW31639   4.115   4.532   3.876 -0.2242  0.6971  0.0834
 6727SOL    HW131640   4.150   4.444   3.893  0.6325  0.6835 -1.8047
 6727SOL    HW231641   4.025   4.503   3.859  0.7130 -0.0988 -3.4570
 6728SOL     OW31642   2.619   4.219   0.395  0.1280  0.3853  0.0569
 6728SOL    HW131643   2.620   4.197   0.488 -2.2909 -1.3082 -0.3055
 6728SOL    HW231644   2.655   4.308   0.404 -2.7511  1.5516  0.0908
 6729SOL     OW31645   3.070   1.037   7.208  0.0773 -0.4634 -0.3848
 6729SOL    HW131646   3.014   1.107   7.173  0.5740  0.1332  0.0308
 6729SOL    HW231647   3.019   1.001   7.281 -2.0410 -0.7839 -2.0160
 6730SOL     OW31648   4.059   2.460  12.157  0.5705  0.6292  0.1804
 6730SOL    HW131649   4.065   2.472  12.062  1.7935  1.3861  0.3558
 6730SOL    HW231650   4.058   2.366  12.169 -0.3853  0.6210  0.0241
 6731SOL     OW31651   0.301   4.055  15.778 -0.0807  0.1621  0.3623
 6731SOL    HW131652   0.212   4.049  15.743 -1.0022  0.7391  2.6347
 6731SOL    HW231653   0.286   4.027  15.868  1.6442  1.1300  0.9433
 6732SOL     OW31654   0.108   1.295   4.855 -0.0654 -0.0463 -0.3600
 6732SOL    HW131655   0.046   1.255   4.794  1.6140 -2.6096 -0.3668
 6732SOL    HW231656   0.081   1.387   4.856 -1.7189 -0.5190 -0.9111
 6733SOL     OW31657   0.872   2.805   7.389  0.3046 -0.3445  0.0845
 6733SOL    HW131658   0.881   2.822   7.483 -0.9426  1.9434 -0.2066
 6733SOL    HW231659   0.919   2.722   7.385 -0.0479 -0.5906  0.8996
 6734SOL     OW31660   1.829   3.990   3.158  0.4574 -0.2990 -0.9219
 6734SOL    HW131661   1.737   4.015   3.157 -0.1611 -2.6494 -0.2604
 6734SOL    HW231662   1.832   3.925   3.088 -1.8871 -0.4756 -0.8429
 6735SOL     OW31663   1.164   3.966   5.127  0.5121  0.0285 -1.2022
 6735SOL    HW131664   1.119   3.891   5.087  1.6705 -1.3055 -0.0308
 6735SOL    HW231665   1.255   3.938   5.114  0.5641  0.3549 -1.5427
 6736SOL     OW31666   0.969   0.192   8.576 -0.0538  0.3175 -0.2151
 6736SOL    HW131667   1.053   0.228   8.546  1.5173  1.0591  5.1179
 6736SOL    HW231668   0.952   0.261   8.639 -0.3124  1.6912 -1.7836
 6737SOL     OW31669   4.107   4.127  13.227 -0.6083  0.0139  0.2908
 6737SOL    HW131670   4.076   4.048  13.272  0.5021  0.9791  2.7063
 6737SOL    HW231671   4.024   4.175  13.226  0.7616  2.3715 -0.4098
 6738SOL     OW31672   4.318   0.928   2.753 -0.0201 -0.0333  0.0847
 6738SOL    HW131673   4.264   0.891   2.683  0.9053 -2.5212  0.6942
 6738SOL    HW231674   4.362   0.998   2.704  0.1964  0.7285  1.3748
 6739SOL     OW31675   3.350   2.201   4.279 -0.2141  0.7618  0.0460
 6739SOL    HW131676   3.326   2.171   4.366 -0.7932  1.7778  0.2327
 6739SOL    HW231677   3.384   2.290   4.292  0.5623  0.7218 -1.6995
 6740SOL     OW31678   4.461   1.625   8.916 -0.3364  0.7486 -0.1385
 6740SOL    HW131679   4.514   1.644   8.838  0.0908  0.2736  0.0291
 6740SOL    HW231680   4.523   1.647   8.985  1.1674 -1.1737 -0.8467
 6741SOL     OW31681   2.965   4.137   1.437 -0.1830 -0.9723 -0.6272
 6741SOL    HW131682   3.019   4.167   1.510  0.2786 -1.7535 -0.6450
 6741SOL    HW231683   2.917   4.217   1.414  3.8202  1.6363  0.0788
 6742SOL     OW31684   3.670   3.108   3.846  0.1497 -0.1284  0.3520
 6742SOL    HW131685   3.757   3.140   3.822  0.6905 -1.9556 -0.1224
 6742SOL    HW231686   3.635   3.075   3.764  0.7130 -1.8969  0.8209
 6743SOL     OW31687   0.389   3.163   5.780 -0.0804 -0.1011 -0.5243
 6743SOL    HW131688   0.433   3.228   5.836 -0.8579  0.4639 -0.5708
 6743SOL    HW231689   0.458   3.123   5.727  0.2503  1.5255 -1.3273
 6744SOL     OW31690   4.187   1.097  11.372  0.3169 -0.3020 -0.0581
 6744SOL    HW131691   4.137   1.040  11.431 -0.0848  0.0367 -0.0673
 6744SOL    HW231692   4.276   1.103  11.405  0.7480 -4.4141 -0.4776
 6745SOL     OW31693   3.827   4.371  12.755 -0.6110 -0.7677  0.3458
 6745SOL    HW131694   3.818   4.466  12.762 -0.0667 -0.7292  0.5409
 6745SOL    HW231695   3.870   4.348  12.838  0.3249 -1.1507 -0.2486
 6746SOL     OW31696   2.996   4.045   4.494 -0.1382  0.0820  0.1777
 6746SOL    HW131697   2.977   4.123   4.546 -0.4457  0.0258  0.1507
 6746SOL    HW231698   2.911   4.007   4.472 -0.2047  0.2612  0.1228
 6747SOL     OW31699   3.352   1.786   8.296  0.4231  0.1322  0.5372
 6747SOL    HW131700   3.349   1.704   8.345  1.5265  0.6789  1.5309
 6747SOL    HW231701   3.416   1.768   8.226  0.6839 -0.4624  0.9362
 6748SOL     OW31702   4.183   0.900   7.875 -0.2994 -0.1098  0.3039
 6748SOL    HW131703   4.254   0.836   7.865  0.0591  0.3221  0.1135
 6748SOL    HW231704   4.103   0.847   7.879  0.5336 -1.6523 -3.1405
 6749SOL     OW31705   1.048   0.366   3.374 -0.2008  0.2224  0.1058
 6749SOL    HW131706   1.101   0.411   3.441  1.7736 -1.7342 -0.1577
 6749SOL    HW231707   1.007   0.301   3.430  0.1524 -1.3967 -1.5354
 6750SOL     OW31708   4.259   2.169   4.820  0.0971 -0.5104 -0.3549
 6750SOL    HW131709   4.185   2.170   4.881 -0.9805 -1.3678 -1.6242
 6750SOL    HW231710   4.256   2.263   4.802  0.8358 -0.8254 -2.1107
 6751SOL     OW31711   0.697   0.751   8.699 -0.0500  0.4186  0.1644
 6751SOL    HW131712   0.782   0.762   8.742  0.9373 -1.1494 -1.4001
 6751SOL    HW231713   0.643   0.812   8.749 -0.7730  0.7008 -0.9514
 6752SOL     OW31714   3.390   2.948   6.629 -0.1132  0.5804 -0.0430
 6752SOL    HW131715   3.356   2.948   6.719  0.6795  0.9646  0.2618
 6752SOL    HW231716   3.322   2.904   6.579  0.7242 -0.7859  0.0211
 6753SOL     OW31717   1.708   0.397  14.300  0.2345  0.0791 -0.0099
 6753SOL    HW131718   1.739   0.363  14.384 -1.4992  1.8610  1.3629
 6753SOL    HW231719   1.656   0.328  14.258 -1.9200 -0.0729  2.8775
 6754SOL     OW31720   3.618   2.781   6.245 -0.0823  0.0921  0.2066
 6754SOL    HW131721   3.590   2.703   6.293  0.7735  0.2777  1.0084
 6754SOL    HW231722   3.619   2.845   6.316  2.2097  0.8354 -0.4969
 6755SOL     OW31723   2.609   4.302  13.377  0.0349 -0.1713  0.2868
 6755SOL    HW131724   2.571   4.304  13.465 -2.4117  1.3748 -0.8124
 6755SOL    HW231725   2.532   4.275  13.327  0.9559  0.2358 -1.3437
 6756SOL     OW31726   2.807   0.930   9.907 -0.2500  0.1496  0.5243
 6756SOL    HW131727   2.722   0.897   9.877  0.0103  0.4926 -0.5953
 6756SOL    HW231728   2.857   0.853   9.933 -0.7622 -0.8690 -1.5628
 6757SOL     OW31729   2.997   4.159   1.092 -0.3387 -0.4106 -0.1008
 6757SOL    HW131730   3.036   4.149   1.005 -0.9841 -0.8698 -0.3417
 6757SOL    HW231731   3.032   4.081   1.133  1.2265 -0.4314 -1.4838
 6758SOL     OW31732   0.077   2.129   8.650 -0.0142  0.1739  0.1140
 6758SOL    HW131733   0.009   2.109   8.714  1.0371 -1.5590  0.6627
 6758SOL    HW231734   0.031   2.207   8.618  3.1392  1.1794 -1.8998
 6759SOL     OW31735   0.302   1.966   4.790 -0.1698  0.1177 -0.0365
 6759SOL    HW131736   0.370   1.995   4.729 -0.6034  1.1700 -0.0294
 6759SOL    HW231737   0.219   1.983   4.745 -0.5545  0.0971  0.6612
 6760SOL     OW31738   0.180   0.036   8.145  0.2103 -0.3567 -0.1490
 6760SOL    HW131739   0.145   0.041   8.233 -0.2528  0.4794 -0.3848
 6760SOL    HW231740   0.199   0.126   8.120 -0.9040 -0.4109 -1.2049
 6761SOL     OW31741   1.568   2.556  10.707  0.2366 -0.2417 -0.2749
 6761SOL    HW131742   1.502   2.525  10.645  2.8729 -0.9118 -2.7351
 6761SOL    HW231743   1.540   2.523  10.792  0.4289 -1.3161 -0.6297
 6762SOL     OW31744   4.491   3.765   0.479 -0.7078 -0.2313  0.6931
 6762SOL    HW131745   4.506   3.680   0.520  0.3828  0.2920  1.3771
 6762SOL    HW231746   4.567   3.807   0.520 -0.3202 -0.2855  0.0302
 6763SOL     OW31747   3.358   1.553  13.782  0.3611  0.4470  0.8126
 6763SOL    HW131748   3.405   1.508  13.711 -3.2885  0.4939 -1.6081
 6763SOL    HW231749   3.274   1.564  13.739  1.9105  1.7153 -1.8756
 6764SOL     OW31750   3.695   4.256   2.631 -0.4259  0.1501 -0.2966
 6764SOL    HW131751   3.722   4.242   2.540 -0.0579 -0.5715 -0.0750
 6764SOL    HW231752   3.784   4.249   2.665 -0.1744  0.1934 -0.9481
 6765SOL     OW31753   2.972   1.379   6.002  0.4833 -0.0033  0.2176
 6765SOL    HW131754   3.045   1.435   6.029  0.2293  0.1564  0.5704
 6765SOL    HW231755   2.954   1.323   6.078  0.2776  2.2331  1.8060
 6766SOL     OW31756   4.024   3.498   0.434 -0.1078  0.2887  0.3225
 6766SOL    HW131757   4.057   3.559   0.369 -0.1214 -0.2610 -0.1953
 6766SOL    HW231758   3.942   3.537   0.464 -0.6923 -0.2369 -0.5810
 6767SOL     OW31759   4.554   4.595   4.655  0.5207 -0.3879 -0.1629
 6767SOL    HW131760   4.514   4.605   4.741 -1.1047 -2.8610 -0.6416
 6767SOL    HW231761   4.504   4.517   4.634  0.9197 -1.5181  3.1424
 6768SOL     OW31762   3.247   2.196   5.924  0.2936 -0.0959 -0.2776
 6768SOL    HW131763   3.258   2.281   5.882  2.0228  0.4076  1.1727
 6768SOL    HW231764   3.301   2.139   5.869  1.0484  2.5063 -2.2292
 6769SOL     OW31765   0.158   2.489   5.221  0.2524 -0.1576 -0.1995
 6769SOL    HW131766   0.098   2.511   5.150 -1.0200  0.1083  0.9484
 6769SOL    HW231767   0.125   2.552   5.285 -0.7714  1.0821 -1.9450
 6770SOL     OW31768   3.057   1.566   4.086 -0.0891 -0.2699  0.0519
 6770SOL    HW131769   3.003   1.489   4.072  2.6196 -1.8497 -1.7739
 6770SOL    HW231770   3.010   1.632   4.035 -0.9700  0.2192  1.4979
 6771SOL     OW31771   2.414   1.677   1.769  0.5140 -0.1062 -0.1657
 6771SOL    HW131772   2.338   1.732   1.786 -1.0129 -1.9610 -0.9385
 6771SOL    HW231773   2.374   1.625   1.699 -0.4500 -0.4334  0.6316
 6772SOL     OW31774   2.817   3.079   5.031 -0.0258  0.1157 -0.1706
 6772SOL    HW131775   2.855   2.996   5.059 -1.3558 -0.4012  0.0928
 6772SOL    HW231776   2.888   3.144   5.040  0.2702  0.2872 -3.8138
 6773SOL     OW31777   0.466   3.640   4.183 -0.2595  0.4161 -0.2246
 6773SOL    HW131778   0.403   3.647   4.255  0.5440  0.7432  0.4511
 6773SOL    HW231779   0.489   3.733   4.178 -0.8163  0.4778 -1.6681
 6774SOL     OW31780   1.213   0.834  16.868 -0.3786  0.6305  0.0074
 6774SOL    HW131781   1.291   0.789  16.835 -0.4369  1.0317 -0.6653
 6774SOL    HW231782   1.243   0.925  16.861  3.9771 -0.8895 -1.1462
 6775SOL     OW31783   0.275   4.671  11.336  0.7376 -0.0289 -0.1662
 6775SOL    HW131784   0.290   4.587  11.293  0.2916  0.6498 -1.6322
 6775SOL    HW231785   0.293   0.003  11.259  0.1669  0.0630 -0.2341
 6776SOL     OW31786   0.147   4.149   1.992 -0.0255 -0.0358  0.0306
 6776SOL    HW131787   0.055   4.163   1.968 -0.2849 -0.9630  0.4864
 6776SOL    HW231788   0.181   4.215   1.931 -0.5819 -0.1472 -0.4060
 6777SOL     OW31789   4.275   3.204  15.537  0.2526 -0.3141 -0.6120
 6777SOL    HW131790   4.329   3.276  15.503  3.0729 -1.5904  1.1803
 6777SOL    HW231791   4.324   3.127  15.508  1.3064 -1.1591  3.4801
 6778SOL     OW31792   2.359   0.766   3.551  0.3584  0.2576 -0.2162
 6778SOL    HW131793   2.395   0.708   3.484  3.5559  3.0330 -0.9123
 6778SOL    HW231794   2.350   0.699   3.619 -1.9728 -0.0404 -0.8267
 6779SOL     OW31795   3.626   2.373  16.164  0.2876  0.1236 -0.0441
 6779SOL    HW131796   3.708   2.356  16.117  0.7261  1.3106  0.2987
 6779SOL    HW231797   3.612   2.464  16.140  3.6676  0.9470  1.0565
 6780SOL     OW31798   3.925   0.160   9.289 -0.4284  0.3465  0.0129
 6780SOL    HW131799   4.008   0.127   9.323 -0.5717 -0.8062 -0.7428
 6780SOL    HW231800   3.880   0.189   9.368 -1.7728 -1.3898 -0.1038
 6781SOL     OW31801   4.132   2.779  12.662 -0.0599 -0.4918 -0.0956
 6781SOL    HW131802   4.057   2.721  12.647 -0.3731 -0.2610  0.5653
 6781SOL    HW231803   4.151   2.772  12.756  1.1786  3.1927 -0.0833
 6782SOL     OW31804   2.387   1.765  15.443 -0.7207 -0.3903 -0.0356
 6782SOL    HW131805   2.297   1.792  15.462 -0.5642 -1.4097  2.1361
 6782SOL    HW231806   2.389   1.683  15.491 -0.8634 -1.4842 -1.9039
 6783SOL     OW31807   1.176   1.746   6.005 -0.4928 -0.4355  0.1922
 6783SOL    HW131808   1.265   1.781   6.005 -1.5679  2.2546 -1.2651
 6783SOL    HW231809   1.169   1.682   5.934  1.9209  0.8099 -1.1818
 6784SOL     OW31810   3.743   3.406  15.283  0.7272  0.0075  0.0646
 6784SOL    HW131811   3.665   3.365  15.320  0.6880 -1.4497 -1.6537
 6784SOL    HW231812   3.763   3.353  15.205  0.4843  0.7617 -0.5086
 6785SOL     OW31813   3.214   4.440   8.033 -0.5501  0.0572  0.2665
 6785SOL    HW131814   3.141   4.497   8.056 -1.5650 -0.8390 -0.7374
 6785SOL    HW231815   3.199   4.449   7.939 -1.9441  2.4344  0.7222
 6786SOL     OW31816   0.917   0.243  14.061  0.1852  0.7459  0.4470
 6786SOL    HW131817   0.934   0.198  14.144  2.0677  0.3357 -0.1642
 6786SOL    HW231818   0.829   0.281  14.060 -0.9063 -1.7306  1.5647
 6787SOL     OW31819   0.916   4.284  11.496  0.3990  0.1088  0.3706
 6787SOL    HW131820   0.840   4.233  11.522  0.1939  0.4893  0.5190
 6787SOL    HW231821   0.888   4.345  11.428 -1.9374  0.8030  1.9569
 6788SOL     OW31822   3.631   3.163   8.570 -0.3187  0.0105  0.6333
 6788SOL    HW131823   3.555   3.220   8.583 -0.0897  0.3523  0.4820
 6788SOL    HW231824   3.637   3.123   8.657 -0.6348 -0.0899  0.6101
 6789SOL     OW31825   4.684   1.766   6.570 -0.0254 -0.0580 -0.6235
 6789SOL    HW131826   4.613   1.827   6.590  1.4622  1.2549  0.7187
 6789SOL    HW231827   4.665   1.683   6.613 -1.3479 -0.4091 -1.9036
 6790SOL     OW31828   1.454   1.086   9.279 -0.0690  0.5385  0.4249
 6790SOL    HW131829   1.376   1.078   9.224  0.4313  0.9389 -0.3539
 6790SOL    HW231830   1.441   1.171   9.322  0.0822  0.1155  1.2991
 6791SOL     OW31831   2.342   4.681   5.191  0.4193 -0.3124  0.4949
 6791SOL    HW131832   2.390   4.699   5.272  1.2479 -2.3093  0.4535
 6791SOL    HW231833   2.268   4.630   5.225  0.6184 -0.2726  0.9960
 6792SOL     OW31834   0.931   3.666  13.871  0.7132 -0.1343 -0.4626
 6792SOL    HW131835   0.972   3.611  13.938  0.1329 -0.6712 -0.5568
 6792SOL    HW231836   0.956   3.611  13.797  0.9194  0.2122 -0.6543
 6793SOL     OW31837   0.941   3.741   7.030 -0.2293 -0.5461 -0.5553
 6793SOL    HW131838   0.994   3.797   7.088 -2.0607  0.8874 -0.2536
 6793SOL    HW231839   0.995   3.667   7.003  0.5763 -0.8251  1.8456
 6794SOL     OW31840   3.508   3.136   7.440  0.1074 -0.4503 -0.0745
 6794SOL    HW131841   3.472   3.215   7.400  1.5728  0.7484  0.9565
 6794SOL    HW231842   3.484   3.150   7.531 -0.8882 -0.8403 -0.2800
 6795SOL     OW31843   1.861   3.153   4.898 -0.3388  0.6212  0.2136
 6795SOL    HW131844   1.819   3.184   4.818  1.8398  0.5018 -0.9838
 6795SOL    HW231845   1.952   3.148   4.869 -0.9394 -0.1287 -1.5093
 6796SOL     OW31846   0.908   4.163  11.028 -0.7495  0.0050 -0.5079
 6796SOL    HW131847   0.830   4.218  11.017 -0.5057  0.6124  0.8437
 6796SOL    HW231848   0.882   4.101  11.096 -1.2273 -0.4825 -1.1393
 6797SOL     OW31849   0.848   3.587  15.352  0.0716  0.1913  0.4514
 6797SOL    HW131850   0.913   3.519  15.334  2.1226  2.1893  0.4308
 6797SOL    HW231851   0.794   3.561  15.276  2.2423 -0.9808 -0.6929
 6798SOL     OW31852   0.407   3.924   7.779 -0.0297  0.1409  0.0259
 6798SOL    HW131853   0.495   3.917   7.814 -0.6547  0.0347  1.5650
 6798SOL    HW231854   0.363   3.987   7.837 -3.3406 -0.3730 -1.9141
 6799SOL     OW31855   2.920   1.573   8.666  0.2022  0.2328  0.3304
 6799SOL    HW131856   2.951   1.515   8.735  2.2485  4.1802  2.7468
 6799SOL    HW231857   2.985   1.644   8.668  2.0337 -1.3885 -1.8225
 6800SOL     OW31858   2.278   2.090   2.827 -0.0222  0.3557 -0.2575
 6800SOL    HW131859   2.317   2.157   2.884 -1.9223 -0.8753  2.5095
 6800SOL    HW231860   2.349   2.026   2.841  0.9571  1.4444 -0.2683
 6801SOL     OW31861   2.430   3.663   3.511 -0.5636 -0.1903 -0.4063
 6801SOL    HW131862   2.496   3.724   3.478  0.6754 -1.2924  0.0112
 6801SOL    HW231863   2.358   3.690   3.454  0.3403  2.3595 -0.3407
 6802SOL     OW31864   4.054   4.078  10.359  0.4669  0.5095 -0.4811
 6802SOL    HW131865   4.105   4.130  10.297 -0.2795 -0.6488 -2.0665
 6802SOL    HW231866   4.096   4.130  10.427  2.0920  1.1042 -1.9194
 6803SOL     OW31867   4.297   2.562   6.348  0.2638 -0.2419 -0.2430
 6803SOL    HW131868   4.327   2.649   6.375  1.2006 -0.9372  0.9606
 6803SOL    HW231869   4.370   2.511   6.383  1.4363  1.0742 -0.7953
 6804SOL     OW31870   3.796   1.329   3.061  0.5868  0.0312  0.0000
 6804SOL    HW131871   3.840   1.363   2.984 -0.5925  2.9530  0.6416
 6804SOL    HW231872   3.714   1.294   3.027 -0.0756  0.1387  1.4847
 6805SOL     OW31873   2.955   3.830   6.273  0.0051 -0.0936 -0.0278
 6805SOL    HW131874   2.913   3.814   6.357  0.7454 -0.1769  0.3192
 6805SOL    HW231875   2.944   3.740   6.241  1.2471 -0.1281 -0.3460
 6806SOL     OW31876   2.133   0.455   5.217 -0.3134  0.2318 -0.1552
 6806SOL    HW131877   2.072   0.508   5.166  1.4958  1.5886 -0.9139
 6806SOL    HW231878   2.162   0.390   5.153 -2.9765 -1.6887  0.5627
 6807SOL     OW31879   0.294   0.354   7.520 -0.7986  0.0878  0.3036
 6807SOL    HW131880   0.313   0.274   7.569  1.2028  0.5819  0.3469
 6807SOL    HW231881   0.223   0.393   7.570 -2.0487 -0.0087 -1.3810
 6808SOL     OW31882   1.265   1.506  12.346  0.3588  0.4600  0.0771
 6808SOL    HW131883   1.301   1.488  12.433  0.3604 -1.0454 -0.2235
 6808SOL    HW231884   1.184   1.548  12.376  0.9516  1.6900 -0.0556
 6809SOL     OW31885   0.806   0.110   8.135  0.2368  0.0661  0.2801
 6809SOL    HW131886   0.895   0.142   8.120  0.6496 -0.7384  0.9959
 6809SOL    HW231887   0.784   0.162   8.213  0.4058 -0.8765  0.9571
 6810SOL     OW31888   4.470   3.169  10.889  0.1352 -0.4871  0.3420
 6810SOL    HW131889   4.467   3.186  10.984 -1.5764  0.3835  0.1434
 6810SOL    HW231890   4.450   3.075  10.896 -1.5551 -0.0967  0.8642
 6811SOL     OW31891   0.797   4.034  11.978 -0.1971  0.0415  0.4446
 6811SOL    HW131892   0.850   4.091  12.033 -0.4970 -0.2274  1.0127
 6811SOL    HW231893   0.844   3.954  11.955 -0.3623 -0.3275  1.4065
 6812SOL     OW31894   2.901   0.530   8.980 -0.0529 -0.0901  0.0502
 6812SOL    HW131895   2.955   0.480   8.918  0.2302 -0.7792  0.8566
 6812SOL    HW231896   2.833   0.542   8.914 -1.6672  0.6826  1.8524
 6813SOL     OW31897   0.458   4.119  11.115 -0.4823  0.3464 -0.3132
 6813SOL    HW131898   0.443   4.145  11.206  1.6045  1.6415 -0.3369
 6813SOL    HW231899   0.376   4.080  11.085 -0.4805 -1.1336  1.5926
 6814SOL     OW31900   0.263   0.471   7.900  0.2435 -0.2478  0.3604
 6814SOL    HW131901   0.317   0.392   7.892 -0.9286 -1.1593  1.4678
 6814SOL    HW231902   0.318   0.525   7.956 -2.4873 -2.0700  4.8273
 6815SOL     OW31903   2.928   0.267   9.980 -0.5254  0.1657  0.1309
 6815SOL    HW131904   2.947   0.273   9.886  1.8438  0.6032  0.6458
 6815SOL    HW231905   2.948   0.356  10.008 -0.4109  0.3499 -0.5238
 6816SOL     OW31906   3.507   3.945   2.795  0.1631  0.2539  0.2204
 6816SOL    HW131907   3.483   3.942   2.702  0.9640  0.3849  0.0138
 6816SOL    HW231908   3.602   3.937   2.786  0.3788  0.9713  2.0185
 6817SOL     OW31909   1.371   4.270   1.567 -0.1033  0.5938  0.1418
 6817SOL    HW131910   1.325   4.350   1.593  0.0421  0.1634  1.6808
 6817SOL    HW231911   1.451   4.277   1.619  0.2785  1.0249 -0.4955
 6818SOL     OW31912   0.673   4.359   6.331 -0.7259  0.0501 -0.2117
 6818SOL    HW131913   0.660   4.404   6.414 -0.4851 -0.4905  0.1195
 6818SOL    HW231914   0.585   4.368   6.295 -0.5460 -1.0117 -0.9326
 6819SOL     OW31915   0.452   4.044   3.588  0.2846  0.0151 -0.0578
 6819SOL    HW131916   0.457   3.952   3.565 -0.3792 -0.2561  0.8914
 6819SOL    HW231917   0.458   4.084   3.501 -1.4602 -1.1996 -0.7334
 6820SOL     OW31918   4.612   1.029   2.724  0.5981 -0.4374 -0.0578
 6820SOL    HW131919   4.572   1.060   2.806 -2.7337  0.5209 -2.0443
 6820SOL    HW231920   4.651   1.109   2.690  0.4746 -1.2209 -2.0337
 6821SOL     OW31921   3.501   3.830  12.294 -0.3466 -0.2553  0.3336
 6821SOL    HW131922   3.551   3.911  12.293 -1.0189  0.1376 -1.3400
 6821SOL    HW231923   3.573   3.773  12.322  1.8974  2.3959 -0.0861
 6822SOL     OW31924   4.225   1.542  12.479 -0.2083  0.2754  0.0390
 6822SOL    HW131925   4.262   1.489  12.550 -0.0835  0.7897  0.3635
 6822SOL    HW231926   4.283   1.529  12.404 -0.3562 -0.0471 -0.0192
 6823SOL     OW31927   0.750   2.712   6.295 -0.2699 -0.0146  0.1580
 6823SOL    HW131928   0.771   2.804   6.277 -0.4205 -0.1948 -0.8942
 6823SOL    HW231929   0.691   2.720   6.370 -0.7040  1.1542 -0.3070
 6824SOL     OW31930   4.336   3.955   3.043  0.3554  0.3541  0.3244
 6824SOL    HW131931   4.256   3.977   2.995  0.3663 -0.1862  0.0632
 6824SOL    HW231932   4.395   3.930   2.972 -0.8140  2.0307 -1.2479
 6825SOL     OW31933   4.690   2.586   3.290  0.4082  0.0722  0.4866
 6825SOL    HW131934   0.009   2.563   3.206 -0.7864  0.1923 -0.1225
 6825SOL    HW231935   4.674   2.501   3.333 -2.3056 -0.1092 -0.8353
 6826SOL     OW31936   0.239   2.070   5.636  0.1584 -0.0663  0.2408
 6826SOL    HW131937   0.259   1.985   5.596  0.1470  0.3143 -0.5814
 6826SOL    HW231938   0.221   2.060   5.729  0.9360  2.9124  0.6844
 6827SOL     OW31939   3.422   4.026  15.004  0.0171  0.0004  0.3225
 6827SOL    HW131940   3.468   4.101  15.043  1.4395 -0.7989  0.1269
 6827SOL    HW231941   3.447   3.954  15.062  0.2196  0.9612  1.4461
 6828SOL     OW31942   1.384   1.113   3.561 -0.0412 -0.1418  0.3536
 6828SOL    HW131943   1.348   1.071   3.483 -2.4437 -0.1821  1.4897
 6828SOL    HW231944   1.456   1.164   3.523 -1.3154  0.4974 -1.1784
 6829SOL     OW31945   1.902   2.515   6.533 -0.4400  0.2608  0.2881
 6829SOL    HW131946   1.851   2.589   6.498 -0.1412  0.2482 -0.1752
 6829SOL    HW231947   1.950   2.511   6.450  2.1185  3.0886  1.6066
 6830SOL     OW31948   3.328   2.239  14.423 -0.1824 -0.1855 -0.7175
 6830SOL    HW131949   3.248   2.289  14.409  0.1295  0.2433 -0.9849
 6830SOL    HW231950   3.309   2.168  14.361 -2.7268  0.5240 -0.7476
 6831SOL     OW31951   2.068   1.106   3.707  0.3785  0.2761  0.0674
 6831SOL    HW131952   2.148   1.057   3.726  1.2789  1.0950 -1.6465
 6831SOL    HW231953   2.106   1.191   3.684 -0.2961  0.5049 -0.2004
 6832SOL     OW31954   0.753   3.766   3.453  0.0067 -0.8903 -0.3189
 6832SOL    HW131955   0.845   3.740   3.461  0.1943  0.4482  1.8868
 6832SOL    HW231956   0.721   3.711   3.382 -0.0580 -3.0877  1.4084
 6833SOL     OW31957   3.590   0.735  15.150  0.1609 -0.0905  0.0647
 6833SOL    HW131958   3.589   0.796  15.224 -0.1086  2.2256 -1.8559
 6833SOL    HW231959   3.680   0.719  15.123  1.2936  0.0863  3.6970
 6834SOL     OW31960   2.057   3.318   9.768  0.1631  0.1393 -0.2454
 6834SOL    HW131961   2.004   3.287   9.694 -0.8494  0.4707  0.3424
 6834SOL    HW231962   2.086   3.401   9.730 -0.1719  0.8851  1.1112
 6835SOL     OW31963   4.132   2.365   5.993  0.0078  0.2772  0.8055
 6835SOL    HW131964   4.200   2.420   6.030 -0.3494  0.8440  0.6129
 6835SOL    HW231965   4.068   2.434   5.979  2.1204  2.3373  1.2945
 6836SOL     OW31966   0.978   1.352   1.398 -0.5438  0.3783 -0.4955
 6836SOL    HW131967   0.946   1.442   1.401 -2.4551 -0.3460  0.8655
 6836SOL    HW231968   0.947   1.338   1.309 -1.0274  0.3765 -0.3280
 6837SOL     OW31969   3.490   3.630  15.976 -0.0983 -0.1378  0.4326
 6837SOL    HW131970   3.422   3.674  16.027 -0.3456  1.4366 -1.2549
 6837SOL    HW231971   3.520   3.559  16.033 -0.4711 -0.0241  0.7707
 6838SOL     OW31972   2.229   4.491   8.096 -0.0126  0.6842 -0.1487
 6838SOL    HW131973   2.281   4.498   8.015  0.8784 -1.0323  0.2544
 6838SOL    HW231974   2.185   4.408   8.076  0.2005  0.5623 -0.1222
 6839SOL     OW31975   2.899   2.361   5.820  0.3116 -0.1131  0.1315
 6839SOL    HW131976   2.829   2.296   5.831 -1.2129  1.0667 -2.5242
 6839SOL    HW231977   2.847   2.442   5.814 -0.9799 -0.7428  3.1523
 6840SOL     OW31978   3.123   4.174  16.746  0.6523  0.3008  0.0603
 6840SOL    HW131979   3.168   4.213  16.671  1.2534  1.7699  1.1893
 6840SOL    HW231980   3.196   4.185  16.807  1.1132 -1.5765 -0.1541
 6841SOL     OW31981   2.438   4.330   3.326  0.0938 -0.1424  0.7904
 6841SOL    HW131982   2.386   4.280   3.389  2.1649  0.3952  2.9278
 6841SOL    HW231983   2.389   4.313   3.246  2.2259 -0.7127 -0.4001
 6842SOL     OW31984   2.020   1.035  12.457 -0.2015 -0.1575  0.2346
 6842SOL    HW131985   2.100   0.986  12.439  0.4300  1.3378 -1.0715
 6842SOL    HW231986   2.052   1.085  12.532 -0.1579  2.0431 -1.2381
 6843SOL     OW31987   2.484   4.418  13.012 -0.3455  0.6339  0.1073
 6843SOL    HW131988   2.579   4.423  13.013 -0.1135 -3.4354  0.2542
 6843SOL    HW231989   2.465   4.337  12.965  0.3930  0.8873 -0.6201
 6844SOL     OW31990   0.861   0.382  13.716 -0.3837 -0.1901  0.0228
 6844SOL    HW131991   0.814   0.348  13.792 -1.2791  0.9517 -0.0121
 6844SOL    HW231992   0.802   0.453  13.691 -0.5491 -0.4101 -0.2116
 6845SOL     OW31993   2.108   0.868   3.473  0.0055 -0.5447  0.2164
 6845SOL    HW131994   2.098   0.781   3.435 -2.0486 -0.4680  0.5907
 6845SOL    HW231995   2.202   0.859   3.486  0.2750 -0.0169 -1.3556
 6846SOL     OW31996   2.115   1.073   8.197 -0.5343 -0.3657 -0.4586
 6846SOL    HW131997   2.122   1.011   8.125 -0.6943 -2.1411  1.0281
 6846SOL    HW231998   2.208   1.091   8.212 -0.6205 -0.6212  0.4372
 6847SOL     OW31999   4.604   4.449   7.715 -0.2402  0.5439 -0.2605
 6847SOL    HW132000   4.525   4.490   7.679 -0.3142  0.5798 -0.0552
 6847SOL    HW232001   4.569   4.390   7.782  2.6847  0.6714  1.3458
 6848SOL     OW32002   1.001   4.156   1.284 -0.3347 -0.1045  0.1739
 6848SOL    HW132003   1.011   4.062   1.300  1.8485 -0.0799 -1.0769
 6848SOL    HW232004   0.911   4.155   1.250 -0.6074 -1.0717  0.9211
 6849SOL     OW32005   0.625   1.671   4.735  0.4514 -0.1796 -0.4325
 6849SOL    HW132006   0.615   1.580   4.765 -0.2448  1.1636  3.5059
 6849SOL    HW232007   0.663   1.720   4.808  1.7058 -2.3235  0.3311
 6850SOL     OW32008   4.089   1.390   0.283 -0.8800  0.0906  0.0040
 6850SOL    HW132009   4.132   1.460   0.233 -0.0401 -1.1745 -1.0709
 6850SOL    HW232010   4.058   1.437   0.360 -0.4215  0.9760 -0.3451
 6851SOL     OW32011   4.334   2.830   4.282 -1.0821 -0.1138 -0.1515
 6851SOL    HW132012   4.367   2.920   4.278 -1.4942  0.0490  0.0343
 6851SOL    HW232013   4.254   2.838   4.335 -0.3462 -0.2514  0.9828
 6852SOL     OW32014   4.051   2.219  13.043 -0.0992  0.0590  0.0675
 6852SOL    HW132015   4.096   2.194  13.124 -1.8914 -1.6444  0.5367
 6852SOL    HW232016   4.082   2.309  13.032 -0.1084 -0.2279 -2.3077
 6853SOL     OW32017   0.666   2.226   7.893  0.3096 -0.0895  0.2358
 6853SOL    HW132018   0.757   2.237   7.864  0.6707 -1.7428  0.7615
 6853SOL    HW232019   0.622   2.219   7.809  2.5853 -0.9852 -0.8932
 6854SOL     OW32020   3.537   2.022   7.852 -0.8129  0.2927 -0.2235
 6854SOL    HW132021   3.488   2.095   7.889 -1.8450  0.5318 -2.1013
 6854SOL    HW232022   3.558   1.972   7.931 -1.7983 -0.4930 -0.4501
 6855SOL     OW32023   2.137   2.422   3.057  0.3569  0.3343 -0.1913
 6855SOL    HW132024   2.192   2.367   3.113 -0.3622 -0.6378 -0.4475
 6855SOL    HW232025   2.059   2.429   3.113 -0.2710 -0.2089 -1.0027
 6856SOL     OW32026   0.007   0.754   9.746  0.4460  0.3559 -0.5049
 6856SOL    HW132027   0.030   0.765   9.838  1.5139 -1.5944 -0.5563
 6856SOL    HW232028   4.670   0.828   9.727 -0.2567  0.2596  1.2637
 6857SOL     OW32029   2.898   0.875  11.305 -0.2097  0.6324  0.0599
 6857SOL    HW132030   2.960   0.944  11.282  0.7122  0.0493  0.7527
 6857SOL    HW232031   2.901   0.873  11.401  3.0241 -0.5149 -0.0617
 6858SOL     OW32032   0.893   2.224   6.767 -0.1275 -0.1114 -0.2666
 6858SOL    HW132033   0.895   2.213   6.672 -1.5217  1.2342 -0.4513
 6858SOL    HW232034   0.806   2.262   6.784  0.6674  0.4195  2.6503
 6859SOL     OW32035   0.276   3.649   1.400  0.8237  0.4343  0.3486
 6859SOL    HW132036   0.281   3.726   1.455  2.4074  0.8992 -0.4576
 6859SOL    HW232037   0.207   3.605   1.450 -0.2894  1.2892 -0.4244
 6860SOL     OW32038   2.116   2.540   5.084  0.9049 -0.2627 -0.1001
 6860SOL    HW132039   2.120   2.521   5.178  1.6080  0.0514 -0.0632
 6860SOL    HW232040   2.203   2.580   5.076 -0.0428  1.3859 -2.0222
 6861SOL     OW32041   2.088   0.600   3.351 -0.3472  0.3976  0.1437
 6861SOL    HW132042   2.030   0.602   3.275  1.2008 -2.5800 -1.1448
 6861SOL    HW232043   2.126   0.512   3.344 -1.4218 -0.1270  0.8011
 6862SOL     OW32044   4.070   4.294   3.421 -0.0067 -0.4711  0.7254
 6862SOL    HW132045   4.011   4.247   3.480  1.0059  0.3101  2.3507
 6862SOL    HW232046   4.034   4.261   3.338  1.9145 -1.1974  0.1731
 6863SOL     OW32047   3.775   4.442   2.411  0.0083 -0.0465 -0.7121
 6863SOL    HW132048   3.836   4.515   2.399  0.4341  0.2044  3.0176
 6863SOL    HW232049   3.752   4.458   2.502  0.1082  0.3951 -0.7662
 6864SOL     OW32050   0.318   2.519  10.224 -0.4500  0.5701 -1.1747
 6864SOL    HW132051   0.271   2.573  10.288 -2.3498 -1.6306 -0.7056
 6864SOL    HW232052   0.257   2.517  10.150 -1.1417 -0.1623 -0.5851
 6865SOL     OW32053   1.414   3.107   1.048  0.1449 -0.2338 -0.2227
 6865SOL    HW132054   1.433   3.079   0.958  2.9943 -0.6271  0.5194
 6865SOL    HW232055   1.447   3.035   1.101  0.6225  0.5546  0.5392
 6866SOL     OW32056   1.377   3.896   4.631 -0.7466  0.0508 -0.2621
 6866SOL    HW132057   1.415   3.848   4.705 -0.7860 -0.9895 -0.9151
 6866SOL    HW232058   1.282   3.889   4.639 -0.3977 -1.5004  2.3976
 6867SOL     OW32059   1.182   0.136   5.475  0.4264 -0.3903  0.3235
 6867SOL    HW132060   1.246   0.066   5.463  1.5667  0.3361  2.2197
 6867SOL    HW232061   1.239   0.212   5.490 -0.3974  0.3015  0.0126
 6868SOL     OW32062   3.071   2.941  12.832  0.3138 -0.0982  0.1452
 6868SOL    HW132063   3.046   3.012  12.889  0.5507  0.6291 -0.6562
 6868SOL    HW232064   3.155   2.968  12.795  1.0699 -0.7225  1.4046
 6869SOL     OW32065   0.237   2.824   2.658  0.6111  0.0287  0.9541
 6869SOL    HW132066   0.192   2.905   2.684 -2.0413 -1.3900  0.7247
 6869SOL    HW232067   0.186   2.801   2.580  2.4263  2.7065 -1.0066
 6870SOL     OW32068   1.750   1.341   4.587  0.0953  0.3325  0.1611
 6870SOL    HW132069   1.790   1.254   4.579  1.2946  0.8533  0.5058
 6870SOL    HW232070   1.816   1.387   4.534 -0.1427  0.1077 -0.3371
 6871SOL     OW32071   3.238   0.706  14.760  0.8197 -0.5306 -0.4140
 6871SOL    HW132072   3.251   0.689  14.853  0.5841 -0.5610 -0.3882
 6871SOL    HW232073   3.177   0.780  14.759 -0.0112 -1.2076  1.3437
 6872SOL     OW32074   0.454   3.873   6.778  0.7134  0.6671  0.0086
 6872SOL    HW132075   0.422   3.831   6.698 -1.6862  1.4985  0.5430
 6872SOL    HW232076   0.543   3.839   6.785  0.0149 -1.2412 -0.3106
 6873SOL     OW32077   4.458   1.315  17.575  0.7846 -0.3192  0.2495
 6873SOL    HW132078   4.381   1.372  17.568 -1.1857 -3.0066  0.0070
 6873SOL    HW232079   4.417   1.269  17.648 -1.1647  2.4790  0.9023
 6874SOL     OW32080   2.810   3.017   9.768 -0.3388  0.4524  0.0968
 6874SOL    HW132081   2.744   3.065   9.717 -0.0512  1.0879  0.3253
 6874SOL    HW232082   2.840   3.094   9.817 -0.4993  1.1230 -0.8398
 6875SOL     OW32083   0.957   3.604   6.700  0.5125 -0.4503 -0.3247
 6875SOL    HW132084   1.018   3.592   6.772  0.9414  1.4007 -0.3636
 6875SOL    HW232085   0.982   3.558   6.620  1.4182  1.3955 -1.1143
 6876SOL     OW32086   2.702   4.025   6.346 -0.0983 -0.0162 -0.1538
 6876SOL    HW132087   2.728   3.948   6.396 -0.7990 -0.7398 -0.8956
 6876SOL    HW232088   2.620   3.999   6.305 -0.8299  2.4143 -0.2442
 6877SOL     OW32089   2.041   0.518   8.164 -0.2561  0.3771  0.3588
 6877SOL    HW132090   1.997   0.526   8.079 -1.3008  2.7232  1.1251
 6877SOL    HW232091   2.057   0.424   8.162 -0.6460  0.3150  0.1172
 6878SOL     OW32092   2.750   3.636   2.370  0.2350 -0.3108 -0.2040
 6878SOL    HW132093   2.741   3.669   2.280  1.0106  0.4467 -0.0052
 6878SOL    HW232094   2.774   3.544   2.358 -1.0456 -0.5673 -0.7812
 6879SOL     OW32095   3.458   0.477  11.890 -0.0316  0.7323  0.1358
 6879SOL    HW132096   3.481   0.498  11.981 -0.6620  1.6637  0.0800
 6879SOL    HW232097   3.511   0.398  11.883  0.0283  0.4412  3.5620
 6880SOL     OW32098   0.689   1.449   6.042 -0.4084  0.0620  0.0719
 6880SOL    HW132099   0.715   1.540   6.055 -0.4605 -0.1202  1.5031
 6880SOL    HW232100   0.595   1.447   6.058 -0.6631  1.2583 -1.2887
 6881SOL     OW32101   3.367   4.226   1.997  0.0711  0.2924  0.4876
 6881SOL    HW132102   3.313   4.249   2.073  0.9231  1.9353  0.5747
 6881SOL    HW232103   3.446   4.242   2.048  1.0034 -0.8520 -0.5886
 6882SOL     OW32104   4.598   4.159   8.333 -0.1413  0.0448  0.2149
 6882SOL    HW132105   4.657   4.161   8.408 -0.2618  1.6967  0.2731
 6882SOL    HW232106   4.566   4.249   8.335  2.0009  0.8382 -0.7310
 6883SOL     OW32107   2.518   0.885   4.189  0.8655 -0.2085 -0.0706
 6883SOL    HW132108   2.438   0.897   4.241  2.3780 -0.3925  2.2892
 6883SOL    HW232109   2.584   0.867   4.256  0.3280 -0.7855  0.3095
 6884SOL     OW32110   4.509   4.045   2.526 -0.1972 -0.4870  0.1080
 6884SOL    HW132111   4.476   3.970   2.476  0.1836 -1.3496  1.1328
 6884SOL    HW232112   4.493   4.021   2.618 -0.5938  2.7491  0.8825
 6885SOL     OW32113   1.794   1.389   3.216  0.2639 -0.0332 -0.4788
 6885SOL    HW132114   1.740   1.458   3.176  0.0149  0.4844  0.7485
 6885SOL    HW232115   1.882   1.419   3.192  0.7752 -1.3050 -0.1580
 6886SOL     OW32116   4.091   3.509   0.728 -0.2916 -0.1073  0.0215
 6886SOL    HW132117   4.088   3.605   0.730  0.2602 -0.0853 -0.2592
 6886SOL    HW232118   4.070   3.486   0.638  1.1350  1.1491 -0.6373
 6887SOL     OW32119   2.778   0.684   6.285  0.2994 -0.4097  0.2583
 6887SOL    HW132120   2.783   0.589   6.288 -0.5470 -0.4508  0.2262
 6887SOL    HW232121   2.778   0.705   6.379  0.5545  1.8223 -0.2308
 6888SOL     OW32122   2.906   1.661   5.735 -0.1234  0.2552  0.6569
 6888SOL    HW132123   2.849   1.718   5.682 -1.5005 -1.2684  0.4937
 6888SOL    HW232124   2.971   1.634   5.670 -0.9599  0.2180 -0.1711
 6889SOL     OW32125   3.445   1.084  15.075  0.8505  0.4384 -0.1087
 6889SOL    HW132126   3.490   1.136  15.142  1.8854 -1.4579  0.6622
 6889SOL    HW232127   3.392   1.031  15.134  0.3036 -0.6221 -1.5731
 6890SOL     OW32128   1.051   2.761   2.066  0.2227  0.1348  0.0292
 6890SOL    HW132129   0.960   2.735   2.052  0.6222 -1.0203 -0.4006
 6890SOL    HW232130   1.052   2.849   2.030  0.2359  0.1559  0.0810
 6891SOL     OW32131   4.643   4.177   6.375 -0.0612  0.3295  0.3834
 6891SOL    HW132132   4.675   4.207   6.290  0.1049  1.7386  0.9426
 6891SOL    HW232133   4.624   4.266   6.405 -0.3957  1.2413 -2.4658
 6892SOL     OW32134   0.509   3.611   7.736 -0.8552  0.6807  0.2550
 6892SOL    HW132135   0.480   3.693   7.774  0.1809  0.7187  0.9531
 6892SOL    HW232136   0.523   3.635   7.644  3.6832  0.7843  1.0020
 6893SOL     OW32137   2.823   4.711   9.558  0.1480 -0.3136 -0.0729
 6893SOL    HW132138   2.758   0.030   9.501 -0.2360 -1.6993 -0.6172
 6893SOL    HW232139   2.887   4.697   9.489 -0.3974  1.2110 -0.8880
 6894SOL     OW32140   4.601   0.911   3.719  0.4859  0.5026  0.1406
 6894SOL    HW132141   4.664   0.913   3.646  0.9977  1.9021  0.6305
 6894SOL    HW232142   4.546   0.987   3.701  0.1328  0.0342 -0.7649
 6895SOL     OW32143   3.110   1.578  13.655  0.2125  0.1735  0.4377
 6895SOL    HW132144   3.032   1.586  13.711 -0.1480  3.5379 -0.5109
 6895SOL    HW232145   3.105   1.657  13.600 -0.7838 -0.4238 -0.3407
 6896SOL     OW32146   1.716   4.030  15.451  0.0695  0.3506 -0.1100
 6896SOL    HW132147   1.811   4.017  15.452 -0.0523 -0.3868  1.2793
 6896SOL    HW232148   1.705   4.096  15.520  0.1921  1.6854 -1.3645
 6897SOL     OW32149   1.805   2.480  16.336  0.3181  0.1631 -0.1679
 6897SOL    HW132150   1.761   2.535  16.270  0.7287 -1.0825 -1.4816
 6897SOL    HW232151   1.760   2.395  16.333  1.3158 -0.3537 -0.4823
 6898SOL     OW32152   1.304   3.497  11.306  0.3157 -0.2272  0.1286
 6898SOL    HW132153   1.292   3.533  11.217  0.4256 -1.6901 -0.4703
 6898SOL    HW232154   1.269   3.409  11.294 -3.1907  1.0806  0.5032
 6899SOL     OW32155   2.900   1.352   4.024 -0.3396 -0.9833 -0.2635
 6899SOL    HW132156   2.862   1.284   4.080 -4.7713  0.4354 -1.5517
 6899SOL    HW232157   2.818   1.399   4.011  0.2434  0.7512  2.1967
 6900SOL     OW32158   2.192   1.859   9.173  0.2971  0.3362 -0.1184
 6900SOL    HW132159   2.274   1.834   9.131 -0.6387 -1.6424 -0.7810
 6900SOL    HW232160   2.217   1.942   9.213 -0.2497 -1.0708  3.2427
 6901SOL     OW32161   4.113   2.890   9.960 -0.2556  0.1466  0.0362
 6901SOL    HW132162   4.117   2.794   9.956  0.5492  0.0726  3.0864
 6901SOL    HW232163   4.204   2.915   9.942 -0.7627  1.0476 -1.2859
 6902SOL     OW32164   2.426   0.712   0.595  0.2022 -0.7096 -0.0935
 6902SOL    HW132165   2.433   0.617   0.581 -0.2405 -1.1689  2.7661
 6902SOL    HW232166   2.337   0.714   0.560 -0.6028 -0.3007  2.0011
 6903SOL     OW32167   4.019   0.433   8.465 -0.0523  0.3454  0.1178
 6903SOL    HW132168   3.934   0.460   8.431  0.7090  1.3109 -1.0067
 6903SOL    HW232169   4.018   0.431   8.561  2.8533  0.6097  0.1523
 6904SOL     OW32170   0.295   3.609   5.417 -0.1862 -0.1722  0.4505
 6904SOL    HW132171   0.367   3.567   5.464  1.4844 -0.5143 -2.4930
 6904SOL    HW232172   0.298   3.698   5.452 -1.9707  1.7974 -4.5160
 6905SOL     OW32173   0.888   0.538   7.413 -0.0336 -0.0953 -0.6845
 6905SOL    HW132174   0.818   0.479   7.442  0.4227  0.5389  1.7188
 6905SOL    HW232175   0.906   0.511   7.323 -3.0342  0.3233 -1.3829
 6906SOL     OW32176   1.632   1.788  15.658 -0.4566  0.3461 -0.3233
 6906SOL    HW132177   1.631   1.740  15.741 -1.4500  0.0298 -0.5223
 6906SOL    HW232178   1.621   1.725  15.588 -0.3273  0.9497 -0.8834
 6907SOL     OW32179   0.095   0.932   4.902  0.5517 -0.1896  0.2727
 6907SOL    HW132180   0.146   1.010   4.881  0.0596  0.0549 -0.0129
 6907SOL    HW232181   0.161   0.863   4.908 -1.1903 -1.8964  0.0745
 6908SOL     OW32182   0.646   0.504   8.346  0.4242 -0.3992 -0.1282
 6908SOL    HW132183   0.717   0.442   8.329  0.7089 -0.3838  1.0211
 6908SOL    HW232184   0.691   0.588   8.333 -0.7805  0.2644 -0.0346
 6909SOL     OW32185   3.274   1.849   0.260  0.6661 -0.4403 -0.6353
 6909SOL    HW132186   3.315   1.805   0.186  0.0310 -1.4824 -0.3622
 6909SOL    HW232187   3.321   1.931   0.276  1.8535 -1.0598 -0.9036
 6910SOL     OW32188   1.698   0.437   7.832 -0.2300  0.1458  0.3240
 6910SOL    HW132189   1.681   0.487   7.752  1.5208  1.1310  0.5627
 6910SOL    HW232190   1.685   0.346   7.804 -1.0533  0.0246  1.0751
 6911SOL     OW32191   4.324   4.269   3.547 -0.1230 -0.3088 -0.0376
 6911SOL    HW132192   4.257   4.277   3.480 -0.0947 -0.7922 -0.1234
 6911SOL    HW232193   4.274   4.198   3.587  1.4070 -0.1645  2.1227
 6912SOL     OW32194   1.921   1.362   5.773 -0.1062  0.0589 -0.4394
 6912SOL    HW132195   1.919   1.367   5.678  1.2026 -3.4667 -0.6883
 6912SOL    HW232196   2.005   1.320   5.793  1.1209  0.6525 -4.4645
 6913SOL     OW32197   2.298   2.979   6.942 -0.1945 -0.4077  0.2055
 6913SOL    HW132198   2.307   3.062   6.990  2.2754 -0.5171 -0.0583
 6913SOL    HW232199   2.218   2.948   6.984 -0.6081 -0.1069 -0.3699
 6914SOL     OW32200   2.471   2.312   8.836 -0.6692 -0.8927 -0.0576
 6914SOL    HW132201   2.562   2.315   8.867  0.5374 -1.6250 -3.5505
 6914SOL    HW232202   2.485   2.321   8.742  0.8616  1.6779  0.4119
 6915SOL     OW32203   1.618   0.969   2.623 -0.0132 -0.1149  0.7074
 6915SOL    HW132204   1.584   1.012   2.545  1.5244 -1.6324 -0.7884
 6915SOL    HW232205   1.552   0.991   2.689  0.1540 -3.1353  1.8874
 6916SOL     OW32206   2.207   4.131   1.028 -0.2725 -0.1039 -0.4928
 6916SOL    HW132207   2.164   4.161   0.948  0.1453 -0.6898 -0.9359
 6916SOL    HW232208   2.297   4.116   0.998 -0.0116 -1.1189  0.7744
 6917SOL     OW32209   2.951   3.337   4.965  0.1017  0.5366  0.0437
 6917SOL    HW132210   2.982   3.421   4.930 -1.6596  1.4737  0.7550
 6917SOL    HW232211   2.859   3.335   4.941  0.6605  0.8287 -2.1367
 6918SOL     OW32212   4.149   1.109  11.116 -0.1814  0.1744  0.3015
 6918SOL    HW132213   4.230   1.159  11.104 -1.2444  1.9929  0.6938
 6918SOL    HW232214   4.149   1.102  11.212  0.5872 -1.1104  0.2119
 6919SOL     OW32215   0.067   1.751   7.697 -0.3894 -0.2003  0.1708
 6919SOL    HW132216   0.136   1.787   7.753  0.9695 -1.4956 -0.6736
 6919SOL    HW232217   0.085   1.657   7.695 -2.4275 -0.6050  1.8332
 6920SOL     OW32218   1.167   4.012   2.078  0.7758 -0.2861  0.2137
 6920SOL    HW132219   1.212   4.074   2.021 -0.7359  0.4430 -0.1973
 6920SOL    HW232220   1.082   4.055   2.084 -0.4422 -2.5080 -0.8762
 6921SOL     OW32221   1.709   3.951   4.092 -0.0502  0.0813 -0.2131
 6921SOL    HW132222   1.743   3.862   4.086 -0.3215 -0.1384  1.6812
 6921SOL    HW232223   1.701   3.967   4.186 -1.1003  0.0343 -0.2986
 6922SOL     OW32224   4.416   4.099  10.596  0.2413 -0.3206 -0.2026
 6922SOL    HW132225   4.508   4.116  10.611  0.0336 -0.3139  1.0294
 6922SOL    HW232226   4.418   4.083  10.501  1.3135 -1.3045 -0.0223
 6923SOL     OW32227   3.851   2.107   8.196 -0.2208  0.1382  1.2125
 6923SOL    HW132228   3.881   2.040   8.258 -0.2703  0.5810  1.7151
 6923SOL    HW232229   3.930   2.160   8.201  0.6701 -0.8115 -3.0915
 6924SOL     OW32230   1.113   3.674   3.003 -0.4118 -0.1275 -0.6807
 6924SOL    HW132231   1.052   3.671   2.929  0.1009 -0.3407 -1.0947
 6924SOL    HW232232   1.196   3.666   2.956  0.3395  0.8860  0.4739
 6925SOL     OW32233   1.644   2.286   9.543 -0.0369 -0.7303 -0.1718
 6925SOL    HW132234   1.633   2.191   9.539 -0.2917 -0.6776 -0.7271
 6925SOL    HW232235   1.728   2.290   9.588 -0.0069  0.1254 -0.2963
 6926SOL     OW32236   1.260   3.515   3.666 -0.4263  0.0670 -0.3089
 6926SOL    HW132237   1.212   3.474   3.737  1.1478  2.3850  2.0805
 6926SOL    HW232238   1.250   3.607   3.693  1.1890 -0.1000  0.8649
 6927SOL     OW32239   1.912   1.102   7.378  0.2914  0.7036 -0.4162
 6927SOL    HW132240   1.914   1.079   7.471  2.4659 -0.0030 -0.6315
 6927SOL    HW232241   1.882   1.193   7.377 -1.2142  0.1993 -1.0092
 6928SOL     OW32242   1.592   4.266   4.639 -0.0310  0.4606 -0.1298
 6928SOL    HW132243   1.559   4.313   4.716 -0.1286 -0.1465  0.2008
 6928SOL    HW232244   1.610   4.176   4.667 -0.2180 -0.3684 -2.7097
 6929SOL     OW32245   3.651   2.432   1.370 -0.1355 -0.1128  0.4229
 6929SOL    HW132246   3.621   2.522   1.384  0.4432  0.4041 -1.6141
 6929SOL    HW232247   3.621   2.389   1.450  0.0121 -0.5026  0.2681
 6930SOL     OW32248   0.128   3.498   4.579 -0.0745  0.6378  0.0309
 6930SOL    HW132249   0.055   3.559   4.587 -2.0413 -1.7214 -0.0052
 6930SOL    HW232250   0.096   3.424   4.630 -0.7296 -0.3249 -1.7762
 6931SOL     OW32251   2.686   4.414   0.201 -0.1026  0.3027  0.2239
 6931SOL    HW132252   2.625   4.341   0.192  2.8337 -2.2634  1.2093
 6931SOL    HW232253   2.737   4.410   0.120 -2.0418  0.7742 -0.9933
 6932SOL     OW32254   1.163   4.687   8.691 -0.2174 -0.9147 -0.0398
 6932SOL    HW132255   1.119   4.603   8.707 -0.3689 -0.3208  2.6413
 6932SOL    HW232256   1.091   0.028   8.692 -0.7193 -1.4790 -0.7784
 6933SOL     OW32257   0.482   4.125   8.036  0.0695 -0.0207  0.7753
 6933SOL    HW132258   0.464   4.204   8.087 -0.3726 -0.4582  1.2933
 6933SOL    HW232259   0.400   4.124   7.987  0.8586 -0.0527 -0.5540
 6934SOL     OW32260   3.739   0.766  13.788 -0.1622 -0.3546  0.1356
 6934SOL    HW132261   3.706   0.710  13.718  0.7301 -1.1020  0.3185
 6934SOL    HW232262   3.663   0.812  13.825 -0.3322  1.6681 -2.7216
 6935SOL     OW32263   0.855   0.455   2.573  0.4709 -0.2098 -0.1665
 6935SOL    HW132264   0.761   0.471   2.582  0.2077 -1.3758 -0.8261
 6935SOL    HW232265   0.866   0.385   2.637 -1.0531 -2.0210 -1.9065
 6936SOL     OW32266   0.881   2.593   3.474 -0.3733 -0.7905  0.1897
 6936SOL    HW132267   0.848   2.653   3.407  0.1556  1.0352  1.5770
 6936SOL    HW232268   0.804   2.539   3.491 -0.9774 -0.2585 -0.8644
 6937SOL     OW32269   3.310   4.460  11.331  0.4712 -0.0882 -0.4390
 6937SOL    HW132270   3.306   4.382  11.276  4.0899 -0.3218 -0.3317
 6937SOL    HW232271   3.368   4.424  11.397 -1.8021 -0.7444  1.2088
 6938SOL     OW32272   2.271   0.630   8.138 -0.4750 -0.3298  0.1369
 6938SOL    HW132273   2.346   0.573   8.156  0.4473  0.9016  0.1992
 6938SOL    HW232274   2.194   0.573   8.139  0.6050 -1.7932  0.5494
 6939SOL     OW32275   0.691   3.966   7.823  0.0297  0.0739 -0.2677
 6939SOL    HW132276   0.753   4.039   7.821 -0.1678  0.2834  0.8971
 6939SOL    HW232277   0.739   3.910   7.762  0.0032  1.4752 -1.5719
 6940SOL     OW32278   1.755   1.960  12.015 -0.5003 -0.7533 -0.1426
 6940SOL    HW132279   1.736   2.031  11.953 -0.5086 -0.9502 -0.3625
 6940SOL    HW232280   1.734   1.880  11.967 -1.5061  0.1972 -1.2884
 6941SOL     OW32281   0.174   1.168   6.563  0.2888  0.1051 -0.0364
 6941SOL    HW132282   0.195   1.170   6.470 -0.9270  0.5513 -0.2992
 6941SOL    HW232283   0.081   1.181   6.580  0.1611 -2.4265  1.2749
 6942SOL     OW32284   1.301   0.976   1.792  0.9632  0.4883 -0.3982
 6942SOL    HW132285   1.329   0.951   1.705  2.1090 -0.1913  0.1771
 6942SOL    HW232286   1.311   1.071   1.778 -2.2703  0.7869 -0.7057
 6943SOL     OW32287   0.231   1.637   4.676 -0.0534 -0.0587  0.5060
 6943SOL    HW132288   0.288   1.707   4.643 -1.1926  0.9868  0.7686
 6943SOL    HW232289   0.203   1.592   4.596  0.5511 -1.9641  1.3738
 6944SOL     OW32290   4.684   1.088   6.393  0.2622  0.6191 -0.6024
 6944SOL    HW132291   4.674   1.020   6.326 -0.2471  0.8181 -0.7283
 6944SOL    HW232292   4.661   1.038   6.471 -0.7608  0.8230 -0.7790
 6945SOL     OW32293   4.408   1.106   6.035  0.0246 -0.7643 -0.0906
 6945SOL    HW132294   4.420   1.058   6.117  0.6590 -0.0860  0.2188
 6945SOL    HW232295   4.487   1.160   6.044 -1.0778  0.4267  2.6001
 6946SOL     OW32296   1.876   2.956  13.065 -0.4030 -0.5672 -0.0726
 6946SOL    HW132297   1.895   2.997  12.980  1.5548  1.8037  1.5311
 6946SOL    HW232298   1.957   2.918  13.099  0.8802  1.7458 -0.5238
 6947SOL     OW32299   0.674   3.395   7.304 -0.1130  0.1507  0.3711
 6947SOL    HW132300   0.741   3.446   7.349  0.8513 -1.3689  0.6475
 6947SOL    HW232301   0.720   3.338   7.243  1.3186  2.4511 -0.6733
 6948SOL     OW32302   2.133   2.642  10.607 -0.1334  0.3284 -0.1488
 6948SOL    HW132303   2.120   2.676  10.518  0.3577 -0.6281 -0.5880
 6948SOL    HW232304   2.043   2.619  10.631  0.3794  0.6714  2.1330
 6949SOL     OW32305   1.282   3.759   5.487 -0.3090 -0.6759 -0.2292
 6949SOL    HW132306   1.375   3.739   5.476 -0.5608 -1.1529 -1.4734
 6949SOL    HW232307   1.275   3.845   5.444  1.2833 -0.2933  0.2922
 6950SOL     OW32308   0.485   0.757   3.513 -0.2874  0.6659  0.0158
 6950SOL    HW132309   0.540   0.835   3.510  1.3222 -0.4688  0.2521
 6950SOL    HW232310   0.554   0.692   3.507 -0.6945  0.1376  0.9385
 6951SOL     OW32311   3.471   1.498  17.455  0.2025 -0.0610 -0.5312
 6951SOL    HW132312   3.403   1.445  17.413  1.2833 -1.2162 -0.8223
 6951SOL    HW232313   3.497   1.437  17.524 -2.2910 -0.0340  0.4097
 6952SOL     OW32314   0.193   4.368   8.566  0.6039 -0.5690  0.0197
 6952SOL    HW132315   0.099   4.362   8.580  0.3169  1.5096 -0.9341
 6952SOL    HW232316   0.226   4.325   8.645  0.0899 -1.2138 -0.1159
 6953SOL     OW32317   1.635   3.027   8.408 -0.0403  0.4896  0.0706
 6953SOL    HW132318   1.701   3.078   8.455 -0.3296 -0.8442  1.9090
 6953SOL    HW232319   1.604   3.106   8.363  2.2535  0.8377 -0.9239
 6954SOL     OW32320   3.849   1.579   2.174  0.1739 -0.0784 -0.3592
 6954SOL    HW132321   3.809   1.664   2.156  1.4667  1.1378  2.6500
 6954SOL    HW232322   3.880   1.593   2.263  0.6105  1.8099 -0.8162
 6955SOL     OW32323   2.454   1.881   1.570  0.3715 -1.0089  0.8466
 6955SOL    HW132324   2.498   1.838   1.643 -0.9094 -1.9743  1.0569
 6955SOL    HW232325   2.504   1.962   1.571  0.4509 -1.0346 -4.0814
 6956SOL     OW32326   1.915   1.731  15.605  0.0280 -0.1835 -0.8480
 6956SOL    HW132327   1.934   1.714  15.698  1.2331 -0.2293 -1.1070
 6956SOL    HW232328   1.882   1.820  15.617 -1.1035 -0.8868  1.3263
 6957SOL     OW32329   1.012   1.836  16.042  0.6023  0.4276  0.0089
 6957SOL    HW132330   1.071   1.784  15.988  1.5789  2.0173 -0.4825
 6957SOL    HW232331   1.003   1.919  15.994  1.0424  0.8404  0.6405
 6958SOL     OW32332   3.119   1.855   4.426 -0.2160  0.3584  0.2435
 6958SOL    HW132333   3.129   1.942   4.466  0.9692  0.1379  0.4184
 6958SOL    HW232334   3.121   1.801   4.505  2.7490 -0.1646 -0.1968
 6959SOL     OW32335   0.508   0.856   5.769 -0.7341  0.6461 -0.6321
 6959SOL    HW132336   0.425   0.895   5.798  0.1670  0.2040  2.5176
 6959SOL    HW232337   0.562   0.891   5.839 -1.0719  0.6976 -0.3943
 6960SOL     OW32338   1.509   1.415   6.168  0.4065  0.1829  0.0692
 6960SOL    HW132339   1.573   1.460   6.223  0.3248 -1.2816  1.3503
 6960SOL    HW232340   1.562   1.371   6.101  1.2456  0.8785  0.2847
 6961SOL     OW32341   1.546   3.496  15.565  0.7105  0.5280 -0.3469
 6961SOL    HW132342   1.473   3.434  15.570  2.0227 -0.9430  0.5337
 6961SOL    HW232343   1.611   3.430  15.539  0.2126  0.1814 -0.7341
 6962SOL     OW32344   2.968   4.350   7.237  0.5954 -0.8628 -0.3662
 6962SOL    HW132345   3.003   4.406   7.307  1.1299 -1.2631 -0.3156
 6962SOL    HW232346   2.947   4.273   7.289 -2.0432 -0.4974 -0.9001
 6963SOL     OW32347   2.049   3.259   9.348  0.0096 -0.6587  0.1258
 6963SOL    HW132348   1.958   3.254   9.376  0.1215  2.2057  1.0965
 6963SOL    HW232349   2.044   3.330   9.284  0.2861  0.2741  1.1346
 6964SOL     OW32350   1.509   3.956   2.413  0.2599 -0.0037 -0.2344
 6964SOL    HW132351   1.433   4.011   2.431  0.3975 -0.4088  1.6687
 6964SOL    HW232352   1.555   3.975   2.495  0.1966  1.8046 -0.6398
 6965SOL     OW32353   2.828   4.334  12.892  0.1253  0.5313 -0.0429
 6965SOL    HW132354   2.788   4.318  12.978  1.0916 -1.5820  0.0086
 6965SOL    HW232355   2.912   4.294  12.912  0.1717 -0.6370 -2.6113
 6966SOL     OW32356   1.201   0.891   2.425 -0.3478 -0.1947 -0.4262
 6966SOL    HW132357   1.154   0.973   2.408  2.0732  0.9649 -1.4447
 6966SOL    HW232358   1.200   0.882   2.521  1.0827 -0.6248 -0.4519
 6967SOL     OW32359   0.325   1.401  13.577 -0.5159  0.1661 -0.0036
 6967SOL    HW132360   0.249   1.344  13.576 -0.5911  0.2770 -1.2227
 6967SOL    HW232361   0.302   1.450  13.656  0.1010  1.1827 -0.4454
 6968SOL     OW32362   3.837   4.063  10.601  0.0702  0.2380 -0.4196
 6968SOL    HW132363   3.894   4.017  10.540 -0.7374  0.1239 -1.0778
 6968SOL    HW232364   3.845   4.156  10.579 -1.0080  0.6531  0.9120
 6969SOL     OW32365   2.495   4.184  15.059 -0.3497  0.0565 -0.1607
 6969SOL    HW132366   2.527   4.260  15.108 -2.2221  0.4210  0.5297
 6969SOL    HW232367   2.508   4.114  15.123 -0.6111  1.1412  1.0790
 6970SOL     OW32368   2.453   2.784   5.784  0.6828  0.2592 -0.5841
 6970SOL    HW132369   2.542   2.809   5.810  1.3138 -0.4558 -2.0667
 6970SOL    HW232370   2.401   2.842   5.840  1.1443 -1.2620  1.3907
 6971SOL     OW32371   2.309   4.399   8.351  0.3351 -0.1760  0.4658
 6971SOL    HW132372   2.284   4.480   8.396 -3.1104 -1.5433  1.0316
 6971SOL    HW232373   2.294   4.424   8.260  0.4120 -0.5093  0.3603
 6972SOL     OW32374   3.863   1.496   6.998  0.2089 -0.0808 -0.3719
 6972SOL    HW132375   3.944   1.473   6.952  0.3150  0.5489 -0.5041
 6972SOL    HW232376   3.798   1.434   6.965  0.0812  0.2912 -0.8207
 6973SOL     OW32377   1.351   1.202   0.732  0.4242  0.5983  0.3871
 6973SOL    HW132378   1.302   1.280   0.756 -0.7344 -0.3289  1.0517
 6973SOL    HW232379   1.441   1.224   0.757  1.9139 -2.7823 -2.0130
 6974SOL     OW32380   1.568   3.690   2.484  0.0980  0.0352 -0.3983
 6974SOL    HW132381   1.543   3.770   2.438  0.8403  1.2538  1.3408
 6974SOL    HW232382   1.579   3.624   2.416 -0.9821  0.6636 -1.1811
 6975SOL     OW32383   4.161   2.533   6.978  0.3654 -0.6766 -0.2401
 6975SOL    HW132384   4.080   2.519   6.930  1.4853 -2.0782 -1.7353
 6975SOL    HW232385   4.225   2.469   6.945 -0.1358 -0.2588 -2.0022
 6976SOL     OW32386   3.947   1.256  14.212  0.1244 -0.0554 -0.2816
 6976SOL    HW132387   3.943   1.328  14.275  1.2454 -0.0081 -0.2548
 6976SOL    HW232388   3.861   1.213  14.214 -0.7286  1.6648 -0.4121
 6977SOL     OW32389   3.366   2.364  13.137 -0.0673 -0.0220  0.9250
 6977SOL    HW132390   3.290   2.351  13.194  0.4772 -4.8593  0.5321
 6977SOL    HW232391   3.324   2.355  13.052  1.7152 -0.8185  0.1372
 6978SOL     OW32392   2.912   2.824   1.411  0.3800 -0.0380 -0.5792
 6978SOL    HW132393   2.927   2.831   1.505  2.2389  0.2521 -0.8991
 6978SOL    HW232394   2.986   2.882   1.394  1.2508 -2.0845 -3.7495
 6979SOL     OW32395   0.440   1.199   2.827  0.4303  0.3628 -0.4208
 6979SOL    HW132396   0.412   1.115   2.793  2.4065 -0.4409 -0.0456
 6979SOL    HW232397   0.378   1.216   2.898  2.4750 -0.7699  1.6097
 6980SOL     OW32398   1.556   4.191   8.812  0.6322  0.4449  0.3453
 6980SOL    HW132399   1.476   4.146   8.841  2.6457 -1.8938  2.3030
 6980SOL    HW232400   1.625   4.145   8.860 -0.6648 -1.5246  0.3454
 6981SOL     OW32401   1.546   0.736   7.896 -0.1413 -0.1164 -0.0572
 6981SOL    HW132402   1.584   0.699   7.975  3.5213  2.9334 -0.3711
 6981SOL    HW232403   1.589   0.820   7.878 -0.4583  0.3872  1.5044
 6982SOL     OW32404   1.833   0.191  14.787  0.5102  0.0790 -0.1871
 6982SOL    HW132405   1.881   0.273  14.790  3.0292 -1.2715 -2.7433
 6982SOL    HW232406   1.836   0.152  14.874  0.5084  0.5753  0.0295
 6983SOL     OW32407   2.735   0.578   5.983 -0.1549  0.3604 -0.0886
 6983SOL    HW132408   2.786   0.657   5.962  2.0327 -0.5292  1.8933
 6983SOL    HW232409   2.752   0.574   6.077 -1.4358 -1.8948  0.0345
 6984SOL     OW32410   1.443   0.892   1.588 -0.2314  0.0800  0.9679
 6984SOL    HW132411   1.463   0.800   1.602 -3.8342 -0.7968  0.2396
 6984SOL    HW232412   1.525   0.915   1.543  0.9577 -0.3457  2.9245
 6985SOL     OW32413   0.607   4.682   3.179  0.2698  0.4357  0.0028
 6985SOL    HW132414   0.516   4.684   3.146  0.5252  0.8079 -0.6842
 6985SOL    HW232415   0.658   4.720   3.108 -0.1502  1.8112  0.4404
 6986SOL     OW32416   3.500   0.142   7.555 -0.0176  0.7327 -0.1972
 6986SOL    HW132417   3.561   0.069   7.558 -0.8431  0.1572  2.4003
 6986SOL    HW232418   3.425   0.101   7.512  1.2305  0.1694 -1.8467
 6987SOL     OW32419   2.957   1.195   3.635 -0.6223  0.2337 -0.7318
 6987SOL    HW132420   3.018   1.225   3.702 -0.9347  1.5193 -1.0274
 6987SOL    HW232421   2.871   1.189   3.677 -0.5088 -1.4665 -0.7359
 6988SOL     OW32422   2.328   1.963   1.836  0.1370  0.8636  0.7358
 6988SOL    HW132423   2.247   1.919   1.863 -1.4278  1.9846 -2.1847
 6988SOL    HW232424   2.326   1.942   1.743 -1.2080  1.7593  0.5676
 6989SOL     OW32425   1.460   2.331   3.782 -0.8531  0.6828  0.0650
 6989SOL    HW132426   1.375   2.374   3.787 -1.9844 -1.5111 -0.0550
 6989SOL    HW232427   1.486   2.334   3.874  0.0454 -2.6793 -0.0612
 6990SOL     OW32428   2.196   2.447   7.741  0.2708  0.0679  0.3288
 6990SOL    HW132429   2.207   2.358   7.774  1.2376  0.2215  0.4262
 6990SOL    HW232430   2.101   2.445   7.726  0.2820 -0.4581  0.3333
 6991SOL     OW32431   2.122   0.401   7.766  0.0737 -0.3176  0.9602
 6991SOL    HW132432   2.198   0.458   7.777 -0.6042  0.1929  3.0167
 6991SOL    HW232433   2.052   0.452   7.805  0.5002  1.2697 -0.3740
 6992SOL     OW32434   1.826   2.086   3.005  0.0036  0.3655  0.4964
 6992SOL    HW132435   1.757   2.098   3.070 -0.2179  0.6111  0.2115
 6992SOL    HW232436   1.854   2.177   2.991 -0.4068  0.6865  1.7848
 6993SOL     OW32437   2.793   1.198   4.226  0.2553 -0.1918 -0.0928
 6993SOL    HW132438   2.854   1.124   4.229  0.6254  0.0821 -0.9479
 6993SOL    HW232439   2.717   1.164   4.180  0.1322  0.0428 -0.0628
 6994SOL     OW32440   2.353   0.411  11.647 -0.2017 -0.4962  0.2057
 6994SOL    HW132441   2.424   0.450  11.596 -0.7539 -0.8224 -0.8018
 6994SOL    HW232442   2.361   0.319  11.624 -2.2981 -0.8647  0.9621
 6995SOL     OW32443   1.331   3.107  12.624  0.0595 -0.6635 -0.3734
 6995SOL    HW132444   1.258   3.129  12.566  1.3052 -0.6352 -1.9433
 6995SOL    HW232445   1.295   3.042  12.684 -2.2670  2.4316  1.5752
 6996SOL     OW32446   4.158   4.703  16.207  0.6178  0.1630 -0.5080
 6996SOL    HW132447   4.118   0.062  16.241  2.2831  0.4808  0.7053
 6996SOL    HW232448   4.249   0.010  16.218  0.7935 -0.2343 -0.9767
 6997SOL     OW32449   1.479   3.876  11.652  0.1154 -0.3533  0.3155
 6997SOL    HW132450   1.514   3.860  11.564 -0.9290  0.8206 -0.2970
 6997SOL    HW232451   1.393   3.852  11.620  1.4006  0.1313 -3.4727
 6998SOL     OW32452   2.374   0.057   4.901  0.3744  0.6304  0.9753
 6998SOL    HW132453   2.341   4.707   4.846 -0.1739  0.7875  1.1037
 6998SOL    HW232454   2.353   0.028   4.989  1.9272 -0.4724  0.9667
 6999SOL     OW32455   2.550   2.722  11.290 -0.3112 -0.4717  0.8993
 6999SOL    HW132456   2.582   2.636  11.262  0.5730 -0.0222  0.5047
 6999SOL    HW232457   2.586   2.776  11.219 -2.2380  0.9288  0.9879
 7000SOL     OW32458   0.301   2.049  15.917 -0.4884  0.0472  0.2071
 7000SOL    HW132459   0.286   2.008  16.002 -0.7515 -0.0699  0.1021
 7000SOL    HW232460   0.255   1.985  15.863  1.2590 -1.0242  0.0011
 7001SOL     OW32461   2.539   1.004   3.889  0.0634 -0.4953  0.1952
 7001SOL    HW132462   2.610   0.942   3.907  0.5704 -0.7980 -2.8921
 7001SOL    HW232463   2.536   1.058   3.968 -1.9602 -1.4708  0.7897
 7002SOL     OW32464   0.708   4.405   7.215  0.4456 -0.3709  0.5279
 7002SOL    HW132465   0.716   4.330   7.155 -0.4826  2.0407 -2.6324
 7002SOL    HW232466   0.766   4.382   7.287 -1.3595 -1.8246  1.4981
 7003SOL     OW32467   1.577   1.248   3.425 -0.0619 -0.2761 -0.3127
 7003SOL    HW132468   1.671   1.257   3.439 -0.1054 -0.7779  0.2758
 7003SOL    HW232469   1.563   1.340   3.449  0.4717 -0.3470  0.2769
 7004SOL     OW32470   2.866   3.282   5.802  0.5687  0.1923  0.6446
 7004SOL    HW132471   2.884   3.204   5.749  1.2926 -1.4711  3.3012
 7004SOL    HW232472   2.932   3.267   5.870  0.4988 -1.0144  0.4393
 7005SOL     OW32473   1.999   2.619  16.207  0.1419 -0.0871  0.6116
 7005SOL    HW132474   1.989   2.705  16.247  0.0542 -0.1980  0.8333
 7005SOL    HW232475   1.931   2.567  16.252  0.8394 -2.1794 -0.7609
 7006SOL     OW32476   4.114   2.140   1.286  0.4168  0.2987 -0.2728
 7006SOL    HW132477   4.025   2.149   1.322  1.0726 -0.4059  1.5137
 7006SOL    HW232478   4.101   2.098   1.201  0.5511  2.2606 -1.2508
 7007SOL     OW32479   0.233   1.248   3.029  0.0217  0.6142  0.1321
 7007SOL    HW132480   0.171   1.210   3.091  0.1475  1.6740  0.9162
 7007SOL    HW232481   0.288   1.303   3.086 -0.2872  1.1389 -0.0695
 7008SOL     OW32482   3.014   0.231   8.547  0.0780 -0.6217 -0.3050
 7008SOL    HW132483   3.101   0.258   8.577 -0.4532 -0.0865  0.7510
 7008SOL    HW232484   3.011   0.143   8.582 -0.9159 -0.8458 -0.9480
 7009SOL     OW32485   0.353   1.020   7.128  0.2079 -0.5624 -0.1739
 7009SOL    HW132486   0.420   1.089   7.136 -1.7471  1.3100 -0.0545
 7009SOL    HW232487   0.302   1.063   7.060 -0.9697  0.5930  1.4212
 7010SOL     OW32488   3.346   3.906   3.503 -0.1675  0.7028 -0.2279
 7010SOL    HW132489   3.301   3.968   3.562 -0.9420 -0.1124  0.0350
 7010SOL    HW232490   3.271   3.866   3.461 -0.9732  1.1074  0.8176
 7011SOL     OW32491   3.090   3.282  15.610  0.4437  0.2903 -0.3920
 7011SOL    HW132492   3.038   3.330  15.674 -0.5239 -2.2318  0.7133
 7011SOL    HW232493   3.021   3.225  15.574 -0.6424  0.3500  1.6130
 7012SOL     OW32494   3.095   0.553   0.210  0.4270 -0.1442 -0.2099
 7012SOL    HW132495   3.140   0.631   0.242 -0.9278 -0.3301  2.1116
 7012SOL    HW232496   3.117   0.492   0.279  4.0553  2.3541  0.8134
 7013SOL     OW32497   3.504   2.034   5.522 -0.2560  0.3209 -0.1014
 7013SOL    HW132498   3.428   2.084   5.491  1.2640  1.7763 -1.4456
 7013SOL    HW232499   3.568   2.102   5.502  1.2489 -1.1124 -0.1391
 7014SOL     OW32500   4.175   1.939   3.213  0.0765 -0.0109 -0.2015
 7014SOL    HW132501   4.193   1.848   3.192 -0.1346 -0.1224  0.0952
 7014SOL    HW232502   4.201   1.972   3.127  0.3910 -1.1622 -0.5403
 7015SOL     OW32503   2.372   4.319   4.232  0.4851 -0.0214 -0.2506
 7015SOL    HW132504   2.302   4.352   4.176 -1.7767  0.1651  2.6591
 7015SOL    HW232505   2.434   4.391   4.225  1.1690 -0.2864  2.7727
 7016SOL     OW32506   1.731   4.434   4.481  0.3517 -0.1117 -0.7997
 7016SOL    HW132507   1.673   4.371   4.524  1.1416 -1.5754 -1.8955
 7016SOL    HW232508   1.810   4.381   4.486  0.9040  0.7377 -0.5535
 7017SOL     OW32509   4.555   4.066  13.244  0.8218 -0.5605 -0.7281
 7017SOL    HW132510   4.477   4.017  13.271  0.5965  0.5056  0.5216
 7017SOL    HW232511   4.554   4.073  13.148  0.5719  1.5326 -0.5556
 7018SOL     OW32512   0.892   2.202   4.235  0.6848 -0.4246 -0.2586
 7018SOL    HW132513   0.878   2.108   4.227  1.2453 -0.6401  1.2288
 7018SOL    HW232514   0.898   2.227   4.143 -0.5650  1.0654  0.0553
 7019SOL     OW32515   2.826   1.979  12.080 -0.5846  0.2844 -0.4291
 7019SOL    HW132516   2.813   1.945  11.991 -1.1663  1.2545 -0.7243
 7019SOL    HW232517   2.920   1.974  12.097 -0.8695 -0.8921  0.7427
 7020SOL     OW32518   1.466   1.958   5.099  0.0425 -0.0303  0.0246
 7020SOL    HW132519   1.470   2.054   5.098  1.5645 -0.0811  1.8583
 7020SOL    HW232520   1.486   1.950   5.192  3.2144 -1.3865 -0.7953
 7021SOL     OW32521   1.045   3.291   0.868 -0.2507  0.6620 -0.2855
 7021SOL    HW132522   1.010   3.330   0.788 -2.6091 -1.4076 -0.2673
 7021SOL    HW232523   1.139   3.299   0.856 -0.1895 -0.5349 -0.5932
 7022SOL     OW32524   1.814   2.667   7.846  0.0646 -0.2506 -0.1761
 7022SOL    HW132525   1.897   2.712   7.860 -0.3260  0.5425 -0.3559
 7022SOL    HW232526   1.791   2.657   7.939  0.5563  2.8091  0.2737
 7023SOL     OW32527   1.492   2.233   2.307  0.0771  0.0819 -0.3794
 7023SOL    HW132528   1.533   2.320   2.305 -1.4279  0.8049  0.0518
 7023SOL    HW232529   1.490   2.223   2.212 -0.2340 -0.6240 -0.2931
 7024SOL     OW32530   3.089   2.575   6.867 -0.3854 -0.1005  0.6458
 7024SOL    HW132531   3.131   2.579   6.952  3.6128 -0.3873 -1.3203
 7024SOL    HW232532   3.095   2.666   6.836 -1.0791 -0.0012  0.7996
 7025SOL     OW32533   2.063   1.224   6.954  0.0204 -0.1078  0.1918
 7025SOL    HW132534   1.987   1.210   7.011  0.1678  3.9157  1.3751
 7025SOL    HW232535   2.135   1.208   7.014  0.3743  0.4029 -0.0973
 7026SOL     OW32536   3.924   2.597   5.960  0.1297 -0.2648 -0.7596
 7026SOL    HW132537   3.997   2.629   6.012 -1.1897  0.1305  0.8498
 7026SOL    HW232538   3.874   2.677   5.977 -0.5944 -1.0634  0.8643
 7027SOL     OW32539   1.972   0.311   6.152 -0.3416 -0.1388  0.1452
 7027SOL    HW132540   2.045   0.249   6.153 -0.8909 -0.8117 -1.5466
 7027SOL    HW232541   2.021   0.388   6.121  2.1123 -1.7597  0.0248
 7028SOL     OW32542   1.951   2.172   0.716 -0.3081 -0.3195  0.0665
 7028SOL    HW132543   1.988   2.144   0.800  0.1245 -0.6574 -0.2331
 7028SOL    HW232544   2.030   2.216   0.684  0.2259 -1.5547 -0.3205
 7029SOL     OW32545   2.989   4.183   3.584 -0.2804  0.1670 -0.6156
 7029SOL    HW132546   2.931   4.252   3.553  2.0226  1.6393 -1.6845
 7029SOL    HW232547   2.960   4.110   3.528  1.9142 -1.3320  0.1891
 7030SOL     OW32548   4.143   1.162  15.252 -0.5541  0.2164  0.3260
 7030SOL    HW132549   4.219   1.113  15.220 -1.3657  0.1051 -1.4297
 7030SOL    HW232550   4.172   1.253  15.250  1.8435 -0.6073 -2.2199
 7031SOL     OW32551   0.518   0.922   4.645 -0.2212  0.3525 -0.3445
 7031SOL    HW132552   0.520   0.889   4.734 -1.6648  0.9360 -0.1037
 7031SOL    HW232553   0.565   0.854   4.595 -0.8029  0.2082 -0.6965
 7032SOL     OW32554   0.071   3.716  12.719  0.5857 -0.4393 -0.1314
 7032SOL    HW132555   4.710   3.672  12.744  0.8156 -0.2390  0.9934
 7032SOL    HW232556   0.127   3.711  12.796  2.6526 -1.1186 -1.7065
 7033SOL     OW32557   4.634   1.576   7.049  0.1719 -0.1773 -0.2778
 7033SOL    HW132558   4.678   1.517   7.109 -0.1907 -0.9033 -0.7288
 7033SOL    HW232559   4.673   1.654   7.087 -0.7614 -0.2031  0.7366
 7034SOL     OW32560   3.334   4.618   6.334  0.2167  0.2878 -0.1800
 7034SOL    HW132561   3.421   4.630   6.373 -0.0498  1.8778 -0.0504
 7034SOL    HW232562   3.333   4.528   6.304  0.8713 -0.0221  0.6942
 7035SOL     OW32563   2.445   3.910   7.831 -0.0431 -0.6190 -0.1299
 7035SOL    HW132564   2.489   3.860   7.763  0.0391 -3.0935  1.7549
 7035SOL    HW232565   2.354   3.911   7.801 -0.0107 -1.2186 -0.2321
 7036SOL     OW32566   2.013   2.349  11.132 -0.0067  0.6125 -0.3990
 7036SOL    HW132567   2.044   2.379  11.218  0.5872  0.1978 -0.4658
 7036SOL    HW232568   2.066   2.400  11.070  0.4127  0.4588 -0.1687
 7037SOL     OW32569   1.687   4.214  12.022 -0.0499  0.5625  0.1954
 7037SOL    HW132570   1.611   4.175  11.978  0.0596  0.6818 -0.0969
 7037SOL    HW232571   1.732   4.223  11.938 -0.3988 -0.1188 -0.0714
 7038SOL     OW32572   4.628   0.555   4.264  0.6091 -0.0630  0.5430
 7038SOL    HW132573   4.553   0.535   4.208 -0.6018  1.7222  1.5231
 7038SOL    HW232574   4.630   0.651   4.271  0.5703  0.0147 -0.5575
 7039SOL     OW32575   2.797   1.810   2.231  0.2089 -0.3186 -0.0330
 7039SOL    HW132576   2.769   1.794   2.141 -1.4259 -0.9581  0.5924
 7039SOL    HW232577   2.891   1.824   2.220  0.3288 -0.6262  0.5735
 7040SOL     OW32578   4.003   1.393   5.951 -0.2749  0.7741  0.6635
 7040SOL    HW132579   4.054   1.442   6.014 -1.2469  0.6868  1.5179
 7040SOL    HW232580   3.944   1.464   5.926  0.1365  0.8692 -0.0221
 7041SOL     OW32581   2.631   3.949   4.953  0.2496 -0.3153  0.4526
 7041SOL    HW132582   2.549   3.969   4.908 -0.1953 -1.9153  0.5691
 7041SOL    HW232583   2.619   4.004   5.031 -1.2758  0.7055 -0.4985
 7042SOL     OW32584   4.340   0.460  12.090  0.0926 -0.3600 -0.2777
 7042SOL    HW132585   4.411   0.454  12.153  1.0241 -1.9850 -1.4834
 7042SOL    HW232586   4.381   0.522  12.030 -0.6863  0.7580  0.3493
 7043SOL     OW32587   4.062   4.405   5.073  0.3935 -0.1519  0.3245
 7043SOL    HW132588   3.986   4.446   5.033 -0.1000 -0.7036  0.6994
 7043SOL    HW232589   4.106   4.484   5.103 -1.7114  0.4098  1.9236
 7044SOL     OW32590   2.794   2.869  14.630  0.7490 -0.4640 -0.1723
 7044SOL    HW132591   2.764   2.839  14.545  1.6779 -1.5008 -0.1361
 7044SOL    HW232592   2.711   2.879  14.675  1.0700  1.9303 -0.1116
 7045SOL     OW32593   4.560   1.487  13.637 -0.6166  0.0299 -0.1519
 7045SOL    HW132594   4.520   1.551  13.696  1.6692  1.2334  0.0884
 7045SOL    HW232595   4.499   1.490  13.563 -1.1211  0.4754  0.2819
 7046SOL     OW32596   0.461   4.584   7.828  0.6044  0.2872 -0.2654
 7046SOL    HW132597   0.484   4.491   7.824 -0.1341 -0.0265  2.3914
 7046SOL    HW232598   0.545   4.614   7.863  0.8941 -0.7536 -0.0759
 7047SOL     OW32599   3.382   0.708   4.539  0.5958 -0.2012 -0.1087
 7047SOL    HW132600   3.349   0.630   4.494 -1.0357  0.3030  0.2106
 7047SOL    HW232601   3.406   0.663   4.619 -1.3060  0.1570  0.6568
 7048SOL     OW32602   1.077   3.745   1.984 -0.6476  0.2212 -0.5805
 7048SOL    HW132603   0.987   3.775   1.971 -1.2139  0.1491  3.1262
 7048SOL    HW232604   1.117   3.828   2.012 -0.3058  0.3627 -1.4787
 7049SOL     OW32605   4.308   4.038   4.730  0.2043 -0.8682  0.4131
 7049SOL    HW132606   4.329   3.980   4.657  0.5069  0.6540 -0.6935
 7049SOL    HW232607   4.213   4.043   4.726  0.1622 -0.6185  1.6025
 7050SOL     OW32608   4.103   0.522  16.084 -0.1615  0.4213  0.0567
 7050SOL    HW132609   4.070   0.474  16.008 -0.0448 -1.5391  1.2453
 7050SOL    HW232610   4.113   0.611  16.048  2.2446 -0.7362 -2.1203
 7051SOL     OW32611   1.426   4.645   5.682  0.2419 -0.6826 -0.8751
 7051SOL    HW132612   1.508   4.678   5.720 -0.8927 -0.6089  1.5459
 7051SOL    HW232613   1.378   4.606   5.755  0.7046  0.0940 -0.1437
 7052SOL     OW32614   3.092   4.194   6.217  0.1245  0.2251  0.2665
 7052SOL    HW132615   3.174   4.237   6.191  0.1205 -0.1815 -0.4160
 7052SOL    HW232616   3.076   4.125   6.152 -0.6063  1.4108 -0.7954
 7053SOL     OW32617   3.432   2.891  16.124  0.0541 -0.0655 -0.1083
 7053SOL    HW132618   3.520   2.916  16.095  0.3038 -0.9113 -0.0880
 7053SOL    HW232619   3.461   2.827  16.189 -1.9332 -2.0764 -1.1754
 7054SOL     OW32620   2.828   3.356   6.964 -0.1186 -0.6644  0.5996
 7054SOL    HW132621   2.830   3.261   6.966  1.4270 -0.6085  2.6821
 7054SOL    HW232622   2.778   3.369   7.045  1.9419  0.2377  1.7418
 7055SOL     OW32623   2.863   0.351   6.724 -0.1398  0.3336  0.5319
 7055SOL    HW132624   2.846   0.444   6.710 -0.7492  0.1873  0.2631
 7055SOL    HW232625   2.928   0.336   6.656 -0.9374  0.3604 -0.2446
 7056SOL     OW32626   1.574   1.615  15.452  0.0397 -0.1708  0.3345
 7056SOL    HW132627   1.666   1.622  15.427 -0.5577  0.6808 -1.5631
 7056SOL    HW232628   1.577   1.529  15.495  2.3087 -1.2254 -1.9902
 7057SOL     OW32629   3.408   2.653   8.260 -0.0085  0.1337 -0.1093
 7057SOL    HW132630   3.408   2.560   8.282  2.0271  0.1220 -0.1146
 7057SOL    HW232631   3.503   2.663   8.270 -0.4751  1.3803  3.2924
 7058SOL     OW32632   1.842   1.597  15.370  0.3145  0.3117 -0.0586
 7058SOL    HW132633   1.828   1.502  15.369 -2.4941  0.7088 -0.0190
 7058SOL    HW232634   1.879   1.609  15.457  1.1849  0.6552 -0.4847
 7059SOL     OW32635   2.228   2.373   1.552 -0.1422  0.3073 -0.2995
 7059SOL    HW132636   2.193   2.284   1.561  3.2750 -0.8590  1.4614
 7059SOL    HW232637   2.165   2.428   1.505  1.2848  1.1534 -1.2313
 7060SOL     OW32638   2.458   0.306   9.408 -0.1642 -0.1836  0.4310
 7060SOL    HW132639   2.393   0.332   9.474  0.3066  0.4904  0.6285
 7060SOL    HW232640   2.541   0.347   9.432 -0.1809  0.3153 -0.3409
 7061SOL     OW32641   1.390   2.184   7.904  0.1527 -0.4279  0.2687
 7061SOL    HW132642   1.474   2.144   7.927  0.3353 -0.5630 -0.6242
 7061SOL    HW232643   1.398   2.269   7.948  1.7666 -0.3958 -0.0843
 7062SOL     OW32644   1.742   0.327  10.846  0.2206  0.5185 -0.2582
 7062SOL    HW132645   1.662   0.324  10.898  0.6291 -1.3429  0.2434
 7062SOL    HW232646   1.800   0.277  10.903  0.7628 -0.1526 -1.3919
 7063SOL     OW32647   3.967   0.362   3.391 -0.8240 -0.3967 -0.3738
 7063SOL    HW132648   3.962   0.457   3.387 -0.8814 -0.4104 -0.6383
 7063SOL    HW232649   3.902   0.339   3.457 -0.4969 -3.3352 -1.0516
 7064SOL     OW32650   2.469   1.384   2.163  0.2776  0.1960 -0.3364
 7064SOL    HW132651   2.519   1.398   2.243 -2.7481  0.5303  1.5115
 7064SOL    HW232652   2.473   1.472   2.126  2.1609  0.6939  1.0705
 7065SOL     OW32653   0.740   2.149   8.633 -0.3158  0.1151  0.3666
 7065SOL    HW132654   0.798   2.089   8.586  0.0775  0.6840  0.1182
 7065SOL    HW232655   0.679   2.167   8.562 -0.0632 -0.6886 -0.0563
 7066SOL     OW32656   2.702   1.416   6.880  0.2652  0.3240  0.5308
 7066SOL    HW132657   2.682   1.335   6.832  3.6599 -0.3199  0.2100
 7066SOL    HW232658   2.768   1.464   6.829  0.6977 -1.6585 -0.8210
 7067SOL     OW32659   0.958   2.654  17.152  0.4059 -0.0043 -0.1012
 7067SOL    HW132660   0.891   2.597  17.113 -2.3455  2.4672  1.0284
 7067SOL    HW232661   0.949   2.721  17.085  0.0909  1.8461  1.7771
 7068SOL     OW32662   3.428   1.382  13.541  0.2634  0.1403  0.4966
 7068SOL    HW132663   3.425   1.366  13.447 -1.6242  1.8699  0.2683
 7068SOL    HW232664   3.391   1.299  13.572 -0.3305  0.4003  0.4740
 7069SOL     OW32665   3.482   0.973   4.334 -0.0975 -0.7744 -0.7629
 7069SOL    HW132666   3.498   1.015   4.249 -0.6203  0.9068 -0.0269
 7069SOL    HW232667   3.414   1.031   4.369 -0.1778 -2.1062  1.2702
 7070SOL     OW32668   3.133   0.302   8.945 -0.3744  0.3928  0.0760
 7070SOL    HW132669   3.050   0.305   8.897 -0.7414 -1.7936  0.5662
 7070SOL    HW232670   3.176   0.234   8.894 -1.6638  0.5196 -1.1566
 7071SOL     OW32671   3.931   0.008  13.208 -0.3716  0.1070  0.6538
 7071SOL    HW132672   3.941   0.090  13.158 -0.2149  0.0119  0.5303
 7071SOL    HW232673   3.885   0.037  13.287 -1.9468 -0.1204 -0.1813
 7072SOL     OW32674   2.392   0.055   0.423 -0.1799 -0.4311 -0.0243
 7072SOL    HW132675   2.445   4.707   0.385 -0.6495 -0.8432  0.0681
 7072SOL    HW232676   2.454   0.093   0.485  0.4889 -0.5780 -0.6114
 7073SOL     OW32677   1.944   1.030   5.329  0.4391  0.0746 -0.6739
 7073SOL    HW132678   2.017   1.089   5.311 -0.0610  1.0339  0.4333
 7073SOL    HW232679   1.890   1.065   5.259  0.0130  0.7539 -0.0098
 7074SOL     OW32680   1.706   1.682   2.218 -0.2952  0.1962 -0.5677
 7074SOL    HW132681   1.719   1.658   2.126 -2.1088 -0.8103 -0.5688
 7074SOL    HW232682   1.719   1.777   2.217 -1.0616  0.2970 -0.9194
 7075SOL     OW32683   2.617   2.738   9.530  0.0301 -0.4575  0.5476
 7075SOL    HW132684   2.544   2.792   9.558  1.3574  1.1362  0.9086
 7075SOL    HW232685   2.646   2.686   9.605  3.7277  0.7853 -0.0139
 7076SOL     OW32686   4.589   1.610   5.799 -0.0849 -0.9340  0.1271
 7076SOL    HW132687   4.589   1.587   5.706  0.1286  1.3465 -0.4295
 7076SOL    HW232688   4.502   1.588   5.833  0.1582 -0.4993  1.0365
 7077SOL     OW32689   3.924   4.375   1.964  0.7621  0.4274  0.3866
 7077SOL    HW132690   3.840   4.386   1.920  1.1202  3.6746  0.5289
 7077SOL    HW232691   3.975   4.404   1.889 -2.4726  1.5710 -1.3959
 7078SOL     OW32692   4.142   2.234   4.155 -0.3113  0.2014 -0.3516
 7078SOL    HW132693   4.082   2.271   4.090  0.0125  0.7659 -0.3373
 7078SOL    HW232694   4.093   2.260   4.232 -1.1143 -0.0376 -0.7829
 7079SOL     OW32695   0.890   0.793   3.444 -0.2985  0.1264 -0.6931
 7079SOL    HW132696   0.891   0.783   3.349  2.1685  0.0406 -0.6606
 7079SOL    HW232697   0.851   0.707   3.458 -1.9375  0.7438 -1.4857
 7080SOL     OW32698   1.610   0.070   5.331  0.0238 -0.1894 -0.2387
 7080SOL    HW132699   1.658   0.004   5.283  2.7355  0.1667  1.9708
 7080SOL    HW232700   1.532   0.021   5.356  0.1176 -0.0987  0.2318
 7081SOL     OW32701   2.064   1.241   5.196 -0.0926 -0.4907  0.1387
 7081SOL    HW132702   2.118   1.300   5.143 -0.2653  0.6036  1.1895
 7081SOL    HW232703   2.020   1.312   5.241 -2.2068 -0.9716 -1.1658
 7082SOL     OW32704   3.203   4.425   0.476 -0.5021 -0.0714 -0.4362
 7082SOL    HW132705   3.218   4.510   0.434 -1.8654  2.1524  3.5489
 7082SOL    HW232706   3.285   4.418   0.525 -1.5610 -1.2489  1.1859
 7083SOL     OW32707   0.857   1.939   4.156  0.3277 -0.0665  0.0014
 7083SOL    HW132708   0.802   1.863   4.180  0.8145 -0.0841  1.0555
 7083SOL    HW232709   0.921   1.889   4.105 -0.8268 -2.2369  0.6837
 7084SOL     OW32710   2.596   2.047   8.960 -0.4952  0.0033 -0.3730
 7084SOL    HW132711   2.507   2.067   8.990 -0.8591 -1.3823 -0.5120
 7084SOL    HW232712   2.581   2.006   8.874 -0.2741 -1.7515  0.4220
 7085SOL     OW32713   2.080   2.607  11.900 -0.1584  0.1801 -0.2038
 7085SOL    HW132714   2.057   2.668  11.830  3.1606  1.7328  0.0678
 7085SOL    HW232715   2.051   2.522  11.868 -0.8309  0.4830 -0.4085
 7086SOL     OW32716   2.858   3.895  14.356 -0.4260 -0.1623  0.7330
 7086SOL    HW132717   2.890   3.937  14.436 -1.6413  1.9514  0.1158
 7086SOL    HW232718   2.837   3.808  14.391  1.7767 -1.0162 -0.1103
 7087SOL     OW32719   3.373   3.529  11.551 -0.4179  0.1671  0.0771
 7087SOL    HW132720   3.309   3.575  11.606  0.4834 -0.4847  1.6976
 7087SOL    HW232721   3.323   3.447  11.551  0.2372 -0.2318 -1.5329
 7088SOL     OW32722   2.957   4.153   2.664  0.2530  0.5618  0.3771
 7088SOL    HW132723   3.033   4.117   2.710 -0.2485  0.7447  1.3568
 7088SOL    HW232724   2.988   4.169   2.576 -0.7885  3.0742  0.4565
 7089SOL     OW32725   3.616   1.586  13.560 -0.0799  0.0579 -0.2047
 7089SOL    HW132726   3.544   1.648  13.568  1.5302  1.8025  0.6974
 7089SOL    HW232727   3.559   1.509  13.573 -1.0618  0.8702  0.3008
 7090SOL     OW32728   0.223   1.657   2.149 -0.4923 -0.3365  0.5496
 7090SOL    HW132729   0.200   1.597   2.078  0.9246  0.4356 -0.5604
 7090SOL    HW232730   0.272   1.601   2.209 -2.3165 -4.4263 -1.7854
 7091SOL     OW32731   1.005   3.458   6.477  0.6720  0.3450 -0.0680
 7091SOL    HW132732   0.964   3.372   6.469 -3.4162  2.3000 -0.2264
 7091SOL    HW232733   1.092   3.419   6.476  0.6946  0.4500 -1.5625
 7092SOL     OW32734   2.868   3.234   8.985  0.0988 -0.2429 -0.4374
 7092SOL    HW132735   2.892   3.197   9.070  0.0476 -1.0699 -0.7816
 7092SOL    HW232736   2.930   3.202   8.918  0.3789 -0.6645  0.0196
 7093SOL     OW32737   3.260   1.615   1.897  0.3723 -0.6338 -0.0601
 7093SOL    HW132738   3.210   1.550   1.947  1.8531 -0.5558  1.4949
 7093SOL    HW232739   3.318   1.557   1.847 -1.1296 -1.8380 -0.4272
 7094SOL     OW32740   0.614   1.187   5.792  0.4669  0.0396  0.2982
 7094SOL    HW132741   0.636   1.279   5.780  0.2694  0.0051 -0.3548
 7094SOL    HW232742   0.573   1.189   5.878 -0.4612 -1.9514 -0.1111
 7095SOL     OW32743   3.425   3.698   5.399  0.3649  0.0793  0.3988
 7095SOL    HW132744   3.419   3.683   5.494 -0.5164  2.8791  0.7989
 7095SOL    HW232745   3.334   3.723   5.384  0.4887 -0.6505 -1.5189
 7096SOL     OW32746   3.539   0.315   3.603 -0.0778 -0.8246  0.3281
 7096SOL    HW132747   3.527   0.253   3.675 -1.8060 -0.5935  0.2378
 7096SOL    HW232748   3.524   0.261   3.526 -1.9816  0.3330 -0.0976
 7097SOL     OW32749   2.717   0.059   8.317 -0.3933  0.8082 -0.1072
 7097SOL    HW132750   2.654   0.077   8.248 -0.5440 -1.1556 -0.4804
 7097SOL    HW232751   2.669   0.021   8.390  0.1376 -2.8862 -1.6567
 7098SOL     OW32752   2.990   4.268   9.015  0.3496 -0.1059 -0.2510
 7098SOL    HW132753   2.953   4.295   9.099  0.8254 -0.2750  0.0176
 7098SOL    HW232754   3.072   4.228   9.046 -0.9690 -1.6280  1.2399
 7099SOL     OW32755   1.203   2.682  10.529  0.0710 -0.4450 -0.4601
 7099SOL    HW132756   1.208   2.637  10.613  1.1665  0.3717 -0.0915
 7099SOL    HW232757   1.121   2.643  10.497 -1.6346  1.5203  1.5514
 7100SOL     OW32758   0.817   0.843   7.724  0.7911  0.1236  0.0063
 7100SOL    HW132759   0.906   0.848   7.759  0.7782  1.3869 -0.1612
 7100SOL    HW232760   0.823   0.796   7.641 -2.8848 -0.1561 -0.1093
 7101SOL     OW32761   3.461   3.250  16.668  0.5283  0.5512  0.0694
 7101SOL    HW132762   3.545   3.258  16.623  1.0855 -2.9343  0.4963
 7101SOL    HW232763   3.427   3.337  16.649  0.4182  1.1274  3.0212
 7102SOL     OW32764   2.841   0.045   2.680  0.2550 -0.3505  0.4656
 7102SOL    HW132765   2.786   4.693   2.706 -0.9027  0.5982  0.7008
 7102SOL    HW232766   2.768   0.106   2.686  0.1813 -0.4224  0.2916
 7103SOL     OW32767   3.348   3.020   6.930  0.1671  0.4097  0.3609
 7103SOL    HW132768   3.257   3.026   6.901 -0.2222 -0.5983  1.3913
 7103SOL    HW232769   3.382   3.110   6.934  0.8981  0.1596 -0.1859
 7104SOL     OW32770   2.320   2.623  13.707  0.3156 -0.0458  0.3487
 7104SOL    HW132771   2.339   2.640  13.615  2.3971 -1.4985  0.5080
 7104SOL    HW232772   2.323   2.527  13.713 -0.4238 -0.2231 -2.0711
 7105SOL     OW32773   2.638   2.252   2.876  0.3906  0.2002  0.0599
 7105SOL    HW132774   2.601   2.239   2.788  0.2463 -0.4655  0.2133
 7105SOL    HW232775   2.662   2.161   2.892 -1.2874  0.0637  1.7873
 7106SOL     OW32776   1.704   4.553   1.433 -0.2195  0.5571  0.0063
 7106SOL    HW132777   1.797   4.540   1.455  0.1544  0.7946 -1.4341
 7106SOL    HW232778   1.665   4.592   1.510  1.4287 -1.1635  1.7152
 7107SOL     OW32779   0.519   2.168   4.257  0.4033 -0.0871 -0.6941
 7107SOL    HW132780   0.605   2.128   4.272  0.8301  1.2071  0.2869
 7107SOL    HW232781   0.529   2.250   4.305  0.2707 -0.5326  0.0941
 7108SOL     OW32782   1.098   0.161   3.713 -0.6007 -0.1803 -0.3202
 7108SOL    HW132783   1.076   0.076   3.752  4.4506 -1.6318 -0.5208
 7108SOL    HW232784   1.014   0.187   3.676 -1.9094  0.3517  3.0397
 7109SOL     OW32785   4.208   4.577   2.032  0.3691  0.2158  0.2141
 7109SOL    HW132786   4.177   4.535   1.952 -0.4981 -0.7138  1.0414
 7109SOL    HW232787   4.248   4.655   1.993 -0.5475  0.5603 -0.0401
 7110SOL     OW32788   0.095   4.490   3.552  0.5130 -0.0020 -0.3336
 7110SOL    HW132789   0.002   4.510   3.544  0.4850 -0.3851 -1.0123
 7110SOL    HW232790   0.140   4.533   3.478  2.9608 -0.8960  0.6161
 7111SOL     OW32791   2.640   4.631   4.663 -0.2696  0.4297 -0.2458
 7111SOL    HW132792   2.622   4.551   4.711 -1.2414 -0.8703 -2.7679
 7111SOL    HW232793   2.553   4.666   4.640 -0.2172  1.1685  0.6906
 7112SOL     OW32794   1.940   3.896   0.288  0.4558 -0.0118 -0.4431
 7112SOL    HW132795   1.858   3.898   0.338  2.1191  1.4363  2.2011
 7112SOL    HW232796   1.952   3.804   0.265  0.6089 -0.3216  0.8795
 7113SOL     OW32797   3.966   3.110   5.184 -0.1664  0.2786  0.1786
 7113SOL    HW132798   3.954   3.056   5.105  0.2879 -0.3678  0.5501
 7113SOL    HW232799   3.916   3.185   5.152 -1.3139 -0.0716  1.1464
 7114SOL     OW32800   1.640   1.125   8.376  0.3902 -0.1909  0.2756
 7114SOL    HW132801   1.669   1.116   8.467  0.4245 -1.2746  0.1538
 7114SOL    HW232802   1.659   1.036   8.347  4.3777  1.0320 -0.9049
 7115SOL     OW32803   3.152   2.241   4.967 -0.4392  0.8264  0.1962
 7115SOL    HW132804   3.187   2.277   4.885  1.1080  0.1399  0.5679
 7115SOL    HW232805   3.123   2.153   4.944 -0.7580  0.5819  1.5094
 7116SOL     OW32806   4.139   4.142  15.364 -0.0099 -0.4161 -0.5227
 7116SOL    HW132807   4.138   4.082  15.439  1.2383  1.7030  1.2059
 7116SOL    HW232808   4.106   4.218  15.412 -0.4902 -0.2976 -1.0537
 7117SOL     OW32809   2.672   3.964   0.288 -0.3519 -0.5288 -0.1148
 7117SOL    HW132810   2.676   3.932   0.378 -1.9290  1.4268  0.6554
 7117SOL    HW232811   2.654   4.055   0.310 -0.8354 -0.2739 -1.5719
 7118SOL     OW32812   3.315   1.300  10.364  0.0726 -0.0989 -0.1404
 7118SOL    HW132813   3.234   1.298  10.313 -0.4322  0.6403  0.6272
 7118SOL    HW232814   3.275   1.257  10.440  0.3575 -0.4183 -0.1751
 7119SOL     OW32815   4.091   3.203   9.643  0.4920  0.2253 -0.0999
 7119SOL    HW132816   4.162   3.201   9.708 -0.1449  0.6995  0.6165
 7119SOL    HW232817   4.095   3.293   9.612 -1.6091  0.3833  0.0480
 7120SOL     OW32818   0.492   1.415  10.510  0.5537  0.0684 -0.0955
 7120SOL    HW132819   0.582   1.416  10.542  0.7064 -0.2638 -0.5179
 7120SOL    HW232820   0.499   1.325  10.477  0.2832  0.6994 -1.8609
 7121SOL     OW32821   3.941   1.075  12.136  0.1982 -0.2509  0.0380
 7121SOL    HW132822   3.921   1.167  12.120  2.0777 -0.3728 -3.1656
 7121SOL    HW232823   4.036   1.085  12.130  0.4989 -1.6554  2.3618
 7122SOL     OW32824   2.459   3.585   2.506  0.5139 -0.3517 -0.5427
 7122SOL    HW132825   2.553   3.571   2.505  0.6824  0.7315 -0.0881
 7122SOL    HW232826   2.447   3.658   2.567 -0.7971  0.8296 -2.1826
 7123SOL     OW32827   1.840   3.075   9.991  0.0243  0.1884 -0.2948
 7123SOL    HW132828   1.812   3.041   9.905 -2.0001 -0.7669  0.7462
 7123SOL    HW232829   1.756   3.082  10.036  1.0672  0.6156  1.5860
 7124SOL     OW32830   1.696   0.711  10.535  0.1192  0.2484  0.3904
 7124SOL    HW132831   1.790   0.731  10.538  0.4443 -1.0030 -1.6955
 7124SOL    HW232832   1.682   0.675  10.623  0.8423  0.7854  0.7268
 7125SOL     OW32833   1.468   2.065   6.174 -0.1086  0.1331 -0.3180
 7125SOL    HW132834   1.442   2.065   6.082 -2.1620 -1.4803  0.2493
 7125SOL    HW232835   1.514   2.148   6.178 -0.0539  0.0602  0.6636
 7126SOL     OW32836   0.177   2.036   6.473  0.2779  0.8891 -0.0163
 7126SOL    HW132837   0.227   2.003   6.547 -0.0671  1.8528  0.6465
 7126SOL    HW232838   0.226   1.993   6.403  0.1282 -0.3676  0.6666
 7127SOL     OW32839   2.898   2.408   6.830 -0.0080  0.1101 -0.1588
 7127SOL    HW132840   2.970   2.472   6.834  1.6887 -1.8476  0.7390
 7127SOL    HW232841   2.858   2.427   6.914  2.8652  1.3138  0.9496
 7128SOL     OW32842   1.612   1.706  12.013 -0.3500  0.5386 -0.3778
 7128SOL    HW132843   1.581   1.634  12.067 -2.3669  1.1780 -0.6969
 7128SOL    HW232844   1.533   1.759  12.003 -2.3594 -2.1317  1.0749
 7129SOL     OW32845   1.840   0.912  12.601 -0.3815  0.4661 -0.8878
 7129SOL    HW132846   1.765   0.918  12.542 -1.6742  1.2464  0.8224
 7129SOL    HW232847   1.907   0.939  12.538 -0.2741 -1.7985 -1.7192
 7130SOL     OW32848   0.213   2.275   3.990  0.9799  0.0847  0.1471
 7130SOL    HW132849   0.233   2.272   4.084 -0.6857  0.4203  0.5107
 7130SOL    HW232850   0.201   2.370   3.980 -0.2242 -0.2328 -1.3298
 7131SOL     OW32851   4.262   4.519   8.824  0.4756 -0.0679  0.1463
 7131SOL    HW132852   4.282   4.427   8.839 -0.9698 -0.8939 -2.9165
 7131SOL    HW232853   4.334   4.558   8.874  0.3506  0.2473  0.0823
 7132SOL     OW32854   2.843   0.349  16.777 -0.0325  0.5261 -0.0722
 7132SOL    HW132855   2.758   0.366  16.819  0.0345 -2.5990  1.3698
 7132SOL    HW232856   2.836   0.396  16.694  4.2967 -0.3058 -0.9031
 7133SOL     OW32857   4.333   1.732  16.617 -0.4784  0.2611  0.0137
 7133SOL    HW132858   4.395   1.679  16.667 -0.1747 -1.6657 -2.3721
 7133SOL    HW232859   4.281   1.772  16.687 -0.6194  2.5250 -1.3813
 7134SOL     OW32860   2.237   3.662   6.951  0.4871 -0.3659  0.3092
 7134SOL    HW132861   2.273   3.734   6.898  0.6415  0.0637  0.9952
 7134SOL    HW232862   2.264   3.703   7.033  1.7365 -2.0292  0.7283
 7135SOL     OW32863   1.569   3.964   2.869  0.2390 -0.1045 -0.0998
 7135SOL    HW132864   1.547   3.964   2.962 -2.4874 -2.2692 -0.7605
 7135SOL    HW232865   1.490   3.939   2.822  0.1966  0.5935 -0.4083
 7136SOL     OW32866   0.705   0.574   3.508  0.3457 -0.1406 -0.1506
 7136SOL    HW132867   0.692   0.588   3.414  2.5481 -2.3510 -0.7953
 7136SOL    HW232868   0.671   0.487   3.530 -0.5100 -0.0628 -1.2020
 7137SOL     OW32869   3.710   4.016  12.378  0.4199 -0.6566 -0.5249
 7137SOL    HW132870   3.701   4.104  12.343 -0.4053 -1.2621 -1.7885
 7137SOL    HW232871   3.765   4.036  12.455 -0.8633  0.2374  0.1558
 7138SOL     OW32872   2.994   0.605  16.608  0.2592  0.2829 -0.4056
 7138SOL    HW132873   3.045   0.540  16.655  1.1413  0.1220 -1.6135
 7138SOL    HW232874   2.926   0.564  16.555  1.3095 -0.6380 -1.0054
 7139SOL     OW32875   3.535   4.709   5.237 -0.2252  0.1999 -0.2577
 7139SOL    HW132876   3.492   0.039   5.169  0.6744 -1.7784 -2.3314
 7139SOL    HW232877   3.467   0.000   5.304 -1.7470 -0.6225 -1.6573
 7140SOL     OW32878   2.338   3.008   5.880  0.2858  0.1849  0.4303
 7140SOL    HW132879   2.390   3.045   5.951 -0.5020 -0.8830  1.5557
 7140SOL    HW232880   2.342   3.085   5.823  0.2117 -0.9915 -1.1982
 7141SOL     OW32881   0.196   4.511   5.308  0.0564  0.1959 -0.4427
 7141SOL    HW132882   0.171   4.420   5.326 -1.5379  0.3181 -1.9560
 7141SOL    HW232883   0.278   4.504   5.357  0.2499 -1.0636 -0.9567
 7142SOL     OW32884   2.230   4.622   1.552  0.0422 -0.1839 -0.3060
 7142SOL    HW132885   2.173   4.617   1.475 -0.1038 -1.7725 -0.0865
 7142SOL    HW232886   2.277   4.538   1.551 -1.6062 -1.0953 -1.5732
 7143SOL     OW32887   4.548   1.069   2.994 -0.3706  0.2429 -0.4488
 7143SOL    HW132888   4.491   1.034   3.063  1.0313  0.3810  0.7994
 7143SOL    HW232889   4.614   1.122   3.040 -2.2874  0.8964  1.5507
 7144SOL     OW32890   1.467   1.482  12.140  0.2544 -0.2148 -0.2320
 7144SOL    HW132891   1.401   1.484  12.210  1.9505 -1.5247  1.4201
 7144SOL    HW232892   1.527   1.420  12.181  0.6518  0.7685  0.6723
 7145SOL     OW32893   1.893   0.312  14.495 -0.5807  0.0452 -0.2833
 7145SOL    HW132894   1.902   0.355  14.580  0.0838 -0.4352 -0.1061
 7145SOL    HW232895   1.983   0.311  14.462  0.2500  2.3688  1.8942
 7146SOL     OW32896   1.815   2.890   5.545 -0.1414  0.5600  0.0376
 7146SOL    HW132897   1.906   2.921   5.552  0.1343 -0.5821  1.4819
 7146SOL    HW232898   1.781   2.936   5.621  0.2538  1.6996 -0.4743
 7147SOL     OW32899   3.853   0.586   0.903 -0.1257 -0.1860  0.1003
 7147SOL    HW132900   3.765   0.550   0.894  0.7713 -2.1521 -0.7121
 7147SOL    HW232901   3.840   0.655   0.838  2.2342  1.2704  1.1705
 7148SOL     OW32902   3.435   3.515  15.703 -0.1344 -0.2918 -0.0938
 7148SOL    HW132903   3.471   3.541  15.788 -1.3016  0.4777  0.1634
 7148SOL    HW232904   3.459   3.423  15.691 -0.7167 -0.7380  2.3254
 7149SOL     OW32905   2.797   4.517   1.859 -0.2550  0.1078  0.0661
 7149SOL    HW132906   2.767   4.497   1.947 -1.2425  1.5320  0.0356
 7149SOL    HW232907   2.881   4.470   1.857 -0.6702 -0.6352  0.1748
 7150SOL     OW32908   1.664   3.943   6.242 -0.2686  0.2540  0.3779
 7150SOL    HW132909   1.747   3.938   6.194  0.7764  0.1324  2.2020
 7150SOL    HW232910   1.598   3.938   6.173 -0.4983  0.1798  0.6040
 7151SOL     OW32911   1.654   2.420   4.785  0.2518 -0.3646 -0.4586
 7151SOL    HW132912   1.714   2.449   4.717  0.7539 -0.6737 -0.1465
 7151SOL    HW232913   1.693   2.455   4.865  2.1415 -0.1842 -1.4502
 7152SOL     OW32914   3.842   1.747   8.515 -0.0510  0.1435 -0.2757
 7152SOL    HW132915   3.876   1.830   8.483 -2.4666  0.7343 -1.2884
 7152SOL    HW232916   3.919   1.716   8.564  0.0967  0.7160 -0.1454
 7153SOL     OW32917   3.644   3.532   8.653  0.3248  0.7404 -0.1668
 7153SOL    HW132918   3.623   3.471   8.582 -1.8841  0.3638  0.8328
 7153SOL    HW232919   3.639   3.615   8.605 -0.4051  0.7553 -0.0553
 7154SOL     OW32920   3.204   1.131   2.026 -0.4167  0.1999  0.1625
 7154SOL    HW132921   3.177   1.223   2.019 -0.5922 -0.0742 -2.4958
 7154SOL    HW232922   3.275   1.146   2.088 -0.2303  0.2014 -0.0526
 7155SOL     OW32923   2.734   0.374   2.126  0.1640  1.1857  0.0473
 7155SOL    HW132924   2.779   0.386   2.042 -0.7657 -0.4330 -0.6671
 7155SOL    HW232925   2.800   0.400   2.191 -0.5973  2.8504  0.1604
 7156SOL     OW32926   3.186   0.715  17.088 -0.1379 -0.3657 -0.4631
 7156SOL    HW132927   3.178   0.787  17.025  0.0347 -0.1310 -0.2152
 7156SOL    HW232928   3.221   0.763  17.162 -0.6724 -0.1316 -0.3611
 7157SOL     OW32929   0.311   0.389   3.652  0.2683 -0.3012 -0.3934
 7157SOL    HW132930   0.272   0.380   3.738  1.2834  0.9461  0.1939
 7157SOL    HW232931   0.276   0.470   3.615 -1.7148 -0.4847  1.1556
 7158SOL     OW32932   1.898   2.142   4.166 -0.3117 -0.3565  0.0151
 7158SOL    HW132933   1.986   2.124   4.133 -0.3738 -2.2707  0.8603
 7158SOL    HW232934   1.855   2.103   4.090 -2.0556 -0.7372  1.1954
 7159SOL     OW32935   1.040   2.024   6.877  0.3640  0.5159  0.3009
 7159SOL    HW132936   1.083   2.063   6.953 -0.3742  0.1415  0.9184
 7159SOL    HW232937   0.973   2.088   6.852 -0.0856 -0.6293 -1.4190
 7160SOL     OW32938   3.747   3.702   3.705  0.7317 -0.6975  0.1950
 7160SOL    HW132939   3.779   3.613   3.721  0.1846 -0.7348  1.0509
 7160SOL    HW232940   3.740   3.732   3.796 -0.6633 -0.5632  0.0520
 7161SOL     OW32941   0.293   3.208   3.108 -0.2561  0.7743  0.1534
 7161SOL    HW132942   0.305   3.157   3.189  2.8903 -2.1425 -2.1493
 7161SOL    HW232943   0.205   3.243   3.120 -0.7590  0.2394 -1.9416
 7162SOL     OW32944   0.878   0.202   3.548  0.2439 -0.0347 -0.1655
 7162SOL    HW132945   0.827   0.158   3.480 -2.9883  3.0045  0.3275
 7162SOL    HW232946   0.813   0.212   3.618  1.0792  1.7003  0.3397
 7163SOL     OW32947   4.328   1.440   6.131 -0.4051 -0.1285 -0.0196
 7163SOL    HW132948   4.386   1.424   6.206 -1.2337 -0.0208  0.6455
 7163SOL    HW232949   4.292   1.522   6.165 -2.0869 -0.6704 -0.4968
 7164SOL     OW32950   1.192   4.426  11.552 -0.0106  0.3637 -0.0905
 7164SOL    HW132951   1.256   4.482  11.509 -0.1067 -1.6152 -2.8115
 7164SOL    HW232952   1.134   4.405  11.479  1.5945  1.5730 -1.7031
 7165SOL     OW32953   3.539   0.472  13.994 -0.4277 -0.1461 -0.4982
 7165SOL    HW132954   3.540   0.423  13.912 -0.1856 -0.6832 -0.1724
 7165SOL    HW232955   3.633   0.488  14.000 -0.4598  0.3231 -1.2510
 7166SOL     OW32956   1.593   3.578   8.646 -0.6720 -0.1979 -0.0157
 7166SOL    HW132957   1.667   3.521   8.625 -0.9855 -0.9114  0.8196
 7166SOL    HW232958   1.640   3.656   8.618 -1.2243  0.2714  0.3453
 7167SOL     OW32959   3.434   3.273   6.961  0.0415  0.0236  0.0317
 7167SOL    HW132960   3.435   3.346   6.898  2.2314 -0.9618 -1.0664
 7167SOL    HW232961   3.360   3.296   7.018 -1.5692 -1.0626 -1.6187
 7168SOL     OW32962   1.754   4.171   1.934  0.0247 -0.1028  0.5732
 7168SOL    HW132963   1.745   4.236   2.004 -1.3876  2.4254 -1.9666
 7168SOL    HW232964   1.832   4.203   1.889  0.2834 -1.0700  0.3350
 7169SOL     OW32965   0.541   3.178  11.259  0.4219  0.0413 -0.1100
 7169SOL    HW132966   0.547   3.167  11.164 -1.9917  1.2965 -0.4064
 7169SOL    HW232967   0.459   3.133  11.275 -0.4782  1.7254  0.0394
 7170SOL     OW32968   2.476   3.374   3.493  0.0795 -0.6515  0.4383
 7170SOL    HW132969   2.525   3.408   3.419  0.8729  1.8653  2.1103
 7170SOL    HW232970   2.436   3.456   3.521  0.2270  0.1342 -1.6655
 7171SOL     OW32971   4.078   2.083  17.471  0.1152 -0.1798 -0.0533
 7171SOL    HW132972   4.145   2.063  17.537 -1.7157  0.7620  2.0796
 7171SOL    HW232973   3.997   2.048  17.508 -0.2352  1.3506  0.6091
 7172SOL     OW32974   3.677   2.139  12.946  0.1341  0.4019  0.1748
 7172SOL    HW132975   3.596   2.143  12.896  0.8762  0.9024 -0.9914
 7172SOL    HW232976   3.644   2.116  13.033 -2.3786  1.7164 -0.4406
 7173SOL     OW32977   4.525   1.157   7.583  0.3344  0.3388  0.2477
 7173SOL    HW132978   4.576   1.102   7.523  1.5970  2.0005 -0.2251
 7173SOL    HW232979   4.468   1.096   7.629  1.3063  0.0088  1.0075
 7174SOL     OW32980   2.812   4.703   9.905 -0.2190 -0.1013 -0.6016
 7174SOL    HW132981   2.879   0.049   9.918 -0.8781  0.1332  1.6410
 7174SOL    HW232982   2.759   0.001   9.828  0.5653  0.3296 -1.0301
 7175SOL     OW32983   0.665   1.274   5.404  0.5198 -0.2004 -0.5756
 7175SOL    HW132984   0.586   1.261   5.350  0.6040 -2.1919 -0.2173
 7175SOL    HW232985   0.674   1.186   5.442 -0.1013  0.4529  1.0934
 7176SOL     OW32986   1.962   4.546   8.170  0.0776 -0.0267 -0.3357
 7176SOL    HW132987   2.057   4.536   8.172  0.2002  1.5805  1.2298
 7176SOL    HW232988   1.933   4.613   8.232 -0.5638 -3.8585  3.5312
 7177SOL     OW32989   3.037   2.097   9.356  0.1411  0.5366 -0.0534
 7177SOL    HW132990   3.028   2.189   9.379 -0.9195  0.1524  1.0943
 7177SOL    HW232991   2.954   2.087   9.309 -0.6147 -1.7191  1.7264
 7178SOL     OW32992   1.483   3.357   7.971 -0.2311 -0.1430 -0.1845
 7178SOL    HW132993   1.415   3.415   8.005  1.9617  2.0071  0.5558
 7178SOL    HW232994   1.447   3.271   7.990 -2.4016  0.7165 -0.4408
 7179SOL     OW32995   4.700   1.534   4.878 -0.2832  0.4702  0.4357
 7179SOL    HW132996   0.024   1.609   4.918 -1.0961 -0.4084  2.9847
 7179SOL    HW232997   4.628   1.519   4.940 -1.3293 -0.2689 -0.9681
 7180SOL     OW32998   4.149   1.903   7.358 -0.2119 -0.2844  0.3022
 7180SOL    HW132999   4.204   1.858   7.423  0.2569  1.7592  1.3380
 7180SOL    HW233000   4.207   1.973   7.327 -1.1200 -0.3614 -1.5296
 7181SOL     OW33001   1.298   2.018   5.642  0.3932 -0.4443  0.4684
 7181SOL    HW133002   1.307   1.929   5.608 -0.4424 -0.2117 -0.3625
 7181SOL    HW233003   1.263   2.056   5.562 -0.8117 -1.6680  0.4163
 7182SOL     OW33004   1.777   0.147   4.587 -0.2521  0.1289  0.1330
 7182SOL    HW133005   1.795   0.215   4.652 -0.2893  0.3592 -0.0951
 7182SOL    HW233006   1.810   0.180   4.503 -1.6511 -1.5992 -1.1010
 7183SOL     OW33007   0.101   4.396   9.891  0.9409  0.2477  0.2270
 7183SOL    HW133008   0.063   4.357   9.812  0.4515 -0.1143  0.6402
 7183SOL    HW233009   0.171   4.451   9.856 -1.1759  2.0107 -1.2458
 7184SOL     OW33010   4.593   1.491   5.158  0.5766 -0.2982 -0.2604
 7184SOL    HW133011   4.498   1.484   5.167  0.5588  0.7011  0.4240
 7184SOL    HW233012   4.605   1.584   5.180 -3.6509 -0.2568  2.0072
 7185SOL     OW33013   4.310   2.106  15.972  0.2290  0.2814  0.6520
 7185SOL    HW133014   4.368   2.132  16.044  0.8486 -0.5370  0.4490
 7185SOL    HW233015   4.338   2.014  15.967  1.4337  0.6026  1.5034
 7186SOL     OW33016   4.312   1.581  11.520  0.8556 -0.0406  0.7716
 7186SOL    HW133017   4.271   1.511  11.469  0.0725  1.3281 -0.4885
 7186SOL    HW233018   4.365   1.622  11.451 -1.3720 -0.9693 -1.5142
 7187SOL     OW33019   3.683   1.591   2.483  0.7630 -0.0452 -0.1240
 7187SOL    HW133020   3.716   1.554   2.565  0.9274  2.5274  0.9640
 7187SOL    HW233021   3.771   1.604   2.447  0.5325  2.0085  0.0567
 7188SOL     OW33022   4.495   3.428   9.582  0.4236 -0.0237  0.6570
 7188SOL    HW133023   4.582   3.434   9.542  0.3865  0.9016  0.6979
 7188SOL    HW233024   4.461   3.510   9.545 -1.3212 -0.4259  1.3869
 7189SOL     OW33025   1.089   2.664   6.589 -0.2744  0.2146  0.5621
 7189SOL    HW133026   1.133   2.587   6.625  0.9213 -0.2995 -2.0135
 7189SOL    HW233027   1.000   2.632   6.601 -0.2400  0.3075  1.0914
 7190SOL     OW33028   0.590   1.275   0.734 -0.3255 -0.0556 -0.2804
 7190SOL    HW133029   0.622   1.352   0.687 -0.1718  0.6317  0.9401
 7190SOL    HW233030   0.582   1.323   0.816  0.5031  1.3626 -1.0354
 7191SOL     OW33031   1.277   0.321  11.462 -0.6498 -0.2413 -0.2420
 7191SOL    HW133032   1.209   0.255  11.477 -1.2873  0.5407  0.2770
 7191SOL    HW233033   1.354   0.267  11.447  0.9214  2.3753 -1.5036
 7192SOL     OW33034   1.615   1.384   2.576  0.2521 -0.4375 -0.0519
 7192SOL    HW133035   1.675   1.348   2.641 -1.9461 -1.3413  1.4953
 7192SOL    HW233036   1.670   1.456   2.546 -0.6414  1.1556  2.1298
 7193SOL     OW33037   4.620   3.544   9.313  0.5404  0.3073 -0.0150
 7193SOL    HW133038   4.696   3.557   9.369  1.9239 -2.4550 -1.2426
 7193SOL    HW233039   4.642   3.588   9.231 -0.3110  0.9499  0.0892
 7194SOL     OW33040   3.122   3.927   4.254  0.0431 -0.2252 -0.3574
 7194SOL    HW133041   3.086   4.006   4.215 -0.4625 -0.0830  0.3805
 7194SOL    HW233042   3.085   3.944   4.341  0.4603 -1.4194  0.0591
 7195SOL     OW33043   1.339   0.055  11.005 -0.3243  0.7052  1.2162
 7195SOL    HW133044   1.313   4.687  10.982  0.3008  1.1945 -1.3472
 7195SOL    HW233045   1.278   0.103  10.949 -0.0387 -0.4937 -0.1090
 7196SOL     OW33046   0.820   3.532   1.859  0.2185  0.3889  0.0186
 7196SOL    HW133047   0.797   3.619   1.891 -3.6702 -1.4763  2.4308
 7196SOL    HW233048   0.741   3.483   1.884  1.0522 -0.6528  0.6234
 7197SOL     OW33049   2.154   4.118   4.366 -0.2279  0.4793 -0.2653
 7197SOL    HW133050   2.205   4.176   4.309  0.7649 -0.6722 -0.5509
 7197SOL    HW233051   2.134   4.049   4.304  0.3522 -0.3996  0.5230
 7198SOL     OW33052   1.663   4.192   8.084 -0.3063 -0.2628  0.1338
 7198SOL    HW133053   1.687   4.175   8.175  1.1387 -0.5568 -0.3025
 7198SOL    HW233054   1.575   4.155   8.081 -0.4945  0.2563 -0.6174
 7199SOL     OW33055   1.005   1.505   4.739 -0.3349 -0.3632  0.2945
 7199SOL    HW133056   1.024   1.481   4.830  2.3301  1.3016  0.1880
 7199SOL    HW233057   0.931   1.447   4.718 -0.1392 -0.2507 -0.6859
 7200SOL     OW33058   0.213   2.730   3.318 -0.1752 -0.1121 -0.5842
 7200SOL    HW133059   0.124   2.700   3.341  0.4549 -0.3823  1.5330
 7200SOL    HW233060   0.256   2.650   3.348 -1.8897 -1.1997 -0.9759
 7201SOL     OW33061   0.181   2.135  13.087  0.4728  0.3377  0.9459
 7201SOL    HW133062   0.181   2.149  13.182 -1.4737  1.7691  0.7263
 7201SOL    HW233063   0.254   2.191  13.062  0.6670 -0.2448  0.2055
 7202SOL     OW33064   2.672   2.244   4.093  0.6306  0.1932 -0.1294
 7202SOL    HW133065   2.679   2.339   4.102  1.1827  0.3479 -2.2055
 7202SOL    HW233066   2.634   2.240   4.005  0.7918  0.4151 -0.2085
 7203SOL     OW33067   3.141   2.153  12.467  0.1441  0.2834 -0.4926
 7203SOL    HW133068   3.134   2.243  12.437  0.0195  0.5628  0.3829
 7203SOL    HW233069   3.055   2.113  12.456  0.0964  0.4352 -0.6552
 7204SOL     OW33070   1.805   0.823   2.867 -0.1504 -0.5233  0.7446
 7204SOL    HW133071   1.797   0.803   2.774 -1.4553 -1.5057  1.0642
 7204SOL    HW233072   1.714   0.836   2.893 -0.8498 -0.4252 -1.7046
 7205SOL     OW33073   0.457   2.703   5.763 -0.1330 -0.2824 -0.6484
 7205SOL    HW133074   0.455   2.615   5.801  1.2323  0.3244  0.8040
 7205SOL    HW233075   0.540   2.697   5.715 -0.9395 -0.2834 -2.0372
 7206SOL     OW33076   3.806   0.793  16.119 -0.3104  0.2036  0.5821
 7206SOL    HW133077   3.842   0.776  16.032  2.0702  0.8786  1.4332
 7206SOL    HW233078   3.784   0.709  16.160 -0.0408  0.2463  0.8168
 7207SOL     OW33079   3.096   0.219   4.346  0.0536  0.2272 -0.2884
 7207SOL    HW133080   3.008   0.197   4.316  0.5307 -1.3970 -0.5144
 7207SOL    HW233081   3.087   0.229   4.440  1.4661  1.1085 -0.2401
 7208SOL     OW33082   0.985   1.368   7.600  0.4706 -0.4837 -0.0728
 7208SOL    HW133083   0.929   1.291   7.612  1.3304 -1.3689 -1.7480
 7208SOL    HW233084   0.949   1.424   7.669  0.4417  0.4413 -0.8369
 7209SOL     OW33085   1.350   2.448   9.649  0.5423  0.0395  0.0440
 7209SOL    HW133086   1.313   2.472   9.733  2.5780  0.7249  0.7404
 7209SOL    HW233087   1.390   2.532   9.626  1.2797 -0.3933 -0.2717
 7210SOL     OW33088   1.785   0.993   7.898 -0.1923  0.6371 -0.5417
 7210SOL    HW133089   1.767   1.077   7.940  2.8329 -0.0115  2.1197
 7210SOL    HW233090   1.809   0.943   7.976  0.4971 -1.6994 -2.2431
 7211SOL     OW33091   3.103   0.191   7.331 -0.8318  0.3695 -0.1346
 7211SOL    HW133092   3.060   0.182   7.246 -1.5431  0.2721  0.2428
 7211SOL    HW233093   3.055   0.264   7.370 -3.4076 -1.6582  0.4453
 7212SOL     OW33094   4.247   4.703   1.698  0.1715 -0.3346 -0.7933
 7212SOL    HW133095   4.252   0.056   1.759 -0.5619 -0.8279 -0.1441
 7212SOL    HW233096   4.192   4.638   1.742 -0.9754  1.3332  0.2395
 7213SOL     OW33097   0.209   3.589   9.784 -0.5329 -0.3643  0.0226
 7213SOL    HW133098   0.298   3.569   9.756 -1.0477 -1.5374 -0.7833
 7213SOL    HW233099   0.225   3.669   9.834  0.5707  0.0143 -0.9199
 7214SOL     OW33100   3.646   3.997  14.392 -0.4452 -0.3938  1.3500
 7214SOL    HW133101   3.658   3.922  14.334  1.0743  2.1872 -1.6631
 7214SOL    HW233102   3.617   3.952  14.472  0.3512  0.6773  2.2504
 7215SOL     OW33103   2.301   3.593   1.640  0.4116 -0.0438  0.8772
 7215SOL    HW133104   2.280   3.549   1.722  0.5562 -0.3197  0.7649
 7215SOL    HW233105   2.308   3.685   1.664  0.1886 -0.0918  1.1283
 7216SOL     OW33106   3.711   2.984   7.693 -0.4434  0.4030 -0.0689
 7216SOL    HW133107   3.730   2.985   7.599  0.0766 -0.2714  0.0339
 7216SOL    HW233108   3.752   2.903   7.723 -0.2522  0.4747 -0.1372
 7217SOL     OW33109   4.331   0.232   9.595 -0.2746  0.1502  0.0912
 7217SOL    HW133110   4.391   0.279   9.537 -1.4965  0.5237 -0.8937
 7217SOL    HW233111   4.257   0.223   9.535  1.0805  0.1202 -1.5681
 7218SOL     OW33112   0.998   3.364  15.269  0.2181 -0.8770  0.0028
 7218SOL    HW133113   1.090   3.336  15.264  0.7563  0.6829  1.1633
 7218SOL    HW233114   0.960   3.351  15.182  1.3848  1.0618 -0.7976
 7219SOL     OW33115   4.019   0.598   7.591 -0.5494  0.5857  0.3829
 7219SOL    HW133116   3.988   0.681   7.628 -0.1468  1.3517 -0.9983
 7219SOL    HW233117   4.111   0.609   7.614 -0.5862 -1.1413  1.3230
 7220SOL     OW33118   0.746   4.062   1.594 -0.1425 -0.6150  0.4972
 7220SOL    HW133119   0.701   3.978   1.582  0.8050 -1.0256 -0.2511
 7220SOL    HW233120   0.786   4.055   1.680  3.6100  2.6242 -0.9782
 7221SOL     OW33121   3.313   3.814   2.313 -0.2062  0.0442 -0.2533
 7221SOL    HW133122   3.344   3.723   2.314  0.7892  0.3682 -1.4862
 7221SOL    HW233123   3.315   3.825   2.217 -0.8623  0.9338 -0.1618
 7222SOL     OW33124   2.174   2.489  10.968 -0.2690 -0.3505  0.6029
 7222SOL    HW133125   2.162   2.584  10.974  1.4937 -0.1123  0.3629
 7222SOL    HW233126   2.241   2.483  10.900 -0.9387  0.8431 -0.1510
 7223SOL     OW33127   3.571   0.169   2.325  0.1494  0.0294  0.1899
 7223SOL    HW133128   3.618   0.197   2.404 -2.9297  1.0321  1.6801
 7223SOL    HW233129   3.514   0.243   2.305 -1.2235 -1.5039 -1.5282
 7224SOL     OW33130   1.421   2.314   3.272 -0.3980  0.1541 -0.5507
 7224SOL    HW133131   1.405   2.371   3.347 -0.0019 -0.9413  0.3640
 7224SOL    HW233132   1.339   2.266   3.259 -1.2596  1.7339 -0.9126
 7225SOL     OW33133   0.304   2.784   1.953 -0.1863  0.2581 -0.0919
 7225SOL    HW133134   0.242   2.722   1.914 -1.8950  1.9133  0.0407
 7225SOL    HW233135   0.266   2.801   2.039  0.0667 -0.5228  0.1765
 7226SOL     OW33136   0.910   2.413   9.217  0.1564 -0.3423 -0.5460
 7226SOL    HW133137   0.982   2.424   9.279 -1.6842  0.1926  1.4961
 7226SOL    HW233138   0.961   2.359   9.157  0.1392  0.3604 -1.1981
 7227SOL     OW33139   4.238   0.411   0.851 -0.2268 -0.6917  0.0925
 7227SOL    HW133140   4.222   0.483   0.790  3.6203  0.0396 -0.0888
 7227SOL    HW233141   4.322   0.430   0.893 -1.0375  1.2220  0.7830
 7228SOL     OW33142   1.739   2.177   1.578 -0.2599 -0.3666  0.1111
 7228SOL    HW133143   1.644   2.165   1.583 -0.2028  0.9981  4.2620
 7228SOL    HW233144   1.777   2.098   1.540 -0.3370  0.0521 -0.8399
 7229SOL     OW33145   1.430   3.332   5.393 -0.1371  0.6299 -0.3911
 7229SOL    HW133146   1.366   3.389   5.350 -0.5700 -1.1914 -2.1058
 7229SOL    HW233147   1.383   3.251   5.411 -1.8532  1.7026 -0.0054
 7230SOL     OW33148   0.370   2.608  16.838 -0.0190  0.7056 -0.0757
 7230SOL    HW133149   0.350   2.632  16.748 -0.4641 -0.3466 -0.2577
 7230SOL    HW233150   0.349   2.690  16.884 -3.9316 -1.5820  2.2029
 7231SOL     OW33151   1.156   1.908   1.794  0.2117  0.1774  0.1210
 7231SOL    HW133152   1.062   1.909   1.813 -0.1391  0.5997 -1.7220
 7231SOL    HW233153   1.179   1.815   1.801 -2.0219 -0.5308 -1.8222
 7232SOL     OW33154   1.358   1.579  15.915 -0.4511 -0.4308  0.7307
 7232SOL    HW133155   1.351   1.637  15.991 -0.2894  1.2937 -0.5698
 7232SOL    HW233156   1.347   1.499  15.966  1.3774 -1.4378 -0.4775
 7233SOL     OW33157   3.929   2.604   2.573 -0.2450  0.2300  0.5659
 7233SOL    HW133158   3.939   2.651   2.656  1.2267  0.4986  0.2317
 7233SOL    HW233159   3.930   2.511   2.597  2.6560  0.1620  0.2045
 7234SOL     OW33160   2.552   3.980   5.964 -0.0172 -0.5716  0.1569
 7234SOL    HW133161   2.496   3.914   5.922 -0.6909 -0.0934  0.3053
 7234SOL    HW233162   2.628   3.923   5.948  0.8252  0.7116 -0.3667
 7235SOL     OW33163   4.395   0.092   3.408 -0.3003  0.3105 -0.6697
 7235SOL    HW133164   4.476   0.048   3.437 -1.3356 -0.7746  0.5973
 7235SOL    HW233165   4.424   0.182   3.398 -0.4272  0.3709 -0.4909
 7236SOL     OW33166   2.534   2.187   9.242  0.0443  0.0325 -0.5480
 7236SOL    HW133167   2.534   2.276   9.276  2.3821 -0.5898  1.1337
 7236SOL    HW233168   2.466   2.192   9.175  0.8972  1.3996 -1.3030
 7237SOL     OW33169   1.297   1.718  14.885 -0.0962  0.0570 -0.0494
 7237SOL    HW133170   1.386   1.725  14.920 -0.9112  1.0870  1.7974
 7237SOL    HW233171   1.321   1.655  14.816  1.6680  0.8968 -0.1885
 7238SOL     OW33172   3.144   4.552  12.402 -0.2630  0.2212  0.9593
 7238SOL    HW133173   3.181   4.479  12.352 -1.7957 -0.2750  0.5466
 7238SOL    HW233174   3.068   4.576  12.348 -0.1049 -0.3211  0.4967
 7239SOL     OW33175   0.778   2.792   7.662 -0.1515 -0.0297  1.2289
 7239SOL    HW133176   0.791   2.745   7.745  3.1650 -2.5215 -0.6983
 7239SOL    HW233177   0.801   2.877   7.700 -0.5617  1.0133 -0.8736
 7240SOL     OW33178   0.867   3.200  11.569  0.4667 -0.0700 -0.0867
 7240SOL    HW133179   0.941   3.255  11.546 -0.9080  1.3208 -1.2163
 7240SOL    HW233180   0.905   3.135  11.628  2.4203  0.8081 -0.3897
 7241SOL     OW33181   0.636   0.028   1.396 -0.0500 -0.1074  0.4340
 7241SOL    HW133182   0.552   0.072   1.404  0.2631  0.5491  0.0533
 7241SOL    HW233183   0.622   4.706   1.312 -2.3688  2.5446 -0.5449
 7242SOL     OW33184   0.644   4.102   8.745  0.3463  0.1299  0.2837
 7242SOL    HW133185   0.696   4.062   8.675 -1.5087 -0.4396 -0.7434
 7242SOL    HW233186   0.617   4.184   8.704 -0.2050 -0.2991 -0.2069
 7243SOL     OW33187   4.392   4.513   2.298  0.6494 -0.2712 -0.3148
 7243SOL    HW133188   4.354   4.515   2.210  1.6127  2.5178 -0.6797
 7243SOL    HW233189   4.400   4.420   2.318  0.2112 -0.4550 -1.0292
 7244SOL     OW33190   2.082   1.615   7.893 -0.3981  0.3607  0.3920
 7244SOL    HW133191   2.163   1.584   7.933 -0.0260 -0.2323 -0.8288
 7244SOL    HW233192   2.017   1.561   7.939 -1.5496  0.8843 -0.6081
 7245SOL     OW33193   0.777   4.520  16.451 -0.0465  0.1975  0.4667
 7245SOL    HW133194   0.744   4.605  16.422 -0.6059 -0.4691 -0.8534
 7245SOL    HW233195   0.708   4.459  16.423  0.3168  0.1398 -0.3033
 7246SOL     OW33196   1.052   4.144  11.290  0.3568 -0.2744  0.2166
 7246SOL    HW133197   1.082   4.205  11.222  1.4582 -0.8245  0.2151
 7246SOL    HW233198   1.009   4.210  11.344 -0.1818  1.5340 -2.4266
 7247SOL     OW33199   3.475   3.040   4.808  0.2998 -0.1608  0.4703
 7247SOL    HW133200   3.420   2.994   4.744  2.0560  0.6678 -1.6458
 7247SOL    HW233201   3.472   2.975   4.878  0.7499  1.5616  2.1020
 7248SOL     OW33202   0.220   0.604   2.820 -0.0778  0.6475 -0.0352
 7248SOL    HW133203   0.204   0.697   2.834  0.5865  1.1499 -2.6574
 7248SOL    HW233204   0.133   0.568   2.800  0.6743 -1.2442  0.1193
 7249SOL     OW33205   0.408   4.617   8.170 -0.0687 -0.0924 -0.0237
 7249SOL    HW133206   0.465   4.687   8.139 -2.3094  0.7129 -2.3979
 7249SOL    HW233207   0.328   4.667   8.153  0.4324  1.2433  1.4912
 7250SOL     OW33208   2.309   0.547   9.166  0.0416 -0.2196  0.4211
 7250SOL    HW133209   2.289   0.614   9.100 -2.9799 -1.4759  0.0740
 7250SOL    HW233210   2.396   0.514   9.143  0.1951  1.1204 -0.9611
 7251SOL     OW33211   4.634   2.055  12.039 -0.0314 -0.2613  0.2044
 7251SOL    HW133212   4.542   2.067  12.062 -0.1887 -2.3097  0.5850
 7251SOL    HW233213   4.632   1.960  12.044  1.7008 -0.2308  1.3808
 7252SOL     OW33214   0.704   2.909   3.847 -0.4331  0.0548  0.5206
 7252SOL    HW133215   0.731   2.817   3.845  2.0887  0.8372 -0.4045
 7252SOL    HW233216   0.650   2.925   3.769 -0.2301 -0.4605  0.2789
 7253SOL     OW33217   0.496   0.289   5.616  0.4528  0.5511  0.3530
 7253SOL    HW133218   0.525   0.297   5.707 -1.1231  1.3605  0.7713
 7253SOL    HW233219   0.581   0.258   5.582 -0.6737 -1.5836 -0.5352
 7254SOL     OW33220   2.568   4.564   9.944 -0.2372  0.2812  0.0042
 7254SOL    HW133221   2.565   4.566  10.039  1.1747  3.8109 -0.0357
 7254SOL    HW233222   2.657   4.588   9.919 -0.9874 -1.2926 -4.1422
 7255SOL     OW33223   0.481   1.117   5.175 -0.7849 -0.1758  0.3924
 7255SOL    HW133224   0.423   1.159   5.111  1.6813  0.7321 -1.2661
 7255SOL    HW233225   0.500   1.036   5.126 -0.0953  1.0467 -1.3618
 7256SOL     OW33226   3.731   4.202   8.673  0.4590 -0.2644 -0.2873
 7256SOL    HW133227   3.677   4.247   8.738  0.3506 -0.7139 -0.0655
 7256SOL    HW233228   3.669   4.186   8.602 -0.2003  0.0472  0.2093
 7257SOL     OW33229   2.514   2.325   3.107 -0.0209  0.3561 -0.3143
 7257SOL    HW133230   2.561   2.295   3.030 -1.2855 -0.6819 -0.6734
 7257SOL    HW233231   2.542   2.416   3.118 -0.4343  0.6974 -2.2264
 7258SOL     OW33232   1.549   3.880   6.636 -0.0975 -0.0751 -0.1566
 7258SOL    HW133233   1.489   3.821   6.591  0.6252 -0.4501 -0.6178
 7258SOL    HW233234   1.562   3.959   6.583 -1.1079 -0.4705 -0.9703
 7259SOL     OW33235   4.563   2.121   5.702  0.0285  0.5032  0.0873
 7259SOL    HW133236   4.615   2.118   5.782  0.4251 -1.9679 -0.2549
 7259SOL    HW233237   4.590   2.199   5.653  0.6887  1.0128  1.2750
 7260SOL     OW33238   2.375   2.806   3.443  0.0312 -0.5159 -0.2935
 7260SOL    HW133239   2.462   2.788   3.408  0.0558  0.1205 -0.5540
 7260SOL    HW233240   2.375   2.899   3.463 -1.1117 -0.4720 -0.4829
 7261SOL     OW33241   0.545   4.226  12.515 -0.0158 -0.4862  0.3432
 7261SOL    HW133242   0.550   4.183  12.430  0.0622  0.6539 -0.2302
 7261SOL    HW233243   0.622   4.283  12.520 -0.0986 -0.4897  1.7487
 7262SOL     OW33244   3.117   4.232  11.028 -0.2880  0.0387  0.1169
 7262SOL    HW133245   3.144   4.154  10.979  2.1393  1.2870 -0.4736
 7262SOL    HW233246   3.051   4.189  11.083  0.0250 -0.3506  0.1892
 7263SOL     OW33247   2.048   1.288   9.140 -0.5357  0.7429  0.0906
 7263SOL    HW133248   2.016   1.378   9.139 -1.2027  0.5196  1.4581
 7263SOL    HW233249   2.024   1.258   9.227  1.6717 -0.9450  0.1290
 7264SOL     OW33250   1.896   4.682   8.388  0.1156  0.5307 -0.0172
 7264SOL    HW133251   1.978   4.671   8.436  0.4852 -0.3394 -0.8386
 7264SOL    HW233252   1.828   4.650   8.448 -1.2153 -0.1501 -1.8876
 7265SOL     OW33253   1.781   0.790   1.994 -0.5186 -0.4497 -0.5353
 7265SOL    HW133254   1.770   0.736   2.072  2.1936  1.7295  1.3122
 7265SOL    HW233255   1.711   0.766   1.934 -1.3999  2.1295 -0.5424
 7266SOL     OW33256   3.259   3.866   5.693  0.0393 -0.3684 -0.2583
 7266SOL    HW133257   3.210   3.807   5.752  1.0805  0.2961  1.2566
 7266SOL    HW233258   3.203   3.943   5.692 -0.2968 -0.6249 -1.1180
 7267SOL     OW33259   1.896   2.887  14.148  0.2894  0.7746 -0.1475
 7267SOL    HW133260   1.813   2.934  14.159 -0.4620 -1.1440  2.5265
 7267SOL    HW233261   1.946   2.934  14.215  2.2664 -1.4078 -0.0636
 7268SOL     OW33262   4.613   2.947   5.293 -0.5271  0.0933  0.4153
 7268SOL    HW133263   4.622   2.995   5.375 -0.7345  1.3271 -0.2831
 7268SOL    HW233264   4.694   2.973   5.249 -0.5565  1.3893  1.1363
 7269SOL     OW33265   2.476   4.245  14.765  0.1651 -0.1934 -1.0501
 7269SOL    HW133266   2.504   4.231  14.856  2.7319  0.3998 -1.7376
 7269SOL    HW233267   2.431   4.330  14.771 -0.5833 -0.5674 -1.4497
 7270SOL     OW33268   0.890   1.471  15.196 -0.4184  0.4074 -0.1693
 7270SOL    HW133269   0.902   1.529  15.120 -0.1057  0.0626 -0.3834
 7270SOL    HW233270   0.973   1.470  15.244 -0.9480  1.0837  0.7652
 7271SOL     OW33271   4.332   0.414   6.396  0.7653 -0.3829  0.9633
 7271SOL    HW133272   4.255   0.388   6.345  0.7091 -0.2000  0.9543
 7271SOL    HW233273   4.346   0.497   6.350  1.0907 -0.3710  1.0795
 7272SOL     OW33274   0.585   2.737   8.843  0.1802  0.0286 -0.5193
 7272SOL    HW133275   0.679   2.756   8.847  0.5781 -2.0141  0.0180
 7272SOL    HW233276   0.553   2.817   8.884 -0.2480 -0.2435 -0.3160
 7273SOL     OW33277   0.742   0.296   1.987 -0.2537 -0.3421  0.2461
 7273SOL    HW133278   0.679   0.368   1.981  0.0056 -0.1317  0.0169
 7273SOL    HW233279   0.830   0.332   1.977 -1.3347  2.2179 -0.1382
 7274SOL     OW33280   2.841   0.693   7.829 -1.0562  0.5177 -0.0663
 7274SOL    HW133281   2.901   0.661   7.762 -2.3101 -1.4710 -0.2317
 7274SOL    HW233282   2.898   0.731   7.896 -0.3208 -0.9510  0.1334
 7275SOL     OW33283   1.706   0.383   0.111  0.3733 -0.7748  0.0849
 7275SOL    HW133284   1.665   0.376   0.197  0.3979  3.0270  0.4102
 7275SOL    HW233285   1.796   0.358   0.129 -0.0476 -1.4694  1.2427
 7276SOL     OW33286   0.570   1.995   4.908  0.0914 -0.1062  0.0675
 7276SOL    HW133287   0.519   1.925   4.868 -0.2657  0.4516 -0.4583
 7276SOL    HW233288   0.656   1.954   4.909  0.0865 -0.1187 -1.0845
 7277SOL     OW33289   1.792   3.416   9.074 -0.2507  0.3105 -0.0243
 7277SOL    HW133290   1.723   3.454   9.019  0.1889 -0.5071 -1.1549
 7277SOL    HW233291   1.758   3.335   9.110  2.1755 -0.4797  0.5007
 7278SOL     OW33292   4.264   4.670   8.532  0.1741  0.1135 -0.5853
 7278SOL    HW133293   4.272   4.659   8.627  0.5087  1.3667 -0.4766
 7278SOL    HW233294   4.259   0.044   8.523  0.5439  0.1101 -0.8292
 7279SOL     OW33295   0.427   3.463  11.538  0.4168 -0.0833  0.9219
 7279SOL    HW133296   0.396   3.547  11.571 -0.9034 -0.6130  1.0257
 7279SOL    HW233297   0.515   3.496  11.520  0.2205 -0.5635 -0.9633
 7280SOL     OW33298   2.097   1.082   6.709  0.2019 -0.4018  0.3368
 7280SOL    HW133299   2.182   1.038   6.704  0.0585 -0.5764 -0.5647
 7280SOL    HW233300   2.107   1.104   6.802  4.0084  0.7092 -0.3208
 7281SOL     OW33301   4.281   4.436   7.191 -0.0805  0.4031  0.3292
 7281SOL    HW133302   4.197   4.476   7.170 -0.0974  0.1334 -0.1306
 7281SOL    HW233303   4.286   4.364   7.128  1.8093 -0.3974  1.3913
 7282SOL     OW33304   0.626   2.368   4.422 -0.6436  0.3295  0.6401
 7282SOL    HW133305   0.624   2.346   4.515 -2.2504 -1.4985  0.1792
 7282SOL    HW233306   0.655   2.459   4.417 -2.2341  0.8439  0.6589
 7283SOL     OW33307   2.602   0.311   7.928 -0.2329 -0.0038  0.2708
 7283SOL    HW133308   2.690   0.281   7.947 -1.2063 -1.2539  2.7480
 7283SOL    HW233309   2.587   0.279   7.839  0.1542 -0.5882  0.4184
 7284SOL     OW33310   3.628   1.193   1.582  0.3732  0.1325  0.1721
 7284SOL    HW133311   3.722   1.206   1.575  0.5847 -1.7925 -0.5324
 7284SOL    HW233312   3.623   1.098   1.585  1.4408  0.1474  2.4131
 7285SOL     OW33313   0.393   2.003   3.404  0.7407 -0.2231  0.0746
 7285SOL    HW133314   0.441   1.957   3.474  2.2998 -1.0150 -1.5023
 7285SOL    HW233315   0.328   1.937   3.380 -0.1777  0.3655  0.9459
 7286SOL     OW33316   0.974   3.494  13.390  0.5579  0.0215  0.1894
 7286SOL    HW133317   0.890   3.538  13.406  0.8556  0.7976 -0.3694
 7286SOL    HW233318   0.999   3.527  13.304  0.5820 -1.3729 -0.3463
 7287SOL     OW33319   3.314   3.870  11.858 -0.1321 -0.3857 -0.3956
 7287SOL    HW133320   3.355   3.884  11.772 -0.2446  0.2215 -0.3512
 7287SOL    HW233321   3.267   3.788  11.842 -1.3990  0.3875 -0.6575
 7288SOL     OW33322   3.290   3.069  11.212  0.8181  0.3703  0.3085
 7288SOL    HW133323   3.371   3.091  11.166  0.5351 -0.5576 -0.6382
 7288SOL    HW233324   3.328   3.074  11.300  1.8201  2.2648 -0.2359
 7289SOL     OW33325   0.734   1.938   4.434 -0.3325  0.5413 -0.3710
 7289SOL    HW133326   0.819   1.969   4.465  0.0684 -3.3109  2.3603
 7289SOL    HW233327   0.758   1.851   4.402  0.8683  0.6941  0.1088
 7290SOL     OW33328   3.106   2.414   8.046 -0.1783  0.6610 -0.1554
 7290SOL    HW133329   3.189   2.368   8.033  0.1309  0.8782  1.0257
 7290SOL    HW233330   3.072   2.370   8.124 -1.1011  1.2990 -0.1947
 7291SOL     OW33331   2.355   4.158   4.584  0.1189  0.1374 -0.3875
 7291SOL    HW133332   2.291   4.150   4.513 -0.7645 -1.3600  0.5739
 7291SOL    HW233333   2.432   4.116   4.546  1.9221  1.0170  2.2903
 7292SOL     OW33334   3.058   1.696   0.239  0.7099  0.1377 -0.2694
 7292SOL    HW133335   3.130   1.759   0.243  2.5868 -1.9675 -1.2698
 7292SOL    HW233336   3.074   1.688   0.145 -0.9958 -0.1633 -0.5379
 7293SOL     OW33337   3.753   2.378  17.366 -0.1240 -0.1857 -0.0913
 7293SOL    HW133338   3.740   2.326  17.445 -1.1211  0.4322  0.1483
 7293SOL    HW233339   3.705   2.318  17.308 -2.1484  0.5292  0.8650
 7294SOL     OW33340   0.372   0.556   8.278 -0.0993  0.1040  0.8441
 7294SOL    HW133341   0.426   0.633   8.297  2.2024 -1.2043 -0.2882
 7294SOL    HW233342   0.446   0.498   8.259  1.9826  1.2441  5.5057
 7295SOL     OW33343   0.401   2.714  14.815 -0.2042  0.0825 -0.3955
 7295SOL    HW133344   0.351   2.730  14.895 -1.0314 -2.4853 -0.3990
 7295SOL    HW233345   0.492   2.715  14.845  0.1770 -0.4950 -1.5360
 7296SOL     OW33346   1.682   1.856   4.907 -0.3334 -0.5893 -0.2897
 7296SOL    HW133347   1.645   1.944   4.912 -1.6141 -1.2213  1.4159
 7296SOL    HW233348   1.641   1.820   4.829  0.5573  1.0441 -1.5118
 7297SOL     OW33349   2.712   3.762   5.965 -0.4671 -0.2309 -0.0795
 7297SOL    HW133350   2.690   3.761   6.059  1.4155 -1.4194  0.3422
 7297SOL    HW233351   2.669   3.681   5.937 -1.5473 -0.0944  1.1519
 7298SOL     OW33352   3.996   4.206   5.235  0.4595  0.4980  0.5066
 7298SOL    HW133353   4.034   4.259   5.164  0.5041 -0.1866  0.0266
 7298SOL    HW233354   4.063   4.143   5.262  0.5798  0.3261 -0.1975
 7299SOL     OW33355   3.704   0.842   5.062  0.1002 -0.4799  0.0646
 7299SOL    HW133356   3.630   0.895   5.034 -0.2021 -1.9270 -1.8697
 7299SOL    HW233357   3.762   0.905   5.105  1.7223 -2.9331  1.4549
 7300SOL     OW33358   3.627   0.096   6.073  0.1984 -0.2868 -0.3764
 7300SOL    HW133359   3.534   0.117   6.061 -0.5898 -4.7180 -2.1582
 7300SOL    HW233360   3.647   0.050   5.991 -0.6968  0.1305 -0.8396
 7301SOL     OW33361   4.028   0.853  16.636  0.1666  0.4500  0.2170
 7301SOL    HW133362   3.952   0.814  16.594  1.2654  1.6269 -2.9062
 7301SOL    HW233363   4.036   0.937  16.590 -1.8054  0.1552 -0.6588
 7302SOL     OW33364   2.238   2.574   6.740  0.1114 -0.5726 -0.0858
 7302SOL    HW133365   2.332   2.558   6.741  0.0462 -0.7471  1.9533
 7302SOL    HW233366   2.224   2.590   6.833  1.8086  0.7146 -0.0603
 7303SOL     OW33367   0.200   3.083   2.076 -0.2044 -0.0797  0.6817
 7303SOL    HW133368   0.258   3.059   2.149  1.1760 -2.0538 -1.0497
 7303SOL    HW233369   0.114   3.090   2.117  0.0828 -1.0680  1.4549
 7304SOL     OW33370   1.861   2.547   9.237 -0.6191 -0.1911  0.3469
 7304SOL    HW133371   1.922   2.474   9.231 -0.1295  0.3785 -1.3842
 7304SOL    HW233372   1.807   2.518   9.164 -1.5576  2.4883 -0.0318
 7305SOL     OW33373   3.008   0.468   8.299 -0.0151  0.0935 -0.0427
 7305SOL    HW133374   3.101   0.488   8.316 -0.9544  3.1534  1.5526
 7305SOL    HW233375   2.999   0.380   8.335 -0.0413 -0.2559 -0.9055
 7306SOL     OW33376   2.731   4.592   5.395 -0.2138  0.7011  0.4578
 7306SOL    HW133377   2.727   4.628   5.306  0.1414 -0.3301  0.0119
 7306SOL    HW233378   2.755   4.672   5.441  2.6211 -1.4053  2.6225
 7307SOL     OW33379   1.300   4.097   1.347 -0.0116 -0.2282  0.6672
 7307SOL    HW133380   1.316   4.155   1.422 -1.1403  1.0554 -0.0904
 7307SOL    HW233381   1.225   4.143   1.308 -0.0239  0.1156  1.0907
 7308SOL     OW33382   1.560   0.689   9.877  0.1913 -0.0853  0.1790
 7308SOL    HW133383   1.552   0.658   9.967 -0.6966  0.3718  0.2514
 7308SOL    HW233384   1.618   0.630   9.829  0.9167  0.0002  0.9382
 7309SOL     OW33385   3.801   0.387  13.569 -0.2325  0.4067  0.1772
 7309SOL    HW133386   3.798   0.476  13.533 -1.6149  1.1582  2.1548
 7309SOL    HW233387   3.720   0.358  13.526 -0.8980  2.4345  0.0237
 7310SOL     OW33388   1.315   4.563   5.953 -0.6095 -0.3594  0.2152
 7310SOL    HW133389   1.220   4.565   5.939 -0.5032 -0.7958 -0.5678
 7310SOL    HW233390   1.338   4.637   6.010 -1.3097 -0.9720  1.3082
 7311SOL     OW33391   1.722   0.553   3.615  0.0437 -0.0428  0.1165
 7311SOL    HW133392   1.813   0.565   3.642  0.1191  1.0136 -0.6404
 7311SOL    HW233393   1.736   0.483   3.551 -0.7657  1.0416 -1.2460
 7312SOL     OW33394   1.081   2.674   1.731  0.0457  0.3253  0.2752
 7312SOL    HW133395   1.081   2.617   1.654  0.3802 -1.7579  1.8224
 7312SOL    HW233396   1.000   2.724   1.729  0.9396  1.7926  0.5594
 7313SOL     OW33397   4.533   2.183   6.960 -0.4103 -0.5460 -0.2663
 7313SOL    HW133398   4.552   2.089   6.968  2.0160  0.0010  0.4328
 7313SOL    HW233399   4.521   2.191   7.055  1.0067  1.6444 -0.2897
 7314SOL     OW33400   3.598   3.495  12.278 -0.1340  0.4616 -0.6577
 7314SOL    HW133401   3.648   3.576  12.281  1.2217 -0.3952  0.0765
 7314SOL    HW233402   3.647   3.447  12.211 -1.1020 -0.3808 -0.7718
 7315SOL     OW33403   2.157   2.409   9.196  0.2629 -0.0144 -0.4668
 7315SOL    HW133404   2.179   2.443   9.283  0.9649 -0.7512 -0.3570
 7315SOL    HW233405   2.158   2.314   9.203 -0.7936  0.2789  3.4306
 7316SOL     OW33406   4.193   1.349  13.700 -0.5680 -0.3632 -0.0219
 7316SOL    HW133407   4.236   1.283  13.645 -0.2792 -0.6404  0.5276
 7316SOL    HW233408   4.100   1.345  13.679 -0.4438 -1.0275 -0.4583
 7317SOL     OW33409   3.102   4.072   0.319 -0.0411  0.3764 -0.0676
 7317SOL    HW133410   3.066   4.153   0.283  0.1966  0.4487 -0.1482
 7317SOL    HW233411   3.178   4.057   0.262 -0.0966  0.4736 -0.1686
 7318SOL     OW33412   4.314   2.806   7.754  0.4793 -0.0626 -0.5596
 7318SOL    HW133413   4.277   2.786   7.667 -1.1665  1.4401 -0.2208
 7318SOL    HW233414   4.267   2.746   7.812  0.1135  0.6512 -0.1175
 7319SOL     OW33415   2.292   0.417   3.553  0.2341 -0.7654 -0.7587
 7319SOL    HW133416   2.377   0.456   3.535  0.8130 -1.2687  0.9343
 7319SOL    HW233417   2.276   0.377   3.467  0.7322 -0.5456 -0.9562
 7320SOL     OW33418   3.666   0.215   1.060 -0.0060 -0.5169 -0.2575
 7320SOL    HW133419   3.732   0.163   1.105  3.4921  3.2465 -0.9942
 7320SOL    HW233420   3.587   0.169   1.086  0.0611 -0.1973  0.4986
 7321SOL     OW33421   1.898   3.154  13.704  0.0074 -0.3724  0.1786
 7321SOL    HW133422   1.951   3.149  13.625 -0.3173  1.6698 -0.1591
 7321SOL    HW233423   1.961   3.153  13.776 -1.1841 -0.1707  1.2287
 7322SOL     OW33424   0.407   4.206   2.682 -0.4370  0.1622  0.2366
 7322SOL    HW133425   0.484   4.263   2.696 -0.4640  0.1753  0.3295
 7322SOL    HW233426   0.343   4.260   2.635 -0.3641 -1.2189 -1.4391
 7323SOL     OW33427   1.225   3.574   2.109 -0.2889  0.1050 -0.6282
 7323SOL    HW133428   1.191   3.631   2.039  1.0152 -0.4447 -1.6936
 7323SOL    HW233429   1.144   3.523   2.113  0.4231 -1.1638 -2.6836
 7324SOL     OW33430   2.563   4.670   8.531 -0.2557  0.6565  0.3947
 7324SOL    HW133431   2.529   0.021   8.582  0.6690  1.2201  0.2143
 7324SOL    HW233432   2.483   4.661   8.479  0.2022 -0.0657 -0.2025
 7325SOL     OW33433   0.597   2.988   8.104  0.3382  0.2616 -0.7056
 7325SOL    HW133434   0.568   2.922   8.040 -2.2169 -0.1779  0.9239
 7325SOL    HW233435   0.521   3.047   8.099 -0.6647 -0.8768  1.2192
 7326SOL     OW33436   2.818   1.040  15.226  0.0165 -0.2801  0.4968
 7326SOL    HW133437   2.828   1.128  15.264 -0.0799  0.4443 -1.1823
 7326SOL    HW233438   2.847   0.992  15.304  0.6625 -0.2194  0.2924
 7327SOL     OW33439   0.079   0.536  13.423  0.5181  0.1418  0.1174
 7327SOL    HW133440   0.060   0.617  13.374 -3.2845  0.4920  2.1737
 7327SOL    HW233441   0.114   0.487  13.349 -1.9209  0.6747 -1.4130
 7328SOL     OW33442   0.785   1.838   4.927 -0.1270 -0.0611  0.1234
 7328SOL    HW133443   0.847   1.887   4.873 -0.2386 -0.5083 -0.4008
 7328SOL    HW233444   0.831   1.762   4.963  0.1285 -0.7483 -1.6910
 7329SOL     OW33445   2.638   0.182   3.764 -0.1879 -0.0475  0.7762
 7329SOL    HW133446   2.648   0.270   3.728  0.6612 -1.8806 -3.4840
 7329SOL    HW233447   2.594   0.133   3.694 -0.3014 -1.3090  1.7331
 7330SOL     OW33448   0.064   2.236   0.354  0.1112  0.7866  0.1901
 7330SOL    HW133449   0.122   2.177   0.307 -1.0306 -1.2017  1.2641
 7330SOL    HW233450   4.709   2.239   0.296  0.5447  2.5758 -0.2890
 7331SOL     OW33451   4.479   0.200   6.476 -0.0350  0.2030  0.1810
 7331SOL    HW133452   4.435   0.161   6.400  0.5598 -1.1123  0.5198
 7331SOL    HW233453   4.414   0.270   6.480  0.1370  0.5493 -3.1550
 7332SOL     OW33454   3.893   2.748  13.083 -0.2116 -0.0374 -0.4451
 7332SOL    HW133455   3.821   2.705  13.039 -1.7336  0.4783  1.5359
 7332SOL    HW233456   3.842   2.801  13.145  1.8892  1.3695  0.0855
 7333SOL     OW33457   3.891   2.991   1.214  0.2408  0.8355 -0.2381
 7333SOL    HW133458   3.928   3.072   1.180 -0.4953 -0.3347 -3.7919
 7333SOL    HW233459   3.885   2.936   1.136 -0.8983  2.1745 -1.1021
 7334SOL     OW33460   0.574   3.039   8.519 -0.5780 -0.2063 -0.4833
 7334SOL    HW133461   0.488   3.076   8.501 -1.4230 -2.4166 -1.0112
 7334SOL    HW233462   0.548   2.947   8.518  1.2067 -0.7271  0.8547
 7335SOL     OW33463   4.314   3.329   7.882 -0.0648 -0.1184 -0.1822
 7335SOL    HW133464   4.378   3.384   7.835  0.4324 -1.2139 -0.7962
 7335SOL    HW233465   4.350   3.244   7.857  1.3850  0.4843 -0.1551
 7336SOL     OW33466   0.029   2.711   6.409  0.3319 -0.4177  0.1224
 7336SOL    HW133467   0.094   2.773   6.443  0.5842 -1.7303  2.0270
 7336SOL    HW233468   0.076   2.638   6.370  0.8967 -0.0133  0.0439
 7337SOL     OW33469   4.122   0.557  10.085  0.0581  0.2215  0.5695
 7337SOL    HW133470   4.149   0.646  10.107  0.6651 -0.2467  1.7253
 7337SOL    HW233471   4.044   0.535  10.137 -0.2054  0.4794  0.2907
 7338SOL     OW33472   0.075   3.420   6.262  0.1785  0.3233  0.3263
 7338SOL    HW133473   0.001   3.474   6.234 -0.3944  0.0462  1.2769
 7338SOL    HW233474   0.068   3.417   6.358  1.8052 -1.1351  0.3991
 7339SOL     OW33475   1.249   2.055   7.350 -0.4540  0.4325  0.0839
 7339SOL    HW133476   1.228   2.001   7.274 -1.6126  0.2694  0.5315
 7339SOL    HW233477   1.161   2.070   7.382 -0.7564  0.5125 -0.7955
 7340SOL     OW33478   2.224   0.776   2.707  0.6813 -0.0755 -1.0334
 7340SOL    HW133479   2.180   0.696   2.737  0.9841 -0.4827 -1.6619
 7340SOL    HW233480   2.298   0.734   2.663  1.0472  0.1728 -0.6577
 7341SOL     OW33481   3.313   4.144   4.797  0.2412 -0.1509 -0.3131
 7341SOL    HW133482   3.331   4.070   4.856  1.4382  0.5028  0.1438
 7341SOL    HW233483   3.402   4.177   4.784 -0.3495  2.1073  1.3723
 7342SOL     OW33484   4.596   2.212   7.541  0.1063  0.5221 -0.5461
 7342SOL    HW133485   4.628   2.126   7.515  0.7265  0.1159  1.6134
 7342SOL    HW233486   4.589   2.202   7.636  1.5120 -0.6307 -0.5674
 7343SOL     OW33487   1.198   2.929   5.171 -0.2588  0.5128 -0.0562
 7343SOL    HW133488   1.196   2.833   5.166 -0.9082  0.6462 -2.5111
 7343SOL    HW233489   1.282   2.950   5.130 -2.1135  3.9311 -2.1015
 7344SOL     OW33490   4.205   2.666  17.274 -0.5005 -0.1485  0.2772
 7344SOL    HW133491   4.196   2.707  17.188  2.3083 -0.0682  0.0355
 7344SOL    HW233492   4.124   2.614  17.279 -0.6994  0.2856  1.5529
 7345SOL     OW33493   4.674   0.203   6.910  0.4076  0.6627  0.2480
 7345SOL    HW133494   0.009   0.129   6.933  0.8235  0.8973 -0.0151
 7345SOL    HW233495   0.005   0.254   6.848 -1.6656 -0.2320 -2.2170
 7346SOL     OW33496   1.317   0.019   8.235  0.2252 -0.5927  0.6109
 7346SOL    HW133497   1.354   0.032   8.322 -2.1892  0.9443  1.3910
 7346SOL    HW233498   1.401   4.717   8.195  0.1943  0.6003 -0.1511
 7347SOL     OW33499   0.684   1.872   0.483 -0.2755  0.4173  0.1408
 7347SOL    HW133500   0.764   1.912   0.449  0.1422 -0.2521  0.3328
 7347SOL    HW233501   0.652   1.809   0.418 -1.3223  1.6307 -0.5098
 7348SOL     OW33502   1.340   0.899   2.760 -0.2071  0.3049 -0.0776
 7348SOL    HW133503   1.391   0.828   2.722 -0.2643  0.5546 -0.6178
 7348SOL    HW233504   1.310   0.855   2.840  1.1182 -1.3980 -0.5238
 7349SOL     OW33505   2.641   0.806   0.413  0.5507  0.4204 -0.0055
 7349SOL    HW133506   2.583   0.764   0.477  1.4722  0.8599  1.1111
 7349SOL    HW233507   2.685   0.870   0.469  1.2701  0.6619 -0.8490
 7350SOL     OW33508   2.429   2.518   2.362  0.6996  0.4037  0.3817
 7350SOL    HW133509   2.498   2.527   2.296  0.8002 -3.4363 -0.0390
 7350SOL    HW233510   2.407   2.427   2.340 -0.0212  0.6737 -0.0212
 7351SOL     OW33511   2.756   0.786  15.818 -0.1664  0.1521  0.3795
 7351SOL    HW133512   2.725   0.699  15.842 -1.9075  0.4446 -0.8349
 7351SOL    HW233513   2.673   0.831  15.832 -0.1322 -0.2778  1.9821
 7352SOL     OW33514   1.006   2.493   1.508 -0.6256 -1.0695  0.4628
 7352SOL    HW133515   1.009   2.424   1.574 -1.1455  0.4180  2.0367
 7352SOL    HW233516   0.918   2.479   1.473  0.5060 -3.6184 -1.3355
 7353SOL     OW33517   0.954   0.048   2.741 -0.2051 -0.4949 -0.3150
 7353SOL    HW133518   0.909   0.043   2.656  1.3355 -0.7295 -1.1272
 7353SOL    HW233519   0.943   4.678   2.767  0.8580 -0.9773 -1.5570
 7354SOL     OW33520   0.667   3.703  13.056  0.4437  0.7094 -1.1345
 7354SOL    HW133521   0.743   3.760  13.070  1.2016  0.0287 -2.5324
 7354SOL    HW233522   0.597   3.755  13.098  0.5193 -1.3455  1.5349
 7355SOL     OW33523   3.557   0.891   2.493 -0.1691  0.3680 -0.3508
 7355SOL    HW133524   3.519   0.803   2.496  0.3129  0.1533 -0.5295
 7355SOL    HW233525   3.519   0.934   2.569 -1.6532 -1.7601  0.0986
 7356SOL     OW33526   4.429   0.020  16.115  0.6800  0.0103  0.0782
 7356SOL    HW133527   4.449   4.662  16.064  0.4908 -0.2478  0.4066
 7356SOL    HW233528   4.465   0.004  16.202 -2.5433  0.0807  1.4093
 7357SOL     OW33529   3.549   1.049  16.359  0.2353 -0.0987  0.3356
 7357SOL    HW133530   3.603   1.068  16.283 -1.7940 -0.9402 -1.2995
 7357SOL    HW233531   3.599   0.980  16.403  0.5848 -0.1639 -0.1708
 7358SOL     OW33532   4.672   3.778   8.498 -0.0423  0.0750  0.2368
 7358SOL    HW133533   4.665   3.874   8.495  0.4514  0.1710  1.8452
 7358SOL    HW233534   4.593   3.748   8.454  1.7202  0.1283 -3.0138
 7359SOL     OW33535   0.445   0.257   8.385 -0.9327  0.1823 -0.4072
 7359SOL    HW133536   0.455   0.230   8.476 -2.0078 -2.2359 -1.0039
 7359SOL    HW233537   0.494   0.339   8.382 -0.8941  0.0481 -3.2711
 7360SOL     OW33538   1.965   2.000   8.512 -0.2691 -0.5638  0.1740
 7360SOL    HW133539   1.997   1.986   8.423 -0.2891  0.6484 -0.0318
 7360SOL    HW233540   1.926   2.085   8.489  0.7535  0.2232  1.2928
 7361SOL     OW33541   0.751   1.948   2.347  0.2389 -0.0319  0.0466
 7361SOL    HW133542   0.844   1.965   2.335  0.6624 -0.6311  2.4536
 7361SOL    HW233543   0.740   1.926   2.254  3.2223  0.6237 -0.4643
 7362SOL     OW33544   0.298   2.885   6.111 -0.2029  0.6506  0.1291
 7362SOL    HW133545   0.370   2.945   6.090  0.2887 -0.6037 -1.7971
 7362SOL    HW233546   0.236   2.924   6.050 -0.0562  0.0290 -0.4236
 7363SOL     OW33547   0.571   0.334   3.615  0.7665 -0.0039 -0.4409
 7363SOL    HW133548   0.577   0.252   3.665  2.5569 -0.7406 -1.8718
 7363SOL    HW233549   0.479   0.348   3.636  0.8572 -0.2556  0.1283
 7364SOL     OW33550   3.233   4.217  14.913  0.1398 -0.3348  0.2334
 7364SOL    HW133551   3.228   4.172  14.998 -3.1620  1.2899  0.8952
 7364SOL    HW233552   3.138   4.226  14.902  0.0149 -3.0507 -0.9300
 7365SOL     OW33553   2.996   0.434   5.568  0.1284  0.8658 -0.8074
 7365SOL    HW133554   3.039   0.507   5.613 -0.6054  1.3705 -0.9093
 7365SOL    HW233555   3.008   0.469   5.480 -1.6855  0.8842 -1.0422
 7366SOL     OW33556   3.744   3.421  11.295  0.4028 -0.3747  0.2346
 7366SOL    HW133557   3.793   3.375  11.363 -0.3439 -2.6241 -0.7569
 7366SOL    HW233558   3.761   3.380  11.210 -1.6618 -2.6823  0.9310
 7367SOL     OW33559   4.620   4.192   3.866  0.1420  0.2475  0.3043
 7367SOL    HW133560   4.698   4.136   3.870  1.0595  1.4202 -1.6400
 7367SOL    HW233561   4.655   4.280   3.858  0.6948  0.1735  1.8408
 7368SOL     OW33562   0.642   2.066   5.553 -0.5404  1.1437 -0.0877
 7368SOL    HW133563   0.736   2.052   5.541 -0.9824 -2.2507  0.3058
 7368SOL    HW233564   0.616   1.979   5.522  0.1098  1.5590 -1.7677
 7369SOL     OW33565   4.338   0.323  13.061 -0.2122 -0.6526  0.1830
 7369SOL    HW133566   4.340   0.385  13.134  0.8984 -1.0790  0.5311
 7369SOL    HW233567   4.355   0.242  13.109  0.7697 -0.1386  0.7103
 7370SOL     OW33568   3.516   1.185  10.072  0.5801 -0.7234  0.0340
 7370SOL    HW133569   3.479   1.234  10.146 -0.4860 -0.2876 -0.7932
 7370SOL    HW233570   3.510   1.245   9.998 -1.0880  0.4900  1.1358
 7371SOL     OW33571   3.463   2.413  14.748 -0.2921  0.1049  0.1537
 7371SOL    HW133572   3.468   2.401  14.843 -1.2586  0.6473  0.2748
 7371SOL    HW233573   3.515   2.491  14.730 -1.8553  0.9980 -0.4517
 7372SOL     OW33574   3.035   4.051   2.136 -0.3283  0.4781 -0.4867
 7372SOL    HW133575   2.974   4.040   2.208 -1.4099  0.3911 -1.4119
 7372SOL    HW233576   3.030   3.966   2.091 -0.7619  0.3071 -0.1133
 7373SOL     OW33577   3.025   1.264  13.527 -0.0640 -0.3318  0.1259
 7373SOL    HW133578   3.018   1.308  13.611 -0.9979 -1.3629  0.5854
 7373SOL    HW233579   3.117   1.285  13.511 -0.2653 -0.5704 -1.4123
 7374SOL     OW33580   4.720   0.306   8.029 -0.3362  0.4180  0.2128
 7374SOL    HW133581   4.653   0.280   8.091 -1.9987  1.6448 -1.0742
 7374SOL    HW233582   4.701   0.399   8.018  2.8422  0.8908 -1.2654
 7375SOL     OW33583   3.931   4.139   8.203 -0.0460 -0.0641  0.0178
 7375SOL    HW133584   3.967   4.051   8.215  1.0202  0.1871 -1.3943
 7375SOL    HW233585   3.856   4.118   8.146 -1.4766  0.8502  1.5512
 7376SOL     OW33586   4.108   3.014   1.667  0.2499 -0.3306 -0.3006
 7376SOL    HW133587   4.065   3.086   1.713 -1.1828 -1.2713 -0.1815
 7376SOL    HW233588   4.193   3.057   1.654 -0.3575  1.0017  0.0953
 7377SOL     OW33589   4.229   3.734   9.621 -1.3122  0.0742 -0.0393
 7377SOL    HW133590   4.155   3.764   9.569  0.3869  1.0588 -1.8835
 7377SOL    HW233591   4.294   3.710   9.555  0.6937  0.2438  1.8564
 7378SOL     OW33592   2.231   1.933   6.902 -0.2251  0.0687 -0.4867
 7378SOL    HW133593   2.244   1.839   6.911  1.5756  0.3111 -0.4805
 7378SOL    HW233594   2.303   1.967   6.956  0.2498  2.3665 -2.5471
 7379SOL     OW33595   1.393   4.389   5.205  0.1193 -0.0300 -0.2372
 7379SOL    HW133596   1.325   4.370   5.140 -1.4191  0.5707  1.1988
 7379SOL    HW233597   1.474   4.411   5.159  0.2617 -0.9682 -0.4433
 7380SOL     OW33598   1.303   3.391  13.621 -0.5987  0.3525 -0.0658
 7380SOL    HW133599   1.361   3.438  13.560 -0.0089 -1.1104 -0.6309
 7380SOL    HW233600   1.306   3.297  13.600 -0.5934  0.0536  1.3282
 7381SOL     OW33601   4.651   2.592  10.589 -0.2781 -0.1058  0.4220
 7381SOL    HW133602   4.706   2.520  10.559 -0.4837 -1.3080  2.9578
 7381SOL    HW233603   4.564   2.555  10.605 -1.0137  0.8201 -1.4012
 7382SOL     OW33604   3.460   0.384  14.994 -0.6126  0.0102 -0.3780
 7382SOL    HW133605   3.467   0.402  14.900  1.8485  0.2307 -0.1633
 7382SOL    HW233606   3.541   0.422  15.030 -0.0966 -1.5306  0.0673
 7383SOL     OW33607   3.287   2.487   6.628  0.4524  0.2753 -0.0579
 7383SOL    HW133608   3.368   2.454   6.587 -0.4965 -0.6176 -1.2160
 7383SOL    HW233609   3.321   2.534   6.704 -0.6704 -1.8830  1.7872
 7384SOL     OW33610   4.541   1.400   6.345  0.2574  0.0143  0.0418
 7384SOL    HW133611   4.558   1.308   6.326 -1.1418 -0.4445  1.0537
 7384SOL    HW233612   4.562   1.405   6.438  1.6193 -2.9867 -0.1057
 7385SOL     OW33613   2.035   2.003  11.906 -0.2305  0.2013  0.2522
 7385SOL    HW133614   2.017   2.063  11.979 -1.8092  0.5156 -0.3949
 7385SOL    HW233615   1.960   1.946  11.892  0.5343 -1.0902  1.3652
 7386SOL     OW33616   1.880   3.479   7.482 -0.2896  0.3320 -0.0462
 7386SOL    HW133617   1.796   3.441   7.507 -0.5919 -1.1100 -3.2473
 7386SOL    HW233618   1.916   3.397   7.448 -0.8411 -0.3902  1.1233
 7387SOL     OW33619   4.635   1.685   8.707  0.1266 -0.9343 -0.0939
 7387SOL    HW133620   4.694   1.744   8.753 -0.3846  0.6795 -1.5357
 7387SOL    HW233621   4.698   1.616   8.687 -1.7269 -1.8503 -2.7081
 7388SOL     OW33622   3.398   2.907   4.212 -0.1365  0.1494 -0.1740
 7388SOL    HW133623   3.471   2.855   4.246  0.0138  0.4805  0.0019
 7388SOL    HW233624   3.439   2.987   4.179 -2.1502  1.4156  0.4152
 7389SOL     OW33625   0.253   3.025   6.337  0.2058  0.1890 -0.1649
 7389SOL    HW133626   0.169   3.053   6.299 -0.2524  0.5540  1.1104
 7389SOL    HW233627   0.289   2.974   6.264 -2.4454 -1.4968 -0.2797
 7390SOL     OW33628   3.870   2.746   9.694  0.1798 -0.1862 -0.1179
 7390SOL    HW133629   3.776   2.734   9.702  0.0728  0.2761 -0.6517
 7390SOL    HW233630   3.884   2.840   9.707  1.0932 -0.1118 -1.5911
 7391SOL     OW33631   0.170   1.414   4.505 -0.1662 -0.5703 -0.6385
 7391SOL    HW133632   0.232   1.355   4.464  0.9119  0.5130 -0.5761
 7391SOL    HW233633   0.140   1.365   4.582 -1.5064 -0.9963 -1.4450
 7392SOL     OW33634   2.548   2.199   2.608 -0.5492 -0.0056 -0.0622
 7392SOL    HW133635   2.465   2.158   2.585 -1.3990  0.4045  2.2863
 7392SOL    HW233636   2.544   2.271   2.546  0.7821  1.0795  1.1253
 7393SOL     OW33637   4.666   4.644   3.833 -0.7661 -0.1098  0.7696
 7393SOL    HW133638   0.001   4.718   3.809 -1.1532  0.4922  1.7010
 7393SOL    HW233639   4.606   4.689   3.892  0.9091  4.6581 -1.1416
 7394SOL     OW33640   4.688   0.744   7.728  0.2164  0.2832 -0.5900
 7394SOL    HW133641   0.052   0.787   7.718  1.5044 -1.8679  0.9230
 7394SOL    HW233642   4.636   0.790   7.663 -0.5249 -0.5597 -0.5955
 7395SOL     OW33643   3.982   0.335   0.867 -0.0091  0.5393  0.0309
 7395SOL    HW133644   4.074   0.339   0.894 -0.0384 -0.9823  0.3515
 7395SOL    HW233645   3.951   0.419   0.899  0.4998  1.0059 -0.7053
 7396SOL     OW33646   0.175   2.168   7.247 -0.3422  0.0828  0.3726
 7396SOL    HW133647   0.257   2.216   7.245 -1.5310  2.2342  2.6309
 7396SOL    HW233648   0.199   2.079   7.223  1.8149  1.0727 -1.0733
 7397SOL     OW33649   4.440   1.949  12.462 -0.0657 -0.2551  0.4708
 7397SOL    HW133650   4.493   1.873  12.485 -1.7731 -1.1177  1.6078
 7397SOL    HW233651   4.449   2.003  12.542 -1.0080  0.0281  0.3921
 7398SOL     OW33652   0.509   1.886   4.583 -0.3413 -0.5116  0.0887
 7398SOL    HW133653   0.548   1.816   4.635  1.3385  1.7681  1.8593
 7398SOL    HW233654   0.581   1.925   4.534  0.1505 -0.1147  1.1310
 7399SOL     OW33655   4.111   2.337   1.486 -0.2258  0.1563  0.0439
 7399SOL    HW133656   4.103   2.268   1.420 -1.2124 -0.4397  0.7758
 7399SOL    HW233657   4.031   2.336   1.538 -0.1864  2.1952  0.1503
 7400SOL     OW33658   4.669   0.438   4.508  0.0419 -0.0970  0.3839
 7400SOL    HW133659   0.005   0.509   4.538  0.3511 -1.2568  2.5673
 7400SOL    HW233660   4.648   0.464   4.418  0.5581  1.6180  0.7586
 7401SOL     OW33661   2.124   1.765   5.201 -0.4939  0.1937  0.2058
 7401SOL    HW133662   2.197   1.825   5.209 -0.6936  0.1312  2.4097
 7401SOL    HW233663   2.058   1.823   5.163  0.4367 -0.2241 -2.0642
 7402SOL     OW33664   3.203   3.096   8.564 -0.5486 -0.0791  0.0406
 7402SOL    HW133665   3.268   3.164   8.550 -1.9811  1.1567 -0.5726
 7402SOL    HW233666   3.135   3.108   8.499  1.0159 -0.6695 -1.7003
 7403SOL     OW33667   1.955   2.690  16.869  0.7110 -0.3923  0.1766
 7403SOL    HW133668   1.947   2.665  16.776  0.2862 -2.1095  0.6728
 7403SOL    HW233669   1.872   2.730  16.895 -0.0138 -1.0177 -1.1502
 7404SOL     OW33670   1.770   2.355   5.089  0.0448  0.2773 -0.0860
 7404SOL    HW133671   1.761   2.450   5.098  2.0157  0.4119  0.4620
 7404SOL    HW233672   1.823   2.342   5.010 -0.6373  0.4766 -0.5740
 7405SOL     OW33673   4.256   0.093   4.832  0.8569  0.3879 -0.4823
 7405SOL    HW133674   4.233   0.182   4.806 -1.5482 -0.3983 -1.0675
 7405SOL    HW233675   4.307   0.105   4.912 -1.8299  0.6494  1.2076
 7406SOL     OW33676   1.777   1.462   9.452  0.0191  0.2326 -0.0992
 7406SOL    HW133677   1.834   1.425   9.385  0.3326 -0.4869  0.5552
 7406SOL    HW233678   1.687   1.435   9.431  0.0777 -0.0445  0.0018
 7407SOL     OW33679   1.618   3.562  17.117  0.7623  0.0587  0.1048
 7407SOL    HW133680   1.525   3.580  17.108  0.7355 -0.6166 -0.8943
 7407SOL    HW233681   1.649   3.579  17.028 -0.0882 -0.7783 -0.3501
 7408SOL     OW33682   0.263   1.935   4.455  0.3195 -0.3893 -0.5898
 7408SOL    HW133683   0.223   1.937   4.541  0.4770 -1.3332 -0.4954
 7408SOL    HW233684   0.339   1.879   4.471 -0.7346 -1.1139  1.8583
 7409SOL     OW33685   1.933   0.418   8.769  0.1864  0.4940  0.4658
 7409SOL    HW133686   1.957   0.381   8.854 -3.1097  1.1487  1.7060
 7409SOL    HW233687   1.913   0.338   8.720 -0.7667 -0.5978  2.6042
 7410SOL     OW33688   0.637   3.067   2.314 -0.3996 -0.3861  0.4718
 7410SOL    HW133689   0.620   2.976   2.290  0.7612 -0.6014  0.4357
 7410SOL    HW233690   0.732   3.070   2.328 -0.3901  0.0611  0.3149
 7411SOL     OW33691   1.402   3.005   1.841 -0.1225  0.5286 -0.2385
 7411SOL    HW133692   1.340   2.952   1.789 -2.0018  2.1353  0.3416
 7411SOL    HW233693   1.388   2.974   1.931  0.8970  0.4206 -0.1178
 7412SOL     OW33694   3.930   0.241   8.166 -0.3575  0.1204 -0.1538
 7412SOL    HW133695   3.990   0.276   8.100 -1.9511 -0.3113 -1.8384
 7412SOL    HW233696   3.883   0.169   8.125  0.2816  0.4545 -1.4893
 7413SOL     OW33697   0.592   4.204   4.744 -0.2623  0.3108 -0.9864
 7413SOL    HW133698   0.580   4.173   4.654 -1.5273 -0.1485 -0.6559
 7413SOL    HW233699   0.520   4.268   4.744 -0.1535  0.4261  0.9921
 7414SOL     OW33700   3.056   4.583   6.373  0.4313 -0.4152 -0.0747
 7414SOL    HW133701   3.041   4.649   6.441  1.6304 -0.0629 -0.1538
 7414SOL    HW233702   3.140   4.605   6.334  0.2528 -0.9361 -0.7539
 7415SOL     OW33703   3.306   3.304  15.216  0.3125 -0.5757 -0.0933
 7415SOL    HW133704   3.401   3.295  15.223  0.3628  0.4625  0.5165
 7415SOL    HW233705   3.286   3.352  15.297 -0.1266  1.0486 -1.1770
 7416SOL     OW33706   2.928   2.580  15.555 -0.0621 -0.1286  0.9359
 7416SOL    HW133707   2.985   2.614  15.624 -1.3352 -1.0292  2.4314
 7416SOL    HW233708   2.885   2.655  15.514 -0.3272 -0.6702  0.2092
 7417SOL     OW33709   4.495   3.817   2.825 -0.3624  0.6081 -1.1035
 7417SOL    HW133710   4.444   3.834   2.746  0.7048 -1.1856 -2.2003
 7417SOL    HW233711   4.558   3.889   2.818  0.3241  0.2339  1.2912
 7418SOL     OW33712   3.936   2.811   1.000  0.4913  0.2123 -0.1992
 7418SOL    HW133713   3.943   2.750   1.073  0.3055 -0.6697 -0.9163
 7418SOL    HW233714   3.865   2.774   0.947  1.2722  0.6517 -1.5537
 7419SOL     OW33715   2.384   2.970  11.356 -0.2269  0.2090  0.5407
 7419SOL    HW133716   2.473   2.939  11.370 -0.0954  0.5160  0.3876
 7419SOL    HW233717   2.400   3.051  11.306  2.6897 -0.1356  0.9051
 7420SOL     OW33718   2.263   2.207  16.542  0.2533  0.6289  0.2524
 7420SOL    HW133719   2.183   2.229  16.494  1.6497 -0.6715 -2.6597
 7420SOL    HW233720   2.260   2.280  16.604 -1.7984  1.2831 -0.6095
 7421SOL     OW33721   1.043   3.637  12.840  0.1346 -0.3520 -0.6703
 7421SOL    HW133722   1.078   3.725  12.824  0.4123 -0.1323  1.1747
 7421SOL    HW233723   0.956   3.657  12.805 -0.5716  0.2608  1.4801
 7422SOL     OW33724   0.409   3.666   3.322 -0.1340 -0.0917 -0.3025
 7422SOL    HW133725   0.409   3.739   3.261  3.2705  0.6981  0.6296
 7422SOL    HW233726   0.489   3.619   3.297  0.6994  1.0812  0.1847
 7423SOL     OW33727   2.553   0.427   1.273 -0.3162 -0.1544 -0.2489
 7423SOL    HW133728   2.582   0.416   1.364 -0.3099  0.1858 -0.2102
 7423SOL    HW233729   2.459   0.413   1.285  0.0185 -1.5208  0.8932
 7424SOL     OW33730   1.112   2.674   8.651 -0.0021 -0.3431  0.6315
 7424SOL    HW133731   1.141   2.733   8.720  0.3680  0.3275 -0.0943
 7424SOL    HW233732   1.086   2.740   8.587 -1.6777 -2.9433 -1.3949
 7425SOL     OW33733   3.664   3.722   4.715 -0.3255 -0.3253  0.0429
 7425SOL    HW133734   3.682   3.753   4.804  1.7445  1.4438 -0.9958
 7425SOL    HW233735   3.595   3.784   4.692  0.1132  0.7405  1.6151
 7426SOL     OW33736   2.910   2.152   1.600  0.1134  0.0191  0.4467
 7426SOL    HW133737   2.969   2.216   1.561 -1.0524  1.8486  1.6791
 7426SOL    HW233738   2.945   2.163   1.689 -0.4760  0.8414  0.5753
 7427SOL     OW33739   4.243   1.401   6.532  0.3551 -0.5083 -0.2950
 7427SOL    HW133740   4.231   1.373   6.442 -2.9683 -0.3674  0.1210
 7427SOL    HW233741   4.189   1.479   6.521  1.4144  0.4884  1.4493
 7428SOL     OW33742   2.698   3.616   7.849 -0.0524  0.3359 -0.2768
 7428SOL    HW133743   2.687   3.614   7.754  0.3342  0.5427 -0.3258
 7428SOL    HW233744   2.746   3.534   7.852  0.9768  0.8879 -1.6963
 7429SOL     OW33745   3.016   4.473   8.603  0.4223  0.8497 -0.0344
 7429SOL    HW133746   2.921   4.466   8.595  0.2763  0.5853  1.9864
 7429SOL    HW233747   3.024   4.566   8.581  1.5571  0.9997  1.0092
 7430SOL     OW33748   1.316   0.375   0.054 -0.6770 -0.3919 -0.4271
 7430SOL    HW133749   1.389   0.435   0.037  0.0211 -0.5799  1.9117
 7430SOL    HW233750   1.311   0.374   0.149 -2.8703 -1.1709 -0.5535
 7431SOL     OW33751   3.299   0.749  11.978 -0.2315 -0.6447  0.1283
 7431SOL    HW133752   3.356   0.812  11.935 -1.4013  0.3997  0.1130
 7431SOL    HW233753   3.346   0.739  12.061  1.1872 -0.6362 -0.6853
 7432SOL     OW33754   4.465   4.028   1.307  0.1079  0.0268 -0.4450
 7432SOL    HW133755   4.481   4.050   1.399  1.5250 -2.1158 -0.1831
 7432SOL    HW233756   4.375   4.061   1.300 -0.9602 -2.7337 -0.1057
 7433SOL     OW33757   1.518   2.148   8.341  0.1400 -0.3757  0.3230
 7433SOL    HW133758   1.562   2.067   8.365  0.6494 -0.6822 -1.6724
 7433SOL    HW233759   1.445   2.126   8.282  0.5729  1.5027 -0.9239
 7434SOL     OW33760   1.410   2.367  14.071  0.0632  0.2468  0.0651
 7434SOL    HW133761   1.367   2.452  14.068  1.0785  0.7734  0.5233
 7434SOL    HW233762   1.343   2.298  14.071 -0.1016  0.3871  2.2133
 7435SOL     OW33763   2.575   0.318   2.475 -0.0512  0.1557 -0.5695
 7435SOL    HW133764   2.499   0.347   2.424  0.0738 -0.9587 -1.4010
 7435SOL    HW233765   2.612   0.405   2.487 -1.3657  0.5845  0.4728
 7436SOL     OW33766   2.475   4.157   7.951 -0.1148 -1.3284 -0.0035
 7436SOL    HW133767   2.465   4.069   7.914 -1.2426 -1.6381  1.0702
 7436SOL    HW233768   2.388   4.197   7.943 -0.8614 -2.7975  0.8133
 7437SOL     OW33769   2.359   3.528   4.086  0.2423  0.3656 -0.0721
 7437SOL    HW133770   2.436   3.471   4.076 -0.3967 -0.1679 -1.8981
 7437SOL    HW233771   2.346   3.552   3.995 -2.0162  1.0117  0.4236
 7438SOL     OW33772   1.925   1.419   0.900  0.1239 -1.1258 -0.4732
 7438SOL    HW133773   1.902   1.476   0.827 -1.2225 -2.1563 -0.8366
 7438SOL    HW233774   1.841   1.376   0.915  0.3909 -1.3439  0.3919
 7439SOL     OW33775   1.520   2.940  17.475 -0.1908  0.1008 -0.2385
 7439SOL    HW133776   1.454   2.922  17.409  1.1966 -1.2611 -1.2303
 7439SOL    HW233777   1.484   2.888  17.547 -1.6541  1.3638 -0.0563
 7440SOL     OW33778   0.354   3.131   3.913  0.7242 -0.2496 -0.2046
 7440SOL    HW133779   0.359   3.037   3.898  1.0097 -0.3726  0.7250
 7440SOL    HW233780   0.260   3.124   3.930  0.9342 -1.8802  0.2365
 7441SOL     OW33781   1.715   1.191  10.095  0.3140 -0.4141 -0.5552
 7441SOL    HW133782   1.760   1.130  10.036 -0.4030 -0.7358 -0.7808
 7441SOL    HW233783   1.684   1.257  10.032  1.3997 -1.1043 -1.8224
 7442SOL     OW33784   2.883   3.527   3.121 -0.1351  0.2755 -0.2311
 7442SOL    HW133785   2.936   3.474   3.181 -0.9784 -1.3890 -0.9681
 7442SOL    HW233786   2.944   3.576   3.067  0.2705  0.4303  0.3674
 7443SOL     OW33787   2.201   0.371   3.816 -0.1262  0.3571 -0.0273
 7443SOL    HW133788   2.163   0.284   3.829 -1.8186  1.4628  2.3995
 7443SOL    HW233789   2.229   0.364   3.725 -0.9245  0.2743 -0.2659
 7444SOL     OW33790   1.530   1.047  10.579  0.5014 -0.4694 -0.0845
 7444SOL    HW133791   1.603   1.055  10.641 -1.3889 -0.0568  2.0525
 7444SOL    HW233792   1.579   1.069  10.499 -0.4986  0.6707 -0.3913
 7445SOL     OW33793   3.251   3.591   2.653 -0.4264  0.1719  0.0299
 7445SOL    HW133794   3.293   3.660   2.705 -0.7366 -0.1034  0.6455
 7445SOL    HW233795   3.302   3.511   2.666 -0.4920  0.2487  0.7832
 7446SOL     OW33796   1.474   4.089  12.217 -0.2181 -0.3624 -0.1592
 7446SOL    HW133797   1.545   4.042  12.171 -0.1778 -1.0629  0.6259
 7446SOL    HW233798   1.528   4.123  12.288 -1.1996 -0.5384  0.6623
 7447SOL     OW33799   1.616   2.585   7.384 -0.5934  0.1766  0.5341
 7447SOL    HW133800   1.680   2.513   7.382 -1.0381 -0.1693 -1.3386
 7447SOL    HW233801   1.540   2.542   7.346 -0.4443  0.2829  0.1183
 7448SOL     OW33802   3.469   1.653   9.210 -0.0496  0.5991 -0.3569
 7448SOL    HW133803   3.405   1.697   9.155  0.9729  1.3526 -0.9406
 7448SOL    HW233804   3.514   1.717   9.266  1.2657 -0.3473 -0.3473
 7449SOL     OW33805   0.996   3.333  10.000  0.3525 -0.4139 -0.0741
 7449SOL    HW133806   0.932   3.366   9.937 -1.4816 -2.9112  0.4830
 7449SOL    HW233807   1.051   3.275   9.947 -2.0137 -1.8217 -0.9712
 7450SOL     OW33808   2.881   2.497  17.073  0.2843  0.2368  0.1569
 7450SOL    HW133809   2.971   2.523  17.053 -0.0965  0.9705 -0.6028
 7450SOL    HW233810   2.847   2.578  17.036  0.7959 -0.3077 -1.5262
 7451SOL     OW33811   4.417   2.693  12.562 -0.4648 -0.3694 -0.0412
 7451SOL    HW133812   4.428   2.600  12.585  1.3157  0.1830  1.3909
 7451SOL    HW233813   4.438   2.732  12.647  0.6687 -0.0481 -0.4715
 7452SOL     OW33814   0.071   0.646   2.044 -0.1752  0.2799  0.2517
 7452SOL    HW133815   0.026   0.562   2.051 -0.5114  0.7400  3.6406
 7452SOL    HW233816   0.015   0.707   2.091 -0.8246 -0.8969  1.0096
 7453SOL     OW33817   2.973   3.712   2.917 -0.1167  0.3999  0.2033
 7453SOL    HW133818   2.984   3.741   2.827 -0.9177 -2.1110 -0.6721
 7453SOL    HW233819   2.880   3.725   2.936 -0.3607 -1.8456  0.5388
 7454SOL     OW33820   2.981   2.951   8.759 -0.3896  0.1437 -0.3744
 7454SOL    HW133821   3.036   2.926   8.833 -0.8271 -0.5093 -0.2703
 7454SOL    HW233822   2.917   2.881   8.775 -0.5035 -0.4670 -3.3633
 7455SOL     OW33823   4.066   1.147   5.339  0.8268  0.2620  0.2820
 7455SOL    HW133824   4.158   1.125   5.357  1.1863  1.6694  0.1419
 7455SOL    HW233825   4.081   1.229   5.292 -0.3794  0.6103  0.5049
 7456SOL     OW33826   4.553   0.817   4.251  0.3375 -0.6054 -0.3005
 7456SOL    HW133827   4.548   0.895   4.195 -1.1964 -1.1062 -0.8691
 7456SOL    HW233828   4.474   0.765   4.233  1.4013 -2.3468  0.0751
 7457SOL     OW33829   4.313   3.548   3.861 -0.4342  0.1135 -0.2668
 7457SOL    HW133830   4.244   3.604   3.825 -1.6930 -0.2350  1.5524
 7457SOL    HW233831   4.263   3.497   3.925  0.5263 -1.5363 -0.8506
 7458SOL     OW33832   3.703   0.627   5.387  0.4777  0.6113 -0.5399
 7458SOL    HW133833   3.735   0.688   5.454 -1.5384  0.9402  0.1025
 7458SOL    HW233834   3.617   0.659   5.359 -0.1684 -1.2229 -0.6269
 7459SOL     OW33835   2.825   3.017   2.962  0.4749  0.1718 -0.8138
 7459SOL    HW133836   2.834   3.101   3.007  1.6675  0.3241 -1.3488
 7459SOL    HW233837   2.855   2.950   3.023 -1.6637  1.4553  1.6599
 7460SOL     OW33838   4.090   1.653  13.559  0.0736 -0.2073  0.1453
 7460SOL    HW133839   4.100   1.701  13.477 -0.0029  0.8530  0.7449
 7460SOL    HW233840   4.014   1.600  13.536  0.7928 -0.7826 -0.8807
 7461SOL     OW33841   3.450   1.207   2.177  0.5412  0.1731  0.1420
 7461SOL    HW133842   3.526   1.174   2.128 -0.8150  0.5601 -2.2347
 7461SOL    HW233843   3.482   1.295   2.198  0.8900  0.6292 -2.2525
 7462SOL     OW33844   1.978   2.862   8.977  0.0357  0.7271  0.5822
 7462SOL    HW133845   2.025   2.854   9.060 -1.3222  1.8260  1.4563
 7462SOL    HW233846   2.020   2.791   8.929  0.7331  0.0824  2.1286
 7463SOL     OW33847   2.510   2.316  11.999 -1.2290  0.6318 -0.8552
 7463SOL    HW133848   2.492   2.226  12.026 -0.8080  0.1867 -2.0448
 7463SOL    HW233849   2.587   2.306  11.942  0.2495 -1.6589  1.5504
 7464SOL     OW33850   1.597   3.228  13.654  0.9040  0.1413  0.1509
 7464SOL    HW133851   1.578   3.249  13.563  0.6473  1.1740  0.4329
 7464SOL    HW233852   1.693   3.223  13.651  1.0386  2.0984  0.8942
 7465SOL     OW33853   3.715   1.615   2.933 -0.2484 -0.2338 -0.2125
 7465SOL    HW133854   3.698   1.633   3.025  2.8892 -0.9678  0.4839
 7465SOL    HW233855   3.759   1.696   2.908 -4.3178  1.2786 -2.4850
 7466SOL     OW33856   1.823   3.105   1.299  0.0890 -0.3430 -0.1786
 7466SOL    HW133857   1.828   3.042   1.371 -2.4814 -1.1383 -0.6761
 7466SOL    HW233858   1.788   3.184   1.340  1.2265 -0.1345  0.3768
 7467SOL     OW33859   3.570   2.212  15.309 -0.2266 -0.2735 -0.7504
 7467SOL    HW133860   3.582   2.159  15.231 -0.0425 -2.2420  0.6316
 7467SOL    HW233861   3.505   2.273  15.273  0.4999  0.7111 -0.3733
 7468SOL     OW33862   0.357   4.310   4.485 -0.1412 -0.8047  0.0605
 7468SOL    HW133863   0.276   4.362   4.478  1.8168  2.3201  0.4030
 7468SOL    HW233864   0.336   4.267   4.568 -0.7038  2.2909  1.5289
 7469SOL     OW33865   3.261   4.308   4.128  0.8556  0.1962 -0.2767
 7469SOL    HW133866   3.216   4.226   4.112 -0.2389  0.3953  1.7657
 7469SOL    HW233867   3.187   4.367   4.115 -0.9298 -1.6790  1.5653
 7470SOL     OW33868   2.018   3.288   0.479 -0.5804 -0.0861  0.3469
 7470SOL    HW133869   1.922   3.286   0.486 -0.8255 -0.7602 -3.6630
 7470SOL    HW233870   2.026   3.328   0.393 -1.9255  0.5774  0.5238
 7471SOL     OW33871   0.898   2.707   9.300  0.0382  0.1753  0.1878
 7471SOL    HW133872   0.900   2.725   9.394 -0.8542  0.7076  0.1050
 7471SOL    HW233873   0.865   2.618   9.284 -0.2651  0.0180  1.6748
 7472SOL     OW33874   2.772   3.647   6.945 -0.4836 -0.6136  0.1469
 7472SOL    HW133875   2.758   3.563   6.989 -0.2056 -1.4214 -1.3087
 7472SOL    HW233876   2.686   3.688   6.958 -0.7601 -0.9526 -0.6082
 7473SOL     OW33877   3.282   0.543   2.683 -0.2944 -0.0484 -0.1992
 7473SOL    HW133878   3.215   0.484   2.649  0.4537  0.1108 -1.9722
 7473SOL    HW233879   3.244   0.607   2.744  1.2967 -0.1427  0.8938
 7474SOL     OW33880   0.325   3.556   3.946 -0.4048 -0.1823 -0.0473
 7474SOL    HW133881   0.346   3.650   3.946  1.4410 -0.6116 -0.3006
 7474SOL    HW233882   0.378   3.526   4.020  0.0748 -2.5114 -1.3370
 7475SOL     OW33883   3.672   3.321   0.283  0.4282  0.5057  0.3141
 7475SOL    HW133884   3.578   3.314   0.270  0.1219  1.1122  2.3183
 7475SOL    HW233885   3.666   3.353   0.372 -1.3471  0.1589  0.3150
 7476SOL     OW33886   1.054   3.209  13.456  0.0472 -0.5228  0.5458
 7476SOL    HW133887   1.002   3.186  13.534 -0.7360 -0.9390 -0.0972
 7476SOL    HW233888   1.051   3.302  13.476  2.5308  0.2259 -2.6740
 7477SOL     OW33889   2.416   3.957   3.701 -0.0455 -0.4561 -0.1568
 7477SOL    HW133890   2.334   3.995   3.669  0.6654  1.3913  0.2616
 7477SOL    HW233891   2.465   3.982   3.623 -0.4637  0.8316 -0.0141
 7478SOL     OW33892   2.158   0.931   9.978  0.2849 -0.4031 -0.5727
 7478SOL    HW133893   2.193   0.983   9.905  1.2688  0.3124  0.4036
 7478SOL    HW233894   2.228   0.866   9.975  2.0496  1.5783 -2.2664
 7479SOL     OW33895   0.666   0.396   1.045  0.6220 -0.1955  0.5403
 7479SOL    HW133896   0.603   0.461   1.016  1.3191  1.2659  2.3355
 7479SOL    HW233897   0.697   0.416   1.133  2.2154 -0.1865 -0.0028
 7480SOL     OW33898   1.606   2.438   3.497  0.2178  0.1709  0.2621
 7480SOL    HW133899   1.637   2.451   3.407  1.5064  0.8011  0.7870
 7480SOL    HW233900   1.587   2.527   3.526  0.2120 -0.7444  3.0757
 7481SOL     OW33901   3.064   2.374   9.356  0.3509 -0.7633 -0.4269
 7481SOL    HW133902   3.044   2.411   9.270  2.8731  0.8064 -0.3432
 7481SOL    HW233903   3.003   2.417   9.416  0.3835  0.3024 -1.1495
 7482SOL     OW33904   3.692   4.107   8.085 -0.0512  0.2363 -0.7549
 7482SOL    HW133905   3.655   4.087   7.999 -0.7119  1.7191 -0.8158
 7482SOL    HW233906   3.658   4.195   8.103 -1.0914 -0.1844 -0.6269
 7483SOL     OW33907   0.764   3.851   0.082  0.4985 -0.2482 -0.3676
 7483SOL    HW133908   0.720   3.785   0.029  1.6469 -3.5903  2.8857
 7483SOL    HW233909   0.686   3.883   0.128 -1.3943 -1.8059 -2.4737
 7484SOL     OW33910   1.658   0.130  12.883  0.1324  0.5978 -0.2127
 7484SOL    HW133911   1.624   0.203  12.934 -0.4069  0.0236  0.2435
 7484SOL    HW233912   1.674   0.178  12.802 -0.0968  1.6580  0.3720
 7485SOL     OW33913   3.331   1.579   3.232 -0.0398 -0.1081  0.3874
 7485SOL    HW133914   3.275   1.589   3.155 -0.7121 -0.9088  0.7711
 7485SOL    HW233915   3.287   1.645   3.287 -0.8313  0.3570 -0.8100
 7486SOL     OW33916   2.245   4.051  12.608  0.0736  0.5388 -0.2937
 7486SOL    HW133917   2.256   4.036  12.702 -2.0893 -0.4218 -0.1959
 7486SOL    HW233918   2.332   4.085  12.586 -0.2219  2.2426  1.2685
 7487SOL     OW33919   2.748   0.312   5.596 -0.0351  0.0314 -0.7359
 7487SOL    HW133920   2.712   0.383   5.543  1.0504  0.4875 -0.8574
 7487SOL    HW233921   2.837   0.347   5.604 -0.6450  1.8659 -1.9983
 7488SOL     OW33922   4.134   4.540   7.710 -0.2059  1.0188  0.3153
 7488SOL    HW133923   4.155   4.460   7.756 -3.9954 -0.0818  0.0740
 7488SOL    HW233924   4.123   4.516   7.618  1.2616  0.3030  0.3222
 7489SOL     OW33925   4.675   1.375  11.849  0.0416 -0.4568 -0.4161
 7489SOL    HW133926   4.601   1.362  11.908  0.6799  2.0510  0.9416
 7489SOL    HW233927   4.635   1.350  11.766 -0.8568 -2.1024  0.5238
 7490SOL     OW33928   2.785   1.959  10.570  0.2253 -0.0173 -0.4724
 7490SOL    HW133929   2.879   1.950  10.583  0.2003  0.4892  0.0688
 7490SOL    HW233930   2.760   2.025  10.635 -0.7813 -3.0550  2.1969
 7491SOL     OW33931   4.665   3.568  10.154 -0.8649 -0.0008  0.5320
 7491SOL    HW133932   4.685   3.661  10.155 -1.7400  0.1999 -1.1460
 7491SOL    HW233933   4.682   3.536  10.066  1.7513 -1.7118  1.6600
 7492SOL     OW33934   1.078   1.698  11.651  0.3012 -0.0972  0.5045
 7492SOL    HW133935   1.127   1.662  11.577 -0.5727 -0.9671  0.3497
 7492SOL    HW233936   1.155   1.737  11.692  1.8100  0.5402 -2.9428
 7493SOL     OW33937   2.798   4.210   8.709  0.1565  0.3340 -0.3694
 7493SOL    HW133938   2.809   4.284   8.769 -0.2425 -1.7086  2.2393
 7493SOL    HW233939   2.708   4.212   8.677  0.3938  0.3751 -1.0293
 7494SOL     OW33940   0.859   3.414   4.642 -0.6690  0.2057  0.0469
 7494SOL    HW133941   0.776   3.369   4.654  0.5842 -2.0631  0.2115
 7494SOL    HW233942   0.890   3.386   4.555 -0.4267 -0.0637  0.2192
 7495SOL     OW33943   0.095   3.294   1.332 -0.4036  0.0440 -0.3155
 7495SOL    HW133944   0.161   3.336   1.277 -0.6526  2.3263  1.1113
 7495SOL    HW233945   0.138   3.215   1.363 -0.0741  0.4470  0.2526
 7496SOL     OW33946   0.642   2.614   6.751  0.0543  0.2794 -0.2777
 7496SOL    HW133947   0.610   2.616   6.842 -2.3816  0.0500 -1.1354
 7496SOL    HW233948   0.566   2.592   6.697  0.9041  0.6131 -1.6111
 7497SOL     OW33949   1.437   4.081   7.548 -0.3971  0.0129 -0.1318
 7497SOL    HW133950   1.383   4.060   7.471  0.2204  2.7743 -1.2888
 7497SOL    HW233951   1.524   4.097   7.513 -0.2845 -1.7451 -0.6717
 7498SOL     OW33952   0.191   2.299   3.656 -0.6223  0.7335  0.2112
 7498SOL    HW133953   0.225   2.325   3.742 -0.9591 -1.4749  1.0253
 7498SOL    HW233954   0.229   2.211   3.648 -1.2181  0.3808  1.2548
 7499SOL     OW33955   3.710   4.406  10.747 -0.3531  0.1238 -0.1028
 7499SOL    HW133956   3.757   4.393  10.664 -0.7177 -0.5895 -0.1956
 7499SOL    HW233957   3.786   4.411  10.805 -1.0721 -1.1505  0.9459
 7500SOL     OW33958   1.395   3.634   0.247  0.3785 -0.0398  0.2708
 7500SOL    HW133959   1.379   3.634   0.152  1.9997  0.4670  0.0151
 7500SOL    HW233960   1.312   3.673   0.276  1.2860  1.4177  0.8815
 7501SOL     OW33961   2.985   0.708  10.348  0.2475 -0.0112  0.0913
 7501SOL    HW133962   3.026   0.625  10.373 -0.4841  0.1239  1.7444
 7501SOL    HW233963   2.903   0.708  10.399 -1.0604  2.4663 -2.0201
 7502SOL     OW33964   3.048   2.788  14.502  0.4525 -0.0902 -0.2484
 7502SOL    HW133965   3.048   2.818  14.411 -2.2543  1.1081  0.1584
 7502SOL    HW233966   2.978   2.843  14.536 -0.3503  0.4344 -2.7492
 7503SOL     OW33967   0.970   3.042   5.114 -0.0983  0.1051 -0.1457
 7503SOL    HW133968   1.046   2.984   5.121 -0.4908 -0.3870  0.0652
 7503SOL    HW233969   0.915   3.021   5.190  2.1617 -0.5384  1.3167
 7504SOL     OW33970   3.727   2.849   5.184  0.1131 -0.0604 -0.0023
 7504SOL    HW133971   3.715   2.937   5.219  0.9212 -0.4725  1.3204
 7504SOL    HW233972   3.665   2.811   5.246  1.8844 -1.0194  1.1765
 7505SOL     OW33973   3.061   4.558  11.759 -0.0545 -0.1129 -0.1021
 7505SOL    HW133974   3.067   4.626  11.692  0.2942 -0.1965 -0.1535
 7505SOL    HW233975   3.123   4.585  11.827  0.7080  0.0060 -0.8429
 7506SOL     OW33976   0.676   3.117   6.373  0.1384 -0.2188 -0.5024
 7506SOL    HW133977   0.673   3.062   6.295 -1.1574  0.8300 -1.1933
 7506SOL    HW233978   0.616   3.184   6.340 -0.8977  0.3324  2.4868
 7507SOL     OW33979   3.110   2.687  10.996 -0.7399 -0.5644  0.8043
 7507SOL    HW133980   3.020   2.655  11.006 -0.0870 -2.4502  0.5583
 7507SOL    HW233981   3.123   2.749  11.068  0.5771 -0.3387  0.3715
 7508SOL     OW33982   4.139   1.422   2.539 -0.6871  0.7026  0.2265
 7508SOL    HW133983   4.199   1.476   2.591 -0.3935  1.6928 -1.1583
 7508SOL    HW233984   4.189   1.407   2.460 -0.0758 -1.7317  1.0704
 7509SOL     OW33985   2.568   2.146  15.247 -0.0213 -0.1987 -0.1995
 7509SOL    HW133986   2.571   2.166  15.341  0.5201  1.4939 -0.5754
 7509SOL    HW233987   2.503   2.202  15.206 -0.7186 -0.0414  1.1193
 7510SOL     OW33988   4.190   2.004   8.536 -0.7541  0.0505  0.3890
 7510SOL    HW133989   4.268   1.956   8.563 -1.2599 -2.0380 -1.8492
 7510SOL    HW233990   4.165   2.037   8.622 -0.8936 -1.2458  0.8488
 7511SOL     OW33991   2.190   0.681   0.496  0.1085 -0.6312 -0.3761
 7511SOL    HW133992   2.139   0.646   0.422  0.2854 -0.4085 -0.6012
 7511SOL    HW233993   2.122   0.694   0.562 -0.2979 -2.2372 -0.4566
 7512SOL     OW33994   4.310   2.501   4.011 -0.1150  0.8047  0.4195
 7512SOL    HW133995   4.266   2.438   4.068 -0.8921  1.4188  0.4875
 7512SOL    HW233996   4.248   2.573   4.006 -1.0143  0.1005  1.4998
 7513SOL     OW33997   2.772   1.876   8.393  0.2386 -0.0179 -0.2741
 7513SOL    HW133998   2.867   1.880   8.401  0.3302 -1.9134 -0.2294
 7513SOL    HW233999   2.764   1.848   8.301 -0.9431  1.6905 -0.6769
 7514SOL     OW34000   3.777   2.662   2.906 -0.8563  0.0966 -0.0237
 7514SOL    HW134001   3.747   2.713   2.981 -1.7616  0.6042 -0.7264
 7514SOL    HW234002   3.782   2.727   2.836 -0.4489 -0.5990 -0.6389
 7515SOL     OW34003   3.523   1.649   4.586  0.0484  0.5429 -0.6987
 7515SOL    HW134004   3.565   1.626   4.503  0.1846  0.4095 -0.5929
 7515SOL    HW234005   3.487   1.568   4.622  1.4477 -0.0016 -0.5264
 7516SOL     OW34006   3.527   1.648   3.508  0.0271 -0.4008  0.3166
 7516SOL    HW134007   3.602   1.659   3.567 -0.5280  0.4640  0.8636
 7516SOL    HW234008   3.470   1.724   3.526 -0.3427 -1.2442  2.7976
 7517SOL     OW34009   4.128   0.264   4.323  0.2150  0.3464  0.5492
 7517SOL    HW134010   4.202   0.256   4.264  0.2097  0.7158  0.4928
 7517SOL    HW234011   4.051   0.279   4.268  0.2977 -2.3728 -0.3057
 7518SOL     OW34012   3.079   1.020   9.845  0.5792  0.5040 -0.1718
 7518SOL    HW134013   3.083   0.925   9.834 -3.5128  0.4359 -0.9914
 7518SOL    HW234014   2.996   1.037   9.889 -0.6924 -1.9297 -1.6126
 7519SOL     OW34015   3.157   3.907   4.660 -0.0175  0.4473 -0.1540
 7519SOL    HW134016   3.107   3.905   4.741  1.3948 -0.0825  0.7129
 7519SOL    HW234017   3.089   3.918   4.594  0.1193 -0.7563 -0.4924
 7520SOL     OW34018   3.889   2.690  15.918  0.4478 -0.1371  0.7804
 7520SOL    HW134019   3.911   2.655  16.005  0.6033 -1.1599  0.3310
 7520SOL    HW234020   3.979   2.695  15.885  0.0147  0.6539 -0.2781
 7521SOL     OW34021   0.528   4.230  16.048  0.7645  0.4303  0.0155
 7521SOL    HW134022   0.569   4.144  16.040 -0.5448 -0.2592  0.6782
 7521SOL    HW234023   0.459   4.205  16.109 -0.1380 -0.2613 -1.2871
 7522SOL     OW34024   1.362   3.413   8.321 -0.1056 -0.2080  0.0627
 7522SOL    HW134025   1.316   3.427   8.404 -1.8378 -0.4709 -0.8727
 7522SOL    HW234026   1.434   3.476   8.331  1.0015 -1.7874  2.2295
 7523SOL     OW34027   1.291   3.213   9.461  0.7529 -0.3348 -0.5053
 7523SOL    HW134028   1.251   3.299   9.444  0.2125 -1.3656 -4.3883
 7523SOL    HW234029   1.275   3.160   9.383  1.4510 -1.4790  0.1468
 7524SOL     OW34030   0.833   2.094   9.365 -0.1193 -0.0629  0.4777
 7524SOL    HW134031   0.916   2.094   9.414  0.3848 -2.6101 -0.3546
 7524SOL    HW234032   0.861   2.127   9.280  3.4242 -1.2689  1.1851
 7525SOL     OW34033   1.014   0.917   1.076 -0.4801  0.2741  0.1962
 7525SOL    HW134034   0.941   0.978   1.060  0.5658  0.9699 -2.0041
 7525SOL    HW234035   1.068   0.962   1.141 -0.9314  2.7231 -1.1164
 7526SOL     OW34036   3.775   1.742   4.978  0.5229  0.5126  0.1433
 7526SOL    HW134037   3.807   1.791   5.054 -1.1887  2.5503 -0.4118
 7526SOL    HW234038   3.686   1.772   4.998  0.7508  1.7149 -0.5760
 7527SOL     OW34039   1.170   1.568   7.379  0.0764  0.0922 -0.2236
 7527SOL    HW134040   1.183   1.498   7.443  0.3611 -1.6318 -2.1531
 7527SOL    HW234041   1.255   1.580   7.337 -0.1948  0.4133 -0.6889
 7528SOL     OW34042   3.818   1.549  17.646 -0.0138 -0.1642  0.7090
 7528SOL    HW134043   3.829   1.454  17.649 -0.9342 -0.2589  1.0279
 7528SOL    HW234044   3.779   1.571   0.043 -3.8155  2.2798 -1.6721
 7529SOL     OW34045   2.566   1.011   2.509  0.7871 -0.4914 -0.4847
 7529SOL    HW134046   2.496   1.068   2.477  0.3481 -1.3026 -0.9759
 7529SOL    HW234047   2.600   0.966   2.432  2.2493 -0.7369  0.3134
 7530SOL     OW34048   4.031   3.930   0.410  0.3048 -0.4165  0.0577
 7530SOL    HW134049   3.959   3.913   0.348 -1.0924  1.5745  1.1379
 7530SOL    HW234050   4.109   3.901   0.363  0.0470 -0.6868 -0.2037
 7531SOL     OW34051   2.019   3.480   9.205 -0.2056 -0.6535 -0.6008
 7531SOL    HW134052   1.981   3.543   9.266 -1.1660 -3.3877  1.6096
 7531SOL    HW234053   1.937   3.452   9.163 -0.6853 -1.3937  0.8336
 7532SOL     OW34054   1.549   2.189   4.526  0.4865  0.5717  0.2304
 7532SOL    HW134055   1.643   2.188   4.510  0.2045  0.6282 -1.5183
 7532SOL    HW234056   1.531   2.266   4.472  2.0494  1.3401  0.8145
 7533SOL     OW34057   0.631   1.814   1.129  0.6529  0.1262  0.4753
 7533SOL    HW134058   0.592   1.737   1.171  0.2277  0.1284  0.0889
 7533SOL    HW234059   0.551   1.863   1.108  0.0242 -1.0646  0.0970
 7534SOL     OW34060   1.579   1.992   6.771  0.0493 -0.0630  0.4010
 7534SOL    HW134061   1.650   2.055   6.755 -0.4605  0.3506 -0.2182
 7534SOL    HW234062   1.606   1.910   6.731  2.8817  0.1947  1.7495
 7535SOL     OW34063   1.501   4.673   2.660 -0.8634  0.4007 -0.3732
 7535SOL    HW134064   1.460   4.688   2.745 -0.4683  2.2372 -0.4994
 7535SOL    HW234065   1.449   0.025   2.627  0.2763  0.1441 -2.6913
 7536SOL     OW34066   2.940   1.910  17.468 -0.3506  0.0178 -0.5086
 7536SOL    HW134067   2.894   1.913  17.552 -1.1815  2.1525 -1.0261
 7536SOL    HW234068   3.029   1.894  17.500 -0.5804 -0.0683  0.0940
 7537SOL     OW34069   2.522   3.495   2.123 -0.4051 -0.4674  0.5460
 7537SOL    HW134070   2.446   3.549   2.102  0.9393  0.8957 -0.8628
 7537SOL    HW234071   2.486   3.410   2.096 -2.6727  1.2311 -1.7563
 7538SOL     OW34072   4.326   4.402  13.026 -0.1421 -0.5222 -0.2907
 7538SOL    HW134073   4.397   4.367  13.080  0.7189  0.4010 -0.8184
 7538SOL    HW234074   4.318   4.345  12.950 -0.8391 -0.1418 -0.5012
 7539SOL     OW34075   3.436   1.454   7.148  0.1963 -0.5577 -0.4289
 7539SOL    HW134076   3.497   1.413   7.210 -0.4113  0.9225  1.1601
 7539SOL    HW234077   3.372   1.489   7.210  2.0116  1.3332  0.3710
 7540SOL     OW34078   3.049   3.649   6.912  0.0256 -0.2131 -0.1199
 7540SOL    HW134079   3.041   3.631   6.819 -0.5188  1.1454 -0.3378
 7540SOL    HW234080   2.959   3.626   6.935 -0.3035 -1.0903 -2.3008
 7541SOL     OW34081   2.696   1.163   6.774  0.7024 -0.1826 -0.4045
 7541SOL    HW134082   2.683   1.127   6.687  1.0418  2.9371 -1.7505
 7541SOL    HW234083   2.738   1.094   6.826  0.4398  0.7649  1.0620
 7542SOL     OW34084   0.228   2.080   0.646  0.4635  0.0700 -0.1624
 7542SOL    HW134085   0.294   2.042   0.589  2.3878  0.4338  1.7962
 7542SOL    HW234086   0.197   2.153   0.592 -1.2863 -1.1144 -0.7586
 7543SOL     OW34087   3.489   1.943   8.846  0.3755  0.6093  0.3107
 7543SOL    HW134088   3.406   1.915   8.808  0.8580  0.1656 -0.4088
 7543SOL    HW234089   3.453   2.000   8.914 -1.7960 -2.1824  1.4859
 7544SOL     OW34090   4.557   3.298   3.772  0.5153 -0.4846  0.6245
 7544SOL    HW134091   4.577   3.389   3.752 -1.4420 -0.0453  0.7453
 7544SOL    HW234092   4.629   3.253   3.726  2.3630  1.8057  1.2621
 7545SOL     OW34093   2.382   3.254   2.090  0.2998 -0.0038 -0.6311
 7545SOL    HW134094   2.367   3.198   2.013  0.3177 -0.3050 -0.4151
 7545SOL    HW234095   2.403   3.197   2.164 -1.7655 -1.3459 -1.0614
 7546SOL     OW34096   4.095   4.508  13.163  0.3601 -0.5030 -0.0179
 7546SOL    HW134097   4.149   4.511  13.242 -0.0596 -0.9179  0.2825
 7546SOL    HW234098   4.021   4.560  13.192  0.0571 -0.7068 -0.4153
 7547SOL     OW34099   3.337   3.441   5.940  0.5067  0.2291  0.1881
 7547SOL    HW134100   3.366   3.408   6.025 -0.0957  0.1972  0.3801
 7547SOL    HW234101   3.242   3.440   5.938  0.5494  0.1811 -1.2735
 7548SOL     OW34102   3.162   1.363  12.249 -0.3352 -0.0642  0.1126
 7548SOL    HW134103   3.212   1.386  12.327  0.2704 -0.8095 -0.0591
 7548SOL    HW234104   3.184   1.430  12.184  2.0558 -0.0013  0.9814
 7549SOL     OW34105   1.055   1.135   2.406  0.2361 -0.0120 -0.4231
 7549SOL    HW134106   0.973   1.172   2.439  0.7510  2.1184 -1.5488
 7549SOL    HW234107   1.118   1.178   2.464  1.1981  0.3207 -1.7113
 7550SOL     OW34108   2.646   0.202   9.675 -0.1312  0.4053 -0.2514
 7550SOL    HW134109   2.608   0.255   9.605  0.1383  1.0013  0.0487
 7550SOL    HW234110   2.579   0.212   9.742 -0.6791 -1.7613 -0.4898
 7551SOL     OW34111   2.437   0.519  15.216  0.2850 -0.2965 -0.0947
 7551SOL    HW134112   2.407   0.446  15.270 -1.4819  0.3796 -0.1686
 7551SOL    HW234113   2.517   0.546  15.260  0.8864 -1.2808 -0.5899
 7552SOL     OW34114   1.587   2.029  13.743 -0.4889  0.1921 -0.5625
 7552SOL    HW134115   1.675   2.000  13.766 -0.6687  0.7013  0.7454
 7552SOL    HW234116   1.595   2.060  13.653  0.6726  0.5792 -0.3180
 7553SOL     OW34117   4.642   1.147  12.556 -0.2553 -0.5022 -0.0146
 7553SOL    HW134118   4.547   1.140  12.564 -0.2753 -1.8822 -1.3650
 7553SOL    HW234119   4.666   1.055  12.557 -0.3845 -0.5437 -0.5441
 7554SOL     OW34120   3.950   2.339   6.469 -0.4492 -0.8426 -0.1688
 7554SOL    HW134121   3.875   2.324   6.526 -0.2667 -1.2520 -0.0343
 7554SOL    HW234122   4.008   2.402   6.513 -1.7161 -0.1934  0.5739
 7555SOL     OW34123   1.405   4.463   1.001  0.2487 -0.3379  0.1963
 7555SOL    HW134124   1.446   4.400   1.060  0.5898 -0.4975 -0.2033
 7555SOL    HW234125   1.474   4.513   0.957 -2.1962  0.8452 -2.2783
 7556SOL     OW34126   2.567   3.942   2.353 -0.0048 -0.0542 -0.5073
 7556SOL    HW134127   2.585   3.901   2.438 -1.0625  1.9289  0.6811
 7556SOL    HW234128   2.504   3.876   2.324 -0.6334 -0.8151  2.5269
 7557SOL     OW34129   2.282   1.246   7.141 -0.6948 -0.1750 -1.0837
 7557SOL    HW134130   2.373   1.234   7.115  0.3423 -0.4699  2.5652
 7557SOL    HW234131   2.275   1.335   7.175  1.1533 -1.2014  2.0328
 7558SOL     OW34132   0.663   4.254   2.924  0.0011 -0.6019  0.5253
 7558SOL    HW134133   0.662   4.238   3.019 -1.9101 -2.2666  0.2416
 7558SOL    HW234134   0.734   4.197   2.896  0.5385 -0.7768  2.1915
 7559SOL     OW34135   1.086   3.681   9.700  0.6714 -0.0774  0.4982
 7559SOL    HW134136   1.021   3.622   9.662  0.2475 -0.5634  1.9927
 7559SOL    HW234137   1.043   3.727   9.772 -1.8716  0.2287 -1.2462
 7560SOL     OW34138   0.143   1.415   2.077 -0.0556 -0.2962  0.2168
 7560SOL    HW134139   0.189   1.376   2.151 -3.8302 -1.1264  2.1001
 7560SOL    HW234140   0.071   1.353   2.067 -2.0933  2.0533  0.4591
 7561SOL     OW34141   4.409   4.244   5.785  0.2797 -0.6830 -0.3409
 7561SOL    HW134142   4.329   4.296   5.773 -0.0894 -1.1893 -0.0838
 7561SOL    HW234143   4.426   4.240   5.880 -1.5302  0.0861  0.0159
 7562SOL     OW34144   2.142   2.960   7.304 -0.1761  0.6788  0.0123
 7562SOL    HW134145   2.176   3.014   7.375 -1.7552 -0.5026  1.6651
 7562SOL    HW234146   2.175   2.871   7.319 -2.2631 -0.0850  0.0554
 7563SOL     OW34147   0.192   4.501  10.666  0.5891 -0.0718  0.4598
 7563SOL    HW134148   0.161   4.500  10.756 -1.1312  3.4449 -0.0506
 7563SOL    HW234149   0.116   4.462  10.623  1.0448  1.2360 -1.5435
 7564SOL     OW34150   0.341   3.769  11.613 -0.1608  0.0882 -0.7874
 7564SOL    HW134151   0.420   3.803  11.571  1.0539 -0.6104  0.9476
 7564SOL    HW234152   0.389   3.714  11.674 -1.3619 -0.6151 -0.4801
 7565SOL     OW34153   0.369   3.787   7.313 -0.1547 -0.5126  0.4108
 7565SOL    HW134154   0.308   3.717   7.293 -0.6965  0.0411  0.1346
 7565SOL    HW234155   0.411   3.813   7.231  1.8997 -0.1358  1.5846
 7566SOL     OW34156   0.903   2.127   3.150  0.2589 -0.0154 -0.4588
 7566SOL    HW134157   0.881   2.094   3.062 -1.2478  1.4301 -0.6189
 7566SOL    HW234158   0.902   2.040   3.189 -2.2532 -0.4488 -1.4831
 7567SOL     OW34159   4.402   3.186   7.559  0.0870 -0.6086  0.2271
 7567SOL    HW134160   4.497   3.185   7.544  0.0769 -0.1806  0.1200
 7567SOL    HW234161   4.387   3.144   7.643  1.8839  0.8525  1.2653
 7568SOL     OW34162   4.684   2.874   8.372  0.4106  0.1995  0.4066
 7568SOL    HW134163   4.617   2.849   8.436  2.5864 -2.9536  1.4597
 7568SOL    HW234164   4.650   2.832   8.293  0.3878 -1.3592  1.2544
 7569SOL     OW34165   3.006   3.515   3.460  0.7626 -0.3188 -0.4809
 7569SOL    HW134166   2.923   3.554   3.487  0.6340  0.6934 -2.3622
 7569SOL    HW234167   3.056   3.536   3.538 -0.6197 -1.8326  0.8072
 7570SOL     OW34168   2.006   4.225   1.607 -0.3784  0.2314 -0.2827
 7570SOL    HW134169   2.055   4.222   1.689 -2.5997  2.5976  1.1203
 7570SOL    HW234170   1.915   4.239   1.634  0.1708  2.9703  0.0828
 7571SOL     OW34171   4.100   4.605  14.657 -0.0892 -0.3051 -0.1238
 7571SOL    HW134172   4.073   4.539  14.593 -2.2218 -0.4572  0.9119
 7571SOL    HW234173   4.032   4.671  14.642 -0.6756 -1.0869 -0.8876
 7572SOL     OW34174   2.537   3.799   3.133  0.0280 -0.2839  0.5177
 7572SOL    HW134175   2.553   3.717   3.180 -0.9208 -0.9505 -0.3176
 7572SOL    HW234176   2.514   3.856   3.206  3.2765  0.7383  0.7418
 7573SOL     OW34177   0.519   2.849   2.152 -0.4633 -0.1330 -0.4529
 7573SOL    HW134178   0.515   2.754   2.141 -2.6482 -0.3340  2.2050
 7573SOL    HW234179   0.529   2.883   2.063 -0.0856  1.1015  0.0550
 7574SOL     OW34180   2.569   1.603   8.289  0.0051  0.0174  0.2521
 7574SOL    HW134181   2.627   1.536   8.324  1.1054 -0.7234 -2.9735
 7574SOL    HW234182   2.575   1.588   8.195  0.2212  3.0722 -0.2430
 7575SOL     OW34183   2.070   3.503   1.156 -0.1098  0.0449 -0.1708
 7575SOL    HW134184   2.154   3.500   1.201  0.6369 -1.9777 -1.6882
 7575SOL    HW234185   2.052   3.410   1.146 -2.5536  0.6413 -1.4539
 7576SOL     OW34186   0.109   2.556  17.580 -0.0093 -0.1497 -0.2011
 7576SOL    HW134187   0.076   2.546  17.490  0.5010  2.7904 -0.7405
 7576SOL    HW234188   0.176   2.622  17.560  2.2247 -2.5474 -0.5493
 7577SOL     OW34189   2.862   1.068  15.992  0.5572  0.0413  0.3049
 7577SOL    HW134190   2.894   1.098  16.077  0.2777  1.4842 -0.0999
 7577SOL    HW234191   2.809   1.142  15.964  2.1183  0.8054 -0.6238
 7578SOL     OW34192   3.085   1.067  11.257 -0.3158  0.6741 -0.3974
 7578SOL    HW134193   3.083   1.143  11.315 -1.8650 -0.5108  1.1124
 7578SOL    HW234194   3.180   1.070  11.245 -0.3254 -0.6717 -0.8616
 7579SOL     OW34195   4.399   2.922   1.673  0.1523  0.1064 -0.5795
 7579SOL    HW134196   4.386   2.834   1.709 -0.1764  0.8071  1.0054
 7579SOL    HW234197   4.363   2.980   1.740 -1.3575  0.0834 -1.3605
 7580SOL     OW34198   4.416   0.748   7.817  0.9203 -0.6155 -0.0894
 7580SOL    HW134199   4.505   0.725   7.843  0.9096 -1.0143 -0.3858
 7580SOL    HW234200   4.435   0.782   7.729 -0.6629  0.9803  0.1908
 7581SOL     OW34201   1.562   3.729   3.123 -0.1758  0.4979 -0.3177
 7581SOL    HW134202   1.478   3.713   3.081 -1.1149  0.7792  1.4350
 7581SOL    HW234203   1.633   3.691   3.071 -1.0753 -1.2711 -0.2531
 7582SOL     OW34204   1.197   1.934   2.789  0.2704  0.8128  0.0566
 7582SOL    HW134205   1.216   1.984   2.868 -1.4128  0.8252  0.4501
 7582SOL    HW234206   1.284   1.901   2.764 -0.9413 -1.1235 -1.5876
 7583SOL     OW34207   1.520   3.998   7.090 -0.6013  0.1819 -0.0164
 7583SOL    HW134208   1.505   4.038   7.004  0.5360 -0.1653 -0.3667
 7583SOL    HW234209   1.568   3.918   7.071 -1.1058 -0.0071 -0.5049
 7584SOL     OW34210   3.974   3.341   6.651 -0.9827  0.0673 -0.0035
 7584SOL    HW134211   3.889   3.381   6.666 -0.1873  1.8526 -0.3421
 7584SOL    HW234212   4.022   3.344   6.734  0.0900  1.1186 -0.6724
 7585SOL     OW34213   3.679   0.927   8.342  0.1337 -0.3450  0.2424
 7585SOL    HW134214   3.603   0.890   8.387 -0.4855  2.6392  1.6397
 7585SOL    HW234215   3.633   1.003   8.305  1.6519  0.7238  0.5561
 7586SOL     OW34216   4.590   0.411  10.734 -0.3403  0.0250 -0.3631
 7586SOL    HW134217   4.598   0.388  10.826  2.7210  3.3201  0.2174
 7586SOL    HW234218   4.497   0.394  10.722  0.1477 -3.3812  0.8894
 7587SOL     OW34219   1.477   0.870   5.576 -0.3584 -0.1170  0.0087
 7587SOL    HW134220   1.397   0.824   5.602 -1.4208  1.0033 -1.2639
 7587SOL    HW234221   1.495   0.829   5.492  0.9557  1.1227 -0.3087
 7588SOL     OW34222   2.457   0.601   9.599 -0.1855 -0.5064 -0.2041
 7588SOL    HW134223   2.418   0.519   9.632 -0.8091  0.2777  1.0008
 7588SOL    HW234224   2.382   0.637   9.553 -1.1992 -0.1043  1.7914
 7589SOL     OW34225   4.629   4.555   2.433  0.1486 -0.3502  0.0197
 7589SOL    HW134226   4.636   4.468   2.395 -2.8469 -0.3908 -0.4346
 7589SOL    HW234227   4.539   4.582   2.410  1.0803  2.2669 -0.6220
 7590SOL     OW34228   4.581   3.590   6.221 -0.1865 -0.2418 -0.2815
 7590SOL    HW134229   4.520   3.548   6.160  0.3798 -1.4305 -0.0241
 7590SOL    HW234230   4.587   3.679   6.187 -1.9643  0.0781  0.2790
 7591SOL     OW34231   2.499   1.010  10.854 -0.2338 -0.3006  0.1225
 7591SOL    HW134232   2.534   0.945  10.794  0.2081  0.9591 -0.9929
 7591SOL    HW234233   2.505   0.965  10.938 -1.3852  0.3213  0.5443
 7592SOL     OW34234   3.471   4.670   0.436  0.1019  0.2374  0.3779
 7592SOL    HW134235   3.472   4.581   0.472 -1.0883 -0.1483 -0.5351
 7592SOL    HW234236   3.566   4.674   0.441  0.0340  1.1393  0.9778
 7593SOL     OW34237   3.539   1.936   3.821  0.3894  0.1544  0.0687
 7593SOL    HW134238   3.489   1.869   3.867  0.7309 -0.5276 -0.5557
 7593SOL    HW234239   3.620   1.885   3.815  2.0160  3.0680 -2.3179
 7594SOL     OW34240   4.422   1.669   9.329 -0.6718  0.2465  0.0414
 7594SOL    HW134241   4.515   1.688   9.337 -0.4278 -1.3533  1.0535
 7594SOL    HW234242   4.401   1.745   9.275  1.8300  0.0725 -1.1516
 7595SOL     OW34243   2.281   0.624   1.518 -0.6034 -0.1379  0.1810
 7595SOL    HW134244   2.206   0.596   1.464 -1.4651 -2.2228  2.4573
 7595SOL    HW234245   2.304   0.704   1.472  0.9063 -2.1942 -2.6702
 7596SOL     OW34246   0.994   1.164  10.535 -0.5170  0.3557  0.0624
 7596SOL    HW134247   1.024   1.146  10.446 -1.5072  0.8211 -0.3704
 7596SOL    HW234248   0.899   1.175  10.532 -0.5272 -0.0218 -1.0577
 7597SOL     OW34249   0.735   3.828  14.495 -0.0081  0.1626 -0.1848
 7597SOL    HW134250   0.686   3.758  14.453  1.9359 -1.3344  0.0674
 7597SOL    HW234251   0.699   3.895  14.437 -0.2408 -0.1504 -0.3972
 7598SOL     OW34252   1.827   3.424   4.996  0.6057  0.3158 -0.1752
 7598SOL    HW134253   1.877   3.343   4.984 -1.4435 -0.9261 -0.4173
 7598SOL    HW234254   1.776   3.418   5.077 -1.5337  1.8636 -1.3999
 7599SOL     OW34255   0.137   0.902   4.160 -0.0984 -0.1036 -0.5893
 7599SOL    HW134256   0.118   0.880   4.068  1.0237 -4.8900  0.3214
 7599SOL    HW234257   0.049   0.918   4.194 -0.0454 -0.2419 -0.3867
 7600SOL     OW34258   2.295   4.646   8.466  0.1142  0.4572  0.1619
 7600SOL    HW134259   2.218   4.638   8.523  0.2843 -4.8144 -0.3239
 7600SOL    HW234260   2.286   0.008   8.419 -0.0565  0.5785  0.4072
 7601SOL     OW34261   0.377   4.477  13.669 -0.1777 -0.3264  0.1430
 7601SOL    HW134262   0.445   4.411  13.682  0.1386 -0.3577 -1.7208
 7601SOL    HW234263   0.386   4.496  13.576  2.7338  0.7032  0.6506
 7602SOL     OW34264   2.369   1.411   3.934  0.4279  0.2718 -0.4832
 7602SOL    HW134265   2.406   1.401   3.846 -1.2770  1.8186 -1.3835
 7602SOL    HW234266   2.407   1.495   3.961  1.2558 -0.0767 -0.5536
 7603SOL     OW34267   0.356   3.932   0.400 -0.0438  0.0279  0.3242
 7603SOL    HW134268   0.353   3.882   0.481  3.1771  0.5306  0.7337
 7603SOL    HW234269   0.262   3.936   0.383  0.3895 -0.3563 -2.1828
 7604SOL     OW34270   2.744   4.431  11.706  0.7128  0.3484 -0.5333
 7604SOL    HW134271   2.658   4.389  11.699  0.3329  0.9975  0.2511
 7604SOL    HW234272   2.720   4.503  11.764  1.5655  1.1742 -1.2061
 7605SOL     OW34273   2.507   2.010   5.727  0.4670 -0.5562 -0.2487
 7605SOL    HW134274   2.461   2.007   5.643 -1.4713  1.1624  0.7483
 7605SOL    HW234275   2.453   2.068   5.781  0.3284  0.5960 -1.6310
 7606SOL     OW34276   0.403   2.767   7.976  0.1369 -0.0144  0.2769
 7606SOL    HW134277   0.427   2.674   7.975 -1.4660 -0.4077 -0.9383
 7606SOL    HW234278   0.419   2.781   7.883 -0.4836 -1.5104 -0.0604
 7607SOL     OW34279   2.380   3.144   8.397  0.0785 -0.2253 -0.3912
 7607SOL    HW134280   2.402   3.105   8.482  1.8888  1.8499  0.0985
 7607SOL    HW234281   2.465   3.150   8.353  1.7269 -1.0015  2.6744
 7608SOL     OW34282   0.611   3.111   9.605  0.2042 -0.3740  0.2719
 7608SOL    HW134283   0.609   3.030   9.657 -0.3460 -0.2893  0.3788
 7608SOL    HW234284   0.524   3.149   9.597  1.6948  2.9170 -0.2452
 7609SOL     OW34285   3.701   0.690   8.027  0.4360  0.0932 -0.3225
 7609SOL    HW134286   3.647   0.648   8.094 -0.6493  1.8815 -0.0468
 7609SOL    HW234287   3.788   0.658   8.049  1.0636  2.0865  0.1564
 7610SOL     OW34288   2.545   0.856   2.227  0.5379  0.2652 -0.5455
 7610SOL    HW134289   2.517   0.947   2.219  0.9758  0.3900 -0.6489
 7610SOL    HW234290   2.467   0.817   2.186 -1.3132  2.0965  1.2632
 7611SOL     OW34291   3.107   2.048  15.093  0.1974 -0.4067  0.3012
 7611SOL    HW134292   3.079   1.966  15.052 -2.6495  0.2190  0.9917
 7611SOL    HW234293   3.019   2.078  15.115  0.5657 -0.9287  2.4449
 7612SOL     OW34294   3.748   1.995   9.503 -0.1457  0.3925  0.2737
 7612SOL    HW134295   3.793   2.017   9.422 -0.6312  0.3252 -0.0149
 7612SOL    HW234296   3.787   2.061   9.561  1.0946 -0.0561 -0.0622
 7613SOL     OW34297   1.694   0.220  10.342  0.3870 -0.3537  0.4179
 7613SOL    HW134298   1.675   0.260  10.427  0.5353  1.9208 -0.6211
 7613SOL    HW234299   1.604   0.200  10.315  0.2660 -1.6357  1.7482
 7614SOL     OW34300   1.175   2.642   1.157 -0.1170  0.1793 -0.1275
 7614SOL    HW134301   1.084   2.670   1.147 -0.1980 -0.2311 -0.5692
 7614SOL    HW234302   1.206   2.660   1.068 -2.0433  1.3223 -0.5652
 7615SOL     OW34303   0.671   0.632   2.948  0.8453 -0.1506 -0.5678
 7615SOL    HW134304   0.581   0.600   2.952  0.1989  1.8337  0.7358
 7615SOL    HW234305   0.715   0.547   2.948  0.7309 -0.2051  0.1976
 7616SOL     OW34306   2.754   0.116   6.259  0.1488  0.5759  0.1901
 7616SOL    HW134307   2.717   0.048   6.315 -1.6261  2.0727  0.8030
 7616SOL    HW234308   2.702   0.113   6.178  1.4382  1.1516 -0.6664
 7617SOL     OW34309   3.820   2.375   2.959  0.6736 -0.0335  0.1367
 7617SOL    HW134310   3.879   2.369   3.035  1.4366  1.3717 -0.3458
 7617SOL    HW234311   3.829   2.470   2.957  1.6832 -0.1230  0.4859
 7618SOL     OW34312   3.831   1.496  13.167  0.1781 -0.7270  0.0480
 7618SOL    HW134313   3.879   1.579  13.155  2.3335 -2.2843 -2.0437
 7618SOL    HW234314   3.899   1.436  13.136 -1.5445 -2.8323  0.3488
 7619SOL     OW34315   3.145   2.387   7.570  0.2737 -0.4582  0.3979
 7619SOL    HW134316   3.142   2.326   7.644  1.0918  1.6609  2.1923
 7619SOL    HW234317   3.234   2.422   7.578  1.1524 -1.9967 -2.6640
 7620SOL     OW34318   4.007   1.052   7.995 -0.1339 -0.0412 -0.0810
 7620SOL    HW134319   4.082   1.001   7.966 -1.6124 -1.9270 -0.5959
 7620SOL    HW234320   3.973   0.997   8.066  1.4840 -0.3290  0.4618
 7621SOL     OW34321   2.900   2.369  12.674  0.0785 -0.4839  0.1078
 7621SOL    HW134322   2.848   2.426  12.730 -0.0098 -0.4699  0.0122
 7621SOL    HW234323   2.982   2.416  12.659 -0.9917  1.5837  0.7231
 7622SOL     OW34324   0.739   2.916   9.135 -0.3863 -0.0725 -0.0424
 7622SOL    HW134325   0.717   3.002   9.170  1.4380  0.3609  0.0586
 7622SOL    HW234326   0.796   2.876   9.201 -0.9160 -2.8816 -1.2648
 7623SOL     OW34327   3.116   1.925   3.853  0.0242  0.3160 -0.2174
 7623SOL    HW134328   3.184   1.964   3.909  0.4214  1.0392 -1.1914
 7623SOL    HW234329   3.066   2.006   3.843  0.3960  0.5330 -0.3535
 7624SOL     OW34330   3.931   3.611  17.561 -0.3266 -0.0106  0.7318
 7624SOL    HW134331   3.976   3.568  17.634 -0.5221 -1.1805  0.1639
 7624SOL    HW234332   3.980   3.693  17.560 -0.2806 -0.0220  1.7210
 7625SOL     OW34333   3.082   4.298   6.973  0.2993  0.1940 -0.0325
 7625SOL    HW134334   3.007   4.310   6.915  1.2369 -1.3710 -1.5530
 7625SOL    HW234335   3.042   4.304   7.060 -1.2380  1.2742 -0.8267
 7626SOL     OW34336   4.411   1.334   2.946  0.3820  0.0372 -0.4593
 7626SOL    HW134337   4.446   1.247   2.966 -0.8116 -0.0100  1.4850
 7626SOL    HW234338   4.324   1.312   2.915  1.3095 -1.0533 -2.2638
 7627SOL     OW34339   0.544   4.614  14.180  0.2539  0.7100 -0.6848
 7627SOL    HW134340   0.534   4.546  14.114 -0.4329  1.7277 -1.6336
 7627SOL    HW234341   0.506   4.681  14.123 -0.8666 -1.5386 -2.5562
 7628SOL     OW34342   3.670   0.080  10.123 -0.2308  0.2413 -0.3256
 7628SOL    HW134343   3.617   0.002  10.139  0.2190 -0.4401 -2.0809
 7628SOL    HW234344   3.713   0.051  10.042  0.2776 -0.0427  0.0417
 7629SOL     OW34345   1.192   4.670   4.496 -0.3553  0.0590 -0.8068
 7629SOL    HW134346   1.166   4.694   4.585  0.7287 -1.6724 -0.0344
 7629SOL    HW234347   1.275   4.631   4.526 -0.8141  1.4814  2.3755
 7630SOL     OW34348   0.483   3.686   2.765 -0.1867 -0.0095  0.2846
 7630SOL    HW134349   0.439   3.677   2.680  1.7637 -0.1752 -0.7246
 7630SOL    HW234350   0.568   3.642   2.757 -0.1434  0.3124 -1.1201
 7631SOL     OW34351   1.536   0.331   1.369 -0.2163  0.6134 -0.3554
 7631SOL    HW134352   1.550   0.272   1.295  0.6318  0.6766 -0.2540
 7631SOL    HW234353   1.623   0.324   1.410 -0.4717 -0.2830  0.0254
 7632SOL     OW34354   4.072   0.815  16.163  0.3775 -0.4203  0.1693
 7632SOL    HW134355   3.976   0.824  16.168  0.5805  1.4428  0.6926
 7632SOL    HW234356   4.072   0.742  16.226  3.7679 -0.7214 -0.1992
 7633SOL     OW34357   3.183   0.790   2.789 -0.3480 -0.0843  0.1237
 7633SOL    HW134358   3.167   0.872   2.742  0.3353  0.5836  1.0622
 7633SOL    HW234359   3.203   0.819   2.878  1.0088  0.6595 -0.4190
 7634SOL     OW34360   1.765   0.755  15.840 -0.2681  0.2191  0.5614
 7634SOL    HW134361   1.812   0.834  15.812  0.5016 -0.2472  0.5508
 7634SOL    HW234362   1.804   0.687  15.786 -0.9059  0.1904  0.1325
 7635SOL     OW34363   4.034   0.653   7.977  0.0830  0.1409 -0.4933
 7635SOL    HW134364   3.982   0.647   8.057  0.4547 -3.0216 -0.4812
 7635SOL    HW234365   4.035   0.561   7.948 -0.5986  0.7438 -2.4134
 7636SOL     OW34366   1.674   3.094   3.023 -0.6689 -0.1312  0.2054
 7636SOL    HW134367   1.590   3.138   3.028 -0.9268 -0.7189  1.0746
 7636SOL    HW234368   1.650   3.007   2.991  0.6106 -0.2892 -0.3373
 7637SOL     OW34369   0.407   3.414   2.242 -0.2533  0.7853  0.0009
 7637SOL    HW134370   0.500   3.397   2.227 -0.5192  0.4053 -1.1396
 7637SOL    HW234371   0.387   3.358   2.317  0.5971 -1.9524 -1.8565
 7638SOL     OW34372   0.833   4.576  10.514  0.4716 -0.0270  0.5287
 7638SOL    HW134373   0.799   4.544  10.430  0.1477 -0.2411  0.7426
 7638SOL    HW234374   0.918   4.603  10.478  1.2284 -3.1581 -0.0830
 7639SOL     OW34375   0.530   2.800   1.381 -0.4044 -0.0206 -0.2256
 7639SOL    HW134376   0.622   2.821   1.393 -0.5682 -0.3747  1.7396
 7639SOL    HW234377   0.540   2.707   1.358 -0.0621 -0.4022  1.3963
 7640SOL     OW34378   0.692   0.528   4.850  0.1495 -0.4968  0.3729
 7640SOL    HW134379   0.713   0.500   4.762  2.8905 -0.1537  0.9224
 7640SOL    HW234380   0.721   0.619   4.857  1.2696 -0.8160 -0.2584
 7641SOL     OW34381   2.816   0.554  11.924 -0.1175 -0.7617 -0.1536
 7641SOL    HW134382   2.733   0.538  11.971  0.5679 -0.4419  1.1793
 7641SOL    HW234383   2.874   0.496  11.973 -2.8289 -2.4187  1.1271
 7642SOL     OW34384   2.517   0.549   3.454  0.1905  1.0196 -0.3971
 7642SOL    HW134385   2.600   0.510   3.480 -1.5427 -1.4903  1.3474
 7642SOL    HW234386   2.523   0.526   3.361  0.2425 -3.1300  0.6384
 7643SOL     OW34387   2.459   3.765   1.364  0.4850 -0.2779 -0.1480
 7643SOL    HW134388   2.452   3.720   1.280 -3.4978  1.7391 -0.8972
 7643SOL    HW234389   2.397   3.835   1.344 -2.0077 -2.8011 -1.2390
 7644SOL     OW34390   0.774   1.022   7.448  0.1581  0.0586  0.3936
 7644SOL    HW134391   0.771   1.030   7.353 -1.0341 -0.7577  0.3620
 7644SOL    HW234392   0.824   0.940   7.452 -0.8297 -0.5974 -0.8834
 7645SOL     OW34393   1.147   1.532   9.147  0.0004 -0.0125  0.0249
 7645SOL    HW134394   1.137   1.616   9.192  0.4208  1.0796 -1.9239
 7645SOL    HW234395   1.063   1.515   9.106  0.1323 -0.9134  0.1245
 7646SOL     OW34396   1.261   1.928   4.661 -0.1677 -0.1327 -0.2391
 7646SOL    HW134397   1.274   1.923   4.756  0.1215 -1.6283 -0.3512
 7646SOL    HW234398   1.198   1.856   4.657 -1.0979  0.5753  1.4920
 7647SOL     OW34399   3.634   0.982  15.867  0.8521 -0.1520 -0.3461
 7647SOL    HW134400   3.712   1.018  15.910 -1.0462  0.2420  2.7830
 7647SOL    HW234401   3.645   1.011  15.777 -1.6866 -2.0812 -1.2578
 7648SOL     OW34402   3.726   0.200   2.563  0.0528 -0.2447 -0.3742
 7648SOL    HW134403   3.818   0.200   2.537  0.6251  2.6137  1.6204
 7648SOL    HW234404   3.714   0.294   2.554 -0.7619 -0.1840  1.2788
 7649SOL     OW34405   2.707   3.330   5.389  0.0259 -0.4660 -0.4780
 7649SOL    HW134406   2.794   3.290   5.394 -0.4314 -1.3805  0.1587
 7649SOL    HW234407   2.669   3.298   5.307 -2.1378  0.6103  0.0854
 7650SOL     OW34408   2.296   2.988  10.082 -0.5136 -0.3430 -0.2009
 7650SOL    HW134409   2.373   3.034  10.051  0.6204 -1.3255  1.1471
 7650SOL    HW234410   2.289   2.909  10.028  0.6425 -1.9301  1.9296
 7651SOL     OW34411   0.938   3.001   2.290 -0.5338 -0.1353  0.5708
 7651SOL    HW134412   1.028   3.026   2.272 -0.4800 -0.4802  0.3578
 7651SOL    HW234413   0.946   2.918   2.338  0.4279 -0.0989  0.4661
 7652SOL     OW34414   2.271   2.353   3.881 -0.1546 -0.0987  0.1504
 7652SOL    HW134415   2.323   2.429   3.909 -1.2761  0.0389  1.8916
 7652SOL    HW234416   2.190   2.378   3.925  0.3462  1.3061  0.2727
 7653SOL     OW34417   1.240   2.483   4.493  0.5545  0.0002 -0.0118
 7653SOL    HW134418   1.203   2.545   4.431 -1.0784  1.4035  2.3538
 7653SOL    HW234419   1.160   2.434   4.513 -0.0106  0.1192 -2.0560
 7654SOL     OW34420   3.731   3.959  15.459 -0.4789 -0.5784 -0.0506
 7654SOL    HW134421   3.682   3.949  15.540  1.4452  1.7046  1.3577
 7654SOL    HW234422   3.697   3.884  15.410  0.8944 -0.0617 -1.8266
 7655SOL     OW34423   0.743   1.534   7.989  0.0452 -0.4750 -0.1699
 7655SOL    HW134424   0.668   1.488   7.951  1.6058 -4.1717  1.2330
 7655SOL    HW234425   0.707   1.614   8.028  0.9187  0.2589 -0.8587
 7656SOL     OW34426   1.815   2.622   4.632 -0.1253 -0.3075 -0.0094
 7656SOL    HW134427   1.800   2.648   4.723  1.2610 -0.2928  0.2242
 7656SOL    HW234428   1.759   2.686   4.588  2.0483  1.1120 -0.7068
 7657SOL     OW34429   1.722   3.141  16.334 -0.3761 -0.0048 -0.5409
 7657SOL    HW134430   1.774   3.097  16.266 -0.4054  1.2969 -1.4115
 7657SOL    HW234431   1.657   3.190  16.283 -0.0773 -0.2630 -1.1700
 7658SOL     OW34432   3.996   0.283  17.672  0.0271 -0.4906  0.7643
 7658SOL    HW134433   4.019   0.223  17.601  3.3351  1.9733 -0.2290
 7658SOL    HW234434   3.944   0.214   0.026 -3.5679  3.1218  2.2904
 7659SOL     OW34435   0.483   1.896   7.709  0.1382  0.5478  0.1812
 7659SOL    HW134436   0.575   1.869   7.713 -0.5132 -1.6243  0.4189
 7659SOL    HW234437   0.439   1.821   7.749 -2.7958  1.2640 -1.7569
 7660SOL     OW34438   2.109   0.793   5.931 -0.1782  0.4682  0.4479
 7660SOL    HW134439   2.122   0.732   6.004 -1.9461 -0.9637 -0.4434
 7660SOL    HW234440   2.169   0.863   5.957 -0.2175  0.5477  0.3195
 7661SOL     OW34441   2.057   2.596  12.223 -0.6274 -0.1111  0.7064
 7661SOL    HW134442   2.041   2.690  12.222  1.9064  0.3281  2.1824
 7661SOL    HW234443   2.060   2.578  12.129  2.6362  0.6941  0.6524
 7662SOL     OW34444   0.759   2.268  13.686  0.0431  0.1873  0.5834
 7662SOL    HW134445   0.813   2.253  13.609 -1.0825  0.6798 -0.3074
 7662SOL    HW234446   0.778   2.358  13.712 -0.0211  0.3102  0.2003
 7663SOL     OW34447   3.363   1.954  16.185 -0.7025 -0.6978 -0.5110
 7663SOL    HW134448   3.348   1.925  16.275 -1.9257  2.2588  0.2454
 7663SOL    HW234449   3.455   1.980  16.189 -0.8892 -0.4162  2.4497
 7664SOL     OW34450   0.328   1.801   8.174  0.1946 -0.6673  0.7518
 7664SOL    HW134451   0.275   1.794   8.254 -2.6353  2.2560 -0.8825
 7664SOL    HW234452   0.394   1.736   8.197  0.0633 -0.6559  1.1635
 7665SOL     OW34453   2.488   0.187   7.051  0.3684 -0.7738  0.1935
 7665SOL    HW134454   2.423   0.176   6.982 -0.2668 -1.0382  0.8270
 7665SOL    HW234455   2.563   0.153   7.003  0.1000  0.2911 -0.9727
 7666SOL     OW34456   0.384   3.315   1.595  0.0582 -0.2058 -0.7180
 7666SOL    HW134457   0.421   3.266   1.668  0.5282  0.3856 -0.5606
 7666SOL    HW234458   0.303   3.264   1.592 -1.0915  1.8767 -4.7164
 7667SOL     OW34459   4.474   3.192   6.811 -0.2390  0.4459  0.0137
 7667SOL    HW134460   4.521   3.272   6.786  1.1069  0.4209  2.4234
 7667SOL    HW234461   4.512   3.131   6.748  0.0913  0.2684  0.3901
 7668SOL     OW34462   2.533   4.611   2.182  0.2664 -0.0260  0.8405
 7668SOL    HW134463   2.583   4.530   2.183  0.2871 -0.0074  1.1190
 7668SOL    HW234464   2.565   4.657   2.258 -1.5126  3.3130 -0.4221
 7669SOL     OW34465   0.045   1.736  14.405 -0.2940  0.6240 -0.0269
 7669SOL    HW134466   0.109   1.666  14.414  0.3991  1.4629  1.5732
 7669SOL    HW234467   0.056   1.770  14.316 -0.5747  2.0973  0.4862
 7670SOL     OW34468   3.470   1.488  10.257 -0.1506 -0.3189  0.0179
 7670SOL    HW134469   3.493   1.533  10.338  0.0180 -1.4439  0.5924
 7670SOL    HW234470   3.400   1.439  10.298  0.6471 -0.6597  0.9619
 7671SOL     OW34471   3.403   3.422   3.603  0.2681 -0.2376  0.0717
 7671SOL    HW134472   3.388   3.501   3.656 -1.0256 -0.6581  0.3471
 7671SOL    HW234473   3.422   3.458   3.517  0.5215 -1.3369 -0.3324
 7672SOL     OW34474   2.300   2.694   9.352  0.3248  0.1842  0.3809
 7672SOL    HW134475   2.370   2.699   9.286 -0.1310 -1.0352 -0.1857
 7672SOL    HW234476   2.333   2.756   9.418  0.3148  1.0918 -0.4736
 7673SOL     OW34477   0.033   1.970   1.134  0.0177 -0.1708 -0.6953
 7673SOL    HW134478   0.066   1.883   1.157  0.0551  0.4635  1.6291
 7673SOL    HW234479   4.684   1.990   1.196  0.6795 -0.7953  0.2536
 7674SOL     OW34480   3.399   0.832   3.311  0.0572  0.0246  0.5228
 7674SOL    HW134481   3.438   0.909   3.270  1.1064 -1.5221 -1.3760
 7674SOL    HW234482   3.363   0.875   3.389  0.0586  2.6637 -0.9303
 7675SOL     OW34483   4.443   4.350   4.645  0.3351  0.2862 -0.0404
 7675SOL    HW134484   4.373   4.322   4.705  0.0224  2.5536  0.6568
 7675SOL    HW234485   4.442   4.276   4.584  0.8139  0.5990 -0.4264
 7676SOL     OW34486   3.041   4.665   9.736 -0.0495 -0.3925 -0.0166
 7676SOL    HW134487   2.958   4.710   9.720  0.7880  1.0889 -0.1064
 7676SOL    HW234488   3.011   4.575   9.752  1.5815 -1.1608 -1.3000
 7677SOL     OW34489   2.744   3.895  10.870 -0.0217 -0.2701 -0.0914
 7677SOL    HW134490   2.714   3.885  10.780  2.0315 -2.1269 -0.5629
 7677SOL    HW234491   2.814   3.830  10.880  2.0265  1.9611 -0.1981
 7678SOL     OW34492   3.601   1.338  14.722  0.1625  0.2241 -0.1712
 7678SOL    HW134493   3.656   1.355  14.645  1.5120  1.2544  1.0402
 7678SOL    HW234494   3.607   1.425  14.760 -0.6462  0.4449 -0.5434
 7679SOL     OW34495   0.569   4.704  10.261 -0.0591 -0.2161 -0.4392
 7679SOL    HW134496   0.495   4.650  10.286 -1.2747  1.8308  0.3692
 7679SOL    HW234497   0.524   0.057  10.220  0.4001 -0.2730 -1.0570
 7680SOL     OW34498   2.986   0.230   9.446  0.2944 -0.8097 -0.2211
 7680SOL    HW134499   2.998   0.142   9.411  3.0148 -0.8447  0.7682
 7680SOL    HW234500   3.048   0.281   9.393  1.5181 -0.9819  1.0427
 7681SOL     OW34501   1.501   3.785   5.692 -0.9358  0.2304  0.4637
 7681SOL    HW134502   1.500   3.729   5.770  0.7816  0.0415  0.3517
 7681SOL    HW234503   1.492   3.871   5.733 -2.5282  0.6835 -0.8280
 7682SOL     OW34504   4.326   2.451   7.979 -0.3645  0.2917 -0.3315
 7682SOL    HW134505   4.326   2.438   7.884 -0.4216 -0.5939 -0.2110
 7682SOL    HW234506   4.415   2.479   8.001 -0.1262  0.6297 -1.6846
 7683SOL     OW34507   3.951   4.672   8.822 -0.2535  0.1442  0.3977
 7683SOL    HW134508   3.963   4.714   8.908  0.1202 -1.0716  0.9261
 7683SOL    HW234509   4.024   4.611   8.818  0.8598  1.3873  1.6536
 7684SOL     OW34510   2.326   3.569   5.496  0.2397 -0.6942  0.6948
 7684SOL    HW134511   2.301   3.643   5.440 -0.0860 -0.8827  0.5929
 7684SOL    HW234512   2.421   3.569   5.481 -0.0055 -1.3125 -0.7623
 7685SOL     OW34513   1.089   0.820  12.844 -0.4707 -0.1826 -0.0145
 7685SOL    HW134514   1.143   0.778  12.911  0.5983 -1.4781 -1.6751
 7685SOL    HW234515   1.091   0.911  12.873 -1.2402  0.2581 -1.3585
 7686SOL     OW34516   0.946   2.305  14.070  0.0945 -0.2489 -0.0675
 7686SOL    HW134517   1.021   2.272  14.020  0.3994  2.3439 -1.3384
 7686SOL    HW234518   0.989   2.318  14.154  1.2005  1.7180 -0.9387
 7687SOL     OW34519   1.175   2.425   3.461 -0.1092 -0.0994 -0.0659
 7687SOL    HW134520   1.086   2.406   3.434  0.0706  0.3644 -0.9876
 7687SOL    HW234521   1.163   2.398   3.552 -1.5075  0.4388 -0.0912
 7688SOL     OW34522   0.846   3.521   8.935 -0.0006  0.2680 -0.3874
 7688SOL    HW134523   0.927   3.566   8.911  1.2012 -3.2401 -2.7918
 7688SOL    HW234524   0.854   3.516   9.030  1.0885 -3.0046 -0.6487
 7689SOL     OW34525   3.851   3.710   6.612  0.6310 -0.6735  0.0175
 7689SOL    HW134526   3.875   3.650   6.541  1.2954 -1.0837  0.5852
 7689SOL    HW234527   3.806   3.643   6.664  1.6421 -1.0919  0.3570
 7690SOL     OW34528   0.135   0.933   8.090  0.3820 -0.3987 -0.3102
 7690SOL    HW134529   0.212   0.901   8.044  1.7800 -2.2603  3.2506
 7690SOL    HW234530   0.110   0.857   8.143 -0.8540 -0.3081 -0.7691
 7691SOL     OW34531   4.631   3.289   7.395  0.4987  0.1489  0.5866
 7691SOL    HW134532   4.588   3.351   7.337  0.6589 -0.6778 -0.4143
 7691SOL    HW234533   4.687   3.342   7.452  0.1541  1.7905 -0.6103
 7692SOL     OW34534   0.028   3.540   7.618  0.2861  0.3281  0.0627
 7692SOL    HW134535   0.009   3.616   7.673  1.3421 -0.2488  1.2147
 7692SOL    HW234536   0.004   3.562   7.528 -2.5442  1.1189  0.9874
 7693SOL     OW34537   4.654   2.387  16.238  0.1707 -0.7983  0.7213
 7693SOL    HW134538   4.651   2.460  16.175  3.0359  0.3293  1.8856
 7693SOL    HW234539   0.010   2.343  16.203 -0.8936 -1.8674 -0.2993
 7694SOL     OW34540   0.376   0.119   3.342  0.4263  0.1653  0.3031
 7694SOL    HW134541   0.297   0.064   3.340 -1.0777  2.1818  3.7865
 7694SOL    HW234542   0.408   0.099   3.430 -0.0573  0.6463  0.5898
 7695SOL     OW34543   4.231   1.328  13.217 -0.0488  0.5556  0.3828
 7695SOL    HW134544   4.297   1.367  13.159  0.3817  0.7798  1.0275
 7695SOL    HW234545   4.278   1.317  13.299 -1.3414  1.1859  1.2027
 7696SOL     OW34546   2.772   0.395   3.370  0.3654 -0.0483 -0.3951
 7696SOL    HW134547   2.732   0.454   3.307 -0.1149 -1.1055 -1.0880
 7696SOL    HW234548   2.746   0.309   3.337  0.3403 -0.0044 -0.4878
 7697SOL     OW34549   0.028   1.974   7.512 -0.3013 -0.3057 -0.1175
 7697SOL    HW134550   0.014   1.908   7.581  0.0322  0.6142  0.8295
 7697SOL    HW234551   0.122   1.992   7.517 -0.4091 -0.4350  2.6391
 7698SOL     OW34552   4.488   0.936   6.210 -0.6152 -0.4242  0.2726
 7698SOL    HW134553   4.560   0.878   6.185  1.0114  1.3071  0.8275
 7698SOL    HW234554   4.424   0.887   6.262  0.5547 -0.9525  1.2264
 7699SOL     OW34555   1.639   0.410   1.947 -0.2707  0.0951 -0.3790
 7699SOL    HW134556   1.735   0.418   1.945 -0.6203  4.4956  0.5925
 7699SOL    HW234557   1.610   0.498   1.922  2.0213  1.2364  0.9535
 7700SOL     OW34558   0.785   1.518   0.438 -0.0773 -0.0439  0.4941
 7700SOL    HW134559   0.827   1.597   0.404  0.7521 -1.5768 -2.0815
 7700SOL    HW234560   0.750   1.483   0.357 -0.6817  0.4911  0.5298
 7701SOL     OW34561   4.233   2.601   5.832  0.5114 -0.0126  0.0860
 7701SOL    HW134562   4.181   2.672   5.871  1.3607  0.9864 -0.6185
 7701SOL    HW234563   4.215   2.621   5.740 -2.5748 -2.8044  0.0311
 7702SOL     OW34564   2.982   0.124  16.790 -0.6793  0.1752 -0.1033
 7702SOL    HW134565   2.920   0.196  16.785 -0.4367  0.1841 -2.6600
 7702SOL    HW234566   3.063   0.165  16.821 -2.1622  1.9553  1.4356
 7703SOL     OW34567   2.305   0.276  11.259 -0.3415  0.5776 -0.4462
 7703SOL    HW134568   2.389   0.299  11.220 -1.6158 -0.7773 -4.0298
 7703SOL    HW234569   2.262   0.357  11.235  0.2889  1.0504  0.0221
 7704SOL     OW34570   3.612   2.763   7.404  0.0956 -0.8229 -0.7038
 7704SOL    HW134571   3.628   2.684   7.455  1.8507 -0.7830 -1.1988
 7704SOL    HW234572   3.682   2.821   7.435 -0.3217 -0.8296  0.2677
 7705SOL     OW34573   3.567   4.294   4.763 -0.2186  0.2709 -0.5080
 7705SOL    HW134574   3.643   4.260   4.716  0.7416 -0.4772  1.5522
 7705SOL    HW234575   3.617   4.320   4.841 -0.9031  1.2234 -0.3867
 7706SOL     OW34576   3.653   1.641  10.446  0.2528  0.0909 -0.0629
 7706SOL    HW134577   3.677   1.727  10.478 -0.6942  0.6984 -0.9574
 7706SOL    HW234578   3.628   1.607  10.532  0.4478 -0.8694 -0.3839
 7707SOL     OW34579   2.691   1.512   4.855 -0.1551 -0.6720  0.5833
 7707SOL    HW134580   2.721   1.513   4.764 -0.9423  1.2952  0.3320
 7707SOL    HW234581   2.596   1.522   4.848 -0.0320 -2.0908 -3.0033
 7708SOL     OW34582   2.005   1.502   4.219  0.6376 -0.2230 -0.2808
 7708SOL    HW134583   1.988   1.416   4.256  0.9881 -0.1959 -0.0577
 7708SOL    HW234584   2.064   1.471   4.150  2.7077  0.8212  1.0125
 7709SOL     OW34585   4.094   1.638   3.520 -0.4734 -0.5025 -0.3586
 7709SOL    HW134586   4.117   1.730   3.508  1.6951 -1.2616 -1.8710
 7709SOL    HW234587   4.000   1.643   3.539 -0.1086  2.0489  0.7784
 7710SOL     OW34588   2.232   4.010   7.476 -0.7397 -0.4354 -0.1041
 7710SOL    HW134589   2.183   4.087   7.449  2.6704  1.1500 -1.6773
 7710SOL    HW234590   2.222   4.007   7.571 -0.4574  1.1593 -0.0278
 7711SOL     OW34591   2.075   3.520   4.003  1.2701 -0.9669  0.5033
 7711SOL    HW134592   2.164   3.517   4.039  0.4922 -0.1999  2.5114
 7711SOL    HW234593   2.039   3.439   4.042  0.7099 -1.2520 -0.6065
 7712SOL     OW34594   2.951   2.365  15.250 -0.1722  0.2799 -0.4296
 7712SOL    HW134595   2.910   2.279  15.242  3.1652 -1.1554 -1.8341
 7712SOL    HW234596   2.954   2.391  15.158  1.2234  0.5052 -0.3069
 7713SOL     OW34597   2.897   4.518  16.438 -0.3770  0.3739  0.1577
 7713SOL    HW134598   2.874   4.571  16.515 -0.1035 -0.0509  0.5322
 7713SOL    HW234599   2.954   4.451  16.476 -0.7145 -0.5437 -0.9504
 7714SOL     OW34600   1.627   3.301   8.266 -0.2279  0.7687  0.4249
 7714SOL    HW134601   1.686   3.372   8.292 -0.1752  1.0577 -0.4891
 7714SOL    HW234602   1.540   3.338   8.281 -0.5527  0.2206 -0.1005
 7715SOL     OW34603   4.347   1.715  11.988 -0.5176 -0.2409  0.1373
 7715SOL    HW134604   4.288   1.656  12.035 -0.3614  0.0882  0.7488
 7715SOL    HW234605   4.367   1.786  12.049 -2.9305  0.1672  0.4214
 7716SOL     OW34606   3.453   2.404   4.060 -0.3414 -0.5581  0.0884
 7716SOL    HW134607   3.440   2.491   4.022  0.4393 -0.9243 -1.0131
 7716SOL    HW234608   3.454   2.419   4.155 -1.1877 -0.1204  0.0300
 7717SOL     OW34609   1.071   2.660  15.043  0.0837  0.8096  0.0140
 7717SOL    HW134610   1.148   2.625  15.090 -1.0738 -3.8482 -1.5319
 7717SOL    HW234611   1.068   2.616  14.958  1.9186  0.2376  0.2482
 7718SOL     OW34612   0.176   3.521  17.669  0.0306 -0.6344  0.2615
 7718SOL    HW134613   0.090   3.479  17.677 -0.3694 -0.0163 -0.7995
 7718SOL    HW234614   0.205   3.523   0.073 -0.6477  1.8584  0.4198
 7719SOL     OW34615   3.402   1.760  17.380 -0.5697 -0.2406  0.4943
 7719SOL    HW134616   3.457   1.697  17.427  0.0313  0.6018  0.9116
 7719SOL    HW234617   3.344   1.704  17.328  1.5462 -1.6645 -0.3075
 7720SOL     OW34618   2.839   2.368  12.185 -0.7115  0.3475 -0.0116
 7720SOL    HW134619   2.777   2.300  12.209 -0.2752 -0.4287 -1.1050
 7720SOL    HW234620   2.820   2.372  12.091  2.9308 -1.2621 -0.8440
 7721SOL     OW34621   1.097   1.626  14.218  0.3613  0.1039 -0.4883
 7721SOL    HW134622   1.187   1.625  14.252  0.3675  0.0706 -0.5053
 7721SOL    HW234623   1.066   1.621  14.309  1.3514  2.0077 -0.0466
 7722SOL     OW34624   0.587   3.146   5.588 -0.5572 -0.3522 -0.7483
 7722SOL    HW134625   0.654   3.092   5.547  1.3859  3.3728 -2.4850
 7722SOL    HW234626   0.632   3.220   5.628  0.1520 -0.8725 -0.5784
 7723SOL     OW34627   1.392   0.022   8.546 -0.2738 -0.4080 -0.5479
 7723SOL    HW134628   1.399   0.051   8.637 -0.3458 -2.7352  0.1859
 7723SOL    HW234629   1.306   4.703   8.556  0.0724 -1.7713 -3.1808
 7724SOL     OW34630   0.737   1.143  11.649  0.2481  0.4590  0.5358
 7724SOL    HW134631   0.753   1.226  11.693  1.5786 -0.0012  0.9171
 7724SOL    HW234632   0.802   1.153  11.579  0.1792 -0.1035  0.3931
 7725SOL     OW34633   2.950   2.581   3.216 -0.5330 -0.3415 -0.5707
 7725SOL    HW134634   3.034   2.545   3.185 -0.5340 -0.1018 -0.8485
 7725SOL    HW234635   2.946   2.671   3.184  2.7993  0.5565  1.5134
 7726SOL     OW34636   2.292   1.061   4.455  0.3897 -0.0820  0.2338
 7726SOL    HW134637   2.320   0.977   4.418  1.4448  0.7567 -0.9291
 7726SOL    HW234638   2.378   1.105   4.447 -0.1606  0.9151 -0.2563
 7727SOL     OW34639   4.678   4.564   9.102  0.2969  0.7312  0.5177
 7727SOL    HW134640   4.688   4.469   9.100  1.2540  0.8514 -0.7952
 7727SOL    HW234641   0.041   4.588   9.141  0.5254  0.1746  0.3619
 7728SOL     OW34642   0.196   1.506   7.662 -0.1815 -0.0645  0.0933
 7728SOL    HW134643   0.175   1.497   7.755  0.5120  1.7507  0.4297
 7728SOL    HW234644   0.130   1.454   7.616 -0.7135  2.5504 -2.0834
 7729SOL     OW34645   4.715   3.860   0.575  0.1322  0.3256 -0.0012
 7729SOL    HW134646   0.049   3.783   0.587  1.1666  0.6762 -2.5375
 7729SOL    HW234647   0.038   3.898   0.499 -3.0272  1.8238 -1.1102
 7730SOL     OW34648   0.047   3.614   3.573 -0.1166 -0.2453  0.2808
 7730SOL    HW134649   4.684   3.586   3.610 -0.2313 -0.0405  0.1736
 7730SOL    HW234650   0.088   3.531   3.548  0.4293 -0.0735  0.6179
 7731SOL     OW34651   0.773   0.069   3.008 -0.1204  0.2580 -0.2935
 7731SOL    HW134652   0.846   0.031   2.960 -0.7523 -0.9214 -0.3264
 7731SOL    HW234653   0.798   0.159   3.029 -0.6294  0.6848 -1.5072
 7732SOL     OW34654   0.072   4.174   3.317 -1.1055  0.2839 -0.0688
 7732SOL    HW134655   0.009   4.202   3.383 -0.8834  1.0176 -0.1741
 7732SOL    HW234656   0.112   4.097   3.358  0.7077  1.7995  0.9669
 7733SOL     OW34657   2.460   0.429   8.428 -0.2035  0.3450 -0.4068
 7733SOL    HW134658   2.473   0.407   8.335  1.1243 -1.4299  0.1953
 7733SOL    HW234659   2.364   0.425   8.430 -0.2207 -0.0512 -1.4879
 7734SOL     OW34660   2.981   1.120  12.589  0.3024  0.3818 -0.2838
 7734SOL    HW134661   2.980   1.211  12.616  0.5074  1.1417 -2.8501
 7734SOL    HW234662   2.985   1.126  12.494  0.5274 -2.1347 -0.4313
 7735SOL     OW34663   2.787   4.328   2.808  0.3417 -0.4605 -0.2885
 7735SOL    HW134664   2.849   4.287   2.748 -0.1786  1.3925 -2.1257
 7735SOL    HW234665   2.809   4.421   2.813  2.0903 -0.8535 -0.6319
 7736SOL     OW34666   2.949   0.563   1.700 -0.3296  0.3888  0.0143
 7736SOL    HW134667   2.886   0.497   1.670 -0.1072 -1.0554  2.7046
 7736SOL    HW234668   2.900   0.641   1.675  0.7606  1.3224  0.8020
 7737SOL     OW34669   2.924   3.960  10.547 -0.1863  0.8859 -0.3081
 7737SOL    HW134670   2.965   3.876  10.566 -2.0706 -0.2643 -1.3288
 7737SOL    HW234671   3.007   4.004  10.566  1.1924 -1.6403 -0.4147
 7738SOL     OW34672   0.541   4.255   1.496  0.2312  0.4263 -0.3710
 7738SOL    HW134673   0.462   4.210   1.527  2.2757 -1.4119  2.1444
 7738SOL    HW234674   0.605   4.186   1.510  1.1156  1.2686 -0.3040
 7739SOL     OW34675   4.281   0.690   8.120  0.3643  0.0597  0.2954
 7739SOL    HW134676   4.214   0.676   8.054  1.0856 -1.6837 -0.0670
 7739SOL    HW234677   4.269   0.607   8.166  3.6385  0.1997  1.4275
 7740SOL     OW34678   3.165   2.843   4.344 -0.0164 -0.1681  0.2500
 7740SOL    HW134679   3.105   2.917   4.332  1.6510  1.2645  0.8084
 7740SOL    HW234680   3.239   2.856   4.285 -1.8385 -0.4625 -2.0807
 7741SOL     OW34681   2.370   3.010   3.799  0.1714 -0.1339  0.2043
 7741SOL    HW134682   2.425   2.941   3.836 -0.9477 -2.0739 -1.7883
 7741SOL    HW234683   2.287   2.977   3.835 -0.1123  1.9897  1.5082
 7742SOL     OW34684   3.186   2.089   2.454  0.2125  0.5909  0.0440
 7742SOL    HW134685   3.229   2.007   2.479  3.0583  1.6388 -1.4778
 7742SOL    HW234686   3.235   2.153   2.505 -0.9186  1.4017  0.1133
 7743SOL     OW34687   1.584   2.263   9.087  0.3078 -0.0921 -0.0702
 7743SOL    HW134688   1.501   2.229   9.053  0.6271  0.5735 -1.5129
 7743SOL    HW234689   1.557   2.289   9.175  2.1202 -1.8412  1.0212
 7744SOL     OW34690   1.806   0.967   1.457 -0.2371  0.4788  0.3487
 7744SOL    HW134691   1.860   0.972   1.378 -0.1236 -0.9115  0.3260
 7744SOL    HW234692   1.782   1.055   1.483  1.5088  2.2416 -3.9558
 7745SOL     OW34693   3.671   4.219   2.980 -0.1382  0.2829  0.1405
 7745SOL    HW134694   3.641   4.149   3.038  0.2841 -0.6226 -0.7230
 7745SOL    HW234695   3.732   4.173   2.922  2.0333  2.7979  0.4040
 7746SOL     OW34696   3.635   2.826   8.011  0.1012  0.0975 -0.1568
 7746SOL    HW134697   3.723   2.806   7.979 -0.1383  0.2617 -0.9112
 7746SOL    HW234698   3.667   2.869   8.090  0.4521  1.1195 -0.8451
 7747SOL     OW34699   2.458   0.493  10.753  0.4615  0.5101  0.3015
 7747SOL    HW134700   2.487   0.522  10.667  0.1876 -1.0243 -0.3073
 7747SOL    HW234701   2.371   0.459  10.729  1.2420 -1.6897  0.5975
 7748SOL     OW34702   4.286   1.192   7.922 -0.0979  0.3386  0.2342
 7748SOL    HW134703   4.376   1.175   7.948  0.1198  1.0746 -0.0431
 7748SOL    HW234704   4.251   1.104   7.933  0.8871  0.0605  1.0744
 7749SOL     OW34705   2.286   0.438   4.347  0.0651 -0.0392  0.3691
 7749SOL    HW134706   2.251   0.497   4.280  2.6117  1.6432  0.4939
 7749SOL    HW234707   2.381   0.440   4.334  0.0855  2.5006  0.8442
 7750SOL     OW34708   1.393   2.856   7.861 -0.0491 -0.5256  0.2926
 7750SOL    HW134709   1.311   2.879   7.904 -0.2806 -2.1263  0.7064
 7750SOL    HW234710   1.438   2.818   7.936  2.3953  0.6369 -0.6164
 7751SOL     OW34711   1.285   1.992  11.091  0.3434 -0.1164 -0.2918
 7751SOL    HW134712   1.361   1.970  11.038 -0.1999  0.1303 -1.1753
 7751SOL    HW234713   1.292   1.958  11.180  1.6737 -0.0620 -0.3757
 7752SOL     OW34714   4.627   0.796   3.001  0.2465 -0.0733 -0.6357
 7752SOL    HW134715   4.570   0.866   2.969 -0.0507 -0.2908 -0.5707
 7752SOL    HW234716   4.589   0.717   2.964 -0.8974 -0.3005  1.0252
 7753SOL     OW34717   0.811   2.066   6.124  0.3160  0.3331  0.2772
 7753SOL    HW134718   0.733   2.035   6.077  0.4255 -0.5011  0.6375
 7753SOL    HW234719   0.860   1.985   6.140 -0.6600  0.0807  2.0184
 7754SOL     OW34720   0.950   4.047   2.353 -0.4540  0.1358 -0.3690
 7754SOL    HW134721   0.979   4.099   2.428 -0.3974  0.2725 -0.4868
 7754SOL    HW234722   1.036   4.013   2.326 -0.3939 -0.5960  0.6993
 7755SOL     OW34723   4.564   2.539   8.754 -0.0999  0.4523  0.4512
 7755SOL    HW134724   4.547   2.633   8.759  0.6606  0.5134  1.9303
 7755SOL    HW234725   4.477   2.504   8.775  0.6972 -1.4123  0.6116
 7756SOL     OW34726   0.111   4.692   2.288  0.5272  0.1474  0.6534
 7756SOL    HW134727   0.044   4.646   2.339  0.6164 -2.6255 -1.7181
 7756SOL    HW234728   0.065   0.026   2.225 -1.8174 -1.4152  0.9692
 7757SOL     OW34729   2.517   3.109   2.300 -0.1063  0.2050 -0.5319
 7757SOL    HW134730   2.487   3.044   2.363  3.5406 -1.4662 -0.5791
 7757SOL    HW234731   2.609   3.084   2.292 -0.1910 -0.7403  1.6589
 7758SOL     OW34732   3.900   2.636   5.262  0.6566 -0.0705 -0.5217
 7758SOL    HW134733   3.828   2.580   5.232 -0.5807  1.2459 -0.0283
 7758SOL    HW234734   3.861   2.718   5.231 -0.2636 -0.7958 -1.2719
 7759SOL     OW34735   2.624   0.401   4.118 -0.0363  0.5995 -0.6099
 7759SOL    HW134736   2.583   0.488   4.119 -0.6847  0.3064 -2.2152
 7759SOL    HW234737   2.662   0.404   4.031  2.5536 -0.9116  0.4856
 7760SOL     OW34738   3.192   4.373   3.760  0.4246  0.9309  0.3848
 7760SOL    HW134739   3.097   4.386   3.757  0.5283  1.8949  1.0616
 7760SOL    HW234740   3.224   4.462   3.743  1.3235  0.6487  0.5669
 7761SOL     OW34741   2.908   2.542  14.618 -0.1304  0.5913 -0.0686
 7761SOL    HW134742   2.948   2.623  14.585 -0.4768  0.3368 -1.0996
 7761SOL    HW234743   2.981   2.503  14.667  0.9717  1.5613 -0.9206
 7762SOL     OW34744   4.442   2.633   4.746  0.0428 -0.2683 -0.1464
 7762SOL    HW134745   4.509   2.688   4.787  1.2576 -1.7768 -0.0933
 7762SOL    HW234746   4.458   2.651   4.653 -0.5541  1.0682  0.0132
 7763SOL     OW34747   2.065   0.173  12.163  0.0836 -0.0858 -0.0040
 7763SOL    HW134748   2.115   0.240  12.117 -1.2966 -0.7264 -2.4409
 7763SOL    HW234749   2.132   0.107  12.178  0.5050  0.5479  0.8787
 7764SOL     OW34750   3.244   0.415   6.640  0.3820 -0.1318 -0.7488
 7764SOL    HW134751   3.306   0.342   6.645 -0.1007 -0.3638  2.4007
 7764SOL    HW234752   3.226   0.414   6.546  2.5772  2.0851 -1.1871
 7765SOL     OW34753   4.719   4.680   0.077  0.2227 -0.3650 -0.1706
 7765SOL    HW134754   0.063   4.617   0.108  0.9194  0.5134  0.1417
 7765SOL    HW234755   0.054   0.034   0.061  2.8540 -1.8920  1.9917
 7766SOL     OW34756   2.553   4.218   3.666  0.3855 -0.0191  0.0982
 7766SOL    HW134757   2.592   4.305   3.678 -0.1326  0.4342 -1.4247
 7766SOL    HW234758   2.491   4.222   3.739  0.9392 -2.2752  0.7003
 7767SOL     OW34759   3.103   3.191  10.178  0.2095  0.8074 -0.2374
 7767SOL    HW134760   3.073   3.111  10.135  0.8950  0.8969 -0.8916
 7767SOL    HW234761   3.072   3.178  10.268  1.2414 -1.8492 -0.2686
 7768SOL     OW34762   1.404   0.018   4.964  0.2294  0.1452  0.1457
 7768SOL    HW134763   1.326   4.710   5.009  0.6207 -0.0646  0.6891
 7768SOL    HW234764   1.475   4.696   5.011  0.4611 -0.5524 -0.8424
 7769SOL     OW34765   2.789   0.876   9.000  0.2194  0.3541 -0.5648
 7769SOL    HW134766   2.708   0.848   9.045  0.5212  3.3244  1.8184
 7769SOL    HW234767   2.817   0.952   9.052 -0.3803  0.1636  0.0458
 7770SOL     OW34768   2.374   3.908   8.297 -0.0537 -0.1471 -0.0727
 7770SOL    HW134769   2.398   3.999   8.315  1.1059 -0.0157 -2.3693
 7770SOL    HW234770   2.450   3.879   8.248  0.5471 -2.1855  2.0557
 7771SOL     OW34771   3.244   1.107   3.270  0.3688  0.5565 -0.6020
 7771SOL    HW134772   3.237   1.158   3.189  1.8438 -0.7722 -1.5409
 7771SOL    HW234773   3.154   1.076   3.260  0.8891 -1.0982 -0.0422
 7772SOL     OW34774   2.340   2.266   0.729  0.3047  0.1438  0.1658
 7772SOL    HW134775   2.364   2.320   0.805 -0.5786 -2.1572  2.0808
 7772SOL    HW234776   2.405   2.197   0.741  1.8097  1.8230  1.7700
 7773SOL     OW34777   4.112   3.026   4.052  0.3252 -0.0832  0.4503
 7773SOL    HW134778   4.032   2.978   4.074 -1.0430  2.6456  1.4002
 7773SOL    HW234779   4.096   3.105   4.104 -0.0441 -0.1363  0.4166
 7774SOL     OW34780   1.039   0.078   7.885  0.1023 -0.0369 -0.0932
 7774SOL    HW134781   1.067   0.153   7.938  1.0595 -1.6190  1.6627
 7774SOL    HW234782   1.033   0.110   7.795  0.4243  2.2138  0.6718
 7775SOL     OW34783   4.475   4.453   8.554 -0.1524 -0.7397  0.4096
 7775SOL    HW134784   4.389   4.422   8.582  0.2136  1.4425  3.9210
 7775SOL    HW234785   4.442   4.515   8.489  0.9945 -0.8448 -0.2773
 7776SOL     OW34786   1.763   1.523  12.228  0.1005  0.0414 -0.2056
 7776SOL    HW134787   1.730   1.558  12.312  1.4660 -3.2952  1.6998
 7776SOL    HW234788   1.736   1.432  12.237  3.3217 -1.0273 -1.6131
 7777SOL     OW34789   4.447   4.503   5.201  0.0880 -0.5293  0.4395
 7777SOL    HW134790   4.480   4.420   5.165  2.0338  0.8102 -0.8181
 7777SOL    HW234791   4.526   4.550   5.226  0.4455 -1.3211  0.8195
 7778SOL     OW34792   0.979   0.115  15.012 -0.6187 -0.0058  0.2780
 7778SOL    HW134793   0.999   0.042  15.070  1.0197 -0.7943 -1.2614
 7778SOL    HW234794   0.992   0.185  15.074 -0.7987  1.0181 -0.8348
 7779SOL     OW34795   4.031   0.638   7.024 -0.1083 -0.3614 -0.0624
 7779SOL    HW134796   4.042   0.543   7.031  2.4549 -0.1291 -0.7769
 7779SOL    HW234797   4.018   0.664   7.115  1.5165 -1.1314  0.4033
 7780SOL     OW34798   0.084   3.283   7.108 -0.0036  0.7608 -0.5084
 7780SOL    HW134799   0.013   3.228   7.140  0.4722  0.7571  0.5194
 7780SOL    HW234800   0.132   3.290   7.190 -0.0531  2.8161 -0.6436
 7781SOL     OW34801   4.196   1.305   5.622  0.5477  0.0280 -0.7070
 7781SOL    HW134802   4.242   1.333   5.701 -0.2409 -1.3198  0.2187
 7781SOL    HW234803   4.258   1.322   5.551 -0.4526  0.0775 -1.5725
 7782SOL     OW34804   3.247   1.537  10.009  0.5252  0.3575 -0.0159
 7782SOL    HW134805   3.318   1.505   9.954  3.1167 -0.2117  3.6865
 7782SOL    HW234806   3.171   1.523   9.952  2.0215 -1.0951 -1.6606
 7783SOL     OW34807   4.295   4.239  17.616 -0.5789  0.3965 -0.1208
 7783SOL    HW134808   4.230   4.301  17.649 -0.0269  0.4435  0.8807
 7783SOL    HW234809   4.248   4.178  17.559 -0.8942  0.7978 -0.2897
 7784SOL     OW34810   4.225   1.038  12.894  0.4073  0.2345  0.6507
 7784SOL    HW134811   4.242   0.950  12.928 -0.7021 -0.2609 -0.0710
 7784SOL    HW234812   4.206   1.027  12.801 -2.6422 -2.1301  1.5422
 7785SOL     OW34813   2.165   0.138   5.531 -0.3777 -0.2177 -0.1858
 7785SOL    HW134814   2.228   0.098   5.591 -0.2353 -1.0604 -0.9006
 7785SOL    HW234815   2.211   0.114   5.450 -0.2658  1.3889 -0.5931
 7786SOL     OW34816   2.653   0.597   5.495  0.3288 -0.1369 -0.5715
 7786SOL    HW134817   2.675   0.688   5.476  2.2290 -0.4194  0.3610
 7786SOL    HW234818   2.637   0.600   5.589  0.7110  1.6565 -0.5747
 7787SOL     OW34819   0.903   1.740   0.290  0.1047  0.2253  0.9450
 7787SOL    HW134820   0.925   1.716   0.201 -2.1131 -2.3685  1.0935
 7787SOL    HW234821   0.892   1.835   0.298 -1.4804 -0.0133  1.6515
 7788SOL     OW34822   3.885   4.322  14.920  0.0729 -0.4164  0.3081
 7788SOL    HW134823   3.975   4.310  14.891 -0.0766  0.3453 -0.4566
 7788SOL    HW234824   3.886   4.417  14.919 -1.3637 -0.3971 -1.3810
 7789SOL     OW34825   0.857   2.171   5.283  0.7709  0.5406 -0.1240
 7789SOL    HW134826   0.831   2.258   5.253  0.0472  0.4535  0.2531
 7789SOL    HW234827   0.796   2.119   5.231  1.8322 -1.7302  0.8887
 7790SOL     OW34828   2.642   1.814   0.470  0.5873  0.1992  0.4483
 7790SOL    HW134829   2.643   1.856   0.556  1.7602  1.5128 -0.2184
 7790SOL    HW234830   2.724   1.766   0.477  0.7428  0.2105 -1.3519
 7791SOL     OW34831   3.391   2.306   8.921  0.1947 -0.0039 -0.0773
 7791SOL    HW134832   3.330   2.361   8.871  2.9599  2.5578 -0.6560
 7791SOL    HW234833   3.398   2.229   8.864  0.3332 -0.0104 -0.0528
 7792SOL     OW34834   3.910   1.017   4.603 -0.0007 -0.6812  0.0797
 7792SOL    HW134835   3.936   0.942   4.657 -0.4622 -0.4025  0.6889
 7792SOL    HW234836   3.953   1.089   4.650  1.4405 -0.7925 -1.0418
 7793SOL     OW34837   0.237   4.432   2.886 -0.1538 -0.2988 -0.0615
 7793SOL    HW134838   0.173   4.406   2.952 -0.1491 -0.1431  0.0042
 7793SOL    HW234839   0.317   4.442   2.938  0.5913  2.1976 -1.6841
 7794SOL     OW34840   2.059   0.483   5.821 -0.0319 -0.0538 -0.2152
 7794SOL    HW134841   2.075   0.576   5.804 -0.2756  0.4558  2.2338
 7794SOL    HW234842   2.130   0.437   5.776  0.1279 -0.5215  0.5178
 7795SOL     OW34843   1.494   2.639   2.456  0.2110 -0.1254 -0.1191
 7795SOL    HW134844   1.540   2.701   2.511 -0.0303 -0.5544  0.5621
 7795SOL    HW234845   1.433   2.700   2.413  2.1371  1.7542 -0.1582
 7796SOL     OW34846   3.824   4.562  12.215  0.2182  0.4717 -0.7952
 7796SOL    HW134847   3.862   4.649  12.230  2.0187 -0.6313  0.9428
 7796SOL    HW234848   3.910   4.525  12.196 -0.0229  0.2183 -1.4189
 7797SOL     OW34849   3.296   1.146  16.375  0.0682  0.3187  0.1249
 7797SOL    HW134850   3.272   1.156  16.283 -0.6743  0.4118  0.3298
 7797SOL    HW234851   3.373   1.089  16.370  0.2070  0.4139  1.1325
 7798SOL     OW34852   3.664   4.355  11.812 -0.6436  0.0642 -0.0806
 7798SOL    HW134853   3.651   4.291  11.882  0.1396 -0.3665 -0.3297
 7798SOL    HW234854   3.728   4.307  11.760 -0.4658 -2.3916  2.4176
 7799SOL     OW34855   0.099   4.521  13.606 -0.6086 -0.2475 -0.1136
 7799SOL    HW134856   0.151   4.506  13.685  0.3489  0.8826 -0.5282
 7799SOL    HW234857   0.010   4.501  13.634 -0.3530  0.3333  1.0990
 7800SOL     OW34858   1.211   4.368  13.640  0.3873 -0.0034 -0.2751
 7800SOL    HW134859   1.295   4.327  13.660  1.8367  1.9425 -2.3819
 7800SOL    HW234860   1.183   4.376  13.731 -0.7329 -2.3109 -0.4267
 7801SOL     OW34861   1.758   3.808   8.589 -0.1108  0.0924  0.1872
 7801SOL    HW134862   1.797   3.878   8.536  0.7505 -0.7746 -0.3204
 7801SOL    HW234863   1.666   3.826   8.570 -0.8523 -2.4273  1.3559
 7802SOL     OW34864   3.245   3.380  12.737  0.8325  0.3708  0.3483
 7802SOL    HW134865   3.273   3.432  12.813 -3.2183  0.8006  1.5900
 7802SOL    HW234866   3.164   3.341  12.770  0.1387  2.8881  1.6390
 7803SOL     OW34867   3.076   4.282   0.081 -0.1118 -0.0490  0.0984
 7803SOL    HW134868   2.993   4.290   0.036  0.0570  0.4901 -0.1095
 7803SOL    HW234869   3.139   4.256   0.013 -0.4798 -0.5543 -0.0452
 7804SOL     OW34870   3.837   1.713   0.676 -0.1979  0.0310 -0.0755
 7804SOL    HW134871   3.806   1.781   0.736 -1.3641 -1.0138  0.5155
 7804SOL    HW234872   3.917   1.684   0.719  0.3991  1.4998 -0.1953
 7805SOL     OW34873   0.452   1.164  17.665 -0.0617  0.3209  0.3163
 7805SOL    HW134874   0.357   1.164  17.660 -0.0141  0.2254 -0.4719
 7805SOL    HW234875   0.468   1.071  17.684 -0.9500 -0.1564 -1.3692
 7806SOL     OW34876   2.102   0.239   8.111  0.3672  0.0609 -0.3570
 7806SOL    HW134877   2.023   0.212   8.158 -0.5930  2.1674 -0.7846
 7806SOL    HW234878   2.168   0.186   8.155 -0.3243 -1.2794 -0.9454
 7807SOL     OW34879   1.012   3.959   7.578 -0.2158  0.8692  0.0654
 7807SOL    HW134880   0.931   3.910   7.593  1.2334 -1.3767  0.4561
 7807SOL    HW234881   1.077   3.891   7.563 -0.2824  0.5912  1.0304
 7808SOL     OW34882   1.151   4.193  15.481 -0.3429 -0.1081 -0.4163
 7808SOL    HW134883   1.086   4.263  15.476  1.7134  1.8390  0.1750
 7808SOL    HW234884   1.224   4.217  15.424  0.0511  0.3482  0.2866
 7809SOL     OW34885   4.406   0.476   6.816 -0.2988 -0.0656 -0.3507
 7809SOL    HW134886   4.357   0.557   6.829  1.3927  0.7627  0.9179
 7809SOL    HW234887   4.339   0.419   6.778 -0.3041  0.2052 -0.7403
 7810SOL     OW34888   0.289   3.478   6.108 -0.2389 -0.3544  0.2679
 7810SOL    HW134889   0.242   3.475   6.024  0.7454 -0.6193 -0.2710
 7810SOL    HW234890   0.224   3.451   6.173  1.4333 -0.2392  1.9569
 7811SOL     OW34891   1.881   4.627   4.906 -0.0418  0.1719 -0.1107
 7811SOL    HW134892   1.898   4.535   4.884 -0.5201  0.5703 -2.1703
 7811SOL    HW234893   1.799   4.641   4.857  0.0085 -0.3275 -0.3464
 7812SOL     OW34894   3.766   2.873  12.534  0.0743  0.3256 -0.2943
 7812SOL    HW134895   3.766   2.784  12.571 -0.9739  0.2500 -0.4974
 7812SOL    HW234896   3.762   2.920  12.618 -1.3829 -2.6045  1.2621
 7813SOL     OW34897   1.040   0.883   5.888 -0.0925  0.4134 -0.1586
 7813SOL    HW134898   1.114   0.934   5.921 -1.0531  1.3923  0.5181
 7813SOL    HW234899   0.977   0.955   5.878 -0.9574 -0.1446  1.2525
 7814SOL     OW34900   2.596   1.922   1.926  0.1394 -0.4731 -0.2187
 7814SOL    HW134901   2.508   1.940   1.893 -0.6310 -2.2000  0.9002
 7814SOL    HW234902   2.644   1.998   1.892 -2.3415  1.3659  0.3824
 7815SOL     OW34903   4.296   4.690   5.538  0.4823  0.0851 -0.2451
 7815SOL    HW134904   4.355   0.039   5.510 -0.8656  0.8019 -1.3074
 7815SOL    HW234905   4.284   4.646   5.454  0.6026  0.2266 -0.3368
 7816SOL     OW34906   2.175   3.149   9.070  0.4233  0.0243  0.8145
 7816SOL    HW134907   2.244   3.091   9.102  2.3006  1.9582  0.2745
 7816SOL    HW234908   2.115   3.161   9.143 -2.0188 -4.0935 -0.4978
 7817SOL     OW34909   3.846   2.441   8.115 -0.6442  0.9106  0.6953
 7817SOL    HW134910   3.807   2.396   8.190  0.4665 -2.1693 -0.5729
 7817SOL    HW234911   3.940   2.422   8.123 -1.2947 -1.7813  2.0287
 7818SOL     OW34912   0.801   1.981   2.933  0.3767 -0.2512 -0.1944
 7818SOL    HW134913   0.719   1.934   2.927  1.6104 -2.2291 -1.5190
 7818SOL    HW234914   0.793   2.043   2.860  1.0955 -2.1588 -1.8817
 7819SOL     OW34915   2.208   3.526   2.693 -0.0039  0.0112  0.5912
 7819SOL    HW134916   2.206   3.574   2.610 -1.1804 -3.2931 -1.2846
 7819SOL    HW234917   2.132   3.469   2.689  0.1138  0.0566 -1.9517
 7820SOL     OW34918   4.166   3.400   0.980  0.0563  0.1404  0.1805
 7820SOL    HW134919   4.101   3.468   0.997  0.5878  0.0917  2.4296
 7820SOL    HW234920   4.170   3.407   0.884  0.2259 -2.4040  0.0150
 7821SOL     OW34921   3.728   4.650  11.452  0.5825 -0.9036  0.2327
 7821SOL    HW134922   3.809   4.701  11.454 -0.0916  0.2535 -2.1945
 7821SOL    HW234923   3.703   4.645  11.544 -2.8942 -0.7694 -0.6884
 7822SOL     OW34924   0.128   1.712   5.059 -0.1853  0.1168  0.0009
 7822SOL    HW134925   0.157   1.784   5.115  1.5737 -0.1338 -0.6144
 7822SOL    HW234926   0.214   1.681   5.033 -0.3046  1.3105 -1.7510
 7823SOL     OW34927   4.462   1.792   3.484  0.4005 -0.0584 -0.6400
 7823SOL    HW134928   4.554   1.815   3.490  0.6751 -1.4214  0.4095
 7823SOL    HW234929   4.466   1.700   3.456 -0.1038 -0.1988 -0.2678
 7824SOL     OW34930   1.640   3.684   1.978  0.1735  0.4995 -0.5622
 7824SOL    HW134931   1.591   3.729   2.047 -2.1449 -1.4304 -0.9393
 7824SOL    HW234932   1.572   3.655   1.917 -0.7291 -0.4797  0.9027
 7825SOL     OW34933   0.001   2.217   9.398  0.2623  0.6642 -1.0840
 7825SOL    HW134934   4.654   2.259   9.347  0.2852  1.6257 -0.3324
 7825SOL    HW234935   0.050   2.296   9.424  0.1121  0.3217  0.2569
 7826SOL     OW34936   0.714   3.770   6.785 -0.3521  0.4636 -0.9886
 7826SOL    HW134937   0.804   3.756   6.755  0.2898 -0.2922  1.3366
 7826SOL    HW234938   0.710   3.729   6.871 -2.6510 -2.1793 -2.3614
 7827SOL     OW34939   1.361   2.128   9.423 -0.4683 -0.3130 -0.2597
 7827SOL    HW134940   1.415   2.050   9.410 -1.1321 -0.5124 -1.7191
 7827SOL    HW234941   1.374   2.148   9.516 -2.2315 -1.5631  0.2660
 7828SOL     OW34942   3.617   3.208   8.009  0.3229  0.2946 -0.3232
 7828SOL    HW134943   3.607   3.211   8.104  2.4323 -0.2774 -0.0805
 7828SOL    HW234944   3.532   3.171   7.986 -0.1252  0.7971  0.5460
 7829SOL     OW34945   1.390   1.807   6.437  0.0832 -0.1650  0.2726
 7829SOL    HW134946   1.369   1.889   6.394  0.7160 -1.6091 -2.7944
 7829SOL    HW234947   1.478   1.782   6.408 -0.4465 -0.2573 -1.2413
 7830SOL     OW34948   3.646   3.237   6.295  0.6663 -0.2657  0.3824
 7830SOL    HW134949   3.707   3.208   6.363 -0.8809  0.9369  2.2959
 7830SOL    HW234950   3.557   3.204   6.307 -0.2973  1.9682 -0.5216
 7831SOL     OW34951   0.536   3.244   0.552  0.0408  0.1712  0.1268
 7831SOL    HW134952   0.445   3.247   0.580  0.3774 -0.8800  1.3136
 7831SOL    HW234953   0.531   3.306   0.479  2.3289 -1.5845 -1.5143
 7832SOL     OW34954   2.105   2.983   8.241 -0.0600 -0.2987  0.0784
 7832SOL    HW134955   2.014   2.953   8.245 -0.2953  0.2227 -1.2079
 7832SOL    HW234956   2.122   2.970   8.148 -0.5773 -0.9956  0.0858
 7833SOL     OW34957   3.551   0.360  10.981 -0.2524  0.3559 -0.5124
 7833SOL    HW134958   3.618   0.385  11.044 -1.9084  4.1322 -0.2447
 7833SOL    HW234959   3.472   0.364  11.036 -1.2184 -2.3583 -1.6966
 7834SOL     OW34960   4.082   3.475   0.070 -0.1273 -0.5925 -0.0911
 7834SOL    HW134961   4.072   3.409   0.139  0.7172  0.5419  1.1130
 7834SOL    HW234962   4.054   3.555   0.115 -2.0508 -1.0641 -0.4235
 7835SOL     OW34963   1.225   2.859   7.058 -0.3767  0.0820 -0.5166
 7835SOL    HW134964   1.157   2.873   6.993 -2.0749 -0.3491  1.1652
 7835SOL    HW234965   1.295   2.833   6.998  0.6480 -0.6130  0.9679
 7836SOL     OW34966   0.662   1.246   2.327  0.5752  0.7991  0.2660
 7836SOL    HW134967   0.680   1.209   2.240  0.7297  0.7402  0.3237
 7836SOL    HW234968   0.744   1.293   2.345 -1.2004  2.8487  2.8927
 7837SOL     OW34969   2.993   1.150   5.576  0.0575 -0.2350  0.5432
 7837SOL    HW134970   2.943   1.200   5.641  0.3560  0.2124  0.4282
 7837SOL    HW234971   2.956   1.063   5.594  1.8283 -1.6522 -2.6625
 7838SOL     OW34972   2.760   0.541  17.471  0.0856 -0.1857 -0.6241
 7838SOL    HW134973   2.760   0.567  17.378 -0.0937  1.0059 -0.2857
 7838SOL    HW234974   2.815   0.466  17.447  0.5388  0.6716 -2.2690
 7839SOL     OW34975   0.548   2.842   1.844 -0.2468  0.3178  0.6783
 7839SOL    HW134976   0.548   2.881   1.757  0.2061 -0.6681  0.2343
 7839SOL    HW234977   0.460   2.861   1.875 -0.7339  1.1042 -1.2130
 7840SOL     OW34978   2.025   1.689  13.367  0.4047  0.4814  0.1144
 7840SOL    HW134979   2.106   1.666  13.411 -0.2539 -0.5877  0.7784
 7840SOL    HW234980   2.050   1.704  13.276 -0.7234 -2.2645 -0.6379
 7841SOL     OW34981   4.111   4.262   5.746 -0.1557 -0.3482  0.4605
 7841SOL    HW134982   4.080   4.213   5.669  1.1786  1.5051 -1.2475
 7841SOL    HW234983   4.041   4.326   5.756 -0.2280 -0.7333  2.4192
 7842SOL     OW34984   1.703   2.628   5.027 -0.2947 -0.3568 -0.0919
 7842SOL    HW134985   1.685   2.722   5.016 -0.5213 -0.4872 -0.8298
 7842SOL    HW234986   1.798   2.628   5.014 -0.4160 -0.0199 -1.0147
 7843SOL     OW34987   4.567   1.576  12.274  0.9136 -0.0771 -0.0781
 7843SOL    HW134988   4.489   1.522  12.266  0.7178  0.2149 -0.1409
 7843SOL    HW234989   4.627   1.524  12.328  0.5168 -0.8228 -0.3568
 7844SOL     OW34990   4.591   0.615   1.156 -0.0983  0.4024  0.2873
 7844SOL    HW134991   4.625   0.682   1.215  0.5944 -1.3402  1.8538
 7844SOL    HW234992   4.629   0.533   1.189  0.0141 -0.6345 -2.4488
 7845SOL     OW34993   3.445   0.980   8.560 -0.0129 -0.0506  0.0120
 7845SOL    HW134994   3.526   0.976   8.612  0.6807 -0.8542 -1.1272
 7845SOL    HW234995   3.461   1.063   8.514  1.3986 -1.6267 -2.3584
 7846SOL     OW34996   4.219   0.042   3.854 -0.3384  0.3351  0.1974
 7846SOL    HW134997   4.197   0.053   3.762  0.9044 -1.6532 -0.3471
 7846SOL    HW234998   4.188   4.673   3.866  0.9452 -0.0016  1.0684
 7847SOL     OW34999   1.216   0.294   6.452 -0.3650 -0.5432 -0.4765
 7847SOL    HW135000   1.302   0.316   6.489 -0.8279  0.6967 -0.1459
 7847SOL    HW235001   1.149   0.324   6.514 -0.3181 -2.2555  0.4022
 7848SOL     OW35002   1.410   1.885  11.929  0.1247 -0.0120  0.6929
 7848SOL    HW135003   1.391   1.884  11.835  0.7117 -0.8334  0.5793
 7848SOL    HW235004   1.343   1.820  11.952  0.1953 -1.0521 -1.9568
 7849SOL     OW35005   4.225   1.672   7.868  0.0714 -0.8805 -0.3552
 7849SOL    HW135006   4.171   1.751   7.871 -0.5479 -1.2319 -2.4198
 7849SOL    HW235007   4.313   1.708   7.882  0.1654 -0.1330 -2.8390
 7850SOL     OW35008   1.889   4.430  15.498  0.1893  0.0635 -0.3056
 7850SOL    HW135009   1.902   4.382  15.416  2.6117  1.8997 -1.0020
 7850SOL    HW235010   1.831   4.366  15.540  0.3243 -0.5205 -1.0023
 7851SOL     OW35011   2.150   3.991   0.129  0.5478 -0.5639  0.4943
 7851SOL    HW135012   2.097   3.953   0.199 -0.8648  3.3037  1.5281
 7851SOL    HW235013   2.233   3.945   0.139  0.3978 -1.1476 -0.9963
 7852SOL     OW35014   3.591   2.743   4.298  0.8975  0.2276  0.1824
 7852SOL    HW135015   3.642   2.677   4.251  0.0971 -0.5097  0.3373
 7852SOL    HW235016   3.609   2.716   4.388  0.4942  1.1981  0.5517
 7853SOL     OW35017   0.180   0.738  13.647  0.5805 -0.1791  0.0365
 7853SOL    HW135018   0.153   0.692  13.567  0.7631 -0.6302  0.2308
 7853SOL    HW235019   0.127   0.818  13.641 -0.5043 -0.8997 -0.0866
 7854SOL     OW35020   2.640   2.362   4.436 -0.2138 -0.2408 -0.1004
 7854SOL    HW135021   2.732   2.341   4.419  0.1080 -0.0978  1.4209
 7854SOL    HW235022   2.598   2.276   4.426  1.2982 -0.9910 -0.1334
 7855SOL     OW35023   3.281   0.051  16.257 -0.1547 -0.9491  0.0140
 7855SOL    HW135024   3.310   0.030  16.168 -1.0312 -4.2602  0.4945
 7855SOL    HW235025   3.258   4.691  16.301 -0.9347 -1.3413 -1.1175
 7856SOL     OW35026   1.212   3.355   2.912  0.2611  0.3225  0.3347
 7856SOL    HW135027   1.137   3.299   2.932  0.4275  0.8090  2.3549
 7856SOL    HW235028   1.188   3.393   2.828 -0.1644  0.6322  0.5947
 7857SOL     OW35029   3.287   1.382   1.694 -0.2961  0.1894  0.2944
 7857SOL    HW135030   3.240   1.311   1.738 -1.6132  0.4557 -0.7057
 7857SOL    HW235031   3.303   1.354   1.604  0.1591 -4.2250  1.7460
 7858SOL     OW35032   1.923   0.244   2.281 -0.0975 -0.1726 -0.1716
 7858SOL    HW135033   1.840   0.287   2.260  0.7081  0.6985 -1.5351
 7858SOL    HW235034   1.954   0.215   2.196  0.6319  1.1980 -0.3798
 7859SOL     OW35035   2.816   0.583  15.564  0.2364  0.2796 -0.0841
 7859SOL    HW135036   2.869   0.510  15.594  0.5725  0.4351 -0.3095
 7859SOL    HW235037   2.818   0.641  15.641 -1.1144  1.3007 -0.8063
 7860SOL     OW35038   4.408   0.427   1.065  0.6701 -0.4983  0.7849
 7860SOL    HW135039   4.442   0.514   1.087 -1.2952  0.2609  0.8164
 7860SOL    HW235040   4.353   0.398   1.138 -0.1150 -0.7495  0.0916
 7861SOL     OW35041   0.550   3.453  11.266  0.3656  0.0263 -0.2964
 7861SOL    HW135042   0.512   3.367  11.278  0.9863 -0.0362  1.1415
 7861SOL    HW235043   0.645   3.448  11.268  0.4954  1.9093 -1.0120
 7862SOL     OW35044   0.693   4.219   7.670 -0.1663 -0.3387 -0.0188
 7862SOL    HW135045   0.616   4.167   7.647 -0.5339  0.0220  0.3859
 7862SOL    HW235046   0.661   4.279   7.738  1.3259 -0.8082  1.0779
 7863SOL     OW35047   0.697   1.909   3.436 -0.0261 -0.0780 -0.4352
 7863SOL    HW135048   0.777   1.880   3.392  0.9645  0.2734  1.1469
 7863SOL    HW235049   0.690   1.846   3.507  2.4432  0.1734  0.0562
 7864SOL     OW35050   0.181   1.912   9.058  0.9392 -0.6234 -0.3891
 7864SOL    HW135051   0.133   1.991   9.082  1.7953  0.0209 -0.8046
 7864SOL    HW235052   0.268   1.952   9.056  1.7071 -2.2691  0.1495
 7865SOL     OW35053   2.529   2.940   8.880 -0.4898 -0.3499 -0.2548
 7865SOL    HW135054   2.563   3.027   8.897 -1.1109 -0.5284  1.9419
 7865SOL    HW235055   2.549   2.934   8.787 -0.2502 -1.5675 -0.1278
 7866SOL     OW35056   0.122   3.633   2.727 -0.2379  0.7120  0.3960
 7866SOL    HW135057   0.152   3.663   2.813 -1.0029 -0.7497  1.1564
 7866SOL    HW235058   0.078   3.554   2.758  3.0108 -1.8665 -1.5043
 7867SOL     OW35059   2.912   0.823  16.474 -0.2851  0.2548  0.1860
 7867SOL    HW135060   2.956   0.905  16.494  0.6468 -1.0777  3.6628
 7867SOL    HW235061   2.944   0.760  16.539  0.0588 -0.0930 -0.3180
 7868SOL     OW35062   1.237   0.513   3.553  0.1052  0.4051 -0.1666
 7868SOL    HW135063   1.258   0.587   3.610 -0.4231  2.1788 -2.3212
 7868SOL    HW235064   1.309   0.453   3.576  0.5504  0.5441 -1.2013
 7869SOL     OW35065   0.954   0.419   8.723  0.1188  0.4253 -0.1069
 7869SOL    HW135066   0.953   0.490   8.660 -0.1678  1.2377  0.8217
 7869SOL    HW235067   0.969   0.455   8.811 -3.6440 -1.6842  1.4184
 7870SOL     OW35068   1.144   1.584   6.573  0.2648 -0.2717 -0.0422
 7870SOL    HW135069   1.187   1.531   6.506  0.4255  0.5398 -0.5851
 7870SOL    HW235070   1.188   1.668   6.560  2.8196 -1.6716 -0.2856
 7871SOL     OW35071   2.547   2.805   2.418 -0.3472 -0.0701 -0.4654
 7871SOL    HW135072   2.518   2.717   2.393 -0.3063  0.4618 -2.4042
 7871SOL    HW235073   2.635   2.784   2.451 -2.0448 -2.5760  2.3921
 7872SOL     OW35074   2.809   3.086   6.932  0.4230 -0.7632  0.0077
 7872SOL    HW135075   2.741   3.063   6.996  0.2827 -0.8934 -0.1894
 7872SOL    HW235076   2.755   3.087   6.853 -1.2738 -2.8421  1.1617
 7873SOL     OW35077   2.535   0.862   0.786  0.6248  0.2267  0.1239
 7873SOL    HW135078   2.553   0.933   0.724  1.4175 -1.0973 -1.1641
 7873SOL    HW235079   2.492   0.797   0.730  1.2489  0.1044 -0.2200
 7874SOL     OW35080   2.405   3.077   0.220 -0.1377  0.5764 -0.2066
 7874SOL    HW135081   2.379   3.158   0.175 -1.2829 -0.2283 -0.9900
 7874SOL    HW235082   2.377   3.096   0.309 -2.1218  2.2469 -1.1873
 7875SOL     OW35083   1.885   0.869   9.704  0.2541 -0.0792  0.6304
 7875SOL    HW135084   1.971   0.831   9.686  0.1902  0.4088 -0.6814
 7875SOL    HW235085   1.830   0.845   9.629  1.3149 -2.7024  0.7038
 7876SOL     OW35086   2.429   0.245   2.184  0.1506 -0.1182  0.2311
 7876SOL    HW135087   2.402   0.253   2.276 -1.8362  1.8442 -0.5294
 7876SOL    HW235088   2.405   0.324   2.136 -0.4748 -0.6177 -0.2788
 7877SOL     OW35089   3.380   2.711   3.992  0.2352  0.4641 -0.5987
 7877SOL    HW135090   3.468   2.716   3.956  0.3425 -0.3156 -0.4551
 7877SOL    HW235091   3.394   2.784   4.053  1.0353  0.2490 -0.5285
 7878SOL     OW35092   2.480   4.011  17.625 -0.2424 -0.3365 -0.3918
 7878SOL    HW135093   2.401   4.053  17.593 -1.2715 -0.6019  1.8174
 7878SOL    HW235094   2.511   3.977  17.541 -0.6942  0.5314 -0.9116
 7879SOL     OW35095   1.312   4.026   7.290  0.8547  0.7907  0.3753
 7879SOL    HW135096   1.326   3.935   7.266 -1.2009  0.2003  1.4708
 7879SOL    HW235097   1.374   4.077   7.236  1.4459  0.7064  0.9734
 7880SOL     OW35098   1.629   4.664   4.067  0.2013  0.1754  0.1868
 7880SOL    HW135099   1.546   4.616   4.063 -1.1202  2.3578  0.8839
 7880SOL    HW235100   1.678   4.597   4.114  1.8533  3.1682  2.7162
 7881SOL     OW35101   3.176   3.752   3.107  0.7348  0.5077  0.2400
 7881SOL    HW135102   3.222   3.819   3.056 -1.6844  0.8201 -1.5212
 7881SOL    HW235103   3.122   3.709   3.041  0.5300 -0.3654  0.9869
 7882SOL     OW35104   2.133   1.836  14.873 -0.6507 -0.7881 -0.1067
 7882SOL    HW135105   2.172   1.842  14.961 -0.4921  1.1203 -0.3030
 7882SOL    HW235106   2.217   1.836  14.827  0.7732 -3.9735  2.4615
 7883SOL     OW35107   2.199   3.735  12.623  0.8470  0.2079 -0.3521
 7883SOL    HW135108   2.234   3.799  12.685 -3.2825  2.0048  0.1763
 7883SOL    HW235109   2.202   3.655  12.675  0.3150  1.2662  1.2960
 7884SOL     OW35110   2.607   0.267   6.771 -0.1832  0.0463 -0.1005
 7884SOL    HW135111   2.600   0.173   6.756 -0.1978  0.1266 -0.6307
 7884SOL    HW235112   2.700   0.283   6.756 -0.0425  0.1591  0.9604
 7885SOL     OW35113   4.687   1.953  16.431  0.3889 -0.7058 -0.0302
 7885SOL    HW135114   4.618   1.894  16.400 -1.3069  1.0051  0.4588
 7885SOL    HW235115   4.707   1.999  16.349  2.7833 -2.2464 -0.3302
 7886SOL     OW35116   2.184   0.513   6.834  0.6858 -0.1204 -0.3758
 7886SOL    HW135117   2.275   0.507   6.807  0.8339  1.2811 -0.1724
 7886SOL    HW235118   2.133   0.457   6.775 -0.8919  1.7646 -0.8090
 7887SOL     OW35119   3.431   4.175   0.569 -0.7434 -0.2852 -0.3826
 7887SOL    HW135120   3.426   4.158   0.475  1.7221  0.6173 -0.6855
 7887SOL    HW235121   3.340   4.147   0.581 -0.8546  1.6025  3.4577
 7888SOL     OW35122   2.127   0.221   1.069 -0.5131  0.8146 -0.2335
 7888SOL    HW135123   2.049   0.241   1.018 -0.7507 -0.7340 -0.4915
 7888SOL    HW235124   2.191   0.273   1.021 -0.2466 -0.0970 -0.8650
 7889SOL     OW35125   0.844   3.863  16.841 -0.7290  0.2321  0.0572
 7889SOL    HW135126   0.840   3.844  16.935 -1.2554 -0.8596 -0.1949
 7889SOL    HW235127   0.867   3.778  16.805 -1.1352 -0.0865  0.5583
 7890SOL     OW35128   1.140   4.656  17.335  0.3129  0.1292 -0.3773
 7890SOL    HW135129   1.152   4.594  17.263  0.2894 -0.3026 -0.0162
 7890SOL    HW235130   1.229   4.669  17.368  0.3142 -2.4660  0.6598
 7891SOL     OW35131   3.828   0.157   2.220  0.0983 -0.1796 -0.2295
 7891SOL    HW135132   3.755   0.179   2.279  1.2364  1.4677  0.5612
 7891SOL    HW235133   3.811   0.063   2.211 -1.7395  0.5171 -3.9904
 7892SOL     OW35134   2.985   0.135   2.236 -0.2507  0.5053 -0.2843
 7892SOL    HW135135   2.922   0.206   2.248 -1.0152  0.3407 -3.2446
 7892SOL    HW235136   3.067   0.185   2.235 -0.6435  1.1720  1.3110
 7893SOL     OW35137   0.387   0.905  16.026  0.3540 -0.1365 -0.1845
 7893SOL    HW135138   0.405   0.999  16.018 -1.1052  0.2925  1.6226
 7893SOL    HW235139   0.455   0.881  16.089 -1.1399  1.9564  2.1919
 7894SOL     OW35140   1.366   0.788   0.230 -0.1927  0.6129  0.4589
 7894SOL    HW135141   1.448   0.774   0.182 -0.5350  3.5774 -0.9731
 7894SOL    HW235142   1.319   0.858   0.185  0.6404 -0.2443 -1.7585
 7895SOL     OW35143   2.367   0.583  14.954 -0.4156  0.0031 -0.6165
 7895SOL    HW135144   2.403   0.555  15.039  1.9603  0.0901 -1.5783
 7895SOL    HW235145   2.279   0.547  14.960 -0.9367  1.6124  1.4339
 7896SOL     OW35146   1.971   0.276  14.149 -0.0513 -0.1096 -0.1694
 7896SOL    HW135147   1.909   0.240  14.212  0.9807  1.8422  1.9584
 7896SOL    HW235148   1.917   0.293  14.072 -0.7471  1.2004  0.6099
 7897SOL     OW35149   1.846   2.845   8.219 -0.5689  0.5762 -0.1277
 7897SOL    HW135150   1.803   2.767   8.186 -0.9018 -0.0378  1.7955
 7897SOL    HW235151   1.792   2.873   8.292  0.7664  1.7052  0.4203
 7898SOL     OW35152   1.463   3.774  16.726  0.6077 -0.8559  0.8259
 7898SOL    HW135153   1.419   3.859  16.721 -1.6092 -2.0649 -0.0791
 7898SOL    HW235154   1.390   3.719  16.753 -0.5625 -0.4070 -1.4280
 7899SOL     OW35155   2.092   1.305   6.129  0.5851  0.0572  0.2048
 7899SOL    HW135156   2.182   1.300   6.164  0.3968  0.0434  0.6874
 7899SOL    HW235157   2.065   1.216   6.110 -2.2643  0.9909 -0.0257
 7900SOL     OW35158   0.534   3.666  16.289 -0.2505  0.1241 -0.0763
 7900SOL    HW135159   0.578   3.750  16.279 -1.7518  0.7648 -1.1971
 7900SOL    HW235160   0.575   3.621  16.363  0.1481 -0.7061 -0.7995
 7901SOL     OW35161   0.801   0.370   0.817 -0.2747  0.5924 -0.3384
 7901SOL    HW135162   0.711   0.344   0.798 -0.6534  0.5278  1.5093
 7901SOL    HW235163   0.786   0.384   0.911 -2.0189  2.2384 -0.8484
 7902SOL     OW35164   4.559   2.246   1.746  0.1623 -0.6619  0.3508
 7902SOL    HW135165   4.582   2.297   1.823 -0.8409 -1.7246  1.3509
 7902SOL    HW235166   4.495   2.184   1.781 -2.1513  0.6596 -1.6144
 7903SOL     OW35167   1.342   3.054   3.376  0.5866 -0.0321  0.5390
 7903SOL    HW135168   1.374   3.088   3.460 -4.1740 -0.6452  2.6060
 7903SOL    HW235169   1.250   3.070   3.399  0.0212 -2.0994 -0.3858
 7904SOL     OW35170   3.323   0.615   6.415 -0.0925  0.2381 -0.3210
 7904SOL    HW135171   3.335   0.542   6.354  3.3367  0.9658 -0.4987
 7904SOL    HW235172   3.396   0.595   6.473 -0.2812  0.3914 -0.0331
 7905SOL     OW35173   2.750   0.842   5.417  0.3763 -0.2015 -0.0538
 7905SOL    HW135174   2.760   0.850   5.322 -1.1828 -1.4700 -0.3200
 7905SOL    HW235175   2.705   0.925   5.435  0.9304  0.7764 -3.1520
 7906SOL     OW35176   3.792   1.879   7.345  0.0560  0.6018  0.0112
 7906SOL    HW135177   3.873   1.877   7.397 -0.3362 -0.3633  0.5920
 7906SOL    HW235178   3.804   1.791   7.310 -3.7624 -0.4338  1.3246
 7907SOL     OW35179   2.829   4.052   2.964  0.0265  0.3963  0.4653
 7907SOL    HW135180   2.850   3.997   2.889 -1.6163  0.6151 -0.1529
 7907SOL    HW235181   2.846   4.142   2.935  0.0236  0.8424  1.8402
 7908SOL     OW35182   3.426   3.941   5.004  0.3120  0.1780  0.4949
 7908SOL    HW135183   3.466   3.984   5.079  1.3084  2.6030 -1.4317
 7908SOL    HW235184   3.507   3.903   4.971 -0.9965 -1.0734 -1.3261
 7909SOL     OW35185   0.830   1.306   1.167 -0.2755 -0.6662  0.2113
 7909SOL    HW135186   0.747   1.329   1.209 -0.9279 -3.0674  0.2386
 7909SOL    HW235187   0.819   1.366   1.094  3.4510  0.5283  0.6339
 7910SOL     OW35188   1.071   0.556   6.307  0.4851 -0.4995  0.2171
 7910SOL    HW135189   1.110   0.469   6.319  0.1868 -0.3663  2.2296
 7910SOL    HW235190   1.106   0.597   6.386 -0.4725 -2.1482  1.4920
 7911SOL     OW35191   0.072   4.403   3.115  0.5085  0.4916  0.0547
 7911SOL    HW135192   0.002   4.468   3.105  1.1893  1.1314 -0.4887
 7911SOL    HW235193   0.042   4.348   3.188  1.9554 -0.2990  0.0379
 7912SOL     OW35194   0.737   4.445  15.644  0.3572 -0.1141 -0.5354
 7912SOL    HW135195   0.823   4.445  15.601  1.3807 -0.5988  1.5051
 7912SOL    HW235196   0.680   4.399  15.582 -0.0146 -0.7315  0.2714
 7913SOL     OW35197   1.524   0.509  11.255 -0.3872 -0.4130  0.5072
 7913SOL    HW135198   1.620   0.506  11.253 -0.3753  1.0066 -0.9611
 7913SOL    HW235199   1.502   0.527  11.346 -2.0856  0.7381 -0.1478
 7914SOL     OW35200   2.483   0.694   0.996  0.6247  0.7959 -0.2242
 7914SOL    HW135201   2.418   0.728   0.935 -0.7905 -0.1970  0.7142
 7914SOL    HW235202   2.565   0.743   0.984  0.8168  0.6990  0.6528
 7915SOL     OW35203   1.023   0.390   4.989  0.2320 -0.0878 -0.1724
 7915SOL    HW135204   1.010   0.454   5.060 -3.2394 -1.4178  0.4036
 7915SOL    HW235205   0.944   0.337   4.997  0.0127  0.1260 -0.9863
 7916SOL     OW35206   1.014   2.870   6.860 -0.6117 -1.0184 -0.0144
 7916SOL    HW135207   0.933   2.914   6.835  1.4442  2.7887 -0.0769
 7916SOL    HW235208   1.052   2.862   6.773 -0.5545  0.6620 -0.1453
 7917SOL     OW35209   2.548   4.221  11.746  0.2898 -0.2515  0.0538
 7917SOL    HW135210   2.590   4.151  11.696  0.9533  0.2386 -0.0658
 7917SOL    HW235211   2.602   4.216  11.825  1.6588 -3.8224 -1.1182
 7918SOL     OW35212   1.509   3.774   1.429  0.1778  0.1310 -0.9531
 7918SOL    HW135213   1.543   3.846   1.375  3.2100 -0.3557  0.3385
 7918SOL    HW235214   1.414   3.785   1.424  0.2002  0.6216 -0.3014
 7919SOL     OW35215   3.590   0.096   4.252  0.6438 -0.3944  0.6284
 7919SOL    HW135216   3.574   0.002   4.264 -1.3813 -0.1875 -0.5233
 7919SOL    HW235217   3.596   0.125   4.343  1.3829  0.5694  0.2690
 7920SOL     OW35218   0.169   0.576   6.259  0.0167  0.2927  0.1249
 7920SOL    HW135219   0.083   0.585   6.301  0.2874 -0.4614  0.8139
 7920SOL    HW235220   0.208   0.489   6.264  0.3744  0.4300 -0.2805
 7921SOL     OW35221   1.285   4.492   1.706  0.6274 -0.3709  0.2135
 7921SOL    HW135222   1.200   4.534   1.690  1.3362  0.2931 -1.8043
 7921SOL    HW235223   1.328   4.551   1.767 -1.5395  1.7563 -0.3377
 7922SOL     OW35224   4.566   2.378  16.495 -0.0227  0.3233 -0.4421
 7922SOL    HW135225   4.554   2.289  16.529 -1.3160  0.6546 -0.0480
 7922SOL    HW235226   4.597   2.369  16.405  0.4499  0.3453 -0.2844
 7923SOL     OW35227   3.618   4.334   3.602  0.3626 -0.1674 -0.6603
 7923SOL    HW135228   3.676   4.411   3.608  1.0721 -0.7334 -0.2700
 7923SOL    HW235229   3.641   4.283   3.679  0.0703 -0.3548 -0.6991
 7924SOL     OW35230   0.370   2.193   1.797  0.3721 -0.1226  0.3565
 7924SOL    HW135231   0.344   2.202   1.705  1.9747  0.4117 -0.0481
 7924SOL    HW235232   0.401   2.103   1.806 -0.6586 -0.3074  1.9963
 7925SOL     OW35233   1.228   0.668   6.521  0.2967  0.1106 -0.0011
 7925SOL    HW135234   1.227   0.646   6.614 -2.2696 -1.1762 -0.3456
 7925SOL    HW235235   1.259   0.759   6.526 -2.0943  0.9631 -0.8655
 7926SOL     OW35236   4.334   0.537  12.892 -0.4706  0.0180 -0.6529
 7926SOL    HW135237   4.323   0.467  12.957  0.8863 -0.7776 -1.2927
 7926SOL    HW235238   4.270   0.507  12.827 -0.5663 -0.8387 -0.1638
 7927SOL     OW35239   4.527   2.670  13.663  0.0343  0.2071 -0.4759
 7927SOL    HW135240   4.622   2.673  13.673 -0.0920 -0.8847  1.0116
 7927SOL    HW235241   4.497   2.756  13.691 -0.3032 -0.4245  1.1268
 7928SOL     OW35242   1.320   0.155   2.625  0.2224 -0.1479  0.1942
 7928SOL    HW135243   1.308   0.250   2.628 -0.9641 -0.2693 -0.5480
 7928SOL    HW235244   1.263   0.134   2.551 -0.2021 -0.8670  0.7196
 7929SOL     OW35245   1.645   2.181   3.176  0.2103  0.0330  0.5900
 7929SOL    HW135246   1.572   2.233   3.211  0.1903 -0.8562  1.8899
 7929SOL    HW235247   1.699   2.183   3.255 -0.6999  1.9430  1.1710
 7930SOL     OW35248   0.849   4.111   6.521  0.1817  0.2460 -0.1075
 7930SOL    HW135249   0.915   4.165   6.566  1.1817 -1.2231  0.2130
 7930SOL    HW235250   0.859   4.125   6.427  2.8518 -0.7907  0.0022
 7931SOL     OW35251   3.309   0.766   8.207 -0.0933  0.2302  0.1930
 7931SOL    HW135252   3.274   0.677   8.202  0.5182 -0.1635  2.8244
 7931SOL    HW235253   3.362   0.752   8.285  1.5022  0.3842 -0.8452
 7932SOL     OW35254   2.564   2.468   0.994 -0.0160  0.2287  0.4369
 7932SOL    HW135255   2.529   2.502   0.912  0.0788 -0.3125  0.1761
 7932SOL    HW235256   2.527   2.538   1.048  0.1138 -0.9597  2.0638
 7933SOL     OW35257   0.887   1.502   7.382  0.4414 -0.4839 -0.5430
 7933SOL    HW135258   0.897   1.421   7.431  1.2037  0.0632  0.2116
 7933SOL    HW235259   0.979   1.529   7.391  0.2992  0.2586 -1.3038
 7934SOL     OW35260   0.403   4.309  10.849  0.0239  0.2283  0.4266
 7934SOL    HW135261   0.376   4.219  10.867  1.0779 -0.0637  0.6016
 7934SOL    HW235262   0.340   4.360  10.900  0.5325  0.4216  0.8663
 7935SOL     OW35263   4.671   0.793   1.350  0.1367  0.1781 -0.4577
 7935SOL    HW135264   4.685   0.885   1.328 -1.0291  0.4968  0.1368
 7935SOL    HW235265   4.711   0.795   1.437 -0.6929 -1.7597 -0.0208
 7936SOL     OW35266   3.462   3.799  10.195  0.0222 -0.4852  0.7247
 7936SOL    HW135267   3.490   3.711  10.169  0.4544 -0.1470  0.0392
 7936SOL    HW235268   3.542   3.851  10.190 -1.9276  2.5970  1.3417
 7937SOL     OW35269   2.349   4.444  11.410  0.5865  0.1569 -0.1831
 7937SOL    HW135270   2.381   4.473  11.324  0.6878  0.0139 -0.1944
 7937SOL    HW235271   2.255   4.459  11.409  0.9229  2.3103 -0.1224
 7938SOL     OW35272   1.334   2.756   6.480 -0.0123 -0.3584 -0.5555
 7938SOL    HW135273   1.274   2.723   6.547 -0.3075  0.7268 -0.2879
 7938SOL    HW235274   1.372   2.679   6.437  1.0478  0.4454 -1.0654
 7939SOL     OW35275   2.060   4.681   8.613  0.0181  0.0220 -0.2660
 7939SOL    HW135276   2.125   4.720   8.672 -1.5641  2.7074 -0.2568
 7939SOL    HW235277   2.019   4.627   8.679  1.2620  0.0726  0.5471
 7940SOL     OW35278   0.701   0.715   7.102 -0.6960  0.2463 -0.4049
 7940SOL    HW135279   0.636   0.691   7.037 -0.6473  0.5399 -0.5645
 7940SOL    HW235280   0.768   0.647   7.092  1.3449  2.3035 -0.8957
 7941SOL     OW35281   0.308   0.531   1.165 -0.4666 -0.5759 -0.0106
 7941SOL    HW135282   0.365   0.536   1.089  0.7446 -0.3403  0.9212
 7941SOL    HW235283   0.289   0.623   1.148  0.9197 -0.0997  1.0755
 7942SOL     OW35284   3.901   1.037   3.157 -0.0704 -0.3945  0.3526
 7942SOL    HW135285   3.979   0.999   3.116  0.6467  1.1796  0.2587
 7942SOL    HW235286   3.891   1.108   3.094 -0.6418 -0.2451  0.6122
 7943SOL     OW35287   4.503   1.516   6.604  0.0519 -0.3992  0.2816
 7943SOL    HW135288   4.479   1.579   6.536 -0.0566 -1.5770 -0.7721
 7943SOL    HW235289   4.425   1.463   6.623  1.3233 -1.8263  1.5457
 7944SOL     OW35290   1.118   0.741   9.116 -1.0040  0.2497  0.1668
 7944SOL    HW135291   1.070   0.735   9.034  1.4650  1.6246 -1.4047
 7944SOL    HW235292   1.124   0.835   9.133  0.9215  0.1162  0.2650
 7945SOL     OW35293   3.625   4.701   6.890 -0.8699 -0.2890 -0.4124
 7945SOL    HW135294   3.696   0.013   6.945  1.6336 -1.4825 -2.8757
 7945SOL    HW235295   3.557   0.042   6.914  1.6314  2.1424  0.3550
 7946SOL     OW35296   0.809   0.882   6.370  0.2019 -0.3341  0.2477
 7946SOL    HW135297   0.891   0.898   6.323  0.3479 -2.0624 -0.0993
 7946SOL    HW235298   0.825   0.937   6.446  3.1911 -0.4246 -0.3233
 7947SOL     OW35299   3.627   1.308  17.619 -0.6425 -0.1625  0.0123
 7947SOL    HW135300   3.642   1.357   0.012 -1.1041 -0.9586  0.5771
 7947SOL    HW235301   3.636   1.217  17.647 -2.6993  0.5725  3.0514
 7948SOL     OW35302   4.038   4.007   3.944  0.4124 -0.3542  0.6451
 7948SOL    HW135303   4.122   3.963   3.927 -0.1030 -0.8538 -0.5847
 7948SOL    HW235304   3.991   3.950   4.004  0.0331 -0.0497  0.6359
 7949SOL     OW35305   1.314   2.882  11.675  0.1600  0.1955 -0.4551
 7949SOL    HW135306   1.331   2.797  11.716 -0.1693  0.9861  1.2968
 7949SOL    HW235307   1.375   2.887  11.601  0.1542 -0.8832 -0.5395
 7950SOL     OW35308   4.180   0.967   6.400 -0.1351 -0.5646 -0.4747
 7950SOL    HW135309   4.230   0.978   6.481 -2.2970 -1.6131  1.0083
 7950SOL    HW235310   4.158   1.057   6.378  1.0707  0.4795  2.5783
 7951SOL     OW35311   0.197   3.617   7.176 -0.1602  0.1188  0.6352
 7951SOL    HW135312   0.190   3.521   7.175  1.0034  0.0092  2.8034
 7951SOL    HW235313   0.230   3.633   7.087  0.3810 -0.1054  0.7929
 7952SOL     OW35314   3.244   4.101   2.378  0.7482  0.2993 -0.0755
 7952SOL    HW135315   3.304   4.075   2.448  1.3180 -1.8238 -1.3579
 7952SOL    HW235316   3.254   4.025   2.321  1.3537  0.0657  0.3358
 7953SOL     OW35317   1.022   4.607  10.300  0.0914  0.2833 -0.2238
 7953SOL    HW135318   1.111   4.641  10.285 -0.3500  0.0971 -3.1358
 7953SOL    HW235319   0.969   4.650  10.234 -1.5882 -0.7033  0.4874
 7954SOL     OW35320   1.048   2.290   4.436 -0.8493  0.2729 -0.1116
 7954SOL    HW135321   1.071   2.199   4.420  0.4183  0.6555 -0.4853
 7954SOL    HW235322   0.973   2.296   4.376 -2.1336 -1.6283  1.2866
 7955SOL     OW35323   2.708   3.740   2.922 -0.0953  0.4176  0.4143
 7955SOL    HW135324   2.633   3.731   2.981  1.5698  0.3069  2.5042
 7955SOL    HW235325   2.699   3.665   2.863  1.0805 -0.4116  1.3054
 7956SOL     OW35326   1.884   3.320  13.395 -0.0860  0.7176 -0.2884
 7956SOL    HW135327   1.792   3.294  13.396  0.2704 -0.6955 -3.2885
 7956SOL    HW235328   1.877   3.412  13.371  0.8861  0.5192 -1.3353
 7957SOL     OW35329   2.658   1.480   2.878 -0.0481 -0.5227 -0.4056
 7957SOL    HW135330   2.623   1.409   2.824  0.2798 -1.0242  0.0464
 7957SOL    HW235331   2.627   1.459   2.966 -2.5342  0.8084 -0.9599
 7958SOL     OW35332   2.784   3.412   2.188 -0.3894 -0.3492 -0.2216
 7958SOL    HW135333   2.801   3.332   2.137 -2.8853 -1.3914  0.5388
 7958SOL    HW235334   2.696   3.441   2.161 -0.4512  1.0863  1.5797
 7959SOL     OW35335   2.994   3.940   4.861 -0.0305 -0.2132 -0.4537
 7959SOL    HW135336   2.982   3.946   4.956  0.8823 -0.5906 -0.3134
 7959SOL    HW235337   2.917   3.886   4.847 -1.4347  1.8318 -0.6717
 7960SOL     OW35338   1.858   1.861  14.732  0.3263 -0.7016  0.3628
 7960SOL    HW135339   1.922   1.814  14.785  0.2930 -2.5430 -1.2349
 7960SOL    HW235340   1.783   1.804  14.746 -0.1664  0.2921  1.8381
 7961SOL     OW35341   0.536   2.106  13.632 -0.3815  0.1315 -0.4894
 7961SOL    HW135342   0.612   2.159  13.658 -0.3895 -0.8828  1.6355
 7961SOL    HW235343   0.563   2.015  13.619 -0.8929 -0.3140  1.4486
 7962SOL     OW35344   1.112   3.857   1.698  0.1480 -0.2688  0.0840
 7962SOL    HW135345   1.072   3.892   1.618 -1.3610 -0.7736  0.6237
 7962SOL    HW235346   1.101   3.762   1.697  0.5061 -0.3252  1.6257
 7963SOL     OW35347   3.547   4.332  13.339  0.1401  0.1928  0.2836
 7963SOL    HW135348   3.503   4.406  13.380 -0.6558  0.0814 -0.3914
 7963SOL    HW235349   3.632   4.326  13.383  0.8093  3.0938 -0.5688
 7964SOL     OW35350   1.410   2.371   2.550 -0.4000  0.7011  0.4936
 7964SOL    HW135351   1.453   2.308   2.492 -0.4125  0.1673  1.0664
 7964SOL    HW235352   1.439   2.446   2.499 -2.0544  1.4177  0.6229
 7965SOL     OW35353   2.467   3.722  15.326  0.3694 -0.1634 -0.3127
 7965SOL    HW135354   2.508   3.798  15.367  1.0584 -1.4726  1.4605
 7965SOL    HW235355   2.468   3.654  15.394 -0.9057  1.5141  1.3815
 7966SOL     OW35356   3.603   0.488   8.834  0.2515 -0.1670 -0.8850
 7966SOL    HW135357   3.539   0.446   8.892 -1.1586  2.3937 -0.6036
 7966SOL    HW235358   3.649   0.541   8.900 -0.8891  0.2983 -0.4659
 7967SOL     OW35359   3.304   3.603   4.728 -0.5587 -0.4429 -0.1451
 7967SOL    HW135360   3.337   3.692   4.738 -0.8282 -0.3532 -0.0723
 7967SOL    HW235361   3.377   3.547   4.698 -1.6327 -2.6603  1.3455
 7968SOL     OW35362   1.146   2.510   7.162 -0.1212 -0.3657 -0.4348
 7968SOL    HW135363   1.085   2.564   7.112 -0.4587  1.2679  1.7531
 7968SOL    HW235364   1.142   2.433   7.105  0.1419 -0.1363 -0.7585
 7969SOL     OW35365   1.526   0.007   6.284  0.6130 -0.2407 -0.2031
 7969SOL    HW135366   1.594   0.066   6.315 -0.6740  1.4849 -0.6858
 7969SOL    HW235367   1.540   0.008   6.190  1.3338  0.1053 -0.0854
 7970SOL     OW35368   1.946   3.365   6.251  0.1854  0.2015 -0.1369
 7970SOL    HW135369   1.876   3.312   6.216 -0.5239  1.5087 -0.7039
 7970SOL    HW235370   1.977   3.310   6.323 -0.0105 -0.6879 -0.7361
 7971SOL     OW35371   3.902   0.408  12.117  0.3627  0.7138 -0.2446
 7971SOL    HW135372   3.951   0.384  12.195 -1.3123  1.8239  1.1460
 7971SOL    HW235373   3.814   0.395  12.153  0.8059  3.1704  1.7145
 7972SOL     OW35374   3.852   0.308   8.998  0.5362  0.0881  0.1299
 7972SOL    HW135375   3.758   0.293   8.997  0.3397  1.2572  1.6721
 7972SOL    HW235376   3.874   0.306   9.091 -1.0484 -0.7128  0.4773
 7973SOL     OW35377   1.334   4.639   0.237  0.9426 -0.2227  0.2244
 7973SOL    HW135378   1.297   4.634   0.148  1.4581  0.2658 -0.0174
 7973SOL    HW235379   1.291   4.715   0.276  0.4373 -1.5072  2.1566
 7974SOL     OW35380   1.452   4.301   3.689 -0.0194  0.1305 -0.3310
 7974SOL    HW135381   1.431   4.389   3.721  0.9304  0.0717  0.4457
 7974SOL    HW235382   1.461   4.259   3.774  0.5679  0.8090 -0.0564
 7975SOL     OW35383   3.154   3.384  11.771  1.1902  0.6700  0.2546
 7975SOL    HW135384   3.174   3.346  11.686 -0.2700  1.0808 -0.2733
 7975SOL    HW235385   3.115   3.314  11.824 -0.2352  2.6362  1.8077
 7976SOL     OW35386   1.916   2.539   6.058  0.4367  0.3191 -0.0550
 7976SOL    HW135387   1.911   2.453   6.018 -2.9886  0.0790  0.9054
 7976SOL    HW235388   1.831   2.579   6.042 -0.0801  0.1078  2.1028
 7977SOL     OW35389   0.540   3.625  11.753 -0.1887 -0.1063 -0.0580
 7977SOL    HW135390   0.534   3.685  11.827  0.9119 -0.1943  0.1128
 7977SOL    HW235391   0.633   3.605  11.764  0.0531  0.8017 -0.5054
 7978SOL     OW35392   3.847   1.063   5.172  0.1915  0.2225 -0.9416
 7978SOL    HW135393   3.822   1.155   5.166  1.4895  0.7770  2.4353
 7978SOL    HW235394   3.930   1.078   5.217 -0.3222  1.9025 -0.5689
 7979SOL     OW35395   2.914   3.538   5.688 -0.6514 -0.2752 -0.3943
 7979SOL    HW135396   2.905   3.450   5.726 -3.0671 -0.2841 -1.0323
 7979SOL    HW235397   3.002   3.543   5.650 -0.3001 -1.4229  0.2489
 7980SOL     OW35398   2.272   1.501   8.058  0.2226  0.4081  0.0315
 7980SOL    HW135399   2.205   1.442   8.092 -0.6024  1.6142  0.5183
 7980SOL    HW235400   2.279   1.564   8.130  3.0966 -1.3023  1.2785
 7981SOL     OW35401   1.441   3.584   5.898  0.6603  0.3252  0.5348
 7981SOL    HW135402   1.409   3.647   5.963  0.1550 -0.1125  0.7135
 7981SOL    HW235403   1.359   3.571   5.851  0.9941 -0.1737  0.0918
 7982SOL     OW35404   3.573   2.621   3.716  0.7642 -0.4413 -0.4577
 7982SOL    HW135405   3.622   2.540   3.705 -0.7309 -1.4607  0.3318
 7982SOL    HW235406   3.581   2.658   3.628  1.1075  1.7690  0.5162
 7983SOL     OW35407   2.648   2.454   4.871 -0.1321 -0.2524  0.0306
 7983SOL    HW135408   2.664   2.362   4.847 -0.6503 -0.0485 -1.0877
 7983SOL    HW235409   2.622   2.489   4.786 -2.2147 -1.7507  0.0475
 7984SOL     OW35410   4.497   4.121   7.585 -0.3119  0.2442  0.4455
 7984SOL    HW135411   4.479   4.172   7.506 -0.3958 -1.8258 -0.8842
 7984SOL    HW235412   4.523   4.040   7.540 -0.0600 -0.0259  1.0841
 7985SOL     OW35413   4.525   0.276   6.140  0.3878 -0.1585 -0.3927
 7985SOL    HW135414   4.583   0.318   6.203 -0.6427 -1.0363  1.1300
 7985SOL    HW235415   4.555   0.185   6.148 -2.9526 -1.0659  1.9318
 7986SOL     OW35416   4.421   1.678   3.938 -0.5476 -0.2674  0.3623
 7986SOL    HW135417   4.495   1.740   3.938  0.0739 -1.0124  1.3144
 7986SOL    HW235418   4.358   1.716   3.877 -0.6895 -0.4053  0.4245
 7987SOL     OW35419   2.290   0.329   3.270 -0.0507 -0.9037  0.7719
 7987SOL    HW135420   2.372   0.331   3.220  0.2641 -0.3977  1.3042
 7987SOL    HW235421   2.222   0.321   3.203  1.4090 -0.1733 -0.8150
 7988SOL     OW35422   3.188   0.524   2.244 -0.5780 -0.0576  0.2918
 7988SOL    HW135423   3.196   0.455   2.179 -1.5695  2.1084 -2.1117
 7988SOL    HW235424   3.165   0.602   2.193  2.1495 -1.7401 -3.4702
 7989SOL     OW35425   4.471   0.479   4.916 -0.1778 -0.1020  0.0849
 7989SOL    HW135426   4.413   0.517   4.850  0.1476  2.3944  1.2227
 7989SOL    HW235427   4.552   0.527   4.901 -0.4299 -0.0471 -1.0520
 7990SOL     OW35428   1.029   4.591   0.784 -0.3006  0.6258  0.3351
 7990SOL    HW135429   1.082   4.643   0.724  0.5768 -1.1143 -0.3932
 7990SOL    HW235430   1.093   4.531   0.823 -0.8258  0.0752  0.3596
 7991SOL     OW35431   3.539   0.529  16.353 -0.5652  0.0941  0.1763
 7991SOL    HW135432   3.507   0.550  16.441  1.3519  0.2722  0.8292
 7991SOL    HW235433   3.484   0.454  16.332 -2.2402  1.3935 -0.1116
 7992SOL     OW35434   0.002   2.511   4.163 -0.0406 -0.1093 -0.0228
 7992SOL    HW135435   4.644   2.546   4.124  0.8776 -0.1277 -1.9170
 7992SOL    HW235436   0.064   2.545   4.098  0.5945 -1.0069  0.1093
 7993SOL     OW35437   2.642   1.436   3.424 -0.0811 -0.0412  0.2066
 7993SOL    HW135438   2.660   1.429   3.330 -2.3893  3.5486 -0.5097
 7993SOL    HW235439   2.729   1.441   3.464  0.8141  0.5394 -1.7985
 7994SOL     OW35440   1.939   3.895  14.813 -0.0477 -0.2891 -0.0628
 7994SOL    HW135441   1.962   3.988  14.811  0.0659 -0.2949  1.2192
 7994SOL    HW235442   1.996   3.872  14.740  1.5348  0.5911  0.8843
 7995SOL     OW35443   3.310   1.150   3.965  0.3791  0.5848 -0.2454
 7995SOL    HW135444   3.366   1.121   3.893 -0.1769  1.1822 -0.9152
 7995SOL    HW235445   3.252   1.207   3.916  0.3279  0.7523  0.0092
 7996SOL     OW35446   3.218   0.507   4.382 -0.5677  0.1817 -0.1636
 7996SOL    HW135447   3.152   0.439   4.396  0.5317 -0.9307 -0.3729
 7996SOL    HW235448   3.188   0.542   4.298  1.4248 -0.5336 -1.1708
 7997SOL     OW35449   1.686   3.259   4.202  0.3761  0.9453  0.3135
 7997SOL    HW135450   1.723   3.206   4.273  0.8648  1.1246  0.1935
 7997SOL    HW235451   1.713   3.198   4.133 -0.6131  1.0330 -0.1560
 7998SOL     OW35452   2.650   1.013   1.943  0.3799 -0.1564 -0.2571
 7998SOL    HW135453   2.590   1.023   2.016 -0.2724  0.4575 -0.8763
 7998SOL    HW235454   2.592   1.037   1.871 -2.1186 -1.6051  1.2821
 7999SOL     OW35455   1.670   3.592   8.922  0.3341 -0.3458 -0.0970
 7999SOL    HW135456   1.636   3.678   8.948  1.3122  0.2721 -0.8643
 7999SOL    HW235457   1.645   3.590   8.829  1.2633 -1.8383 -0.3152
 8000SOL     OW35458   2.413   3.795   9.658  0.1519 -0.3543 -0.1648
 8000SOL    HW135459   2.362   3.859   9.709  2.0221  0.7197  0.3454
 8000SOL    HW235460   2.347   3.765   9.596  1.1872 -0.0266 -1.4108
 8001SOL     OW35461   1.162   2.605  14.263 -0.0933 -0.1084  0.1339
 8001SOL    HW135462   1.150   2.515  14.293  0.0050 -0.2831 -0.3496
 8001SOL    HW235463   1.191   2.594  14.173  0.3191 -2.4035  0.5406
 8002SOL     OW35464   0.446   0.402   3.355  0.4593  0.6908 -0.2474
 8002SOL    HW135465   0.452   0.308   3.340 -0.9787  0.5880 -0.1649
 8002SOL    HW235466   0.361   0.424   3.316  0.5178 -1.0382 -1.3739
 8003SOL     OW35467   3.657   1.504   8.027 -0.5774 -0.1260  0.2969
 8003SOL    HW135468   3.672   1.440   7.957  0.6380  1.9666 -1.3449
 8003SOL    HW235469   3.567   1.487   8.055 -0.0216 -1.0561  1.5034
 8004SOL     OW35470   1.682   1.389   9.901  0.4270  0.4292  0.0700
 8004SOL    HW135471   1.633   1.458   9.946  0.8142  0.9639 -0.3272
 8004SOL    HW235472   1.693   1.444   9.823 -3.3404  1.1159  0.0172
 8005SOL     OW35473   1.413   2.106  12.101 -0.2167  0.1678 -0.6465
 8005SOL    HW135474   1.419   2.042  12.029  0.0897  1.4594 -1.7807
 8005SOL    HW235475   1.333   2.151  12.076 -1.0342 -1.0604 -0.2422
 8006SOL     OW35476   3.684   0.883   4.504 -0.2793 -0.3779  0.3340
 8006SOL    HW135477   3.752   0.949   4.521 -3.0099  2.2743  0.8609
 8006SOL    HW235478   3.648   0.920   4.423 -1.2803 -0.3505  0.7951
 8007SOL     OW35479   4.606   3.610   0.267  0.0456  0.4882  0.3528
 8007SOL    HW135480   4.638   3.597   0.356 -0.5026 -2.1534  0.1566
 8007SOL    HW235481   4.559   3.693   0.277 -0.3328 -0.2727  4.9057
 8008SOL     OW35482   0.546   0.640  12.223  0.1614 -0.5812  0.5847
 8008SOL    HW135483   0.483   0.574  12.255 -0.8033 -0.6623 -1.4883
 8008SOL    HW235484   0.563   0.599  12.138  0.1807  0.0368  0.2895
 8009SOL     OW35485   1.230   3.787   6.414  0.5002  0.0699  0.3667
 8009SOL    HW135486   1.173   3.820   6.345 -0.2819 -1.6890  0.1802
 8009SOL    HW235487   1.184   3.812   6.494  3.2362  1.0523  1.6483
 8010SOL     OW35488   3.182   4.283   2.836 -0.6463 -0.1752 -0.4762
 8010SOL    HW135489   3.196   4.196   2.797  2.5437  0.8018 -1.4940
 8010SOL    HW235490   3.270   4.315   2.822 -0.3492 -0.7534  0.0465
 8011SOL     OW35491   0.684   2.556   7.536 -0.4635 -0.4124 -0.9762
 8011SOL    HW135492   0.715   2.645   7.556 -0.1815 -0.6050 -0.5567
 8011SOL    HW235493   0.761   2.505   7.561  0.5374  2.0449  0.9815
 8012SOL     OW35494   2.779   2.452   6.093  0.2987  0.6769 -0.4180
 8012SOL    HW135495   2.801   2.368   6.054  0.1922  0.4842 -0.0686
 8012SOL    HW235496   2.839   2.454   6.167  1.1838  1.0268 -1.1489
 8013SOL     OW35497   0.618   1.668   8.784 -0.1330 -0.1743  0.0124
 8013SOL    HW135498   0.523   1.659   8.790 -0.1553 -0.7257 -1.2532
 8013SOL    HW235499   0.632   1.749   8.834  1.7185  0.0542 -0.8908
 8014SOL     OW35500   0.446   3.592   3.025  0.4840  0.5161  0.2942
 8014SOL    HW135501   0.435   3.639   2.942  2.1308  4.0334  2.0403
 8014SOL    HW235502   0.492   3.651   3.085  0.0720 -0.1323  1.2371
 8015SOL     OW35503   2.214   0.378  14.213 -0.2582 -0.3012 -0.3022
 8015SOL    HW135504   2.143   0.328  14.173  0.3341 -1.9922  0.7839
 8015SOL    HW235505   2.191   0.363  14.304  3.1256 -1.9392  0.2479
 8016SOL     OW35506   2.224   2.315   8.570 -0.4112 -0.1071  0.0791
 8016SOL    HW135507   2.139   2.330   8.612 -0.2274  3.1310 -0.7442
 8016SOL    HW235508   2.190   2.294   8.483  1.0439 -0.9157 -0.2909
 8017SOL     OW35509   4.667   4.192   6.110 -0.6528  0.2121 -0.3960
 8017SOL    HW135510   4.654   4.282   6.080 -1.8050  0.4077  0.6708
 8017SOL    HW235511   4.665   4.149   6.025  0.3122 -1.6436  0.5232
 8018SOL     OW35512   3.520   2.596   7.778  0.0464 -0.5189  0.2270
 8018SOL    HW135513   3.597   2.653   7.770 -0.4866 -0.1750 -2.3472
 8018SOL    HW235514   3.537   2.554   7.863  2.3070  0.9725  0.5323
 8019SOL     OW35515   3.981   1.087  13.045 -0.1490 -0.3164 -0.4393
 8019SOL    HW135516   4.069   1.075  13.009 -0.0831 -0.6340 -0.1729
 8019SOL    HW235517   3.938   1.006  13.017 -1.1057  0.5365 -1.4484
 8020SOL     OW35518   1.862   1.971   1.441  0.2184  0.1429  0.3484
 8020SOL    HW135519   1.857   1.917   1.520 -1.1573 -1.3688 -0.7829
 8020SOL    HW235520   1.804   1.920   1.385  1.1410 -1.1135  0.5372
 8021SOL     OW35521   2.196   2.199   4.940  0.4303  0.0902 -0.2998
 8021SOL    HW135522   2.220   2.292   4.940  0.4006  0.0992 -1.4306
 8021SOL    HW235523   2.211   2.170   4.850 -0.6311 -1.9844  0.1861
 8022SOL     OW35524   1.628   2.142  13.234 -0.4147  0.0815 -0.1312
 8022SOL    HW135525   1.561   2.209  13.240  1.0645  1.5096  0.3513
 8022SOL    HW235526   1.700   2.204  13.221  0.2582  0.1816  3.9781
 8023SOL     OW35527   4.709   4.591   6.707  0.0033  0.4753  0.6505
 8023SOL    HW135528   0.034   4.670   6.680 -0.3911  0.5140  0.0895
 8023SOL    HW235529   4.667   4.623   6.787 -1.9689 -1.2946  0.3200
 8024SOL     OW35530   3.285   1.902   7.694 -0.8086 -0.4099  0.0941
 8024SOL    HW135531   3.324   1.846   7.762 -0.6137 -0.1863  0.1650
 8024SOL    HW235532   3.326   1.987   7.706  0.2115 -1.0328  1.0371
 8025SOL     OW35533   4.690   1.608   6.226 -0.3620  0.7108 -0.1655
 8025SOL    HW135534   4.622   1.567   6.279 -1.4403  1.3387 -1.0416
 8025SOL    HW235535   4.678   1.696   6.260  1.7748  1.1521 -0.5376
 8026SOL     OW35536   4.073   3.716   2.968 -0.0432 -0.0206  0.5979
 8026SOL    HW135537   4.021   3.738   2.891 -0.6570 -2.3934  0.3362
 8026SOL    HW235538   4.106   3.794   3.013 -0.3110 -0.1338  0.9821
 8027SOL     OW35539   3.233   1.834   4.161  0.1621  0.4633  0.2618
 8027SOL    HW135540   3.188   1.832   4.246 -0.9950 -2.2835 -0.4274
 8027SOL    HW235541   3.181   1.783   4.099 -0.6774  1.2490  0.3246
 8028SOL     OW35542   3.768   2.957  12.794 -0.1370 -0.0744  0.3097
 8028SOL    HW135543   3.751   2.897  12.866 -1.3362 -0.7046 -0.5045
 8028SOL    HW235544   3.750   3.043  12.833  3.2022  1.6028 -1.7885
 8029SOL     OW35545   4.624   3.104   1.630  0.7601 -0.3022 -0.0255
 8029SOL    HW135546   4.589   3.015   1.639 -0.2344 -0.1145 -1.9971
 8029SOL    HW235547   4.618   3.146   1.716  1.9774 -0.2321  0.0237
 8030SOL     OW35548   4.631   2.799   1.515 -0.0684  1.1568 -0.1359
 8030SOL    HW135549   4.587   2.727   1.560  0.2915 -1.2572 -3.5595
 8030SOL    HW235550   4.556   2.825   1.461 -0.0701  1.3636 -0.0329
 8031SOL     OW35551   2.118   3.324  13.859 -0.3040 -0.4865 -0.6125
 8031SOL    HW135552   2.191   3.292  13.806  0.0767 -0.5714 -0.0374
 8031SOL    HW235553   2.063   3.371  13.797  0.5099  0.2927 -0.7586
 8032SOL     OW35554   3.326   0.995   2.306  0.0633  0.3495 -0.0068
 8032SOL    HW135555   3.374   0.963   2.382 -2.1089 -0.3901  1.0609
 8032SOL    HW235556   3.381   1.065   2.272  0.2156  0.7434  1.0658
 8033SOL     OW35557   4.521   2.485   8.180  0.0793  0.0889  0.3258
 8033SOL    HW135558   4.606   2.519   8.209  0.3736 -1.3986  1.2101
 8033SOL    HW235559   4.482   2.460   8.263 -0.6634 -2.5963 -0.8391
 8034SOL     OW35560   4.492   4.435   6.037  0.0591 -0.1223 -0.2653
 8034SOL    HW135561   4.476   4.529   6.027 -3.3504 -0.7809 -0.8861
 8034SOL    HW235562   4.408   4.399   6.065 -0.5024  2.2824  1.1488
 8035SOL     OW35563   2.794   4.164   6.068  0.1980 -0.1745  0.0967
 8035SOL    HW135564   2.884   4.137   6.087  0.6266  0.5262 -0.9054
 8035SOL    HW235565   2.741   4.112   6.128 -1.2931 -0.8569 -1.8112
 8036SOL     OW35566   4.035   0.035   1.508  0.1970 -0.2242 -0.2047
 8036SOL    HW135567   4.113   0.018   1.561 -0.2004 -0.3538  0.3284
 8036SOL    HW235568   4.079   0.062   1.426 -0.9855 -0.7273 -0.9968
 8037SOL     OW35569   3.905   1.558   2.674 -0.3552  0.6584 -0.2153
 8037SOL    HW135570   3.976   1.532   2.733 -0.4385  0.8029 -0.0518
 8037SOL    HW235571   3.869   1.640   2.707 -0.1418  0.2591  1.0215
 8038SOL     OW35572   2.195   4.065   2.764 -0.8821 -0.0281 -0.3437
 8038SOL    HW135573   2.180   3.995   2.827 -0.9351  0.3628  0.0828
 8038SOL    HW235574   2.136   4.136   2.790  2.2441  3.1243 -1.9220
 8039SOL     OW35575   3.948   3.397  10.475 -0.0837  0.2996  0.0619
 8039SOL    HW135576   3.937   3.468  10.537 -2.3631 -2.1580  2.4753
 8039SOL    HW235577   3.857   3.367  10.466  0.0647 -0.0950 -0.1268
 8040SOL     OW35578   2.191   0.634   1.896  0.3535  0.2454  0.1526
 8040SOL    HW135579   2.219   0.549   1.863  0.0599  1.1727 -2.4681
 8040SOL    HW235580   2.099   0.630   1.870 -0.2060  0.9145  1.9867
 8041SOL     OW35581   0.589   1.743   6.305  0.4984  0.4899  0.4348
 8041SOL    HW135582   0.663   1.745   6.244 -0.5456 -0.2574 -0.8652
 8041SOL    HW235583   0.584   1.649   6.320 -0.9892  0.4986 -0.0557
 8042SOL     OW35584   3.121   0.417  11.069  0.2940 -0.3535 -0.0316
 8042SOL    HW135585   3.206   0.387  11.099 -0.5778 -0.5317  2.3109
 8042SOL    HW235586   3.101   0.467  11.149  0.9754  1.7089 -1.1408
 8043SOL     OW35587   2.918   1.157   6.492  0.5894  0.0484  0.1288
 8043SOL    HW135588   2.971   1.218   6.543 -1.5539  1.2057  0.9638
 8043SOL    HW235589   2.919   1.093   6.564 -3.3782 -1.2869 -0.9793
 8044SOL     OW35590   4.369   0.372  16.899 -0.6883 -0.3424  0.1128
 8044SOL    HW135591   4.346   0.306  16.834  1.7064  0.9155 -1.9976
 8044SOL    HW235592   4.289   0.421  16.916 -1.4048 -1.7332  0.8363
 8045SOL     OW35593   3.934   3.241   5.713 -0.3829 -0.7088 -0.0561
 8045SOL    HW135594   3.936   3.236   5.618  0.1905  1.3892 -0.1546
 8045SOL    HW235595   4.022   3.206   5.724  0.4000  1.4004  0.3556
 8046SOL     OW35596   4.218   2.321   3.221  0.3852 -0.0044 -0.8188
 8046SOL    HW135597   4.142   2.378   3.206 -0.3614 -0.7695  0.0542
 8046SOL    HW235598   4.281   2.377   3.266  0.1794  0.6111 -1.2971
 8047SOL     OW35599   3.647   2.132   4.576  0.0267 -0.7094 -0.2612
 8047SOL    HW135600   3.721   2.093   4.623 -0.9465 -0.3485  1.5527
 8047SOL    HW235601   3.614   2.061   4.522 -0.9558 -1.3780  1.2527
 8048SOL     OW35602   1.316   2.491   5.277 -0.0717 -0.4373 -0.6213
 8048SOL    HW135603   1.300   2.405   5.238 -1.9579 -0.4434  0.1261
 8048SOL    HW235604   1.377   2.467   5.346 -0.7018  1.0817  0.4716
 8049SOL     OW35605   1.774   3.231  16.740 -0.4793 -0.4463  0.4860
 8049SOL    HW135606   1.807   3.142  16.730 -0.3018 -0.3053 -0.1341
 8049SOL    HW235607   1.849   3.269  16.785  0.7123 -2.3175  0.0690
 8050SOL     OW35608   1.149   2.437  13.191 -0.3734  0.3135  0.0296
 8050SOL    HW135609   1.148   2.412  13.098 -0.5898 -2.8719  0.8785
 8050SOL    HW235610   1.062   2.475  13.199 -1.1829 -1.1632 -1.5606
 8051SOL     OW35611   4.048   3.463   2.921  0.1712  0.7171  0.5485
 8051SOL    HW135612   4.090   3.445   2.836 -1.5170  0.8923 -0.3204
 8051SOL    HW235613   4.077   3.554   2.926 -1.7610  1.3409  0.5522
 8052SOL     OW35614   3.720   1.689   6.646 -0.5165  0.0670 -0.2752
 8052SOL    HW135615   3.744   1.725   6.731 -0.7614  0.3772 -0.3388
 8052SOL    HW235616   3.628   1.714   6.646  0.2887  3.0121 -0.0698
 8053SOL     OW35617   2.597   4.241   2.386  0.1629 -0.3168  0.1956
 8053SOL    HW135618   2.530   4.309   2.384 -2.2887 -2.7578 -0.1848
 8053SOL    HW235619   2.564   4.179   2.321 -0.7112  1.1009 -0.6864
 8054SOL     OW35620   2.442   1.119   1.791  0.0247 -0.3247  0.3604
 8054SOL    HW135621   2.397   1.173   1.725  1.1021  0.3098  0.1493
 8054SOL    HW235622   2.398   1.036   1.771 -0.7601  0.4123 -0.9886
 8055SOL     OW35623   4.010   0.302   4.561  0.1131  0.2187  0.5285
 8055SOL    HW135624   4.046   0.279   4.475 -0.8340  1.7039 -0.2634
 8055SOL    HW235625   4.096   0.334   4.587 -0.2683  2.4650 -0.9782
 8056SOL     OW35626   3.798   0.101   5.166  0.2286  0.0350  0.2020
 8056SOL    HW135627   3.707   0.077   5.181  0.9213 -2.6405  0.1527
 8056SOL    HW235628   3.788   0.192   5.194 -2.4237  0.0890 -0.8863
 8057SOL     OW35629   2.757   4.125   1.900 -0.3347  0.5599 -0.5716
 8057SOL    HW135630   2.696   4.054   1.918  0.4741  0.2869  1.0907
 8057SOL    HW235631   2.823   4.079   1.848  1.3391  1.7315  0.5027
 8058SOL     OW35632   3.929   4.087   5.585  0.3644 -0.1744  0.6733
 8058SOL    HW135633   3.863   4.031   5.624 -0.6120  0.8274  0.4636
 8058SOL    HW235634   3.891   4.130   5.508 -0.3013 -0.1893  0.9952
 8059SOL     OW35635   4.524   1.329   8.488  0.5264 -0.5301  0.0970
 8059SOL    HW135636   4.488   1.287   8.566 -0.3504 -1.5997 -0.8786
 8059SOL    HW235637   4.446   1.373   8.453  0.3762 -1.7787 -1.1225
 8060SOL     OW35638   4.271   3.794   4.887  0.2418  0.4579  0.3721
 8060SOL    HW135639   4.322   3.825   4.962  0.8633 -0.6319  0.4073
 8060SOL    HW235640   4.271   3.869   4.827  1.7166 -0.9431 -1.3759
 8061SOL     OW35641   1.991   0.724   0.937  0.2218 -0.2047 -0.1282
 8061SOL    HW135642   1.969   0.817   0.931 -1.3840 -0.5793  0.0237
 8061SOL    HW235643   1.924   0.690   0.996 -0.7541  0.6299 -0.7497
 8062SOL     OW35644   0.656   2.734  14.870 -0.3655  0.1696 -0.5122
 8062SOL    HW135645   0.633   2.658  14.924  0.9420  0.1325  0.0015
 8062SOL    HW235646   0.679   2.800  14.936 -2.2335  0.2121  0.1024
 8063SOL     OW35647   1.143   0.740   2.168 -0.1400  0.4133 -0.0050
 8063SOL    HW135648   1.098   0.797   2.230 -0.5888 -0.8832  0.8508
 8063SOL    HW235649   1.150   0.796   2.090 -1.8143  0.8517  0.1609
 8064SOL     OW35650   2.026   3.211  11.100 -0.3632 -0.0333 -0.2617
 8064SOL    HW135651   1.978   3.199  11.182 -0.8493 -0.5163 -0.6168
 8064SOL    HW235652   1.982   3.148  11.042 -1.0980  1.7467 -1.6259
 8065SOL     OW35653   2.851   0.391   5.087  0.4632  0.1549  0.5201
 8065SOL    HW135654   2.855   0.378   4.992  1.5474  2.1473  0.3065
 8065SOL    HW235655   2.799   0.470   5.101  0.8302  0.6028 -0.6701
 8066SOL     OW35656   0.070   0.738  14.314 -0.8566 -0.0227 -0.0582
 8066SOL    HW135657   0.101   0.828  14.312 -0.0777 -0.2505  1.2601
 8066SOL    HW235658   0.110   0.690  14.241 -1.2059 -0.4300  0.0159
 8067SOL     OW35659   4.442   0.013  13.799  0.1529 -0.0728 -0.5145
 8067SOL    HW135660   4.475   0.069  13.869  1.9637  0.3119 -1.6653
 8067SOL    HW235661   4.347   0.012  13.806  0.2379  2.9707  1.4049
 8068SOL     OW35662   4.017   3.599   3.858 -0.5195  0.6154 -0.0860
 8068SOL    HW135663   3.942   3.545   3.834  1.8691 -2.3621 -0.7837
 8068SOL    HW235664   4.017   3.600   3.954  0.6499 -0.3996 -0.0842
 8069SOL     OW35665   2.742   0.887   1.096  0.1817  0.0768 -0.3784
 8069SOL    HW135666   2.736   0.868   1.190  2.4510  2.1248  0.1879
 8069SOL    HW235667   2.831   0.860   1.074 -0.3909  0.2329 -2.8871
 8070SOL     OW35668   1.460   0.566   1.246 -0.4854  0.4649 -0.7431
 8070SOL    HW135669   1.529   0.624   1.279 -0.8028 -0.0498  0.8458
 8070SOL    HW235670   1.488   0.484   1.287  1.7648  0.3175 -2.5905
 8071SOL     OW35671   0.302   1.413  15.312 -0.0238 -0.4730  0.6839
 8071SOL    HW135672   0.365   1.483  15.332  2.9338 -2.7414 -0.5814
 8071SOL    HW235673   0.248   1.418  15.391 -2.0788 -2.8048 -0.5670
 8072SOL     OW35674   2.973   0.143  10.452 -0.1216  0.6634 -0.0140
 8072SOL    HW135675   2.994   0.187  10.535 -0.7897 -0.6781  0.8713
 8072SOL    HW235676   2.889   0.183  10.430 -1.1313 -2.2531 -1.3823
 8073SOL     OW35677   3.378   3.588  13.699  0.1572  0.3712 -0.5991
 8073SOL    HW135678   3.441   3.659  13.686  1.4055 -0.9819 -2.0841
 8073SOL    HW235679   3.305   3.640  13.732  0.8195  0.9983 -0.1161
 8074SOL     OW35680   0.314   2.449   2.591  0.0591 -0.3891  0.5425
 8074SOL    HW135681   0.287   2.379   2.532 -1.8477  1.6437 -0.9347
 8074SOL    HW235682   0.250   2.439   2.662 -0.4742  0.6805  0.2064
 8075SOL     OW35683   3.480   1.371   3.381 -0.0139  0.2115 -0.1284
 8075SOL    HW135684   3.504   1.459   3.409  0.4504  0.5002 -1.4784
 8075SOL    HW235685   3.391   1.393   3.354 -1.3495 -2.3525  2.1002
 8076SOL     OW35686   4.204   2.662   7.534 -0.1096  0.5949 -0.4246
 8076SOL    HW135687   4.235   2.712   7.459 -0.0696  1.1162 -0.0643
 8076SOL    HW235688   4.254   2.581   7.529 -1.7543 -0.3999 -0.7025
 8077SOL     OW35689   3.043   4.151  12.866  0.0972  0.2539 -0.3273
 8077SOL    HW135690   2.989   4.139  12.788 -1.1674 -0.7929  0.7076
 8077SOL    HW235691   3.034   4.075  12.923  0.6051  1.7535  1.7420
 8078SOL     OW35692   1.992   3.615   1.742 -0.3521 -0.3098 -0.0996
 8078SOL    HW135693   1.978   3.635   1.650 -1.1515 -2.0693 -0.3646
 8078SOL    HW235694   1.947   3.693   1.775  1.8869  0.7072  0.5809
 8079SOL     OW35695   3.141   0.202  17.609 -0.2771 -0.1947 -0.3383
 8079SOL    HW135696   3.085   0.163  17.676  0.9159 -1.4755 -0.0842
 8079SOL    HW235697   3.207   0.134  17.593  1.1043  0.7321  1.4731
 8080SOL     OW35698   3.219   3.765  15.599 -0.1381 -0.7116  0.1044
 8080SOL    HW135699   3.218   3.724  15.512  0.0718  0.8287 -0.6186
 8080SOL    HW235700   3.137   3.727  15.630 -0.6282  0.3150  0.0722
 8081SOL     OW35701   2.601   2.622  16.819 -0.0744  0.2808 -0.1494
 8081SOL    HW135702   2.686   2.658  16.845 -0.8333 -0.0802  2.8216
 8081SOL    HW235703   2.557   2.704  16.800 -0.0187  0.0140 -1.4983
 8082SOL     OW35704   2.202   4.207  12.979  0.4589 -0.3530  0.1551
 8082SOL    HW135705   2.120   4.188  12.933  1.3129 -0.6542 -1.2721
 8082SOL    HW235706   2.177   4.168  13.063  1.2908 -0.8007  0.1969
 8083SOL     OW35707   4.637   2.026  14.136  0.1670 -0.1239  0.1512
 8083SOL    HW135708   4.553   1.981  14.130  0.0626 -0.1854  2.1707
 8083SOL    HW235709   4.691   1.947  14.141 -1.1840 -1.0994 -0.4280
 8084SOL     OW35710   2.861   0.046   3.955  0.3934 -0.0053 -0.1842
 8084SOL    HW135711   2.864   4.686   3.904  1.2874 -0.3896  0.4732
 8084SOL    HW235712   2.805   0.106   3.906  0.4147 -1.1232 -1.5608
 8085SOL     OW35713   4.616   2.222  12.874 -1.1609  0.2867 -0.1309
 8085SOL    HW135714   4.673   2.297  12.893 -2.3461  0.7887  1.4097
 8085SOL    HW235715   4.595   2.192  12.962 -0.6843  2.5063  0.7471
 8086SOL     OW35716   3.659   1.327   6.887  0.4340  0.2103 -0.5711
 8086SOL    HW135717   3.630   1.278   6.964  1.6864  1.7098  0.8526
 8086SOL    HW235718   3.573   1.353   6.852 -1.0509 -2.6182  1.0020
 8087SOL     OW35719   4.164   2.474   8.212 -0.1164  0.2607 -0.2808
 8087SOL    HW135720   4.172   2.569   8.209  0.9642  0.1437 -1.1446
 8087SOL    HW235721   4.240   2.438   8.166  0.8557  0.7641  0.9214
 8088SOL     OW35722   2.011   3.671   3.784 -0.5514  0.2605  0.0544
 8088SOL    HW135723   2.048   3.610   3.847 -1.0461  0.7627  0.8316
 8088SOL    HW235724   2.052   3.636   3.705 -0.5131  0.4580 -0.0113
 8089SOL     OW35725   3.708   2.042   6.335 -0.4958 -0.0445  0.6586
 8089SOL    HW135726   3.755   1.968   6.298  0.1388  0.3781  0.6058
 8089SOL    HW235727   3.750   2.056   6.420  0.3886 -0.7296  0.3314
 8090SOL     OW35728   4.292   1.218   8.277  0.3341  0.1362  0.4078
 8090SOL    HW135729   4.307   1.135   8.231 -0.7628  0.4599 -0.5472
 8090SOL    HW235730   4.207   1.193   8.314 -0.4053 -0.6751 -1.7848
 8091SOL     OW35731   0.132   0.768  13.983 -0.0111  0.7007  0.1428
 8091SOL    HW135732   0.181   0.846  14.008  1.1187 -0.1153  0.4824
 8091SOL    HW235733   0.045   0.802  13.961 -0.4063 -2.0574 -2.6852
 8092SOL     OW35734   0.286   2.312   0.138 -0.0707  0.0496 -0.4862
 8092SOL    HW135735   0.197   2.337   0.115  0.1886  1.6326  0.2725
 8092SOL    HW235736   0.307   2.385   0.195 -0.1463 -0.7231  0.5277
 8093SOL     OW35737   1.575   4.543  16.495 -0.3925  0.2387 -1.0200
 8093SOL    HW135738   1.578   4.638  16.495  0.8784  0.2000  1.6288
 8093SOL    HW235739   1.651   4.525  16.440 -0.6664  1.9774 -1.9464
 8094SOL     OW35740   3.065   2.914   0.482 -0.2254 -0.0089 -0.1715
 8094SOL    HW135741   2.990   2.943   0.430  0.2819  3.7784  1.2690
 8094SOL    HW235742   3.030   2.895   0.569 -2.7356 -0.3917 -1.2526
 8095SOL     OW35743   2.566   2.432   9.382 -0.5304 -0.3817  0.0376
 8095SOL    HW135744   2.501   2.494   9.416  1.4858  3.1809 -2.5369
 8095SOL    HW235745   2.590   2.392   9.465 -2.2654  0.0099  0.7139
 8096SOL     OW35746   4.656   2.239   6.127  0.5047 -0.0980 -0.6959
 8096SOL    HW135747   4.568   2.254   6.162  0.2858 -1.1624 -0.7935
 8096SOL    HW235748   4.664   2.317   6.071  0.6989  0.1388 -0.3372
 8097SOL     OW35749   3.305   1.994   7.121  0.4706  0.2107  0.0858
 8097SOL    HW135750   3.296   1.988   7.216 -2.6967  1.1206 -0.1690
 8097SOL    HW235751   3.220   1.966   7.090  1.0836 -0.1451 -1.2599
 8098SOL     OW35752   0.756   4.013   3.350  0.1850 -0.5460  0.1031
 8098SOL    HW135753   0.731   3.927   3.383  0.8250 -0.4852  0.7578
 8098SOL    HW235754   0.846   3.990   3.325  0.1069  1.1136 -1.7091
 8099SOL     OW35755   0.504   2.466   2.407  0.5547  0.4185  0.0285
 8099SOL    HW135756   0.506   2.371   2.416 -0.3106  0.3184 -0.8279
 8099SOL    HW235757   0.439   2.482   2.476  0.9361 -0.3424  0.5742
 8100SOL     OW35758   4.009   1.069  11.791  0.2048  0.0445 -0.8978
 8100SOL    HW135759   4.014   0.994  11.850 -1.1102  1.1635  0.6299
 8100SOL    HW235760   4.014   1.020  11.709  1.1772 -1.7776  0.2424
 8101SOL     OW35761   4.474   3.042   8.903  0.0144  0.2410 -0.3344
 8101SOL    HW135762   4.460   3.011   8.992  0.0421 -0.0266 -0.4205
 8101SOL    HW235763   4.433   3.128   8.910  0.6172  0.4663  0.3132
 8102SOL     OW35764   0.910   0.779   2.376 -0.2849 -0.6536  0.2822
 8102SOL    HW135765   0.877   0.772   2.287 -0.2163  0.4009  0.1706
 8102SOL    HW235766   0.833   0.825   2.411  1.0592  1.2285  0.7893
 8103SOL     OW35767   1.979   0.347   0.154  0.0873  0.3918 -0.2382
 8103SOL    HW135768   1.999   0.435   0.186  0.5481  0.2196 -0.0524
 8103SOL    HW235769   2.056   0.306   0.192 -0.0218  0.6317  0.2529
 8104SOL     OW35770   3.448   4.294   2.806 -0.4666  0.0350 -0.1886
 8104SOL    HW135771   3.506   4.240   2.752  3.0345  2.1924  1.3350
 8104SOL    HW235772   3.516   4.328   2.864  0.0888  0.6526 -1.2009
 8105SOL     OW35773   0.746   4.388  14.455 -0.1127  0.5302 -0.0943
 8105SOL    HW135774   0.769   4.437  14.534  0.3523  1.8537 -1.0486
 8105SOL    HW235775   0.700   4.313  14.492  1.3003 -0.2132  0.1744
 8106SOL     OW35776   1.717   2.039   9.007 -0.4261  0.1192  0.1315
 8106SOL    HW135777   1.804   2.043   8.967 -0.8224 -2.1160 -0.9177
 8106SOL    HW235778   1.699   2.132   9.020 -2.2114  0.1067 -2.4643
 8107SOL     OW35779   4.092   2.220   7.895 -0.8880  0.1943 -0.2525
 8107SOL    HW135780   4.127   2.244   7.981 -2.2282 -4.9644  1.7361
 8107SOL    HW235781   4.161   2.234   7.831  0.5173 -3.0154  0.5417
 8108SOL     OW35782   3.433   1.354   6.732  0.4477  0.2887  0.0981
 8108SOL    HW135783   3.491   1.327   6.661 -1.4215  1.1519 -1.7929
 8108SOL    HW235784   3.366   1.287   6.749  1.3897 -0.7756 -0.4123
 8109SOL     OW35785   2.475   0.422   7.223  0.3843  0.0589 -0.2594
 8109SOL    HW135786   2.474   0.341   7.173 -0.7195  0.0235 -0.1838
 8109SOL    HW235787   2.447   0.475   7.148 -0.4833 -0.8226 -0.5528
 8110SOL     OW35788   1.911   2.429  15.930  0.0267 -0.0193  0.4152
 8110SOL    HW135789   1.860   2.358  15.891  1.1464 -1.6569  1.9282
 8110SOL    HW235790   1.840   2.492  15.943  1.4805  2.2028 -2.2859
 8111SOL     OW35791   4.596   0.868   7.302 -0.0826  0.2253 -0.2955
 8111SOL    HW135792   4.517   0.840   7.255 -0.5896  0.2539  0.5435
 8111SOL    HW235793   4.647   0.790   7.320  1.2103  1.1715  0.1104
 8112SOL     OW35794   0.722   0.590  13.667  0.2709 -0.1254  0.6077
 8112SOL    HW135795   0.779   0.661  13.640  0.9677 -0.3011  1.6395
 8112SOL    HW235796   0.672   0.622  13.742 -0.5350 -0.2572  0.1363
 8113SOL     OW35797   1.177   2.286  17.450 -0.2503  0.3379  0.3911
 8113SOL    HW135798   1.186   2.376  17.418  0.5009  0.0416 -0.2163
 8113SOL    HW235799   1.089   2.263  17.420 -0.2051  0.7140 -0.0385
 8114SOL     OW35800   2.403   1.464   6.914 -0.2508  0.1935  0.2608
 8114SOL    HW135801   2.493   1.457   6.882 -0.3521  0.9533 -0.1847
 8114SOL    HW235802   2.411   1.390   6.974 -0.3950 -1.3023 -1.5806
 8115SOL     OW35803   3.673   0.813   7.677 -0.0561 -0.3824  0.0607
 8115SOL    HW135804   3.671   0.837   7.770 -1.0626  1.9990 -0.5944
 8115SOL    HW235805   3.638   0.895   7.644  0.2041 -0.3387 -0.1050
 8116SOL     OW35806   2.177   0.974  16.212 -0.1575 -0.0253  0.1902
 8116SOL    HW135807   2.138   0.925  16.140 -0.3975  2.0944 -1.1278
 8116SOL    HW235808   2.118   1.050  16.213 -0.1885 -0.0493  0.2051
 8117SOL     OW35809   3.785   1.358   7.422  0.5362  0.1162  0.1494
 8117SOL    HW135810   3.732   1.433   7.449 -0.2739 -0.8605  1.2482
 8117SOL    HW235811   3.732   1.309   7.358 -1.0731  2.7163 -0.4906
 8118SOL     OW35812   1.699   0.696   1.370 -0.2163 -0.0386 -0.2268
 8118SOL    HW135813   1.731   0.785   1.382 -1.0500  0.5310 -2.2030
 8118SOL    HW235814   1.774   0.644   1.396 -1.4667 -1.0958  1.2908
 8119SOL     OW35815   3.269   2.532  11.960  0.2368  0.7966  0.0754
 8119SOL    HW135816   3.220   2.482  11.895  0.0950  1.4999 -0.3540
 8119SOL    HW235817   3.281   2.618  11.920  1.2187  0.4232 -0.4521
 8120SOL     OW35818   0.591   3.631   8.227  0.1229  0.2032 -0.3599
 8120SOL    HW135819   0.637   3.687   8.290 -0.0027 -0.4412  0.3108
 8120SOL    HW235820   0.589   3.556   8.287  2.2066 -0.9722 -1.7704
 8121SOL     OW35821   3.119   1.146   1.783  0.2087 -0.8320 -0.3269
 8121SOL    HW135822   3.042   1.088   1.780  1.8893 -3.2343  2.9112
 8121SOL    HW235823   3.154   1.111   1.864  0.7710  0.3536 -0.0606
 8122SOL     OW35824   0.531   3.587   9.175 -0.1707  0.6702  0.0932
 8122SOL    HW135825   0.502   3.565   9.087  2.6285  0.0090 -0.6713
 8122SOL    HW235826   0.581   3.668   9.165  1.1813 -0.3157 -1.1454
 8123SOL     OW35827   3.658   3.151   2.849 -0.0245 -0.2615 -0.5099
 8123SOL    HW135828   3.570   3.174   2.819 -1.2962  0.0365  3.4504
 8123SOL    HW235829   3.727   3.206   2.813 -1.8135  1.2338 -1.6418
 8124SOL     OW35830   0.568   4.633   0.595 -0.3071 -0.0500  0.4433
 8124SOL    HW135831   0.542   4.669   0.680  0.5248  1.1464  0.2008
 8124SOL    HW235832   0.539   4.542   0.601 -1.5532  0.2605 -1.0784
 8125SOL     OW35833   4.528   2.664   5.261  0.4378  0.4583  0.1198
 8125SOL    HW135834   4.550   2.748   5.299 -0.1732  0.5048  0.3688
 8125SOL    HW235835   4.595   2.657   5.194  2.3654  1.2010  1.9701
 8126SOL     OW35836   3.892   2.052  10.909  0.0269 -0.3023 -0.4177
 8126SOL    HW135837   3.840   2.101  10.845 -0.6663 -0.1765  0.2339
 8126SOL    HW235838   3.981   2.086  10.901 -0.5298  1.0314 -0.9099
 8127SOL     OW35839   0.025   3.914   6.258 -0.0611  0.1113  0.2044
 8127SOL    HW135840   4.659   3.908   6.220 -0.8826  1.1379  1.9119
 8127SOL    HW235841   0.070   3.983   6.210 -0.9258 -0.7755 -1.8850
 8128SOL     OW35842   1.240   2.027   6.337 -0.2027 -0.0621 -0.7017
 8128SOL    HW135843   1.310   2.042   6.274  0.5488 -2.7349 -0.4967
 8128SOL    HW235844   1.237   2.098   6.400 -0.0115 -0.0770 -0.6771
 8129SOL     OW35845   2.612   4.011  11.473 -0.0172  0.0200 -0.4338
 8129SOL    HW135846   2.639   4.102  11.465 -2.5858  0.7435 -0.8550
 8129SOL    HW235847   2.524   3.999  11.437  0.7688 -1.0489 -2.0170
 8130SOL     OW35848   2.443   1.215  11.125 -0.2138 -0.1776 -0.4649
 8130SOL    HW135849   2.470   1.159  11.052 -0.4897 -0.3544 -0.4286
 8130SOL    HW235850   2.349   1.213  11.107 -0.1762  0.2268 -0.6946
 8131SOL     OW35851   3.233   3.712  13.324  0.3625 -0.2504 -0.0899
 8131SOL    HW135852   3.180   3.719  13.245  0.9823 -0.9811 -0.5625
 8131SOL    HW235853   3.253   3.804  13.343 -0.1795 -0.2672  0.5456
 8132SOL     OW35854   0.398   4.480   1.361 -0.3337 -0.3195  0.0786
 8132SOL    HW135855   0.430   4.554   1.310 -2.1340  1.2779  1.2463
 8132SOL    HW235856   0.474   4.438   1.400 -0.3313 -0.4496 -0.0651
 8133SOL     OW35857   4.224   0.756   2.543  0.3088  0.6769  0.5115
 8133SOL    HW135858   4.185   0.697   2.480  1.8117 -0.5616  0.7399
 8133SOL    HW235859   4.310   0.789   2.516 -0.5124  0.6167 -2.1574
 8134SOL     OW35860   0.884   1.883  10.863 -0.0003 -0.6128  0.6881
 8134SOL    HW135861   0.876   1.975  10.838  0.9145 -0.5870  0.5044
 8134SOL    HW235862   0.824   1.877  10.938 -0.8849  1.1888  0.1226
 8135SOL     OW35863   4.460   4.668   5.883 -0.1224 -0.5924  0.1434
 8135SOL    HW135864   4.411   0.012   5.933  0.3569 -0.0069 -0.1528
 8135SOL    HW235865   4.528   0.002   5.843 -0.5038 -2.4569 -3.0155
 8136SOL     OW35866   1.812   0.489   1.516  0.4257  0.1267 -0.3805
 8136SOL    HW135867   1.857   0.513   1.597 -0.1728  0.1755 -0.0654
 8136SOL    HW235868   1.876   0.478   1.445  2.9000 -2.0572  2.1704
 8137SOL     OW35869   4.576   0.137  12.289 -0.4881 -0.1196  0.2268
 8137SOL    HW135870   4.649   0.200  12.284  1.7747 -2.6787  0.8894
 8137SOL    HW235871   4.515   0.200  12.328  0.2175  0.4050  0.4914
 8138SOL     OW35872   1.714   3.408   6.513 -0.0437 -0.0082 -0.3706
 8138SOL    HW135873   1.656   3.482   6.531 -0.0369  0.2264 -1.3549
 8138SOL    HW235874   1.727   3.427   6.420  2.9329  1.7479  0.4098
 8139SOL     OW35875   4.519   2.042   6.532  0.0678 -0.2198  0.0515
 8139SOL    HW135876   4.475   2.017   6.613  0.7196  1.6957  1.0076
 8139SOL    HW235877   4.591   2.097   6.563  0.5290  0.0044 -1.4011
 8140SOL     OW35878   1.097   0.545   6.044  0.1808 -0.1422 -0.2824
 8140SOL    HW135879   1.043   0.603   5.989  1.2214  0.1215 -1.0216
 8140SOL    HW235880   1.068   0.571   6.131  2.4426  2.3628 -0.3069
 8141SOL     OW35881   3.226   4.232   4.451 -0.4743  0.2014  0.2506
 8141SOL    HW135882   3.183   4.171   4.510  0.9412 -0.8064  0.2378
 8141SOL    HW235883   3.257   4.175   4.380 -0.4164 -0.7542  1.0449
 8142SOL     OW35884   2.856   3.499   4.089 -0.2102  0.4593  0.0996
 8142SOL    HW135885   2.846   3.484   4.183  0.3334  2.1044  0.4050
 8142SOL    HW235886   2.942   3.540   4.083  0.7249 -1.2366  1.8426
 8143SOL     OW35887   2.612   0.904   6.197  0.0750 -0.8389 -0.2869
 8143SOL    HW135888   2.660   0.966   6.142 -1.1509  1.5280  1.3110
 8143SOL    HW235889   2.682   0.853   6.236  0.5348 -0.9740 -1.2855
 8144SOL     OW35890   1.334   2.993   6.779 -0.2834  0.1495 -0.9943
 8144SOL    HW135891   1.426   3.014   6.790 -0.4287 -0.6357  1.6458
 8144SOL    HW235892   1.336   2.897   6.775 -0.5177  0.0400  1.4850
 8145SOL     OW35893   2.174   4.527  15.020  0.5519 -0.0709 -0.1206
 8145SOL    HW135894   2.243   4.482  14.972  0.8170 -1.3049  1.4085
 8145SOL    HW235895   2.150   4.463  15.087  1.4046  0.9012  1.1045
 8146SOL     OW35896   0.080   4.281   5.370 -0.0000 -0.3190 -0.3293
 8146SOL    HW135897   0.019   4.291   5.442 -1.4995 -0.2833 -1.6145
 8146SOL    HW235898   0.121   4.195   5.378 -3.7206 -1.8651  1.8816
 8147SOL     OW35899   1.060   3.773  17.622 -0.2775  0.0383 -0.1433
 8147SOL    HW135900   1.047   3.835   0.006 -0.7606  1.1808 -1.2380
 8147SOL    HW235901   1.153   3.787  17.607 -0.7962  1.9038 -1.5649
 8148SOL     OW35902   0.584   0.812   5.254  0.2382  0.2006  0.7719
 8148SOL    HW135903   0.507   0.839   5.302  1.4190  2.4720  1.3795
 8148SOL    HW235904   0.633   0.758   5.316  0.8644  1.9451  1.7752
 8149SOL     OW35905   2.758   2.282   8.941  0.3097 -0.2694  0.0723
 8149SOL    HW135906   2.836   2.250   8.897  0.5030 -0.7203  0.7453
 8149SOL    HW235907   2.714   2.208   8.983  1.2572 -0.0533  1.4280
 8150SOL     OW35908   3.568   0.560   0.660  0.5722  0.3176  0.3065
 8150SOL    HW135909   3.567   0.651   0.691 -0.9484 -0.0588  1.3985
 8150SOL    HW235910   3.571   0.511   0.742  1.1374 -0.6049 -0.2633
 8151SOL     OW35911   0.137   2.606   4.468  0.4687 -0.2701 -0.2780
 8151SOL    HW135912   0.225   2.585   4.437  0.0224  0.0617 -1.7767
 8151SOL    HW235913   0.088   2.600   4.386  2.5025  2.0916 -1.6911
 8152SOL     OW35914   4.630   1.915  15.799 -0.2119  0.2536 -0.1098
 8152SOL    HW135915   4.629   2.000  15.841  0.9581  1.3041 -2.2041
 8152SOL    HW235916   4.544   1.908  15.758 -1.4129 -2.0000  2.7758
 8153SOL     OW35917   4.082   1.461   6.803  0.1203  0.1099 -0.2130
 8153SOL    HW135918   4.007   1.450   6.746 -1.0078 -0.5240  1.4034
 8153SOL    HW235919   4.134   1.390   6.765  2.1592  0.6407  1.5681
 8154SOL     OW35920   0.469   3.525  17.231 -0.3935  0.4567  0.7035
 8154SOL    HW135921   0.442   3.588  17.298  3.2299  2.1839  0.5433
 8154SOL    HW235922   0.508   3.462  17.291 -0.1427  2.0732  2.2370
 8155SOL     OW35923   3.148   3.112   9.388 -0.0240 -0.4269 -0.1741
 8155SOL    HW135924   3.056   3.103   9.365 -0.3470  0.3607  0.7941
 8155SOL    HW235925   3.186   3.101   9.301  1.6488 -0.2857  0.5358
 8156SOL     OW35926   1.488   2.286   6.890 -0.1353 -0.2786  0.3620
 8156SOL    HW135927   1.456   2.204   6.926  1.6830 -0.9635  0.4272
 8156SOL    HW235928   1.430   2.350   6.930 -0.5582  0.7133 -1.8226
 8157SOL     OW35929   3.626   2.500   8.002 -0.2732 -0.0598  0.5267
 8157SOL    HW135930   3.706   2.465   8.040  0.7632  0.2548 -1.3330
 8157SOL    HW235931   3.613   2.565   8.071 -0.1866 -0.4562  0.9107
 8158SOL     OW35932   0.312   1.131   7.840  0.0610  0.3328  0.0076
 8158SOL    HW135933   0.370   1.057   7.859 -0.0281  0.7494  1.8669
 8158SOL    HW235934   0.305   1.164   7.929 -0.5511  0.3182 -0.0354
 8159SOL     OW35935   4.264   2.001   4.598  0.2710 -0.4081 -0.3096
 8159SOL    HW135936   4.253   2.055   4.520 -0.7253  1.6283  1.2648
 8159SOL    HW235937   4.237   2.056   4.670  1.4890 -1.9447  1.3168
 8160SOL     OW35938   2.666   4.714   6.717  0.7023 -0.8199  0.5238
 8160SOL    HW135939   2.751   4.678   6.743  1.5670  0.7943 -0.1114
 8160SOL    HW235940   2.612   4.635   6.724  0.0978 -0.5426 -1.0373
 8161SOL     OW35941   2.912   4.502  11.471 -0.0666  0.7900  0.1253
 8161SOL    HW135942   2.903   4.528  11.379  0.2660  2.5031  0.5847
 8161SOL    HW235943   2.819   4.504  11.494 -0.3430  0.5875 -0.9906
 8162SOL     OW35944   1.098   0.527  11.432 -0.1761  0.0761  0.3940
 8162SOL    HW135945   1.135   0.567  11.511  1.8377 -1.8237  0.4356
 8162SOL    HW235946   1.157   0.451  11.435 -0.8251 -0.5208 -2.3155
 8163SOL     OW35947   4.696   4.298   7.047  0.4168  0.1827  0.2927
 8163SOL    HW135948   0.041   4.337   6.990  1.5781 -2.1098  0.0833
 8163SOL    HW235949   0.004   4.322   7.135 -0.1542  2.5588 -0.1429
 8164SOL     OW35950   0.465   2.559  11.493 -0.0900 -0.0719 -0.1129
 8164SOL    HW135951   0.559   2.544  11.487 -0.1897 -0.4988 -0.5523
 8164SOL    HW235952   0.438   2.491  11.555 -0.8997  0.5403  0.2194
 8165SOL     OW35953   2.696   1.765   4.510  0.1705  0.0074  0.2868
 8165SOL    HW135954   2.723   1.743   4.599  1.9328 -0.6898 -0.4153
 8165SOL    HW235955   2.621   1.707   4.499 -1.6688  2.3618  0.3963
 8166SOL     OW35956   3.076   2.006  10.967  0.1543 -0.6300 -0.7587
 8166SOL    HW135957   3.025   2.087  10.961 -0.3408 -0.8785  0.0883
 8166SOL    HW235958   3.006   1.953  11.004  1.5639  1.2353  4.5347
 8167SOL     OW35959   0.999   3.386   1.131 -0.0423  0.3388  0.0501
 8167SOL    HW135960   1.004   3.345   1.045  0.2136 -2.4887  1.4132
 8167SOL    HW235961   1.061   3.335   1.184  0.3568  2.5159  1.7155
 8168SOL     OW35962   0.266   1.009  14.006  0.0041 -0.6857 -0.0221
 8168SOL    HW135963   0.338   0.993  13.945 -0.4373  0.8582 -0.9389
 8168SOL    HW235964   0.266   1.104  13.998 -2.3907 -0.6326  0.4455
 8169SOL     OW35965   3.476   1.550  16.257  0.0178 -0.0502  0.1157
 8169SOL    HW135966   3.502   1.607  16.329  3.6272  0.0125 -1.2414
 8169SOL    HW235967   3.388   1.579  16.232 -0.2576  0.6594  1.9688
 8170SOL     OW35968   2.131   1.303  16.463  0.2829  0.0457  0.0427
 8170SOL    HW135969   2.213   1.303  16.511 -0.5998  0.8777  1.5400
 8170SOL    HW235970   2.063   1.300  16.530  1.2420  2.1525  1.1082
 8171SOL     OW35971   3.914   1.992  13.038 -0.2799  0.2943 -0.7826
 8171SOL    HW135972   3.956   2.074  13.011 -4.8387  3.4445  1.6037
 8171SOL    HW235973   3.824   2.023  13.030 -0.9447 -1.0015  1.6174
 8172SOL     OW35974   2.084   3.829   4.523  0.3296 -0.3982 -0.0939
 8172SOL    HW135975   2.128   3.905   4.485 -1.9848  1.5628  1.1350
 8172SOL    HW235976   2.147   3.794   4.587 -0.1440  0.5121  0.8713
 8173SOL     OW35977   0.735   2.550  11.378 -0.1455 -0.2166  0.4997
 8173SOL    HW135978   0.796   2.493  11.424  2.0421  0.6598 -1.2995
 8173SOL    HW235979   0.684   2.502  11.312  0.4917 -3.1426  2.1215
 8174SOL     OW35980   0.478   0.570   2.673 -0.0605 -0.6185 -0.3611
 8174SOL    HW135981   0.526   0.493   2.640  1.3305 -0.7367  1.9197
 8174SOL    HW235982   0.403   0.537   2.723  1.7496 -0.1040  2.7102
 8175SOL     OW35983   3.304   0.680  13.632  0.3727  0.4303  0.4630
 8175SOL    HW135984   3.266   0.754  13.680  0.7331  2.1503 -1.9129
 8175SOL    HW235985   3.335   0.634  13.710 -1.8107  1.2175  1.8000
 8176SOL     OW35986   3.863   4.584   9.373 -0.3298 -0.3407 -0.0892
 8176SOL    HW135987   3.824   4.569   9.287  0.4239 -1.1588 -0.2760
 8176SOL    HW235988   3.872   4.679   9.366 -0.4901 -0.2056  1.5128
 8177SOL     OW35989   3.209   2.557   3.874 -0.7637 -0.4373 -0.2224
 8177SOL    HW135990   3.280   2.610   3.911 -2.0312  0.5211  0.8392
 8177SOL    HW235991   3.200   2.609   3.794 -0.3279 -1.6644 -1.0650
 8178SOL     OW35992   2.703   2.504   7.110  0.2313 -0.2777  0.6166
 8178SOL    HW135993   2.792   2.468   7.112 -1.8780 -5.4437  0.4511
 8178SOL    HW235994   2.673   2.500   7.201 -0.7658 -2.1684  0.2017
 8179SOL     OW35995   2.126   1.741  15.461  0.2658  0.2646 -0.5902
 8179SOL    HW135996   2.087   1.716  15.377  0.2741 -1.8957  0.0474
 8179SOL    HW235997   2.051   1.739  15.521 -1.1755 -1.7151 -2.4455
 8180SOL     OW35998   4.050   0.342  12.338 -0.2605  0.2097  0.7392
 8180SOL    HW135999   4.122   0.308  12.391 -0.6157 -0.5583  0.7192
 8180SOL    HW236000   3.984   0.360  12.404 -2.8960  1.0104 -2.0934
 8181SOL     OW36001   3.049   3.261   6.502 -0.5828  0.0755  0.2464
 8181SOL    HW136002   3.003   3.283   6.583  0.3854 -1.0489  1.0909
 8181SOL    HW236003   3.030   3.168   6.497  1.9166 -0.4041  0.0615
 8182SOL     OW36004   3.516   1.288   5.154 -0.5048 -0.5623  0.4045
 8182SOL    HW136005   3.516   1.337   5.236 -2.7093 -0.5799  0.3936
 8182SOL    HW236006   3.429   1.314   5.124 -0.3714 -0.1546  0.3690
 8183SOL     OW36007   1.715   2.834   2.975  0.3624 -0.2705 -0.3000
 8183SOL    HW136008   1.772   2.758   2.962  0.8465  0.5672 -3.0531
 8183SOL    HW236009   1.683   2.820   3.064  2.4430  0.0936  0.4966
 8184SOL     OW36010   4.118   2.893   5.820  0.1105  0.0036 -0.1690
 8184SOL    HW136011   4.034   2.930   5.849  0.7044  0.0023  1.5139
 8184SOL    HW236012   4.166   2.972   5.797  1.2590 -1.1861 -1.8308
 8185SOL     OW36013   2.776   1.009   6.997 -0.1327  0.2585 -0.3875
 8185SOL    HW136014   2.811   1.068   7.064  2.2996  0.6833 -1.9952
 8185SOL    HW236015   2.724   0.945   7.045 -0.2045  0.4604 -0.1953
 8186SOL     OW36016   0.407   4.429   6.313 -0.1723 -0.3123  0.2684
 8186SOL    HW136017   0.348   4.500   6.339 -0.5269 -0.8089  0.8044
 8186SOL    HW236018   0.343   4.358   6.308 -2.3315  1.7834 -1.7451
 8187SOL     OW36019   0.251   1.472   1.573  0.7822  0.1055  0.7309
 8187SOL    HW136020   0.291   1.461   1.660  3.3044  1.6503 -0.2210
 8187SOL    HW236021   0.312   1.423   1.518  1.3376  0.0642  1.3829
 8188SOL     OW36022   3.498   1.076   4.992  0.5820 -0.0231  0.0091
 8188SOL    HW136023   3.553   1.128   4.933 -1.2719  1.0324 -0.7725
 8188SOL    HW236024   3.514   1.134   5.066  2.7625 -3.2082  2.0258
 8189SOL     OW36025   2.520   0.287   1.836  0.4808  0.3650 -0.0528
 8189SOL    HW136026   2.514   0.233   1.757  0.7007 -1.0139  0.8683
 8189SOL    HW236027   2.587   0.240   1.885 -0.9550  1.2917  2.7844
 8190SOL     OW36028   1.154   1.026   9.880  0.2746  0.3947  0.4178
 8190SOL    HW136029   1.135   1.045   9.788 -1.2525 -1.4889  0.3310
 8190SOL    HW236030   1.195   0.941   9.864  2.7786  1.4810  1.1634
 8191SOL     OW36031   1.753   3.498   1.765  0.0103  0.2548  0.1975
 8191SOL    HW136032   1.848   3.510   1.758 -0.4003  1.5629 -2.7569
 8191SOL    HW236033   1.714   3.555   1.698  1.2886 -0.4924 -1.1703
 8192SOL     OW36034   0.523   1.086  15.163  0.3682  0.5624 -0.3328
 8192SOL    HW136035   0.515   1.017  15.098 -1.2879 -0.5934  1.0846
 8192SOL    HW236036   0.609   1.124  15.143  1.1188 -1.4029 -0.8148
 8193SOL     OW36037   2.536   0.661   4.023 -0.6883 -0.0371  0.5676
 8193SOL    HW136038   2.624   0.661   3.984 -0.9553  1.6094 -0.0395
 8193SOL    HW236039   2.531   0.745   4.070 -1.5216  1.0060 -1.4026
 8194SOL     OW36040   2.769   4.096   6.620 -0.3650  0.1191 -0.1292
 8194SOL    HW136041   2.733   4.080   6.533 -0.2496 -1.0761  0.0427
 8194SOL    HW236042   2.690   4.116   6.670  1.0307  1.8655  1.3889
 8195SOL     OW36043   2.123   0.694   3.908 -0.1718  0.1547  0.0606
 8195SOL    HW136044   2.207   0.700   3.862 -1.3571 -0.0561 -2.0917
 8195SOL    HW236045   2.057   0.713   3.842 -0.4730  1.2862  0.6823
 8196SOL     OW36046   2.172   2.086   4.134 -0.2481  0.1376 -0.0157
 8196SOL    HW136047   2.194   2.117   4.046  0.4274  2.3629  0.9240
 8196SOL    HW236048   2.256   2.092   4.180 -0.5565 -1.4204  0.7167
 8197SOL     OW36049   0.341   2.300   6.505 -0.2102  0.2342 -0.2050
 8197SOL    HW136050   0.322   2.281   6.414 -0.6986  1.7366 -0.4139
 8197SOL    HW236051   0.409   2.233   6.516 -1.2460 -0.8472 -0.4423
 8198SOL     OW36052   2.712   3.488   8.999  0.2945 -0.1208  0.3985
 8198SOL    HW136053   2.786   3.429   9.002 -0.4003 -1.1074 -2.1488
 8198SOL    HW236054   2.753   3.554   8.943 -0.4339  0.1355  0.1607
 8199SOL     OW36055   4.514   0.369   9.441 -0.2133  0.5048  0.1484
 8199SOL    HW136056   4.528   0.364   9.347 -0.5772 -3.4196  0.2893
 8199SOL    HW236057   4.589   0.425   9.462  1.3732 -2.0226  1.2794
 8200SOL     OW36058   1.604   2.820   6.948  0.0544 -0.0810 -0.0677
 8200SOL    HW136059   1.583   2.880   7.019  1.4911  2.0411 -1.4406
 8200SOL    HW236060   1.608   2.885   6.878 -0.4782 -0.7898 -0.7576
 8201SOL     OW36061   2.363   0.938   6.357 -0.9019  0.2784  0.3742
 8201SOL    HW136062   2.284   0.940   6.303 -0.9696  2.5796  0.5944
 8201SOL    HW236063   2.421   0.886   6.300 -1.6301 -0.6235  0.4596
 8202SOL     OW36064   2.948   3.180   4.723  0.4590  0.2606 -0.1024
 8202SOL    HW136065   3.011   3.108   4.724 -0.0531 -0.2041 -0.7095
 8202SOL    HW236066   2.974   3.238   4.794 -1.9786  0.2126  0.8222
 8203SOL     OW36067   1.195   1.091   7.425  0.2668 -0.3343 -0.0215
 8203SOL    HW136068   1.197   1.107   7.330  1.8087  0.5597  0.1599
 8203SOL    HW236069   1.179   0.997   7.429 -1.4749 -0.0982 -1.3212
 8204SOL     OW36070   3.432   4.633  14.880  0.0433 -0.1024 -0.3759
 8204SOL    HW136071   3.520   4.668  14.894 -0.4573  1.4234 -1.1070
 8204SOL    HW236072   3.374   4.688  14.932  0.2670  0.9721 -1.2847
 8205SOL     OW36073   2.624   4.581   7.260  0.1071  0.0761 -0.4240
 8205SOL    HW136074   2.701   4.591   7.316  1.3186  1.0824 -2.2971
 8205SOL    HW236075   2.590   4.669   7.273 -1.3354 -0.3389 -1.4105
 8206SOL     OW36076   2.151   2.686  13.238  0.0147  0.3434  0.8877
 8206SOL    HW136077   2.168   2.774  13.205  0.3569  0.1612  0.5756
 8206SOL    HW236078   2.218   2.683  13.305 -0.0584 -1.4422  0.8815
 8207SOL     OW36079   1.915   0.246   4.355  0.2790  0.2275 -0.2722
 8207SOL    HW136080   1.859   0.212   4.286 -0.3746  2.5943 -0.9236
 8207SOL    HW236081   1.993   0.195   4.335 -1.2995 -1.9277 -0.8930
 8208SOL     OW36082   3.667   0.238  11.924 -0.1396  0.1215 -0.1799
 8208SOL    HW136083   3.731   0.168  11.941 -0.4621  0.1978  1.3009
 8208SOL    HW236084   3.593   0.189  11.960  1.7181 -2.2799  0.4541
 8209SOL     OW36085   3.230   3.755  15.317 -0.1456  0.3741 -0.7369
 8209SOL    HW136086   3.192   3.668  15.327  2.5519 -0.4208  2.5917
 8209SOL    HW236087   3.162   3.784  15.255 -0.6952 -0.5501 -0.5644
 8210SOL     OW36088   3.020   3.716  10.636 -0.2098  0.2031 -0.0553
 8210SOL    HW136089   3.024   3.681  10.724  0.1841  0.3621 -0.0104
 8210SOL    HW236090   3.079   3.651  10.596 -0.2120  0.9077 -1.2031
 8211SOL     OW36091   3.761   0.461   8.394 -0.1578 -0.0991 -0.4753
 8211SOL    HW136092   3.717   0.410   8.462  0.5350  1.8321  1.4168
 8211SOL    HW236093   3.679   0.478   8.347 -0.3954  0.1319  0.0197
 8212SOL     OW36094   0.364   3.219   5.418  0.3042 -0.1881  0.6925
 8212SOL    HW136095   0.312   3.259   5.487 -1.4129 -0.3172 -0.5270
 8212SOL    HW236096   0.439   3.193   5.472  2.0238  1.6153 -0.7923
 8213SOL     OW36097   1.856   0.195   7.479  0.3799 -0.1016  0.3677
 8213SOL    HW136098   1.810   0.159   7.555 -0.3308  0.3664  0.1583
 8213SOL    HW236099   1.825   0.128   7.418  0.4354  0.7755 -0.6289
 8214SOL     OW36100   4.299   0.093   9.110  0.5844  0.9790 -0.4373
 8214SOL    HW136101   4.344   0.010   9.094  2.0289  1.1723  2.6615
 8214SOL    HW236102   4.373   0.146   9.139  0.6236 -0.4875  2.1439
 8215SOL     OW36103   1.094   3.633   8.820  0.5797  0.0906  0.1477
 8215SOL    HW136104   1.094   3.725   8.794  2.6115  0.5023  1.5597
 8215SOL    HW236105   1.077   3.594   8.734  1.6515 -1.3282  0.5604
 8216SOL     OW36106   3.980   1.631   0.884  0.7417  0.6493 -0.0953
 8216SOL    HW136107   4.007   1.607   0.973 -0.5435 -0.7750 -0.0748
 8216SOL    HW236108   4.050   1.692   0.862  2.3186 -0.3683  2.1094
 8217SOL     OW36109   3.618   2.996   6.483  0.0952  0.4108  0.1306
 8217SOL    HW136110   3.541   2.962   6.528 -0.2860  1.4649  0.2736
 8217SOL    HW236111   3.675   3.002   6.560 -1.5668  1.5330  1.2865
 8218SOL     OW36112   2.541   0.435   1.025  0.2255  0.3130 -0.4948
 8218SOL    HW136113   2.531   0.435   1.120  1.6682 -0.6089 -0.3424
 8218SOL    HW236114   2.525   0.527   1.005  1.3886  0.8296  0.9153
 8219SOL     OW36115   1.082   0.427   7.589 -0.5764  0.4425  0.0949
 8219SOL    HW136116   1.163   0.451   7.545  0.0797 -3.0715 -0.5843
 8219SOL    HW236117   1.018   0.468   7.530  1.7636  1.7572 -1.5107
 8220SOL     OW36118   4.689   2.795   4.287 -0.4334  0.2129  0.2188
 8220SOL    HW136119   4.653   2.745   4.214  1.9531  2.1595 -2.2849
 8220SOL    HW236120   0.044   2.840   4.253  0.0123 -0.4934  0.2892
 8221SOL     OW36121   3.677   1.632  14.532  0.4794 -0.3528 -0.5299
 8221SOL    HW136122   3.658   1.627  14.626  1.2145  1.0385 -0.3062
 8221SOL    HW236123   3.680   1.727  14.520  1.1369 -0.6354 -2.5482
 8222SOL     OW36124   3.780   2.732   7.775 -0.1073  0.9544 -0.1106
 8222SOL    HW136125   3.860   2.748   7.725 -1.0102  2.6887 -0.9937
 8222SOL    HW236126   3.785   2.642   7.808  0.9276  1.0883  0.1044
 8223SOL     OW36127   4.468   0.825   7.567 -0.8230 -0.3173  0.0371
 8223SOL    HW136128   4.517   0.830   7.485 -0.6792 -0.2519  0.1265
 8223SOL    HW236129   4.395   0.885   7.553  1.7584  3.1097  1.2054
 8224SOL     OW36130   0.332   1.031   5.856  0.2669  0.2641 -0.6925
 8224SOL    HW136131   0.350   1.122   5.877  1.2633 -0.1786  0.3504
 8224SOL    HW236132   0.251   1.016   5.904  0.8477  1.5762  0.6606
 8225SOL     OW36133   2.581   3.282   4.659 -0.3254  0.1807  0.0849
 8225SOL    HW136134   2.592   3.197   4.617  0.2335 -0.1095  0.8144
 8225SOL    HW236135   2.499   3.320   4.626  0.0180 -0.1894 -1.1952
 8226SOL     OW36136   0.570   2.178   7.662  0.1670 -0.1669  0.0962
 8226SOL    HW136137   0.513   2.114   7.704 -0.2712 -1.4519 -2.4480
 8226SOL    HW236138   0.538   2.184   7.572 -0.3876  1.3422  0.3900
 8227SOL     OW36139   2.773   1.338   7.952  0.0699 -0.5373 -0.2338
 8227SOL    HW136140   2.688   1.371   7.981 -0.1246 -0.5257 -0.8319
 8227SOL    HW236141   2.769   1.245   7.972 -0.6885 -0.1869  1.2615
 8228SOL     OW36142   4.039   4.659   4.131 -0.7443  0.0400  0.2674
 8228SOL    HW136143   4.021   0.018   4.082  2.5728  1.0417  0.7070
 8228SOL    HW236144   4.046   4.593   4.062  0.4402  0.5564 -0.0998
 8229SOL     OW36145   4.305   0.748  14.408 -0.3193 -0.0108 -0.2433
 8229SOL    HW136146   4.351   0.666  14.390  2.8459  1.4234  1.3897
 8229SOL    HW236147   4.213   0.725  14.422  0.0424 -0.1988  1.8168
 8230SOL     OW36148   2.427   2.255   2.310 -0.0531 -0.0170  0.1703
 8230SOL    HW136149   2.378   2.178   2.339 -1.3829  1.0582  0.8027
 8230SOL    HW236150   2.514   2.215   2.306  0.5671  1.2715  1.0056
 8231SOL     OW36151   2.203   0.866   2.019 -0.3902 -0.4659 -0.4923
 8231SOL    HW136152   2.256   0.821   2.086 -0.4941 -0.1200 -0.1787
 8231SOL    HW236153   2.202   0.794   1.955  0.7709  0.4011 -1.4660
 8232SOL     OW36154   0.022   1.351   3.690  0.6091 -0.1861  0.1728
 8232SOL    HW136155   0.052   1.276   3.741 -0.1403 -0.4355  0.2425
 8232SOL    HW236156   0.090   1.410   3.721 -1.8346  1.2366  2.8143
 8233SOL     OW36157   2.745   1.152  11.292 -0.1992 -0.1100 -0.6383
 8233SOL    HW136158   2.744   1.069  11.245  0.4711 -1.0055  0.9234
 8233SOL    HW236159   2.737   1.124  11.383  1.0579  1.8169  0.0685
 8234SOL     OW36160   0.758   0.112   2.272 -0.3782 -0.4169  0.0508
 8234SOL    HW136161   0.694   0.135   2.205 -0.3207  0.1831  0.2014
 8234SOL    HW236162   0.782   0.195   2.312  2.5773 -1.2851  0.0669
 8235SOL     OW36163   1.783   3.234   9.399  0.3222  0.2769  0.3506
 8235SOL    HW136164   1.689   3.249   9.408  0.2201  1.1345 -2.0224
 8235SOL    HW236165   1.798   3.164   9.463  1.4096  0.7410  0.5987
 8236SOL     OW36166   0.213   4.331  11.057 -0.4769  0.3371 -0.6067
 8236SOL    HW136167   0.237   4.343  11.149  1.1390 -2.1021 -0.6994
 8236SOL    HW236168   0.168   4.246  11.052 -0.8014  0.3330  2.1708
 8237SOL     OW36169   2.353   1.074  15.553  0.2450  0.0930 -0.2432
 8237SOL    HW136170   2.359   0.989  15.510 -0.9908  0.0209 -0.2889
 8237SOL    HW236171   2.417   1.128  15.507  0.0152  2.2372  1.9404
 8238SOL     OW36172   2.843   0.537   4.431  0.1792 -0.2354 -0.2025
 8238SOL    HW136173   2.791   0.458   4.420  0.0504  0.1478 -2.2303
 8238SOL    HW236174   2.892   0.518   4.512 -0.3142  1.4416  0.4835
 8239SOL     OW36175   0.824   2.514   5.033  0.0520 -0.3451  0.1031
 8239SOL    HW136176   0.846   2.458   4.959  0.0940  0.5883 -0.5932
 8239SOL    HW236177   0.771   2.581   4.989  0.5099 -0.5267 -0.7280
 8240SOL     OW36178   3.872   4.150   3.551 -0.8087  0.0602 -0.2019
 8240SOL    HW136179   3.778   4.165   3.562 -0.6320  2.5317 -1.8139
 8240SOL    HW236180   3.871   4.056   3.536 -0.1773  0.1534 -0.8022
 8241SOL     OW36181   3.162   3.776   8.110 -0.1058 -0.2193 -0.0608
 8241SOL    HW136182   3.178   3.700   8.166 -2.0037  0.0655  0.8841
 8241SOL    HW236183   3.228   3.836   8.143  0.5862 -1.1679  0.2683
 8242SOL     OW36184   2.770   0.791   2.945 -0.0329  0.1025  0.0209
 8242SOL    HW136185   2.788   0.883   2.929  3.3816 -0.8171 -1.4419
 8242SOL    HW236186   2.818   0.776   3.026  0.5441  0.1563 -0.3142
 8243SOL     OW36187   0.515   3.998   5.845 -0.4305 -0.1597 -0.5707
 8243SOL    HW136188   0.485   3.924   5.899 -0.0774  1.2707  1.6023
 8243SOL    HW236189   0.461   4.070   5.879 -1.5619 -1.8479  1.2558
 8244SOL     OW36190   0.080   4.007   4.421  0.1303 -0.1748  0.0135
 8244SOL    HW136191   0.039   3.929   4.459 -0.8113 -0.5893 -1.8540
 8244SOL    HW236192   0.034   4.021   4.338  1.0473 -2.3355 -0.8607
 8245SOL     OW36193   2.964   3.919  11.770  0.2607 -0.4622 -0.0609
 8245SOL    HW136194   2.975   3.858  11.697  0.5948  1.1861 -1.3872
 8245SOL    HW236195   3.020   3.989  11.736 -0.5962  1.1021  1.7123
 8246SOL     OW36196   0.913   1.611   2.708 -0.0778  0.3233  0.3860
 8246SOL    HW136197   0.957   1.690   2.741 -0.0905 -0.3883  2.0975
 8246SOL    HW236198   0.990   1.554   2.719 -0.0531  0.3652  0.4332
 8247SOL     OW36199   3.109   0.087  17.289  0.1371  0.1704 -0.3043
 8247SOL    HW136200   3.191   0.048  17.261  1.2946  1.7847  0.8100
 8247SOL    HW236201   3.132   0.149  17.359 -1.6672  0.7461 -0.2194
 8248SOL     OW36202   2.099   2.569   8.973 -0.2264  0.1509 -0.8687
 8248SOL    HW136203   2.097   2.527   9.059  1.9395  1.3718 -0.2229
 8248SOL    HW236204   2.189   2.551   8.946  0.0106 -0.3462  0.2647
 8249SOL     OW36205   1.747   1.993   6.366 -0.8923 -0.2049  0.1948
 8249SOL    HW136206   1.729   1.912   6.318 -3.4877  0.9259 -0.7262
 8249SOL    HW236207   1.725   2.064   6.306 -0.8884  1.3452  2.0164
 8250SOL     OW36208   2.518   3.090  12.251 -0.5366 -0.7294 -0.3538
 8250SOL    HW136209   2.459   3.141  12.195 -0.9485  0.4255  1.1170
 8250SOL    HW236210   2.546   3.021  12.191  0.0113  1.6169 -2.7989
 8251SOL     OW36211   1.634   3.866  11.073  0.2381 -0.1474  1.1217
 8251SOL    HW136212   1.545   3.874  11.107  0.1544 -0.1165  0.8925
 8251SOL    HW236213   1.625   3.817  10.991  1.4066 -2.3314  2.3123
 8252SOL     OW36214   3.829   4.240   4.636 -0.2567 -0.7729 -0.0242
 8252SOL    HW136215   3.889   4.289   4.580 -0.0261 -1.8307 -0.6908
 8252SOL    HW236216   3.811   4.165   4.580 -3.1633 -0.8940  1.0361
 8253SOL     OW36217   4.197   4.690   2.406  0.0204  0.5387 -0.4978
 8253SOL    HW136218   4.276   4.637   2.391 -0.0338  0.1534  0.5646
 8253SOL    HW236219   4.210   0.009   2.492  1.7455 -3.5449  1.1701
 8254SOL     OW36220   2.142   0.884   7.989  0.2144  0.1307 -0.0407
 8254SOL    HW136221   2.178   0.797   8.005 -0.3266  0.0258  0.6365
 8254SOL    HW236222   2.166   0.898   7.898  0.4238 -0.3872 -0.0598
 8255SOL     OW36223   2.569   1.685   2.644  0.0138  0.9877 -0.2055
 8255SOL    HW136224   2.624   1.661   2.718  0.1441  0.2468 -0.5380
 8255SOL    HW236225   2.549   1.598   2.608 -1.1844  1.6716 -1.1818
 8256SOL     OW36226   4.605   2.134   0.970 -0.1003 -0.2814  0.2501
 8256SOL    HW136227   4.666   2.085   1.024  0.1921  2.0186  2.0136
 8256SOL    HW236228   4.664   2.192   0.921 -1.4095 -0.4178 -1.4916
 8257SOL     OW36229   0.195   2.998   8.249 -0.5509 -0.6026 -0.2939
 8257SOL    HW136230   0.125   2.951   8.295  0.3007 -1.7987 -0.2098
 8257SOL    HW236231   0.260   2.930   8.232  0.8050  0.1716  1.8007
 8258SOL     OW36232   3.186   4.224   3.317 -0.3274 -0.1014 -0.1743
 8258SOL    HW136233   3.147   4.208   3.403  2.3632 -0.3388  0.9985
 8258SOL    HW236234   3.106   4.244   3.267 -1.7881 -1.3332  1.6438
 8259SOL     OW36235   4.683   2.953   3.525  0.2901  0.2191 -0.2695
 8259SOL    HW136236   4.628   3.012   3.473 -1.5439  0.2844  1.7030
 8259SOL    HW236237   4.716   3.025   3.578  1.6260 -1.5255  1.2774
 8260SOL     OW36238   2.568   4.327   7.184  0.0757 -0.1882  0.1712
 8260SOL    HW136239   2.592   4.416   7.209  0.5291  0.1721 -1.5747
 8260SOL    HW236240   2.547   4.285   7.268 -0.8151  1.4837  0.7734
 8261SOL     OW36241   4.007   4.715  10.877  0.3043 -0.0245  0.5589
 8261SOL    HW136242   3.912   0.003  10.870  0.4062  1.1540  0.7451
 8261SOL    HW236243   4.011   4.701  10.972  0.1688 -0.4564  0.5030
 8262SOL     OW36244   1.486   2.433   4.419 -0.3056  0.3172 -0.1581
 8262SOL    HW136245   1.393   2.454   4.418 -0.1436  0.8693 -2.7388
 8262SOL    HW236246   1.532   2.491   4.358  0.2165 -0.1894 -0.2472
 8263SOL     OW36247   1.736   3.946   0.868 -0.2604 -0.2241  0.2794
 8263SOL    HW136248   1.692   3.869   0.832  1.2781 -1.4223  0.9842
 8263SOL    HW236249   1.813   3.901   0.903  0.3296 -1.0202 -2.0683
 8264SOL     OW36250   1.708   3.446   2.305  0.2891  0.5283  0.1002
 8264SOL    HW136251   1.750   3.475   2.224  0.8097 -1.5611 -0.3642
 8264SOL    HW236252   1.622   3.452   2.264 -0.1598  0.1958  1.0098
 8265SOL     OW36253   2.714   1.816   6.929  1.2795 -0.0652  0.1274
 8265SOL    HW136254   2.670   1.809   7.014 -0.6249  0.0577 -0.8421
 8265SOL    HW236255   2.751   1.904   6.934 -0.4700  0.6210  1.1146
 8266SOL     OW36256   1.447   0.539   3.057 -0.1712  0.0143 -0.1924
 8266SOL    HW136257   1.379   0.477   3.030  0.3602  1.4306 -4.8606
 8266SOL    HW236258   1.443   0.597   2.980  1.7351  0.6476  0.1937
 8267SOL     OW36259   1.610   0.779   3.562  0.0441  0.5434  0.3229
 8267SOL    HW136260   1.686   0.829   3.591  1.9625 -1.4969 -1.1531
 8267SOL    HW236261   1.642   0.690   3.572 -1.9462 -0.2423 -0.2359
 8268SOL     OW36262   0.635   3.057   3.355  0.7324 -0.1261  0.6759
 8268SOL    HW136263   0.556   3.035   3.306 -0.7243  2.0222  2.0164
 8268SOL    HW236264   0.636   3.148   3.385 -2.0512  0.5838 -1.4287
 8269SOL     OW36265   1.196   2.674   4.248 -0.4777  0.3366  0.3089
 8269SOL    HW136266   1.220   2.760   4.283  0.1213 -0.0369  0.8160
 8269SOL    HW236267   1.278   2.658   4.200 -1.0613 -0.0055 -0.5719
 8270SOL     OW36268   1.853   2.082   7.858 -0.7350 -0.2995 -0.3465
 8270SOL    HW136269   1.880   2.173   7.864  0.2407 -0.7136  1.5317
 8270SOL    HW236270   1.758   2.084   7.869 -0.6170  2.0189  0.1602
 8271SOL     OW36271   0.501   1.061   4.371  0.2444  0.0449 -0.3819
 8271SOL    HW136272   0.460   1.010   4.441 -1.5202  2.6693  0.5071
 8271SOL    HW236273   0.502   0.992   4.305 -0.2788 -1.0692  0.7612
 8272SOL     OW36274   1.204   0.129   0.365  0.4399  0.1660 -0.0617
 8272SOL    HW136275   1.127   0.139   0.308  0.1700  0.3153  0.3316
 8272SOL    HW236276   1.256   0.202   0.331 -0.0960  1.7612  2.5715
 8273SOL     OW36277   3.721   1.791   7.704 -0.2565  0.5377  0.2277
 8273SOL    HW136278   3.659   1.741   7.757  0.1677 -0.1437  0.0782
 8273SOL    HW236279   3.750   1.854   7.770  1.0921  0.2785 -0.1113
 8274SOL     OW36280   0.832   0.298   2.781 -0.1260  0.4270 -0.6694
 8274SOL    HW136281   0.753   0.308   2.834 -0.4827  2.0634 -1.5150
 8274SOL    HW236282   0.837   0.206   2.755  0.9222 -0.2288  1.8653
 8275SOL     OW36283   1.718   0.962   1.112 -0.2709  0.4844  0.4621
 8275SOL    HW136284   1.653   0.998   1.051 -0.2720  1.2990  0.9324
 8275SOL    HW236285   1.668   0.984   1.191 -1.5906  1.3353 -0.6065
 8276SOL     OW36286   3.986   3.434   6.197 -0.2158  0.3211  0.0236
 8276SOL    HW136287   3.897   3.424   6.166 -0.2482  0.1489  0.1708
 8276SOL    HW236288   4.024   3.492   6.131  0.5059  0.5760  0.6551
 8277SOL     OW36289   2.805   0.735   4.234 -0.2898 -0.1643  0.2670
 8277SOL    HW136290   2.781   0.651   4.274 -3.3810  0.8971  0.6232
 8277SOL    HW236291   2.769   0.799   4.295 -4.2069  0.6445 -2.9096
 8278SOL     OW36292   1.781   1.726   1.218 -0.2290  0.0422  0.1420
 8278SOL    HW136293   1.744   1.639   1.233 -0.5703  0.0605 -0.5984
 8278SOL    HW236294   1.715   1.774   1.267 -0.1200 -1.4348  1.7471
 8279SOL     OW36295   4.517   2.093   8.760  0.0923  0.4360 -0.1221
 8279SOL    HW136296   4.438   2.139   8.790 -1.2923 -1.4325 -0.8956
 8279SOL    HW236297   4.495   2.009   8.800  0.1278 -0.5767 -2.2693
 8280SOL     OW36298   2.801   4.488   6.149  0.5656 -0.3424 -0.2273
 8280SOL    HW136299   2.803   4.450   6.061 -0.9875  2.1530 -1.3547
 8280SOL    HW236300   2.882   4.448   6.181  0.8006  0.6170  0.3670
 8281SOL     OW36301   0.898   1.866   3.223 -0.0294 -0.1065 -0.4233
 8281SOL    HW136302   0.975   1.813   3.203  0.2287  0.7260 -1.6905
 8281SOL    HW236303   0.841   1.823   3.159 -0.7230 -1.5083  1.1478
 8282SOL     OW36304   4.225   3.295   8.671 -0.6853  0.1734  0.2808
 8282SOL    HW136305   4.167   3.236   8.623  1.3240 -1.0304 -0.6773
 8282SOL    HW236306   4.297   3.312   8.610 -0.9171  1.6590  0.4197
 8283SOL     OW36307   4.535   2.049   2.454  0.3262 -0.2155 -0.2851
 8283SOL    HW136308   4.445   2.048   2.421 -0.6804  1.3953  2.3343
 8283SOL    HW236309   4.581   1.971   2.425 -0.8994 -0.8897 -0.4136
 8284SOL     OW36310   2.816   2.322   5.356  0.4939  0.2938 -0.0656
 8284SOL    HW136311   2.759   2.343   5.430 -0.2915 -0.3826 -0.4803
 8284SOL    HW236312   2.807   2.408   5.316 -1.6476 -0.8785 -2.1446
 8285SOL     OW36313   0.404   4.095   3.838  0.0990  0.2332 -1.0716
 8285SOL    HW136314   0.387   4.188   3.850 -0.2167  0.0597 -0.1201
 8285SOL    HW236315   0.446   4.093   3.752  0.5031 -0.1585 -0.8706
 8286SOL     OW36316   1.374   0.436   1.567 -0.0166 -0.2436 -0.0487
 8286SOL    HW136317   1.421   0.396   1.494  1.2065 -1.2461  1.2936
 8286SOL    HW236318   1.287   0.405   1.543  0.4385 -2.0721  0.6049
 8287SOL     OW36319   0.910   0.574   5.166  0.7713 -0.7636 -0.0036
 8287SOL    HW136320   0.817   0.597   5.171  0.5420 -1.9558  0.9398
 8287SOL    HW236321   0.949   0.616   5.242 -1.8794 -0.5914  1.2331
 8288SOL     OW36322   1.022   3.742  15.820 -0.0738 -0.4116 -0.2305
 8288SOL    HW136323   0.966   3.747  15.743  0.8842 -2.1698 -1.0671
 8288SOL    HW236324   1.086   3.674  15.800  1.0637  0.1889  1.3107
 8289SOL     OW36325   1.137   3.217  13.782 -0.2575  0.5238  0.5359
 8289SOL    HW136326   1.059   3.223  13.727 -0.7916 -1.4524  1.0711
 8289SOL    HW236327   1.174   3.299  13.750  0.4943 -1.0406 -2.6101
 8290SOL     OW36328   2.318   1.627   5.358 -0.6880 -0.2903 -0.3554
 8290SOL    HW136329   2.370   1.700   5.325 -1.5572  0.4311 -0.1202
 8290SOL    HW236330   2.235   1.635   5.312 -0.3039 -0.7758 -1.1155
 8291SOL     OW36331   2.381   3.584  14.793  0.2622 -0.1848 -0.0196
 8291SOL    HW136332   2.340   3.658  14.838 -0.1278 -0.3940 -0.0301
 8291SOL    HW236333   2.306   3.525  14.782  0.0097 -0.2495  1.9400
 8292SOL     OW36334   3.968   0.149   8.416 -0.6399  0.1718  0.2943
 8292SOL    HW136335   3.978   0.214   8.347  0.2313 -1.3814 -1.0135
 8292SOL    HW236336   4.049   0.099   8.419  0.2603  1.7026  1.7357
 8293SOL     OW36337   1.604   1.797   1.490  0.0093 -0.2095  0.3740
 8293SOL    HW136338   1.587   1.841   1.408  1.5311 -0.3066  0.0033
 8293SOL    HW236339   1.559   1.850   1.555  0.8372  1.9463 -0.8380
 8294SOL     OW36340   2.895   3.205   7.229 -0.2831  0.6182 -0.1558
 8294SOL    HW136341   2.871   3.113   7.236 -0.1044  0.6882  1.2068
 8294SOL    HW236342   2.991   3.205   7.224 -0.2726 -1.1653  0.1836
 8295SOL     OW36343   0.937   3.305  13.032  0.0737  0.0371 -0.0708
 8295SOL    HW136344   0.922   3.312  12.938  0.0462 -3.1665 -0.3086
 8295SOL    HW236345   0.848   3.279  13.057 -0.5073 -0.3999 -2.6217
 8296SOL     OW36346   1.556   4.121  11.298  0.3352  0.5959  0.7068
 8296SOL    HW136347   1.469   4.133  11.262  0.7526  1.7379  0.0732
 8296SOL    HW236348   1.603   4.161  11.224  1.7844 -2.3827 -0.0024
 8297SOL     OW36349   1.211   1.570   3.982  0.0325 -0.6285 -0.3321
 8297SOL    HW136350   1.199   1.634   3.912 -2.4319 -0.7189  0.0292
 8297SOL    HW236351   1.117   1.564   3.999  0.6198 -0.4763  2.9204
 8298SOL     OW36352   3.811   4.147   5.900  0.0948 -0.3451 -0.2170
 8298SOL    HW136353   3.778   4.087   5.833  0.1291  0.7972 -1.2515
 8298SOL    HW236354   3.765   4.229   5.884 -0.3901 -0.9169 -1.7324
 8299SOL     OW36355   0.293   3.529   0.226  0.2731  0.4601  0.0866
 8299SOL    HW136356   0.241   3.534   0.306  1.8131 -2.8762  1.3007
 8299SOL    HW236357   0.358   3.598   0.239  0.3019  0.7953 -1.8262
 8300SOL     OW36358   4.480   3.828   4.248 -0.0845 -0.2614  0.4919
 8300SOL    HW136359   4.400   3.872   4.220  0.7780  1.1473  0.2322
 8300SOL    HW236360   4.550   3.888   4.221  0.9826 -0.5921  2.4814
 8301SOL     OW36361   3.787   3.666  11.371  0.1043  0.4550 -0.4537
 8301SOL    HW136362   3.759   3.587  11.325 -0.5102  0.8538 -0.7566
 8301SOL    HW236363   3.808   3.717  11.293  0.8724  0.5434 -0.1885
 8302SOL     OW36364   2.441   0.271   9.148  0.9320 -0.6065 -0.0842
 8302SOL    HW136365   2.451   0.293   9.241  0.5580 -0.6308 -0.0414
 8302SOL    HW236366   2.347   0.257   9.147  1.7403 -6.0220 -1.4438
 8303SOL     OW36367   3.618   0.443   6.359  0.7256  0.0854  0.2477
 8303SOL    HW136368   3.528   0.415   6.340  0.4764  1.1530 -0.1331
 8303SOL    HW236369   3.594   0.512   6.421 -0.4531  0.5733 -0.7476
 8304SOL     OW36370   3.963   2.783   7.576  0.0242  0.1842 -0.4485
 8304SOL    HW136371   3.963   2.822   7.489  0.9018  1.3460  0.0628
 8304SOL    HW236372   4.052   2.759   7.603  0.7061  1.9624 -1.0967
 8305SOL     OW36373   3.338   0.259   5.197 -0.1153 -0.0381 -0.3276
 8305SOL    HW136374   3.360   0.209   5.119 -1.0475  0.8010 -1.1165
 8305SOL    HW236375   3.390   0.339   5.186  1.8069 -1.0172  1.5427
 8306SOL     OW36376   1.280   3.344   6.543 -0.4746 -0.0851  0.7301
 8306SOL    HW136377   1.256   3.252   6.532 -0.3126  0.0097 -0.4267
 8306SOL    HW236378   1.373   3.338   6.523 -0.4578 -0.8538  1.0402
 8307SOL     OW36379   2.123   3.357   8.480  0.0445  0.4264 -0.2871
 8307SOL    HW136380   2.126   3.387   8.571  3.4325 -1.5532  0.2691
 8307SOL    HW236381   2.164   3.431   8.435 -0.5401  0.4681 -0.7426
 8308SOL     OW36382   4.304   3.024   1.911 -0.1953  0.0263 -0.2234
 8308SOL    HW136383   4.357   3.049   1.986 -1.8728  1.6026  0.4210
 8308SOL    HW236384   4.220   3.011   1.954 -0.1054 -0.6498 -0.2472
 8309SOL     OW36385   3.452   0.918   4.704  0.3156 -0.1047 -0.3800
 8309SOL    HW136386   3.530   0.922   4.649  0.9407  0.1577  0.5239
 8309SOL    HW236387   3.422   0.829   4.687 -1.4520 -0.0709  2.5441
 8310SOL     OW36388   3.805   1.525   4.680 -0.1753  0.2577  0.0724
 8310SOL    HW136389   3.729   1.502   4.627 -1.6895 -0.6371  2.6578
 8310SOL    HW236390   3.793   1.620   4.676  1.5672  0.4984  0.3063
 8311SOL     OW36391   3.822   2.454   7.762  0.0143 -0.0515 -0.1452
 8311SOL    HW136392   3.807   2.361   7.778  0.5376 -0.2409 -0.7190
 8311SOL    HW236393   3.914   2.447   7.736 -0.1724 -0.9554 -0.5595
 8312SOL     OW36394   1.301   0.279   8.770 -0.1276  0.2654  0.0774
 8312SOL    HW136395   1.230   0.288   8.834 -1.1929  2.1007 -1.3812
 8312SOL    HW236396   1.251   0.306   8.694  1.1626 -0.6174 -1.0841
 8313SOL     OW36397   0.998   3.192   2.886 -0.6946 -0.1138  0.3990
 8313SOL    HW136398   0.992   3.164   2.795 -0.5209 -1.2441  0.7296
 8313SOL    HW236399   0.904   3.186   2.901 -0.4953  1.3994  2.3366
 8314SOL     OW36400   0.834   4.231   7.420  0.1978 -0.8623 -0.1357
 8314SOL    HW136401   0.799   4.229   7.509  2.2765 -2.8327  0.6410
 8314SOL    HW236402   0.927   4.210   7.428  0.1980 -0.6809  0.3509
 8315SOL     OW36403   1.046   4.580   5.633 -0.6510  0.6491  0.0491
 8315SOL    HW136404   0.963   4.536   5.644 -1.3538  2.3398  1.5607
 8315SOL    HW236405   1.030   4.661   5.681 -1.5643  1.6121 -1.8587
 8316SOL     OW36406   0.046   2.393   0.562  0.2270  0.0312 -0.1458
 8316SOL    HW136407   0.058   2.324   0.496 -1.5341 -1.7493  1.3901
 8316SOL    HW236408   4.711   2.350   0.626  0.3983  0.8281  0.5472
 8317SOL     OW36409   2.509   2.182   1.091 -0.1798  0.3990  0.1021
 8317SOL    HW136410   2.508   2.195   1.186 -3.1173  0.4765  0.0571
 8317SOL    HW236411   2.524   2.273   1.066 -1.8507  0.7329  0.3131
 8318SOL     OW36412   1.924   2.912   6.064  0.0674 -0.1654  0.3043
 8318SOL    HW136413   1.975   2.938   5.987 -0.7584 -0.4176 -0.3210
 8318SOL    HW236414   1.977   2.837   6.090  0.7681  1.2474  3.0172
 8319SOL     OW36415   0.321   1.345   5.817  0.3253  0.0993 -0.1797
 8319SOL    HW136416   0.233   1.371   5.792 -0.0183 -0.4671  0.4507
 8319SOL    HW236417   0.310   1.348   5.912 -1.4982 -2.5146 -0.3131
 8320SOL     OW36418   1.441   0.600  10.106 -0.4152  0.1644  0.2277
 8320SOL    HW136419   1.468   0.561  10.189 -1.9645 -0.5311  0.3875
 8320SOL    HW236420   1.419   0.687  10.140  2.5708  0.4685  1.4042
 8321SOL     OW36421   2.007   4.434   1.840 -0.2656 -0.0027 -0.2850
 8321SOL    HW136422   1.935   4.436   1.902  1.2083  1.9985  1.3767
 8321SOL    HW236423   2.036   4.350   1.874  1.1462 -0.3015 -2.1709
 8322SOL     OW36424   2.966   3.248   7.628 -0.3916  0.3071  0.5126
 8322SOL    HW136425   2.898   3.193   7.668  0.2543  0.3689  1.6982
 8322SOL    HW236426   3.034   3.180   7.630 -1.5659 -0.8270  2.1114
 8323SOL     OW36427   1.478   3.951   6.029  0.1018 -0.9041 -0.3035
 8323SOL    HW136428   1.443   4.023   6.081  1.0413 -2.9954  3.2219
 8323SOL    HW236429   1.438   3.991   5.952  0.2388  2.6922  1.4842
 8324SOL     OW36430   3.912   1.667   4.105  0.3375  1.0279 -0.0647
 8324SOL    HW136431   3.998   1.651   4.067  0.9340  0.1124  1.7223
 8324SOL    HW236432   3.927   1.620   4.187  0.4813 -1.6952 -1.6400
 8325SOL     OW36433   1.330   0.618   9.619  0.0266  0.0140  0.1404
 8325SOL    HW136434   1.371   0.701   9.598 -0.7293  0.6016  1.0096
 8325SOL    HW236435   1.253   0.621   9.562  0.2533  0.1922 -0.1561
 8326SOL     OW36436   1.561   1.897  16.553 -0.0043 -0.0387  0.4628
 8326SOL    HW136437   1.575   1.984  16.516  2.7630 -0.8396 -0.3379
 8326SOL    HW236438   1.575   1.911  16.646 -0.0657 -3.6544  1.0229
 8327SOL     OW36439   0.704   1.243   4.236  0.2140  0.0776  0.0695
 8327SOL    HW136440   0.627   1.297   4.218  1.2402  1.9956  1.4043
 8327SOL    HW236441   0.674   1.162   4.276  0.9344 -0.4113 -0.3828
 8328SOL     OW36442   2.935   1.358   5.005  0.7061 -0.3372 -0.8930
 8328SOL    HW136443   3.022   1.354   4.966  1.6926 -1.7284  1.4752
 8328SOL    HW236444   2.896   1.442   4.979 -0.5441 -1.3111 -2.2168
 8329SOL     OW36445   2.371   2.621   5.020  0.5548  0.6983 -0.1439
 8329SOL    HW136446   2.432   2.617   4.946  1.8103 -3.3863  1.0740
 8329SOL    HW236447   2.401   2.694   5.074 -0.0458 -0.6584  2.0418
 8330SOL     OW36448   3.652   2.015   5.973  0.5712  0.1129  0.1705
 8330SOL    HW136449   3.647   2.098   6.022  1.6986  0.8005 -0.9025
 8330SOL    HW236450   3.721   1.967   6.018 -0.4759 -2.7235 -1.2795
 8331SOL     OW36451   1.672   3.076   3.349  0.6006 -0.5227  0.7481
 8331SOL    HW136452   1.596   3.134   3.357  0.0403 -1.3136  1.1295
 8331SOL    HW236453   1.647   3.029   3.270  0.1382 -0.9157  1.1353
 8332SOL     OW36454   3.201   3.960   8.531 -0.3486 -0.5298 -0.2708
 8332SOL    HW136455   3.128   4.021   8.543  0.3750  0.3037 -0.1566
 8332SOL    HW236456   3.270   4.015   8.494 -1.5484  0.3933 -1.1357
 8333SOL     OW36457   1.711   1.205   5.191 -0.3282  0.2183  0.4055
 8333SOL    HW136458   1.676   1.160   5.269  0.3143 -0.2142  0.4475
 8333SOL    HW236459   1.669   1.289   5.206 -0.8117  0.3375 -1.6528
 8334SOL     OW36460   4.023   1.363  13.035 -0.0493 -0.5188 -0.3061
 8334SOL    HW136461   4.104   1.361  13.086 -0.3289 -2.1384  0.0793
 8334SOL    HW236462   4.005   1.271  13.051  0.0260 -0.1544  1.8951
 8335SOL     OW36463   3.910   0.161   2.817 -0.0053  0.8372  0.5699
 8335SOL    HW136464   3.864   0.176   2.899 -0.5903 -0.6683  0.5203
 8335SOL    HW236465   3.916   0.251   2.785 -1.3074  0.7105 -0.0633
 8336SOL     OW36466   0.489   1.655   3.797 -0.7067  0.2881  0.0026
 8336SOL    HW136467   0.502   1.567   3.762 -0.2325 -0.5334  2.2394
 8336SOL    HW236468   0.548   1.656   3.872  0.0334 -0.5059 -0.5664
 8337SOL     OW36469   1.392   2.300  13.223 -0.6119 -0.1875  0.1378
 8337SOL    HW136470   1.404   2.312  13.129  1.9365 -1.9956  0.2248
 8337SOL    HW236471   1.300   2.329  13.219 -0.4827  0.5449  2.7643
 8338SOL     OW36472   1.974   4.166   5.714 -0.4062  0.9375  0.1657
 8338SOL    HW136473   2.068   4.181   5.700 -1.0254  0.2527 -4.6291
 8338SOL    HW236474   1.944   4.221   5.642 -0.2843  0.2026 -0.4470
 8339SOL     OW36475   1.161   2.664   5.151  0.4062 -0.1315  0.2488
 8339SOL    HW136476   1.212   2.601   5.203  0.4819 -1.5923 -1.6230
 8339SOL    HW236477   1.072   2.660   5.185  0.0611 -0.2434 -0.6949
 8340SOL     OW36478   1.976   3.603  12.585 -0.5589 -0.2716  0.0834
 8340SOL    HW136479   2.059   3.650  12.587 -1.3203  1.0295  0.6498
 8340SOL    HW236480   1.932   3.657  12.650 -0.3855  3.3225 -2.7921
 8341SOL     OW36481   3.119   3.060   2.774  0.3518 -0.0496 -0.3566
 8341SOL    HW136482   3.169   3.126   2.822 -1.2957 -0.5128  2.0105
 8341SOL    HW236483   3.029   3.091   2.771  0.4884  0.5252  1.8257
 8342SOL     OW36484   1.463   1.146   7.770  0.0168  0.6613 -0.0852
 8342SOL    HW136485   1.487   1.102   7.852 -1.8163 -2.2830 -1.1063
 8342SOL    HW236486   1.371   1.170   7.785  0.7855  3.4150  0.1593
 8343SOL     OW36487   2.382   4.281   3.872  0.2526 -0.3593  0.5571
 8343SOL    HW136488   2.339   4.355   3.916  0.4953  0.7550 -1.0677
 8343SOL    HW236489   2.302   4.232   3.851  0.2402 -0.0223 -0.2075
 8344SOL     OW36490   1.028   1.867   6.194 -0.3822  0.2075  0.0778
 8344SOL    HW136491   1.071   1.842   6.112 -1.0961 -3.4151  0.8125
 8344SOL    HW236492   1.086   1.934   6.230  0.8996  0.5138 -2.5189
 8345SOL     OW36493   2.721   3.917   0.575 -0.5440 -0.4014 -0.0070
 8345SOL    HW136494   2.709   3.997   0.627 -4.0036 -1.6675  1.1637
 8345SOL    HW236495   2.802   3.887   0.616  0.2051  1.0220 -0.4459
 8346SOL     OW36496   3.251   0.431   3.705 -0.0035 -0.4931 -0.2483
 8346SOL    HW136497   3.227   0.399   3.792  1.6582 -1.2674 -0.0713
 8346SOL    HW236498   3.334   0.386   3.689 -0.7781 -1.8151 -0.5569
 8347SOL     OW36499   1.853   2.862   5.286  0.8221  0.6091  0.2845
 8347SOL    HW136500   1.872   2.768   5.287  0.1223  0.4610  0.0583
 8347SOL    HW236501   1.839   2.882   5.378 -1.2190 -0.0928  0.1168
 8348SOL     OW36502   3.028   1.684   4.852  0.1856  0.0578  0.0558
 8348SOL    HW136503   3.092   1.738   4.805 -0.4625  0.4430 -0.3755
 8348SOL    HW236504   3.009   1.614   4.789 -0.8470 -0.3102  0.7744
 8349SOL     OW36505   1.131   4.480  15.348  0.5118  0.6549  0.0761
 8349SOL    HW136506   1.197   4.461  15.281  1.1118 -0.4062  0.9739
 8349SOL    HW236507   1.053   4.496  15.293 -0.0580 -2.1435  0.0390
 8350SOL     OW36508   3.491   4.223   4.271  0.4676 -0.0470  0.2807
 8350SOL    HW136509   3.438   4.301   4.285 -0.4428 -0.4428 -0.8994
 8350SOL    HW236510   3.581   4.254   4.260  0.3825  0.2188  0.3380
 8351SOL     OW36511   0.055   1.804  13.889 -0.3402 -0.6304 -0.1395
 8351SOL    HW136512   0.032   1.865  13.819 -0.4248  0.7694  1.1231
 8351SOL    HW236513   4.692   1.758  13.892 -0.0011 -1.2335  0.0796
 8352SOL     OW36514   1.857   3.456   5.576  0.2224 -0.8297  0.4419
 8352SOL    HW136515   1.786   3.519   5.578 -0.4589 -1.5360 -1.1863
 8352SOL    HW236516   1.810   3.373   5.586 -1.9724  0.4591  0.6586
 8353SOL     OW36517   1.754   4.180   3.636  0.6075  0.1611  0.1626
 8353SOL    HW136518   1.661   4.176   3.660  0.8353  1.6679  1.3174
 8353SOL    HW236519   1.779   4.100   3.681  0.1885 -0.0308  0.0521
 8354SOL     OW36520   3.566   1.539   1.938  0.0307 -0.0022  0.5152
 8354SOL    HW136521   3.564   1.540   1.843 -3.5735 -0.0215  0.5953
 8354SOL    HW236522   3.638   1.598   1.959 -0.9002  0.7790  1.5346
 8355SOL     OW36523   2.331   0.874   1.401  0.3947  0.3187  0.0054
 8355SOL    HW136524   2.259   0.931   1.376 -0.8158 -1.7201 -1.1403
 8355SOL    HW236525   2.336   0.824   1.320  1.3271 -2.0712  1.5239
 8356SOL     OW36526   3.788   0.688   3.197 -0.0107 -0.3597  0.4049
 8356SOL    HW136527   3.723   0.756   3.182 -0.7135 -0.7262  1.7284
 8356SOL    HW236528   3.727   0.618   3.174 -0.5379 -0.0218  0.7572
 8357SOL     OW36529   1.270   4.616   6.235  0.3040  0.3284  0.0172
 8357SOL    HW136530   1.345   4.668   6.263  1.1228 -1.6300  1.4535
 8357SOL    HW236531   1.308   4.532   6.211 -0.7044  0.8907 -3.6011
 8358SOL     OW36532   1.119   4.009   5.394 -0.4469  0.1472 -0.2414
 8358SOL    HW136533   1.125   3.973   5.305  0.1695 -1.7319  0.5612
 8358SOL    HW236534   1.150   4.097   5.373  1.7601 -0.7839 -0.8689
 8359SOL     OW36535   1.225   0.088   9.098 -0.4041  0.4787  0.0871
 8359SOL    HW136536   1.194   0.023   9.161  0.5015 -0.1643 -0.1372
 8359SOL    HW236537   1.190   0.164   9.145 -0.9194  0.1978  0.1630
 8360SOL     OW36538   1.932   0.525   8.430 -0.2094  0.1167  0.2454
 8360SOL    HW136539   1.938   0.505   8.337  0.9274  2.5755 -0.2000
 8360SOL    HW236540   1.921   0.619   8.418 -1.2481 -0.2815 -1.9176
 8361SOL     OW36541   0.697   2.483   1.854  0.0438 -0.4759  0.3750
 8361SOL    HW136542   0.602   2.494   1.860  0.0964 -1.1464  2.5288
 8361SOL    HW236543   0.709   2.389   1.872  0.7079 -0.8071 -1.8238
 8362SOL     OW36544   2.134   4.075  14.329  0.0121  0.3805 -0.1580
 8362SOL    HW136545   2.104   3.987  14.306 -0.4627  0.5486 -0.1825
 8362SOL    HW236546   2.147   4.111  14.242  1.7605  0.1566  0.0085
 8363SOL     OW36547   0.567   4.094   7.335  0.7754  0.1228  0.5978
 8363SOL    HW136548   0.644   4.147   7.354  1.1378 -0.9416  2.0943
 8363SOL    HW236549   0.597   4.048   7.257 -0.8702 -0.5789  0.3747
 8364SOL     OW36550   0.633   1.793   5.539 -0.2959  0.0277  0.3174
 8364SOL    HW136551   0.587   1.724   5.586  1.0460 -0.4982  0.8419
 8364SOL    HW236552   0.725   1.780   5.560 -0.3746 -0.4577  0.3528
 8365SOL     OW36553   3.104   0.911  10.505 -0.3522  0.4662 -0.3408
 8365SOL    HW136554   3.066   0.860  10.576 -0.7073 -1.8160 -2.1627
 8365SOL    HW236555   3.073   0.859  10.431 -1.9013  3.0987 -1.5637
 8366SOL     OW36556   2.340   2.824   6.368 -0.2419  0.2638 -0.5018
 8366SOL    HW136557   2.327   2.864   6.454  0.4979  1.5893 -1.0190
 8366SOL    HW236558   2.335   2.733   6.399  2.4522 -0.1302 -1.1970
 8367SOL     OW36559   3.148   4.084   7.972  0.4163  0.2165 -0.7451
 8367SOL    HW136560   3.182   3.998   7.997  1.4704  1.3034  1.6077
 8367SOL    HW236561   3.055   4.078   7.994  0.5601 -0.6825 -0.3538
 8368SOL     OW36562   0.964   1.631  17.382 -0.5345 -0.4166  0.6082
 8368SOL    HW136563   0.898   1.617  17.314 -0.7218  2.2687  0.2453
 8368SOL    HW236564   0.908   1.665  17.451  0.0309 -2.1694  1.9386
 8369SOL     OW36565   0.822   0.138   1.088 -0.6808  0.6761 -0.4131
 8369SOL    HW136566   0.797   0.085   1.012  3.0019  0.6841 -1.6336
 8369SOL    HW236567   0.772   0.217   1.071  0.3793  1.1014 -1.6112
 8370SOL     OW36568   0.118   1.832  14.155  0.0617 -0.2313  0.0637
 8370SOL    HW136569   0.193   1.887  14.177 -0.1226 -0.8521  2.2020
 8370SOL    HW236570   0.125   1.802  14.065  2.8274 -0.7672  0.4755
 8371SOL     OW36571   2.874   0.759   3.180 -0.0933 -0.5722 -0.7290
 8371SOL    HW136572   2.904   0.726   3.265 -1.0422 -0.1113 -0.2191
 8371SOL    HW236573   2.782   0.777   3.199  0.3130  1.8889 -1.2216
 8372SOL     OW36574   3.682   0.010   3.177  0.0498 -0.3630 -0.4611
 8372SOL    HW136575   3.651   0.032   3.264 -2.2525 -2.7199 -0.6827
 8372SOL    HW236576   3.746   4.661   3.184  0.0502 -0.6113 -2.7291
 8373SOL     OW36577   1.010   1.695   8.549  0.2015  0.4254 -0.0466
 8373SOL    HW136578   1.094   1.649   8.552 -0.4185 -0.5806  2.2371
 8373SOL    HW236579   1.021   1.761   8.618 -0.6984  0.7918 -0.2586
 8374SOL     OW36580   3.818   2.268   6.229  0.0694 -0.0492 -0.2847
 8374SOL    HW136581   3.875   2.288   6.304 -0.8675 -2.5191  1.0903
 8374SOL    HW236582   3.761   2.204   6.271  0.6658  0.7857  1.7965
 8375SOL     OW36583   1.494   2.478  15.353  0.1417  0.0994 -0.2808
 8375SOL    HW136584   1.445   2.554  15.384  0.2116 -0.2948  0.8043
 8375SOL    HW236585   1.420   2.419  15.336 -0.0480  0.5266 -0.9244
 8376SOL     OW36586   2.374   2.120  16.215  0.1914  0.3109 -0.0466
 8376SOL    HW136587   2.384   2.027  16.195 -1.0346  0.5764 -1.8870
 8376SOL    HW236588   2.296   2.117  16.270  0.3179  0.9199  0.1717
 8377SOL     OW36589   2.337   0.350   6.496 -0.2904  0.0009 -0.3723
 8377SOL    HW136590   2.369   0.389   6.577  0.0734 -1.9734  0.4348
 8377SOL    HW236591   2.372   0.418   6.440 -2.8025  1.6751  0.0968
 8378SOL     OW36592   4.392   2.235  13.435  0.3354 -0.1912  0.2603
 8378SOL    HW136593   4.439   2.303  13.483 -0.3355 -0.0309  0.6846
 8378SOL    HW236594   4.417   2.162  13.492 -2.6519 -0.5178  1.1630
 8379SOL     OW36595   1.652   1.310   0.965 -0.5123 -0.8250  0.1599
 8379SOL    HW136596   1.602   1.229   0.978 -2.0908  0.1325  0.0310
 8379SOL    HW236597   1.625   1.344   0.880 -2.3944  0.1280  1.1363
 8380SOL     OW36598   0.682   2.708   4.917 -0.0640 -0.1261 -0.3483
 8380SOL    HW136599   0.685   2.804   4.912 -1.8332  0.0558  1.7743
 8380SOL    HW236600   0.591   2.686   4.895 -0.0503 -0.0010 -0.5296
 8381SOL     OW36601   0.627   3.207   4.499 -0.2537  0.4616  0.2991
 8381SOL    HW136602   0.556   3.169   4.551 -0.2686  1.2479  0.8533
 8381SOL    HW236603   0.589   3.295   4.504  1.4741  1.1885  0.5436
 8382SOL     OW36604   3.323   1.208   0.213 -0.2456 -0.2541  0.6208
 8382SOL    HW136605   3.334   1.148   0.139 -1.7130  0.3201 -0.0767
 8382SOL    HW236606   3.279   1.151   0.276 -0.9175 -0.0240  0.3625
 8383SOL     OW36607   1.751   1.369   4.849 -0.0073 -0.2283  0.4267
 8383SOL    HW136608   1.749   1.369   4.753 -0.6367  1.1804  0.4478
 8383SOL    HW236609   1.811   1.301   4.880 -0.4438 -0.2688  1.1928
 8384SOL     OW36610   0.026   3.810   6.507 -0.3032 -0.0066  0.0835
 8384SOL    HW136611   0.037   3.866   6.431 -0.6830  1.2588  0.9652
 8384SOL    HW236612   0.098   3.748   6.493 -0.9447 -0.5674 -0.7835
 8385SOL     OW36613   4.274   0.105   1.949 -0.4202  0.5246 -0.4991
 8385SOL    HW136614   4.330   0.179   1.973  2.0307 -0.4775 -2.9932
 8385SOL    HW236615   4.218   0.095   2.025  1.1069 -2.4116  0.2429
 8386SOL     OW36616   2.227   3.494   6.720 -0.2195 -0.1824  0.4443
 8386SOL    HW136617   2.315   3.511   6.686 -0.4125  1.6168  0.8447
 8386SOL    HW236618   2.239   3.529   6.808 -1.7213  2.9420 -0.5894
 8387SOL     OW36619   1.962   2.054   9.492  0.5561 -0.1347 -0.0706
 8387SOL    HW136620   2.048   2.062   9.533  0.5855  0.1399 -0.1856
 8387SOL    HW236621   1.962   1.958   9.483  0.5769 -0.1294 -0.1235
 8388SOL     OW36622   1.155   1.203  15.631  0.3265  0.5373 -0.0487
 8388SOL    HW136623   1.214   1.273  15.660  1.1492 -0.6020  1.0246
 8388SOL    HW236624   1.131   1.167  15.717 -0.4614  1.2225  0.0145
 8389SOL     OW36625   1.383   0.174   4.470  0.0523  0.2120  0.1516
 8389SOL    HW136626   1.314   0.237   4.450  2.2344  1.7717 -2.4752
 8389SOL    HW236627   1.346   0.086   4.458 -1.4465  0.8317  0.2434
 8390SOL     OW36628   3.989   1.211   2.619 -0.0437 -0.4442 -0.2069
 8390SOL    HW136629   3.967   1.153   2.547  0.5039  0.4690 -1.1044
 8390SOL    HW236630   4.049   1.269   2.572 -0.5094 -0.7699 -1.2076
 8391SOL     OW36631   3.741   1.813   3.929 -0.4050 -0.1041  0.0443
 8391SOL    HW136632   3.704   1.734   3.890 -2.9334  1.5691 -0.9385
 8391SOL    HW236633   3.803   1.776   3.993 -0.2291  0.0657 -0.0282
 8392SOL     OW36634   0.940   1.879   8.321  0.4222  0.0022  0.1408
 8392SOL    HW136635   0.925   1.893   8.415  1.0882 -0.7995  0.3686
 8392SOL    HW236636   0.920   1.960   8.274  1.8516 -0.3366 -1.0620
 8393SOL     OW36637   3.806   0.146   8.754  0.3445 -0.1819  0.1345
 8393SOL    HW136638   3.851   0.067   8.783  1.3715  0.0258 -0.8835
 8393SOL    HW236639   3.856   0.213   8.799  0.5302  1.1052 -1.9608
 8394SOL     OW36640   1.990   4.719   6.412  0.4787  0.7511 -0.6488
 8394SOL    HW136641   1.982   4.644   6.472  3.6669  0.9110 -0.0269
 8394SOL    HW236642   2.039   0.050   6.475  1.4077  0.8559 -1.4562
 8395SOL     OW36643   0.068   4.304   8.018 -0.1383 -0.0786  0.4814
 8395SOL    HW136644   4.703   4.278   7.988 -0.9538  1.2574  1.7126
 8395SOL    HW236645   0.102   4.236   8.078 -1.5724 -0.5748  0.7296
 8396SOL     OW36646   1.209   0.932  14.681 -0.2700 -0.0044  0.6234
 8396SOL    HW136647   1.301   0.918  14.659 -0.4091  0.7684 -0.4250
 8396SOL    HW236648   1.219   0.973  14.767  0.7807  0.2827  0.3594
 8397SOL     OW36649   0.937   2.399   7.865  0.2712  0.3029 -0.0711
 8397SOL    HW136650   0.969   2.359   7.784 -1.7259 -2.2411  0.4255
 8397SOL    HW236651   0.978   2.332   7.920 -0.2698 -1.6563 -2.1016
 8398SOL     OW36652   3.648   0.607   9.096 -0.5073  0.4092 -0.3428
 8398SOL    HW136653   3.656   0.695   9.134 -2.5799  0.2338  0.4770
 8398SOL    HW236654   3.572   0.570   9.139 -0.9847 -1.1945 -2.5841
 8399SOL     OW36655   0.126   2.448  10.442  0.7894 -0.1067 -0.4462
 8399SOL    HW136656   0.162   2.359  10.442 -0.2932 -0.5626 -2.6053
 8399SOL    HW236657   0.071   2.432  10.365  1.3188 -1.9943 -0.4342
 8400SOL     OW36658   2.657   3.486  14.770  0.3846 -0.0805 -0.2612
 8400SOL    HW136659   2.581   3.545  14.768  1.3084  1.1183 -0.1687
 8400SOL    HW236660   2.703   3.532  14.841 -3.7898 -0.1918  2.5373
 8401SOL     OW36661   2.158   0.029   7.163 -0.3043 -0.1698  0.2995
 8401SOL    HW136662   2.097   0.064   7.098 -0.6063  1.1742  1.3116
 8401SOL    HW236663   2.099   4.710   7.227 -1.7185 -0.0184 -0.8977
 8402SOL     OW36664   0.507   0.930   2.061 -0.7034 -0.0821 -0.1159
 8402SOL    HW136665   0.556   0.855   2.093 -0.1048  0.3518 -0.0305
 8402SOL    HW236666   0.418   0.893   2.064  0.2040 -2.1912  0.3313
 8403SOL     OW36667   2.157   2.502   8.113 -0.1818 -0.4559  0.3686
 8403SOL    HW136668   2.225   2.556   8.154  0.7532 -0.6681 -0.8886
 8403SOL    HW236669   2.149   2.550   8.031  1.4364 -0.4322  0.2210
 8404SOL     OW36670   4.674   3.647   9.074  0.0520  0.8177  0.2768
 8404SOL    HW136671   0.044   3.632   9.101  0.0518  0.2081 -0.0721
 8404SOL    HW236672   4.691   3.673   8.984 -0.3333 -0.8540 -0.2671
 8405SOL     OW36673   1.761   2.613   8.124  0.3318  0.0254  0.3456
 8405SOL    HW136674   1.826   2.565   8.176 -1.5315  0.2781  2.8858
 8405SOL    HW236675   1.679   2.569   8.144 -0.3552  1.1209 -0.1076
 8406SOL     OW36676   1.071   0.422   4.050  0.0688  0.2706 -0.6395
 8406SOL    HW136677   1.124   0.343   4.063 -0.3191 -0.0651 -1.0991
 8406SOL    HW236678   1.131   0.479   4.003 -1.1750 -0.0119 -2.5619
 8407SOL     OW36679   3.691   3.210   6.772  0.4561 -0.1403  0.3604
 8407SOL    HW136680   3.726   3.125   6.747 -1.3446 -0.5549 -0.7891
 8407SOL    HW236681   3.614   3.187   6.824  1.5160 -0.6663  1.6747
 8408SOL     OW36682   2.396   2.565   0.810 -0.0415  0.7635 -0.0481
 8408SOL    HW136683   2.406   2.539   0.719  0.6147  1.3403 -0.1461
 8408SOL    HW236684   2.405   2.661   0.805 -2.6115  1.0689  1.2581
 8409SOL     OW36685   2.261   0.398   1.808  0.4428  0.3190 -0.1230
 8409SOL    HW136686   2.239   0.339   1.735 -0.8836 -0.4764  0.9164
 8409SOL    HW236687   2.356   0.390   1.807  0.5253  1.3867 -0.8451
 8410SOL     OW36688   1.561   1.528   3.862 -0.0679 -0.6788 -0.3157
 8410SOL    HW136689   1.573   1.433   3.853  0.5548 -0.6279 -0.0018
 8410SOL    HW236690   1.648   1.568   3.863 -0.7958  0.9302 -1.1370
 8411SOL     OW36691   2.824   1.682   2.922  0.4216  0.1347 -0.4227
 8411SOL    HW136692   2.771   1.603   2.917  0.3308  0.0938  1.5093
 8411SOL    HW236693   2.780   1.738   2.986 -2.5838 -1.6047 -0.9870
 8412SOL     OW36694   3.665   1.623   6.051 -0.4473  0.2928 -0.0464
 8412SOL    HW136695   3.587   1.570   6.035  0.3578 -0.7048 -0.6007
 8412SOL    HW236696   3.615   1.705   6.055 -1.7933 -0.4553 -1.6520
 8413SOL     OW36697   1.812   1.304   0.199 -0.3787 -0.0399 -0.4009
 8413SOL    HW136698   1.897   1.342   0.218 -0.4761 -0.2379  0.4107
 8413SOL    HW236699   1.771   1.280   0.282  0.7855 -1.1183 -0.1517
 8414SOL     OW36700   1.209   3.241   8.983  0.7189  0.0624 -0.8786
 8414SOL    HW136701   1.224   3.331   9.012 -1.5771 -0.2620  1.3032
 8414SOL    HW236702   1.118   3.248   8.956  0.3874  2.2559  0.8789
 8415SOL     OW36703   2.105   4.294   2.874 -0.0204 -0.2052  0.1775
 8415SOL    HW136704   2.196   4.322   2.869  0.1242 -0.8074 -0.6143
 8415SOL    HW236705   2.102   4.268   2.966 -2.3763 -1.6554 -0.2879
 8416SOL     OW36706   3.509   4.493  15.347  0.1584  0.6423 -0.0463
 8416SOL    HW136707   3.537   4.439  15.421  0.5528 -0.9576 -1.3551
 8416SOL    HW236708   3.477   4.571  15.392 -0.0939  0.6404 -0.2218
 8417SOL     OW36709   4.300   0.617   4.744  0.3906  0.8189 -0.3773
 8417SOL    HW136710   4.361   0.624   4.671  0.3538 -0.1026 -0.4868
 8417SOL    HW236711   4.254   0.700   4.729  0.3401  1.0776  1.1624
 8418SOL     OW36712   4.019   1.369   0.919 -0.4621 -0.2197  0.0248
 8418SOL    HW136713   4.035   1.400   1.008 -1.5969  0.4491 -0.0048
 8418SOL    HW236714   4.006   1.445   0.863  2.2255 -0.0370 -0.3464
 8419SOL     OW36715   0.860   1.207  10.819 -0.2981 -0.3014 -0.4790
 8419SOL    HW136716   0.775   1.168  10.799  0.4760 -1.6341 -1.1452
 8419SOL    HW236717   0.882   1.182  10.909 -0.9456 -1.5849 -0.6830
 8420SOL     OW36718   2.921   0.281   9.713  0.0023  0.0772  0.5151
 8420SOL    HW136719   2.950   0.253   9.627  0.8307 -0.6569  1.0439
 8420SOL    HW236720   2.834   0.243   9.700  0.3607 -0.5126 -0.1212
 8421SOL     OW36721   0.230   0.652   3.840  0.0310  0.5102  0.7118
 8421SOL    HW136722   0.242   0.638   3.746  0.3450  0.6060  0.7399
 8421SOL    HW236723   0.320   0.666   3.869 -0.0462 -0.8801  1.6423
 8422SOL     OW36724   2.993   3.258  11.120  0.1317  0.3109  0.2521
 8422SOL    HW136725   3.088   3.245  11.112  0.1596  0.0143  1.1061
 8422SOL    HW236726   2.980   3.353  11.117 -1.0683  0.1162 -0.8654
 8423SOL     OW36727   1.831   4.330   2.857 -0.0248  0.1094 -0.2336
 8423SOL    HW136728   1.827   4.322   2.762 -1.8169 -0.3777 -0.1326
 8423SOL    HW236729   1.921   4.297   2.858 -0.9686 -2.5131 -0.3871
 8424SOL     OW36730   3.322   3.662   7.214 -0.2312 -0.5856  0.2373
 8424SOL    HW136731   3.273   3.679   7.134  1.6431 -2.3548 -1.2767
 8424SOL    HW236732   3.343   3.755   7.230  0.1556 -0.5047 -0.7767
 8425SOL     OW36733   2.950   1.061   5.099  0.1069 -0.5329 -0.6134
 8425SOL    HW136734   3.002   1.115   5.159 -0.4319  0.9914 -1.4961
 8425SOL    HW236735   2.917   1.138   5.052  1.9300  2.0373  2.2982
 8426SOL     OW36736   1.770   4.184   5.026  0.3800  0.5010 -0.4409
 8426SOL    HW136737   1.758   4.090   5.008  0.7960  0.5198 -0.7980
 8426SOL    HW236738   1.861   4.198   5.001  0.2165  0.9655 -0.7730
 8427SOL     OW36739   0.773   2.906   2.542 -0.0403 -0.4694  0.1559
 8427SOL    HW136740   0.698   2.902   2.601 -1.5432 -0.7821 -1.8151
 8427SOL    HW236741   0.748   2.833   2.485  2.1844 -1.0997 -0.0101
 8428SOL     OW36742   0.380   1.477   6.114 -0.5809  0.0534 -0.5816
 8428SOL    HW136743   0.336   1.460   6.197  2.9911 -0.2943  1.2583
 8428SOL    HW236744   0.359   1.570   6.112 -1.4004 -0.0807  1.5383
 8429SOL     OW36745   3.177   0.198   2.977 -0.6546  0.0777  0.6048
 8429SOL    HW136746   3.211   0.288   2.977 -0.7468  0.1119  1.9199
 8429SOL    HW236747   3.145   0.193   3.067 -0.5828 -3.1869  0.4452
 8430SOL     OW36748   2.725   1.256   9.302 -0.9628  0.1053 -0.0878
 8430SOL    HW136749   2.638   1.226   9.275 -0.1747 -2.9650  0.7786
 8430SOL    HW236750   2.720   1.215   9.389  1.6113  2.5872  1.2349
 8431SOL     OW36751   0.363   3.712   6.213 -0.2115  0.1608  0.0490
 8431SOL    HW136752   0.306   3.725   6.289  0.5781  0.8347  0.5236
 8431SOL    HW236753   0.358   3.617   6.199 -0.4722 -0.2396  2.7953
 8432SOL     OW36754   4.279   1.485  17.631 -0.1362 -0.0078  0.3657
 8432SOL    HW136755   4.299   1.488   0.037 -0.7732  2.8626  0.3977
 8432SOL    HW236756   4.293   1.577  17.609 -0.9264  0.5110  2.0453
 8433SOL     OW36757   2.062   3.306   8.879 -0.3565  0.2429 -0.2917
 8433SOL    HW136758   2.113   3.386   8.894  0.9805 -1.0346  1.8769
 8433SOL    HW236759   2.099   3.243   8.940 -0.1792 -0.4330 -1.0963
 8434SOL     OW36760   3.741   3.593  10.993 -0.1205  0.6310 -0.1940
 8434SOL    HW136761   3.834   3.573  10.984  0.0343 -0.3560  3.4062
 8434SOL    HW236762   3.744   3.684  10.964  1.4947  1.3120  2.0663
 8435SOL     OW36763   1.589   1.230   2.076 -0.1238 -0.0068  1.1564
 8435SOL    HW136764   1.644   1.221   2.154 -0.4885  0.2385  1.4411
 8435SOL    HW236765   1.577   1.141   2.042 -1.0655  0.7422 -0.4870
 8436SOL     OW36766   3.200   4.050   7.207  0.0672  0.1889 -0.8288
 8436SOL    HW136767   3.260   3.991   7.253  0.7818  1.5337 -0.0128
 8436SOL    HW236768   3.198   3.999   7.126 -0.4777  0.0837 -0.7467
 8437SOL     OW36769   2.723   2.141  12.259 -0.0512 -0.5152 -0.2623
 8437SOL    HW136770   2.796   2.102  12.308  0.1920  1.8205  1.1998
 8437SOL    HW236771   2.747   2.087  12.184 -1.1784 -1.1179 -0.1914
 8438SOL     OW36772   2.064   3.280   4.170  0.2878  0.3600 -0.2815
 8438SOL    HW136773   2.125   3.225   4.218  0.5897  0.9617  0.0207
 8438SOL    HW236774   2.031   3.331   4.245 -2.5791 -1.1246 -0.5315
 8439SOL     OW36775   2.394   2.492   7.558  0.3347  0.4509  0.6653
 8439SOL    HW136776   2.460   2.509   7.625  0.2574  0.0331  0.8474
 8439SOL    HW236777   2.324   2.468   7.619 -2.6929  0.0927 -2.9926
 8440SOL     OW36778   2.294   3.711   9.414  0.0946 -0.3794  0.2486
 8440SOL    HW136779   2.287   3.617   9.397  0.7260 -0.5463  0.9087
 8440SOL    HW236780   2.249   3.750   9.339 -0.3184 -1.3943 -0.0327
 8441SOL     OW36781   3.479   2.401   8.550 -0.2718  0.2016  0.2188
 8441SOL    HW136782   3.566   2.426   8.581 -0.3549 -2.2866  2.4049
 8441SOL    HW236783   3.435   2.486   8.563  1.5912  1.4033 -1.4131
 8442SOL     OW36784   0.858   3.358   5.256 -0.4993  0.1363 -0.7750
 8442SOL    HW136785   0.880   3.333   5.346  0.0409  1.3829 -0.5687
 8442SOL    HW236786   0.762   3.364   5.256 -0.5110 -0.0186 -1.7729
 8443SOL     OW36787   2.540   1.549   6.574  0.2157 -0.9227  0.4221
 8443SOL    HW136788   2.543   1.604   6.652 -0.3542 -2.5091  1.5689
 8443SOL    HW236789   2.452   1.516   6.596 -0.3235  1.8440  2.4010
 8444SOL     OW36790   3.530   4.342   6.509  0.2341  0.8586  0.3393
 8444SOL    HW136791   3.617   4.306   6.495  0.1914  1.4079 -1.2478
 8444SOL    HW236792   3.485   4.269   6.468 -0.9704  1.6431  0.2699
 8445SOL     OW36793   1.942   1.086   0.689  0.1383  0.5052  0.5493
 8445SOL    HW136794   1.984   1.031   0.623 -0.9984 -0.4360  0.6030
 8445SOL    HW236795   1.999   1.161   0.704 -0.3809  0.4150  3.0456
 8446SOL     OW36796   0.765   4.395  12.481 -0.0723  1.0460  0.1397
 8446SOL    HW136797   0.743   4.445  12.402  1.2380 -1.0403 -1.5271
 8446SOL    HW236798   0.843   4.363  12.438  1.0700 -0.1368  3.0950
 8447SOL     OW36799   3.605   1.615   3.182  0.3742  0.2024 -0.3346
 8447SOL    HW136800   3.509   1.611   3.178  0.3007  2.1116 -0.3318
 8447SOL    HW236801   3.636   1.608   3.272  3.7902 -0.7677 -1.5826
 8448SOL     OW36802   3.214   2.780   8.564 -0.0156 -0.1120 -0.1978
 8448SOL    HW136803   3.182   2.870   8.572  2.1957  0.4617  2.0262
 8448SOL    HW236804   3.283   2.789   8.630  1.2021 -1.0559 -1.3320
 8449SOL     OW36805   2.862   2.427  17.336 -0.1556  0.4175 -0.1480
 8449SOL    HW136806   2.853   2.453  17.244 -0.0682  0.5023 -0.1328
 8449SOL    HW236807   2.955   2.451  17.342  0.3310 -1.2683 -0.6732
 8450SOL     OW36808   1.608   0.514  15.956 -0.5049  0.1360 -0.4640
 8450SOL    HW136809   1.598   0.502  16.050 -2.6321 -1.5293 -0.9057
 8450SOL    HW236810   1.624   0.608  15.947  0.8292 -0.1630 -1.1942
 8451SOL     OW36811   1.852   3.863  16.198  0.4214 -0.1428  0.2572
 8451SOL    HW136812   1.775   3.829  16.243 -0.9611  3.1243  0.3747
 8451SOL    HW236813   1.816   3.849  16.111 -1.1028 -0.2926  0.9171
 8452SOL     OW36814   3.082   2.350  14.408  0.0659  0.3671 -0.2231
 8452SOL    HW136815   2.992   2.383  14.409  0.4204  1.3327 -0.2750
 8452SOL    HW236816   3.102   2.337  14.500  0.0385  2.8168  0.1250
 8453SOL     OW36817   1.496   1.893  14.591  0.3961 -0.6615 -0.6462
 8453SOL    HW136818   1.523   1.959  14.528 -1.0108 -1.9999 -2.6771
 8453SOL    HW236819   1.410   1.866  14.559 -1.1079  3.4500 -0.0738
 8454SOL     OW36820   1.254   1.331  16.477  0.1338  0.2794 -0.6468
 8454SOL    HW136821   1.343   1.340  16.442  0.7574 -0.9972  0.6405
 8454SOL    HW236822   1.204   1.353  16.398 -0.3540  4.1139  0.7332
 8455SOL     OW36823   1.284   3.027  15.159 -0.0434 -0.1213 -0.0729
 8455SOL    HW136824   1.286   3.073  15.243 -0.9341  1.4422 -0.9077
 8455SOL    HW236825   1.243   3.094  15.104 -2.4447 -0.6754  1.0561
 8456SOL     OW36826   0.136   2.881  17.233  0.0717  0.0923  0.7287
 8456SOL    HW136827   0.053   2.851  17.267  0.1967 -0.6411  0.3778
 8456SOL    HW236828   0.175   2.936  17.301  0.7595  2.4028 -1.5052
 8457SOL     OW36829   2.131   4.386   4.107 -0.4575 -0.6359  0.1459
 8457SOL    HW136830   2.099   4.418   4.023 -2.1335  0.9691  1.4078
 8457SOL    HW236831   2.080   4.445   4.162  1.4013 -0.3360  1.5439
 8458SOL     OW36832   0.772   3.671  11.021 -0.4028  0.0979  0.8691
 8458SOL    HW136833   0.812   3.649  11.105  2.4259 -0.5756 -0.6597
 8458SOL    HW236834   0.678   3.661  11.039  0.0599 -0.9234  2.7045
 8459SOL     OW36835   0.552   3.353   6.308 -0.7697  0.0262 -0.1909
 8459SOL    HW136836   0.594   3.425   6.354  0.1991 -1.0333  0.6045
 8459SOL    HW236837   0.462   3.382   6.292 -0.4302  0.3441 -1.5110
 8460SOL     OW36838   2.191   2.231   3.483  1.2191  0.2970 -0.1208
 8460SOL    HW136839   2.176   2.225   3.388  4.0432 -0.4966 -0.5213
 8460SOL    HW236840   2.133   2.301   3.515  0.4721  0.4152 -1.7194
 8461SOL     OW36841   2.271   1.682   8.293 -0.1511 -0.0239  0.5436
 8461SOL    HW136842   2.366   1.685   8.309  0.1173 -0.8669 -0.8160
 8461SOL    HW236843   2.241   1.716   8.377  1.3916  0.6462  0.8294
 8462SOL     OW36844   2.689   3.014   3.466 -0.8168 -0.5665  0.0493
 8462SOL    HW136845   2.650   3.056   3.542 -0.7530  0.0065 -0.2338
 8462SOL    HW236846   2.780   3.041   3.477 -1.2221  1.2711 -1.1575
 8463SOL     OW36847   4.431   3.072   2.567 -0.2141  0.0313  0.3147
 8463SOL    HW136848   4.469   3.155   2.540  2.6916 -1.2620  0.4314
 8463SOL    HW236849   4.378   3.092   2.644  0.1968  0.8159  0.3904
 8464SOL     OW36850   0.027   2.343   3.407 -0.1330  0.4630 -0.8583
 8464SOL    HW136851   0.065   2.311   3.489  0.6301  3.0618 -0.1989
 8464SOL    HW236852   0.106   2.334   3.354  0.5965 -4.1954  0.9473
 8465SOL     OW36853   1.645   3.178   2.732  0.5310 -0.2075 -0.1620
 8465SOL    HW136854   1.590   3.249   2.767  2.3001  0.0097  2.1082
 8465SOL    HW236855   1.702   3.156   2.806  1.3722 -0.9945 -1.0478
 8466SOL     OW36856   0.845   0.299  13.425  0.1361  0.3097  0.1269
 8466SOL    HW136857   0.840   0.316  13.519 -1.6779 -2.7818  0.6077
 8466SOL    HW236858   0.923   0.245  13.416 -1.1511 -1.5067 -0.2555
 8467SOL     OW36859   1.955   3.115   4.603 -0.3466  0.0367 -0.2116
 8467SOL    HW136860   2.028   3.171   4.576 -0.3621  0.6496  1.0514
 8467SOL    HW236861   1.992   3.029   4.625 -0.7623 -0.1231 -0.1357
 8468SOL     OW36862   1.053   3.628   2.423 -0.1505  0.0431  0.6039
 8468SOL    HW136863   0.988   3.663   2.363  1.0102  1.8759  0.4155
 8468SOL    HW236864   1.109   3.705   2.431  0.6383 -0.2379 -2.2896
 8469SOL     OW36865   0.337   4.364   3.817 -0.3529 -0.2030 -0.0818
 8469SOL    HW136866   0.251   4.403   3.834 -1.5960 -2.0555 -2.1128
 8469SOL    HW236867   0.379   4.432   3.764 -0.2003 -0.7661 -0.6886
 8470SOL     OW36868   2.914   2.042  16.194 -0.1293  0.0705  0.5759
 8470SOL    HW136869   2.929   1.949  16.210 -0.1958 -0.0998 -0.3390
 8470SOL    HW236870   2.985   2.086  16.240  0.5717 -1.1871  0.6970
 8471SOL     OW36871   3.016   0.065   0.118 -0.2383  0.4629 -0.2103
 8471SOL    HW136872   3.021   4.698   0.154  1.0448  1.2540  1.5926
 8471SOL    HW236873   3.008   0.109   0.202 -2.4331  0.1535 -0.2576
 8472SOL     OW36874   1.814   1.193  12.753  0.4378 -0.1563 -0.3266
 8472SOL    HW136875   1.773   1.119  12.709 -2.2095  0.2305  1.5211
 8472SOL    HW236876   1.830   1.164  12.843 -1.4785 -0.8611 -0.2169
 8473SOL     OW36877   2.894   2.161   8.288 -0.5903 -0.4191  0.2136
 8473SOL    HW136878   2.966   2.109   8.324  1.2335  1.0210 -1.3220
 8473SOL    HW236879   2.879   2.225   8.357  0.1312  2.5997 -2.3975
 8474SOL     OW36880   2.187   2.073   2.071  0.6669 -0.3833 -0.0908
 8474SOL    HW136881   2.256   2.099   2.010 -0.0185 -1.8800 -1.5097
 8474SOL    HW236882   2.202   1.980   2.089  0.1776 -0.5844 -0.7175
 8475SOL     OW36883   2.721   0.939  10.493  1.2124 -0.0868 -0.0275
 8475SOL    HW136884   2.654   0.929  10.561 -1.5044  0.8146 -2.6111
 8475SOL    HW236885   2.666   0.952  10.416  1.3058 -0.7349 -0.2013
 8476SOL     OW36886   1.636   3.861   8.973 -0.0967  0.1805  0.7317
 8476SOL    HW136887   1.687   3.941   8.963  1.1808 -0.4048  2.5754
 8476SOL    HW236888   1.550   3.902   8.985  0.5806  1.5358  0.8166
 8477SOL     OW36889   2.084   2.927  15.978  0.1834 -0.2856  0.0910
 8477SOL    HW136890   2.127   2.842  15.986  0.3759 -0.4549 -2.7608
 8477SOL    HW236891   2.132   2.955  15.900 -2.1844  0.1695 -1.2332
 8478SOL     OW36892   1.414   1.587   3.233  0.0219 -0.0309  0.5472
 8478SOL    HW136893   1.419   1.636   3.315  2.7165 -0.0312  0.3810
 8478SOL    HW236894   1.507   1.570   3.224 -0.5888 -1.6353 -2.4976
 8479SOL     OW36895   1.692   2.080   2.680 -0.2560 -0.0278  0.3826
 8479SOL    HW136896   1.627   2.098   2.747 -0.4279  0.8875 -0.0337
 8479SOL    HW236897   1.758   2.149   2.686  0.3757 -0.5914 -0.0792
 8480SOL     OW36898   2.280   1.875   4.628  0.0303  1.1997 -0.1957
 8480SOL    HW136899   2.233   1.843   4.705 -0.4431  0.5252 -0.7627
 8480SOL    HW236900   2.365   1.886   4.671  0.2721 -4.1254  0.7895
 8481SOL     OW36901   0.841   0.498  12.413 -0.2433 -0.2673  0.4592
 8481SOL    HW136902   0.921   0.512  12.464 -0.4356  1.2377  0.3471
 8481SOL    HW236903   0.863   0.427  12.353  0.7501 -1.3506  2.0769
 8482SOL     OW36904   0.478   2.174  13.897 -0.1741 -0.5741  0.6394
 8482SOL    HW136905   0.456   2.145  13.809 -0.1344 -1.3296  0.8732
 8482SOL    HW236906   0.550   2.236  13.885  1.2911 -2.1502  1.2532
 8483SOL     OW36907   1.546   1.680   8.539 -0.2210  0.0384 -0.4215
 8483SOL    HW136908   1.455   1.666   8.512 -0.8880  1.6498  0.9525
 8483SOL    HW236909   1.567   1.600   8.586  0.5166 -0.8632 -2.2560
 8484SOL     OW36910   1.023   1.551  12.530  0.1551 -0.1656  0.6439
 8484SOL    HW136911   0.936   1.566  12.495 -0.1125 -2.6304  0.2477
 8484SOL    HW236912   1.034   1.631  12.581  0.7848  0.0939  0.0976
 8485SOL     OW36913   2.209   1.359   8.468  0.3225  0.3167 -0.6508
 8485SOL    HW136914   2.126   1.377   8.512  1.4265  0.1932  1.4833
 8485SOL    HW236915   2.275   1.414   8.510 -0.4395  1.7484 -1.3237
 8486SOL     OW36916   1.949   1.255   2.392 -0.4234 -0.2207 -0.2983
 8486SOL    HW136917   1.857   1.240   2.370 -1.0842  1.0850  1.6391
 8486SOL    HW236918   1.962   1.216   2.478 -2.5124  0.5315  0.3555
 8487SOL     OW36919   3.280   2.710   7.768  0.2425 -0.2491 -0.0373
 8487SOL    HW136920   3.308   2.735   7.856  0.3787 -2.0028  0.4226
 8487SOL    HW236921   3.352   2.649   7.752  0.7153  0.3748 -0.2550
 8488SOL     OW36922   0.917   0.482   9.134  0.0380 -0.1406 -0.5846
 8488SOL    HW136923   0.838   0.446   9.095 -0.7920  1.3931 -0.3537
 8488SOL    HW236924   0.901   0.567   9.175  1.4196 -0.0520 -0.2209
 8489SOL     OW36925   1.349   0.931   6.599 -0.2409  0.2357 -0.2343
 8489SOL    HW136926   1.368   0.962   6.688  1.0599  1.4144 -0.9168
 8489SOL    HW236927   1.276   0.987   6.574  0.8540  1.2776 -1.0558
 8490SOL     OW36928   0.511   4.704  10.593  0.1680  0.2276  0.2463
 8490SOL    HW136929   0.574   0.010  10.526 -0.6665  1.2162 -0.1372
 8490SOL    HW236930   0.521   4.609  10.598  0.2935  0.2985  1.2163
 8491SOL     OW36931   1.514   2.512   3.067 -0.1284 -0.0308 -0.0470
 8491SOL    HW136932   1.464   2.496   2.987  0.0260 -2.9212  0.4336
 8491SOL    HW236933   1.474   2.459   3.135 -0.0813  0.1359  0.1097
 8492SOL     OW36934   1.350   1.162   4.158  0.2284  0.4001  0.6030
 8492SOL    HW136935   1.274   1.106   4.140  1.6280 -0.5069 -2.4274
 8492SOL    HW236936   1.421   1.121   4.109 -0.1040 -1.1746  1.4228
 8493SOL     OW36937   0.097   0.844   2.745  0.0103 -0.1177  0.4343
 8493SOL    HW136938   0.035   0.914   2.726  1.1120  0.6262 -0.4093
 8493SOL    HW236939   0.063   0.813   2.829 -0.4051  1.0967  0.7056
 8494SOL     OW36940   1.800   3.265   6.718  0.5393 -0.0071 -0.3082
 8494SOL    HW136941   1.748   3.322   6.661  1.8679 -2.2580 -3.6962
 8494SOL    HW236942   1.837   3.333   6.776  1.5455 -1.6427  0.9666
 8495SOL     OW36943   1.312   4.235   3.450  0.3657  0.2182 -0.4601
 8495SOL    HW136944   1.316   4.141   3.435 -1.1768  0.2262 -0.9365
 8495SOL    HW236945   1.370   4.241   3.526 -0.4513  0.0057  0.1816
 8496SOL     OW36946   1.675   1.638   3.167  0.0250 -0.0001 -0.3451
 8496SOL    HW136947   1.649   1.723   3.203 -0.7897 -2.0697  3.9609
 8496SOL    HW236948   1.667   1.656   3.074 -0.8706  0.7552 -0.1134
 8497SOL     OW36949   3.015   3.313  14.866  0.2653  0.3399  0.2622
 8497SOL    HW136950   3.011   3.290  14.773  0.3927  1.0966  0.0666
 8497SOL    HW236951   3.002   3.408  14.857 -0.8486 -0.0103 -1.9292
 8498SOL     OW36952   1.838   1.536   9.711 -0.0281  0.6647 -0.6509
 8498SOL    HW136953   1.923   1.527   9.669 -0.4098  3.3364 -2.0624
 8498SOL    HW236954   1.789   1.516   9.630 -0.2441 -0.3239 -0.2654
 8499SOL     OW36955   4.384   1.407  12.997  0.6721 -0.1154 -0.2854
 8499SOL    HW136956   4.433   1.479  13.037  0.8619 -0.1833 -0.3950
 8499SOL    HW236957   4.319   1.447  12.940 -0.6526 -1.0757  0.5648
 8500SOL     OW36958   0.976   3.600   4.801 -0.5047  0.2043  0.3654
 8500SOL    HW136959   0.931   3.542   4.740 -1.3341  1.0072  0.2053
 8500SOL    HW236960   1.051   3.542   4.816 -1.4339 -0.8032  1.1220
 8501SOL     OW36961   1.294   0.589   1.825  0.5422 -0.0214 -0.3410
 8501SOL    HW136962   1.321   0.544   1.745 -1.1958 -1.5741 -0.0553
 8501SOL    HW236963   1.231   0.648   1.783 -0.0970 -0.5332 -0.0888
 8502SOL     OW36964   1.281   3.295  12.282  0.3342  0.6084 -0.2093
 8502SOL    HW136965   1.263   3.389  12.282  3.1267  1.1297  0.5584
 8502SOL    HW236966   1.206   3.261  12.234  0.2788  0.4674 -0.0237
 8503SOL     OW36967   1.587   0.018  14.896 -0.1543  0.7393 -0.1742
 8503SOL    HW136968   1.682   0.002  14.900 -0.2900 -0.3270 -1.2046
 8503SOL    HW236969   1.568   0.067  14.816 -1.1510  0.2320 -0.2466
 8504SOL     OW36970   0.294   4.388  11.322 -0.1198 -0.0333  0.0949
 8504SOL    HW136971   0.247   4.348  11.395  0.2326 -0.7497 -0.0781
 8504SOL    HW236972   0.385   4.384  11.352 -0.3559 -0.1525  0.7991
 8505SOL     OW36973   4.012   1.482   3.012 -0.0216  0.1039  0.0834
 8505SOL    HW136974   3.992   1.431   3.091  1.1426 -2.3281 -1.2056
 8505SOL    HW236975   4.069   1.429   2.958 -1.4910  1.1780 -2.4927
 8506SOL     OW36976   2.984   2.507   6.264  0.2232  0.1730  0.3282
 8506SOL    HW136977   3.063   2.470   6.224  0.4020 -0.5880  1.4102
 8506SOL    HW236978   2.992   2.490   6.358  0.8790  1.7448  0.5535
 8507SOL     OW36979   1.501   0.676   3.853  0.1373 -0.3253 -0.0560
 8507SOL    HW136980   1.489   0.748   3.790 -0.2561  0.9863  1.5054
 8507SOL    HW236981   1.593   0.689   3.876  0.3892 -0.6346 -0.8847
 8508SOL     OW36982   4.367   1.308   5.854  0.3138  0.2626  1.2470
 8508SOL    HW136983   4.393   1.230   5.904  2.4705  0.9595  1.2052
 8508SOL    HW236984   4.347   1.371   5.923 -1.7778  1.7518 -0.7617
 8509SOL     OW36985   1.193   3.773   3.739 -0.2793  0.0674  0.0334
 8509SOL    HW136986   1.134   3.767   3.814 -1.6752  1.0975 -0.9871
 8509SOL    HW236987   1.149   3.837   3.684  1.0494  1.0726  0.1597
 8510SOL     OW36988   2.464   2.414   5.211 -0.3682  0.6150 -0.2719
 8510SOL    HW136989   2.538   2.457   5.254 -0.0564  1.6718 -1.8596
 8510SOL    HW236990   2.476   2.435   5.119 -2.1108  1.0956 -0.3959
 8511SOL     OW36991   1.039   4.284   1.678  0.0379 -0.0623 -0.1340
 8511SOL    HW136992   1.016   4.304   1.587  2.3879 -0.5214 -0.8224
 8511SOL    HW236993   1.013   4.368   1.715 -2.4341 -0.7661 -0.2488
 8512SOL     OW36994   1.806   3.872   0.537 -0.1093 -0.1833 -0.1482
 8512SOL    HW136995   1.875   3.812   0.566  0.5770  0.6451 -0.0500
 8512SOL    HW236996   1.735   3.813   0.514 -0.8556  0.3206  0.8677
 8513SOL     OW36997   0.341   3.057  12.851  0.8161 -0.1604  0.0015
 8513SOL    HW136998   0.328   3.147  12.881  2.1480 -0.0250  0.1479
 8513SOL    HW236999   0.398   3.072  12.776  0.7584 -0.8722 -0.1828
 8514SOL     OW37000   1.265   1.741   8.247  0.3616 -0.2391  0.0621
 8514SOL    HW137001   1.188   1.699   8.209  0.8515  0.1170 -1.3307
 8514SOL    HW237002   1.284   1.682   8.320 -0.6287 -1.9507 -1.0415
 8515SOL     OW37003   0.904   4.058   1.804  0.3879  0.1233  0.0795
 8515SOL    HW137004   0.965   4.049   1.877  0.4942 -1.0418 -0.1541
 8515SOL    HW237005   0.950   4.127   1.757 -3.2899  2.4972 -0.0182
 8516SOL     OW37006   3.474   3.928   4.350  0.0625 -0.1070 -0.5724
 8516SOL    HW137007   3.480   4.024   4.344 -0.0984 -0.1124 -0.8176
 8516SOL    HW237008   3.530   3.903   4.277  0.2057  1.5733 -1.0492
 8517SOL     OW37009   1.957   4.491   6.626 -0.4915  0.2689 -0.5594
 8517SOL    HW137010   1.942   4.441   6.705 -1.3207 -1.9411 -2.1182
 8517SOL    HW237011   1.948   4.417   6.566  0.6039  0.4308 -0.9255
 8518SOL     OW37012   2.477   1.114   9.264  0.6029 -0.1201  0.3528
 8518SOL    HW137013   2.424   1.048   9.220  0.3139 -0.2334  0.8716
 8518SOL    HW237014   2.483   1.084   9.355 -1.0311  2.9048  1.4610
 8519SOL     OW37015   3.173   0.938  13.374  0.0724 -0.3422 -0.0626
 8519SOL    HW137016   3.109   0.903  13.436 -2.8589  0.6341 -2.5251
 8519SOL    HW237017   3.120   0.965  13.299 -0.7914  1.1740  1.0770
 8520SOL     OW37018   4.166   4.090   3.672  0.4332  0.3924 -0.1332
 8520SOL    HW137019   4.176   4.003   3.711  0.3627  0.1271 -0.7048
 8520SOL    HW237020   4.071   4.095   3.658  0.3363  0.8066  0.7003
 8521SOL     OW37021   3.044   4.571  17.400  0.3357 -0.1526  0.1171
 8521SOL    HW137022   3.012   4.585  17.489 -3.6681 -1.9073 -1.0459
 8521SOL    HW237023   3.035   4.660  17.365  0.4469 -0.3585 -0.4279
 8522SOL     OW37024   2.009   2.778   3.297 -0.4192 -0.1748 -0.5292
 8522SOL    HW137025   1.998   2.691   3.337  1.1685  0.6651  1.7563
 8522SOL    HW237026   2.021   2.822   3.381 -0.3138  1.2012 -1.2719
 8523SOL     OW37027   2.953   3.976   3.411 -0.2625  0.4036 -0.1045
 8523SOL    HW137028   3.020   4.010   3.352 -0.7929  1.1594 -0.2764
 8523SOL    HW237029   2.920   3.902   3.361  0.5225 -1.8977  2.7584
 8524SOL     OW37030   3.791   3.866  10.931 -0.3854  0.2343  0.1943
 8524SOL    HW137031   3.855   3.935  10.913  1.2043 -1.2283  0.2876
 8524SOL    HW237032   3.736   3.884  10.854  1.7589  1.7262 -1.0121
 8525SOL     OW37033   1.993   0.716   6.932 -0.1084 -0.2633  0.3830
 8525SOL    HW137034   1.978   0.670   7.014 -1.8533 -1.5225 -0.6492
 8525SOL    HW237035   2.060   0.660   6.894  1.6134  2.5346 -0.7639
 8526SOL     OW37036   4.314   3.819  11.387 -0.0865 -0.2372 -0.2630
 8526SOL    HW137037   4.395   3.807  11.338  1.0268 -1.1802  1.8365
 8526SOL    HW237038   4.334   3.777  11.471  1.1640  0.7292 -0.0809
 8527SOL     OW37039   4.656   0.119   7.303  0.3366 -0.0485  0.0562
 8527SOL    HW137040   4.573   0.131   7.257 -0.3511 -0.1479  1.2728
 8527SOL    HW237041   4.638   0.034   7.342 -1.6999 -0.2039 -1.2435
 8528SOL     OW37042   1.470   2.357   9.300  0.0157  0.0550  0.2383
 8528SOL    HW137043   1.423   2.282   9.336 -1.7990  0.8908 -0.4075
 8528SOL    HW237044   1.539   2.377   9.364 -0.0079  2.4738 -0.5132
 8529SOL     OW37045   2.575   4.009   9.873 -0.4502  0.4098 -0.8570
 8529SOL    HW137046   2.578   3.914   9.867  0.4667  0.5641 -2.6371
 8529SOL    HW237047   2.504   4.038   9.932 -0.8985 -0.7556 -0.8299
 8530SOL     OW37048   3.571   0.382  12.535  0.0236 -0.2873 -0.0149
 8530SOL    HW137049   3.522   0.461  12.555 -1.2084 -0.3813 -2.6006
 8530SOL    HW237050   3.556   0.319  12.606  0.1631  0.5983  0.7901
 8531SOL     OW37051   0.007   0.647   7.409  0.3683  0.5995 -0.2689
 8531SOL    HW137052   4.683   0.563   7.416 -1.1738  1.5622  1.3948
 8531SOL    HW237053   0.073   0.649   7.479 -0.7489 -0.3405  0.8030
 8532SOL     OW37054   4.714   2.811  15.158  0.3596 -0.4885  0.3699
 8532SOL    HW137055   4.697   2.828  15.251  0.1306  1.8452 -0.0881
 8532SOL    HW237056   4.637   2.854  15.120  1.6967  1.5068 -0.0935
 8533SOL     OW37057   4.113   0.481   5.310 -0.1945  0.9311  0.5615
 8533SOL    HW137058   4.062   0.429   5.248  1.4138  0.3134 -0.2561
 8533SOL    HW237059   4.158   0.543   5.253  1.1476  0.9067  1.5936
 8534SOL     OW37060   4.367   1.881   6.727  0.2252 -0.2069 -0.1706
 8534SOL    HW137061   4.402   1.806   6.776 -0.7617  0.2645  1.2544
 8534SOL    HW237062   4.277   1.849   6.714 -0.7480  2.5753 -0.3000
 8535SOL     OW37063   2.415   1.380   7.750 -0.5033  0.0059  0.7626
 8535SOL    HW137064   2.433   1.472   7.770  1.2128 -0.3117  0.6607
 8535SOL    HW237065   2.328   1.388   7.710  0.3120 -0.7633 -1.1528
 8536SOL     OW37066   2.271   0.930  16.508  0.2537  0.5783 -0.1520
 8536SOL    HW137067   2.254   0.921  16.414  1.0868  0.7104 -0.3180
 8536SOL    HW237068   2.309   0.849  16.543  0.7684  0.8121 -0.1714
 8537SOL     OW37069   1.319   2.486   6.107  0.1286  0.2190 -0.1469
 8537SOL    HW137070   1.279   2.425   6.169  1.5906 -1.1872 -0.5793
 8537SOL    HW237071   1.337   2.562   6.162  2.0351  0.4680 -1.0931
 8538SOL     OW37072   4.317   0.594   7.575 -0.1519  0.3904  0.1388
 8538SOL    HW137073   4.375   0.533   7.529 -0.1371 -0.6287  1.4986
 8538SOL    HW237074   4.372   0.664   7.610 -0.1103  0.8037 -0.7670
 8539SOL     OW37075   2.375   3.741   2.303 -0.0089 -0.0199 -0.3285
 8539SOL    HW137076   2.334   3.723   2.218  1.5185  0.4352 -1.1594
 8539SOL    HW237077   2.363   3.668   2.363 -0.1922 -1.6660 -2.3480
 8540SOL     OW37078   0.625   2.162   3.424 -0.0947  0.4539  0.0210
 8540SOL    HW137079   0.668   2.077   3.437 -0.0271  0.2079 -1.7197
 8540SOL    HW237080   0.536   2.138   3.397 -0.5611  0.2943  1.6881
 8541SOL     OW37081   4.154   0.328   5.839  0.0561 -0.1284  0.0712
 8541SOL    HW137082   4.147   0.422   5.853  0.5617  0.0302 -0.7685
 8541SOL    HW237083   4.070   0.329   5.793  0.4816  0.9856 -0.6944
 8542SOL     OW37084   3.349   1.053  14.070 -0.2701  0.6756  0.1248
 8542SOL    HW137085   3.368   1.117  14.139 -0.8696 -0.2085  1.1147
 8542SOL    HW237086   3.319   1.115  14.004  0.4590  2.5545  1.5495
 8543SOL     OW37087   0.332   0.464   6.658 -0.0864 -0.0789  0.3316
 8543SOL    HW137088   0.259   0.520   6.683 -0.9220 -1.2730  0.6161
 8543SOL    HW237089   0.352   0.435   6.747  0.6539  0.7363  0.4207
 8544SOL     OW37090   3.310   0.827   7.658 -0.2042 -0.1232  0.4335
 8544SOL    HW137091   3.307   0.801   7.750  1.5634  1.2961  0.8903
 8544SOL    HW237092   3.332   0.748   7.607 -3.2907 -0.6517 -0.1147
 8545SOL     OW37093   0.371   0.694  13.821 -0.0310 -0.3210 -0.5828
 8545SOL    HW137094   0.329   0.745  13.890  1.0943 -1.9261  1.2724
 8545SOL    HW237095   0.296   0.703  13.762 -1.5251 -0.4104  1.3242
 8546SOL     OW37096   1.471   3.392   2.797  0.7424  0.2502 -0.1840
 8546SOL    HW137097   1.466   3.420   2.705 -1.1045 -1.3896 -0.5826
 8546SOL    HW237098   1.381   3.359   2.804  1.9948 -2.9145  0.9142
 8547SOL     OW37099   2.988   3.229  12.830 -0.5511  0.6191  0.1961
 8547SOL    HW137100   3.017   3.245  12.919  0.6291 -1.5356  0.1954
 8547SOL    HW237101   2.902   3.196  12.858  0.3011 -1.7932 -0.0472
 8548SOL     OW37102   3.667   0.332   8.604  0.3111  0.0737 -0.4245
 8548SOL    HW137103   3.652   0.392   8.677 -0.0624 -0.8615  0.2696
 8548SOL    HW237104   3.709   0.262   8.653 -1.6030 -0.3768  0.6003
 8549SOL     OW37105   4.586   3.803   3.917  1.0927 -0.7664  0.1144
 8549SOL    HW137106   4.520   3.872   3.912  1.6676 -0.0265  2.6979
 8549SOL    HW237107   4.662   3.852   3.884  0.2453  0.7030  0.3377
 8550SOL     OW37108   1.111   1.806  13.103 -0.6736  0.2358 -1.3363
 8550SOL    HW137109   1.135   1.753  13.027 -1.3627  0.9253 -2.0373
 8550SOL    HW237110   1.173   1.879  13.100 -2.2397  1.9549  6.9834
 8551SOL     OW37111   3.598   0.120   7.243 -0.0254  0.1840 -0.0798
 8551SOL    HW137112   3.543   0.172   7.301 -0.4541 -0.2339 -0.1119
 8551SOL    HW237113   3.545   0.137   7.165  0.4281 -0.0875 -0.4521
 8552SOL     OW37114   1.965   2.048  16.551  0.0159  0.1620 -0.4393
 8552SOL    HW137115   1.883   2.079  16.590  1.8977  0.5789  3.2347
 8552SOL    HW237116   1.993   2.131  16.512 -0.3517  0.5719  0.1661
 8553SOL     OW37117   0.137   4.571   5.635  0.5327 -0.3971  0.2554
 8553SOL    HW137118   0.068   4.635   5.618 -1.4353 -2.4154  0.6711
 8553SOL    HW237119   0.215   4.626   5.640 -1.7880  2.9271 -0.5249
 8554SOL     OW37120   4.699   4.117  10.666  0.7559  0.4539  0.2716
 8554SOL    HW137121   4.657   4.131  10.751  1.0130  0.5700  0.3800
 8554SOL    HW237122   0.068   4.123  10.695  1.4011 -1.4923 -1.3131
 8555SOL     OW37123   2.390   2.226   6.584  0.3485 -0.1241 -0.0752
 8555SOL    HW137124   2.342   2.148   6.555  0.9189 -1.2391  2.0196
 8555SOL    HW237125   2.361   2.233   6.675  0.7243  0.2533  0.0136
 8556SOL     OW37126   1.671   2.524   2.766 -0.5164 -0.0448  0.0559
 8556SOL    HW137127   1.706   2.437   2.783  2.5109  0.7225 -2.1376
 8556SOL    HW237128   1.577   2.510   2.762 -0.4088 -1.0333  1.2097
 8557SOL     OW37129   3.319   3.520   4.095  0.0533 -0.0125  0.4404
 8557SOL    HW137130   3.348   3.563   4.175  0.7073 -1.1628  0.8226
 8557SOL    HW237131   3.235   3.562   4.077  0.8126  0.0333 -2.8673
 8558SOL     OW37132   3.921   3.465   5.392  0.2105 -0.7727  0.7409
 8558SOL    HW137133   3.956   3.475   5.303 -0.5534  1.5404  0.7135
 8558SOL    HW237134   3.915   3.370   5.402 -1.3301 -0.2855  4.3470
 8559SOL     OW37135   1.999   1.527   4.665 -0.1892 -0.0077 -0.4510
 8559SOL    HW137136   1.933   1.483   4.718 -0.6847  0.5782 -0.5822
 8559SOL    HW237137   1.944   1.581   4.608  1.2425  0.3716 -1.4918
 8560SOL     OW37138   1.423   2.798   2.067 -0.1708 -0.6455 -0.2182
 8560SOL    HW137139   1.349   2.787   2.127  0.8784  1.3815  1.4692
 8560SOL    HW237140   1.386   2.747   1.995 -1.7955  1.9950 -1.2397
 8561SOL     OW37141   2.668   0.128   7.356 -0.7354  0.1076  0.2001
 8561SOL    HW137142   2.718   0.205   7.329  0.3814 -0.2865  1.1088
 8561SOL    HW237143   2.738   0.063   7.368 -0.9338 -0.1743 -0.1692
 8562SOL     OW37144   0.166   4.022  10.435  0.4997  0.5059  0.9432
 8562SOL    HW137145   0.223   4.098  10.446 -1.0480  1.7364  0.5300
 8562SOL    HW237146   0.197   3.969  10.508 -1.1517 -1.0349  0.5217
 8563SOL     OW37147   1.183   3.201  17.406 -0.6549  0.2888  0.0828
 8563SOL    HW137148   1.257   3.243  17.450  1.8711 -2.5971 -1.3860
 8563SOL    HW237149   1.111   3.217  17.467 -0.2457 -2.8269  1.3709
 8564SOL     OW37150   1.123   1.279   5.408  0.1266  0.3279  0.9468
 8564SOL    HW137151   1.104   1.272   5.315  1.5377 -2.2685  0.8383
 8564SOL    HW237152   1.152   1.196   5.446  1.4434  0.3343 -0.0571
 8565SOL     OW37153   0.326   1.827   5.547 -0.7850 -0.1341 -0.0916
 8565SOL    HW137154   0.321   1.791   5.458  0.2733 -0.5751  0.0282
 8565SOL    HW237155   0.284   1.757   5.596  0.0587  0.2721  1.2277
 8566SOL     OW37156   4.309   1.937   7.937  0.1190  0.1083  0.4350
 8566SOL    HW137157   4.404   1.923   7.936 -0.1182 -1.5303 -0.5163
 8566SOL    HW237158   4.303   2.025   7.900 -0.9768 -0.3306 -0.4305
 8567SOL     OW37159   1.252   1.639  12.872  0.4773  0.2131 -0.1551
 8567SOL    HW137160   1.277   1.552  12.842  0.9942  0.5325 -0.6574
 8567SOL    HW237161   1.335   1.686  12.867  1.3466 -1.0992  1.9581
 8568SOL     OW37162   0.606   1.646  16.561  0.0589  0.1331  0.0082
 8568SOL    HW137163   0.560   1.592  16.626  0.7048  1.2316  1.3883
 8568SOL    HW237164   0.675   1.586  16.531 -2.5039 -1.6912 -2.1542
 8569SOL     OW37165   4.101   4.094  17.006  0.2853 -0.0950 -0.4072
 8569SOL    HW137166   4.103   4.154  17.081 -1.1591 -1.9313  1.0951
 8569SOL    HW237167   4.152   4.029  17.053  0.4621  0.9417  0.8482
 8570SOL     OW37168   4.697   2.546  15.234 -0.5154  0.2211  1.1370
 8570SOL    HW137169   0.047   2.500  15.190 -0.2627  1.1433  0.5870
 8570SOL    HW237170   0.009   2.636  15.231  0.1303 -0.1640 -3.2964
 8571SOL     OW37171   3.888   2.550  14.612 -0.3493 -0.4221  0.0122
 8571SOL    HW137172   3.879   2.614  14.542 -1.1238 -1.3128 -0.7068
 8571SOL    HW237173   3.984   2.545  14.613 -0.2635  1.5949  0.0669
 8572SOL     OW37174   1.990   4.490  13.738  0.3990 -0.1070 -0.2108
 8572SOL    HW137175   1.973   4.584  13.734 -0.5607 -0.2239  1.2498
 8572SOL    HW237176   1.979   4.458  13.648 -0.2643  0.6450 -0.3945
 8573SOL     OW37177   3.686   0.872   9.115 -0.0275  0.0331  0.6688
 8573SOL    HW137178   3.662   0.936   9.182  0.9010 -0.7060  1.7078
 8573SOL    HW237179   3.617   0.892   9.052  0.0920  0.8222  0.7950
 8574SOL     OW37180   1.566   4.267   4.279 -0.3591 -0.4348 -0.5789
 8574SOL    HW137181   1.656   4.249   4.304  0.1144  1.0334 -1.2778
 8574SOL    HW237182   1.522   4.194   4.323 -1.0081 -0.1554 -0.7652
 8575SOL     OW37183   3.973   3.279   0.291 -0.4384  0.1286  0.0731
 8575SOL    HW137184   3.991   3.360   0.339  0.4539 -0.5319  0.8356
 8575SOL    HW237185   3.878   3.269   0.297 -0.4339 -0.3766 -0.7270
 8576SOL     OW37186   3.865   0.300   0.567 -0.2548  0.0306  0.0900
 8576SOL    HW137187   3.911   0.365   0.620 -0.2016 -0.2627  0.3987
 8576SOL    HW237188   3.870   0.233   0.635  1.9161  1.1982  1.0628
 8577SOL     OW37189   4.095   3.914   4.621 -1.1497 -0.4563  0.2761
 8577SOL    HW137190   4.059   3.827   4.643 -0.3140 -0.3461  2.0813
 8577SOL    HW237191   4.154   3.903   4.547  1.4490  3.1196  1.8440
 8578SOL     OW37192   3.179   1.543   6.098  0.5725 -0.5025  0.5104
 8578SOL    HW137193   3.138   1.627   6.075  0.6612 -0.2334  1.3226
 8578SOL    HW237194   3.213   1.549   6.187 -4.4115  0.1210  2.3699
 8579SOL     OW37195   0.224   0.295   6.483  0.4718  0.1534  0.3176
 8579SOL    HW137196   0.278   0.316   6.407  0.2030  0.4337  0.2028
 8579SOL    HW237197   0.265   0.354   6.547  2.1994 -0.2648 -0.3951
 8580SOL     OW37198   2.449   0.261   9.863  0.2998  0.0613  0.1420
 8580SOL    HW137199   2.374   0.250   9.922  0.5472 -0.8238  0.2855
 8580SOL    HW237200   2.514   0.276   9.932 -0.6746  1.6103  0.7199
 8581SOL     OW37201   3.452   0.987   0.526  0.3548 -0.0606  0.3026
 8581SOL    HW137202   3.368   0.998   0.570 -0.2749 -4.8907  0.2918
 8581SOL    HW237203   3.503   0.953   0.599 -1.4025 -2.1955  0.5305
 8582SOL     OW37204   3.952   3.863   8.930  0.2809  0.2353  0.4017
 8582SOL    HW137205   4.008   3.791   8.959  0.9378 -0.0391 -1.5588
 8582SOL    HW237206   3.870   3.844   8.977  2.0743 -0.2238  3.3949
 8583SOL     OW37207   1.136   1.314   9.721  0.1057  0.6752 -0.5390
 8583SOL    HW137208   1.138   1.263   9.802 -0.1860  0.6017 -0.5755
 8583SOL    HW237209   1.128   1.243   9.657 -0.5330 -0.3558  0.6873
 8584SOL     OW37210   1.912   4.532   2.522  0.7935  0.0839  0.1048
 8584SOL    HW137211   1.868   4.586   2.587 -1.8284  1.1089 -2.5149
 8584SOL    HW237212   1.954   4.594   2.462 -2.0503  0.9619 -0.9616
 8585SOL     OW37213   2.977   4.683   2.455 -0.3273 -0.8320  0.0395
 8585SOL    HW137214   2.943   0.020   2.522  0.0446  0.1297 -0.6046
 8585SOL    HW237215   2.980   0.021   2.380  0.0892  0.2434  0.9097
 8586SOL     OW37216   0.367   4.639   5.118  0.2753 -0.4111 -0.2799
 8586SOL    HW137217   0.339   0.006   5.096  1.4699  0.0623  0.1079
 8586SOL    HW237218   0.301   4.608   5.180  1.0718 -2.0547 -0.2633
 8587SOL     OW37219   1.336   2.120   1.799  0.0301 -0.0141  0.2444
 8587SOL    HW137220   1.256   2.068   1.796 -0.7638  1.3552 -2.0022
 8587SOL    HW237221   1.308   2.208   1.824  2.1342  0.7197  0.0486
 8588SOL     OW37222   4.703   2.362   8.577  0.7774 -0.3454 -0.7762
 8588SOL    HW137223   4.716   2.445   8.531  0.2206 -0.6993 -1.5831
 8588SOL    HW237224   4.681   2.396   8.663 -0.1881 -0.2981 -1.0483
 8589SOL     OW37225   1.543   2.732  17.145 -0.4352  0.4113 -0.0868
 8589SOL    HW137226   1.513   2.785  17.219 -1.9139 -0.6701  0.0968
 8589SOL    HW237227   1.606   2.783  17.095  0.8010 -0.8374  0.1880
 8590SOL     OW37228   4.665   3.859   3.408 -0.7307  0.2416  0.3403
 8590SOL    HW137229   4.634   3.797   3.474  2.1037  0.4068  1.8157
 8590SOL    HW237230   4.670   3.942   3.455  0.7006  1.1751 -1.4799
 8591SOL     OW37231   0.547   1.213   7.170  0.1612 -0.6095 -0.5257
 8591SOL    HW137232   0.564   1.276   7.240  1.0441 -1.1283 -0.2689
 8591SOL    HW237233   0.633   1.170   7.168  0.0197 -0.8936 -0.5391
 8592SOL     OW37234   3.107   4.080   5.547 -0.9698 -0.2045 -0.2423
 8592SOL    HW137235   3.035   4.130   5.585 -1.8663 -1.1926 -0.6194
 8592SOL    HW237236   3.061   4.007   5.505 -1.2320  0.1743 -0.6105
 8593SOL     OW37237   1.727   1.692   7.171  0.6605  0.3060 -0.9329
 8593SOL    HW137238   1.641   1.702   7.129  0.8638  1.1050 -1.1609
 8593SOL    HW237239   1.738   1.752   7.245  0.5361 -0.8914  0.0586
 8594SOL     OW37240   1.443   2.483   6.418  0.1588 -0.1737 -0.0961
 8594SOL    HW137241   1.380   2.412   6.401 -0.6266  0.3922  0.4633
 8594SOL    HW237242   1.489   2.446   6.493 -1.4849  0.2949  1.1388
 8595SOL     OW37243   3.520   1.692  16.503 -0.1225 -0.2707 -0.0703
 8595SOL    HW137244   3.607   1.653  16.514 -0.9046 -2.3177 -1.1530
 8595SOL    HW237245   3.536   1.775  16.547 -1.0012 -0.8431  1.2952
 8596SOL     OW37246   2.940   2.163   6.702 -0.0815 -0.5630  0.0428
 8596SOL    HW137247   2.939   2.251   6.739  0.1326 -0.8355  0.6884
 8596SOL    HW237248   3.028   2.158   6.664  0.1124 -1.9310  0.6456
 8597SOL     OW37249   0.014   0.868   5.362 -0.9704 -0.4296 -0.0783
 8597SOL    HW137250   0.007   0.775   5.386 -0.2969 -0.2424  0.8020
 8597SOL    HW237251   0.103   0.891   5.386 -0.5265 -1.9554 -0.2572
 8598SOL     OW37252   1.779   0.000   2.696  0.1434 -0.1579  0.0036
 8598SOL    HW137253   1.686   4.713   2.673 -0.0402  1.8195 -0.0237
 8598SOL    HW237254   1.772   4.693   2.787  1.1880 -0.3534  0.0173
 8599SOL     OW37255   2.692   3.805   2.576 -0.1455  0.1714  0.3408
 8599SOL    HW137256   2.722   3.736   2.518 -2.8597 -0.5695 -0.2067
 8599SOL    HW237257   2.643   3.757   2.643 -2.1176  1.6704 -0.0389
 8600SOL     OW37258   0.199   4.062  10.831 -0.0322  0.3395 -0.0609
 8600SOL    HW137259   0.219   3.982  10.782  0.1350 -0.3453  1.1114
 8600SOL    HW237260   0.164   4.037  10.916 -1.4444  2.3056 -0.0906
 8601SOL     OW37261   0.492   4.571   6.823  0.1349  0.0488 -0.3004
 8601SOL    HW137262   0.583   4.559   6.849  0.6871  0.0672 -2.1965
 8601SOL    HW237263   0.446   4.492   6.852  2.6803 -1.1556  0.4268
 8602SOL     OW37264   4.354   3.763  11.643 -0.7596  0.2889 -0.3097
 8602SOL    HW137265   4.415   3.710  11.694 -0.5401 -0.1734 -1.0619
 8602SOL    HW237266   4.301   3.803  11.712 -1.5175  1.8389 -1.7836
 8603SOL     OW37267   1.971   0.595   7.183  0.2629  0.2136 -0.2989
 8603SOL    HW137268   1.963   0.503   7.209 -2.3798  0.5497  0.1117
 8603SOL    HW237269   2.025   0.632   7.253  0.8349  0.0754 -0.6693
 8604SOL     OW37270   2.091   3.071   6.325  1.2026 -0.2533  0.0398
 8604SOL    HW137271   2.011   3.018   6.315  1.5153 -0.4750 -1.3861
 8604SOL    HW237272   2.086   3.093   6.418 -0.9021  2.9448 -0.8304
 8605SOL     OW37273   2.604   1.742   7.160 -0.4946  0.5422  0.0024
 8605SOL    HW137274   2.608   1.799   7.237  1.1142 -0.7008  0.8293
 8605SOL    HW237275   2.509   1.740   7.147 -0.5739 -1.4518  0.8531
 8606SOL     OW37276   2.172   0.301  14.847  0.0628  0.1456  0.0588
 8606SOL    HW137277   2.154   0.212  14.876  0.1627  0.5463  1.3236
 8606SOL    HW237278   2.259   0.292  14.809  1.0553  1.8593  1.9288
 8607SOL     OW37279   2.375   2.175   3.697  0.7989 -0.0283 -0.2596
 8607SOL    HW137280   2.328   2.222   3.765 -2.2526 -0.5097 -2.0428
 8607SOL    HW237281   2.326   2.198   3.618  1.5316  0.1618 -0.6641
 8608SOL     OW37282   0.697   0.411  16.231  0.2166 -0.2860 -0.0295
 8608SOL    HW137283   0.762   0.462  16.183  1.0035  0.4466  1.8086
 8608SOL    HW237284   0.669   0.477  16.294 -0.0513 -0.3344 -0.0966
 8609SOL     OW37285   1.843   3.772  17.232 -0.4630  0.4616 -0.3854
 8609SOL    HW137286   1.762   3.721  17.239 -0.5291  0.4367 -1.3216
 8609SOL    HW237287   1.812   3.857  17.263  0.5787  1.4850 -2.1437
 8610SOL     OW37288   3.255   1.731  16.643  0.1864 -0.0393 -0.3189
 8610SOL    HW137289   3.284   1.809  16.596  1.3108 -1.5522 -2.1244
 8610SOL    HW237290   3.297   1.662  16.591 -1.3552  1.2992 -3.2875
 8611SOL     OW37291   0.777   4.720   0.858  0.4802 -0.6725  0.4375
 8611SOL    HW137292   0.782   0.042   0.773 -0.9465  1.0331  1.2172
 8611SOL    HW237293   0.857   4.668   0.856 -0.0308 -1.4388  0.1382
 8612SOL     OW37294   4.230   0.413   3.555 -0.4089  0.4170  0.6182
 8612SOL    HW137295   4.196   0.472   3.622  1.4425  0.9740  1.0525
 8612SOL    HW237296   4.148   0.384   3.514  0.2826  0.0401 -0.4910
 8613SOL     OW37297   1.122   2.436   9.434 -0.4719  0.7806 -0.0109
 8613SOL    HW137298   1.177   2.496   9.384 -0.9699  1.6602  0.4897
 8613SOL    HW237299   1.193   2.415   9.495 -1.1242 -2.4473 -0.3527
 8614SOL     OW37300   3.209   1.770   3.384 -0.3206  0.0021  0.2492
 8614SOL    HW137301   3.142   1.834   3.408 -1.8474 -1.3519 -0.4305
 8614SOL    HW237302   3.277   1.798   3.445 -0.3994 -2.6273  1.5115
 8615SOL     OW37303   1.245   1.509   9.572 -1.0652 -0.5427  0.0410
 8615SOL    HW137304   1.251   1.596   9.612 -0.6447 -0.5900  0.0786
 8615SOL    HW237305   1.192   1.452   9.627 -0.9067  0.2675  1.0360
 8616SOL     OW37306   2.797   1.658  10.844 -0.5454  0.2470 -0.5203
 8616SOL    HW137307   2.881   1.629  10.810 -1.3389  1.4947 -3.4985
 8616SOL    HW237308   2.783   1.588  10.908  0.7871 -0.3907 -0.9204
 8617SOL     OW37309   3.117   0.492   9.786 -0.3000 -0.2137  0.1630
 8617SOL    HW137310   3.096   0.565   9.728  0.5501 -0.2177 -0.1528
 8617SOL    HW237311   3.049   0.432   9.755 -1.2526  0.7072  0.4894
 8618SOL     OW37312   1.057   3.148  11.794 -0.4323 -0.7417  0.3695
 8618SOL    HW137313   1.123   3.217  11.794 -2.2382  0.9821  1.2898
 8618SOL    HW237314   1.026   3.144  11.884  0.2318 -3.2197  0.4825
 8619SOL     OW37315   4.707   2.607   5.027  0.1032  0.6397 -0.0369
 8619SOL    HW137316   4.710   2.674   4.958  3.0261  2.5347  1.9434
 8619SOL    HW237317   4.643   2.546   4.991  1.4071  0.0564 -1.3548
 8620SOL     OW37318   1.449   1.965   8.692  0.5087 -0.6826 -0.1089
 8620SOL    HW137319   1.543   1.957   8.676  0.2161 -0.5501 -1.9727
 8620SOL    HW237320   1.449   1.950   8.786  0.9179  1.6398  0.2676
 8621SOL     OW37321   3.330   2.588   3.290 -0.0655 -0.1200  0.3032
 8621SOL    HW137322   3.421   2.563   3.302  0.6105  1.0745 -2.3547
 8621SOL    HW237323   3.319   2.640   3.370  1.7366 -0.6297  0.8788
 8622SOL     OW37324   2.824   4.336  10.946 -0.3973 -0.7660  0.2257
 8622SOL    HW137325   2.773   4.298  10.875 -2.3679  0.4553  0.9930
 8622SOL    HW237326   2.913   4.317  10.915 -0.2750 -2.0005  1.3335
 8623SOL     OW37327   2.695   4.180   0.705  0.6221  0.4698  0.2018
 8623SOL    HW137328   2.639   4.140   0.771 -0.8641  1.1512 -0.6402
 8623SOL    HW237329   2.697   4.274   0.725  1.9118  0.6678 -0.8827
 8624SOL     OW37330   0.965   2.778  11.867  0.8166 -0.0441  0.0464
 8624SOL    HW137331   0.922   2.741  11.944  1.1724 -0.9772 -0.2067
 8624SOL    HW237332   0.969   2.699  11.813 -1.9073 -1.0785  1.3835
 8625SOL     OW37333   3.815   4.080   5.058 -0.7565 -0.6119 -0.2367
 8625SOL    HW137334   3.779   4.167   5.041  0.5384 -0.0789 -0.2453
 8625SOL    HW237335   3.855   4.111   5.139  0.3299 -0.6480 -0.7600
 8626SOL     OW37336   1.099   4.034  16.885  0.1175  0.1040  0.2323
 8626SOL    HW137337   1.113   4.075  16.800  1.3810 -2.4631 -0.7793
 8626SOL    HW237338   1.006   4.013  16.872  0.2164  0.3022 -0.7728
 8627SOL     OW37339   0.352   1.416   4.003 -0.1920 -0.0752  0.3099
 8627SOL    HW137340   0.409   1.450   4.072 -0.5310 -0.7377  0.9223
 8627SOL    HW237341   0.403   1.336   3.988  1.0016  0.8951 -0.7163
 8628SOL     OW37342   4.457   4.489   4.013 -0.8646  0.5112  0.4651
 8628SOL    HW137343   4.393   4.528   4.074  0.0631  0.4827  1.4574
 8628SOL    HW237344   4.406   4.498   3.933 -1.2860 -1.2167  0.5499
 8629SOL     OW37345   2.614   0.016   2.405 -0.0065 -0.4077  0.1156
 8629SOL    HW137346   2.598   0.110   2.414  1.0133  0.0769 -3.4307
 8629SOL    HW237347   2.652   4.700   2.484 -0.9436 -0.8845  0.3508
 8630SOL     OW37348   2.431   4.481   7.933  0.5837 -0.4145 -0.0297
 8630SOL    HW137349   2.520   4.517   7.939  1.2201 -1.5175 -2.5873
 8630SOL    HW237350   2.419   4.452   7.842  0.1062  0.8719 -0.3723
 8631SOL     OW37351   1.295   3.521   8.071 -0.0002 -0.2431  0.2806
 8631SOL    HW137352   1.279   3.615   8.076  0.5192 -0.0937 -0.9116
 8631SOL    HW237353   1.292   3.504   8.166 -1.4403  0.8410  0.4284
 8632SOL     OW37354   2.616   3.607   9.436 -0.4100 -0.0324  0.3302
 8632SOL    HW137355   2.567   3.686   9.411 -1.5348 -0.1249  2.1850
 8632SOL    HW237356   2.707   3.615   9.408 -0.0351  1.8428  2.0338
 8633SOL     OW37357   0.679   2.695   5.238  0.0188  0.5040  0.7133
 8633SOL    HW137358   0.622   2.681   5.162 -0.8289  1.8048  1.1102
 8633SOL    HW237359   0.632   2.629   5.289  1.3586 -1.0110 -0.0252
 8634SOL     OW37360   4.711   3.286   8.005  0.0515  0.4719  0.0533
 8634SOL    HW137361   4.717   3.298   7.911  0.1245  0.5731  0.0701
 8634SOL    HW237362   4.636   3.227   8.014 -0.4961  1.6373  3.2947
 8635SOL     OW37363   1.645   2.642  16.141  0.5865 -0.1003 -0.4486
 8635SOL    HW137364   1.634   2.716  16.082  2.4500  1.1045  0.7219
 8635SOL    HW237365   1.569   2.601  16.100 -0.7429  2.4250 -0.5407
 8636SOL     OW37366   1.283   1.474   5.517 -0.0011 -0.8521  0.2124
 8636SOL    HW137367   1.348   1.416   5.556 -1.6361 -2.5846  0.3601
 8636SOL    HW237368   1.226   1.415   5.468 -2.1999  0.8275  0.8046
 8637SOL     OW37369   3.071   2.711  15.781  0.4996  0.3066 -0.1919
 8637SOL    HW137370   3.101   2.801  15.766  2.0312 -0.0195  0.9240
 8637SOL    HW237371   3.022   2.725  15.863 -0.0313 -0.7987 -0.3208
 8638SOL     OW37372   0.558   1.262   8.156 -0.0406  0.1406 -0.1758
 8638SOL    HW137373   0.550   1.236   8.248  2.4144 -2.1839 -0.6041
 8638SOL    HW237374   0.646   1.296   8.144 -0.1567 -0.7864 -3.6477
 8639SOL     OW37375   2.325   3.322  10.219 -0.1297 -0.0702 -0.2390
 8639SOL    HW137376   2.307   3.402  10.170  0.5575 -1.1019 -2.1828
 8639SOL    HW237377   2.417   3.337  10.238 -0.2900 -0.2309  0.6687
 8640SOL     OW37378   0.855   2.223   4.924 -0.1282 -0.0136  0.2157
 8640SOL    HW137379   0.894   2.238   4.838 -0.0024  2.7643  0.7389
 8640SOL    HW237380   0.918   2.159   4.958  0.9616  1.5857  1.2143
 8641SOL     OW37381   2.124   1.193   2.925 -0.0342 -0.2576 -0.8241
 8641SOL    HW137382   2.085   1.120   2.972  2.2741  0.0080  1.5361
 8641SOL    HW237383   2.214   1.160   2.913  0.9897  1.6472  1.5369
 8642SOL     OW37384   0.820   3.045   4.417  0.5326 -0.1725 -0.1799
 8642SOL    HW137385   0.764   2.967   4.411  2.4548 -1.4935 -1.0977
 8642SOL    HW237386   0.763   3.099   4.471  1.4933  1.5890 -0.9360
 8643SOL     OW37387   3.320   4.426  15.159  0.5526  0.8077  0.5120
 8643SOL    HW137388   3.398   4.438  15.213  0.8838  3.4975 -0.5766
 8643SOL    HW237389   3.262   4.482  15.212  0.2687  1.3526 -0.3762
 8644SOL     OW37390   0.038   2.560   1.398  0.3334 -0.0577 -0.7581
 8644SOL    HW137391   0.007   2.646   1.425 -1.6777 -0.4668 -1.8115
 8644SOL    HW237392   0.046   2.507   1.478  0.2100 -1.8476 -1.9111
 8645SOL     OW37393   0.458   4.558   4.705 -0.6141 -0.4682  0.0008
 8645SOL    HW137394   0.553   4.561   4.705 -0.6224 -0.2052 -0.8036
 8645SOL    HW237395   0.431   4.530   4.793 -1.1236 -1.1344 -0.3625
 8646SOL     OW37396   1.468   3.048   4.656  0.4040  0.3228  0.5137
 8646SOL    HW137397   1.466   3.061   4.561  0.8280 -3.3071 -0.0027
 8646SOL    HW237398   1.379   3.013   4.662  0.2030  0.7818  0.2451
 8647SOL     OW37399   2.310   3.758  15.633  0.2240 -0.3702 -0.0005
 8647SOL    HW137400   2.255   3.682  15.621 -0.8043  0.1354  1.4376
 8647SOL    HW237401   2.255   3.816  15.685  0.7990  1.0274 -0.9499
 8648SOL     OW37402   3.833   0.366   4.822 -0.0233  0.1424  0.6178
 8648SOL    HW137403   3.866   0.353   4.733 -0.9813  0.9403  0.1535
 8648SOL    HW237404   3.819   0.460   4.824 -0.0729  0.1006  2.1464
 8649SOL     OW37405   3.330   4.183  15.412 -0.3620  0.2184  0.0217
 8649SOL    HW137406   3.370   4.247  15.472 -0.1951 -0.6342  0.8165
 8649SOL    HW237407   3.307   4.119  15.479  0.8429  0.9508  1.1361
 8650SOL     OW37408   3.308   2.095   3.707  0.7249  0.4888  0.3495
 8650SOL    HW137409   3.348   2.067   3.789  1.2197  1.2882  0.3798
 8650SOL    HW237410   3.268   2.179   3.733  1.8142  1.3522 -0.7852
 8651SOL     OW37411   1.398   0.340   3.946  0.7435  0.2520  0.2949
 8651SOL    HW137412   1.350   0.423   3.942 -0.2239 -0.3006  0.6438
 8651SOL    HW237413   1.485   0.382   3.945 -0.1768  2.1422 -2.3616
 8652SOL     OW37414   4.530   0.362   5.886  0.5497 -0.4921  0.4487
 8652SOL    HW137415   4.543   0.352   5.980  1.0887 -1.4301  0.2818
 8652SOL    HW237416   4.475   0.285   5.870  0.7035 -0.3595 -0.7714
 8653SOL     OW37417   2.147   0.201  15.202 -0.0292  0.2014  0.7822
 8653SOL    HW137418   2.161   0.142  15.128  0.3798  0.5789  0.5500
 8653SOL    HW237419   2.237   0.229  15.221  0.2045 -0.4677  0.6538
 8654SOL     OW37420   3.395   0.419   9.009 -0.2658 -0.0994 -0.1261
 8654SOL    HW137421   3.313   0.403   8.963 -1.3124 -0.4109  1.8565
 8654SOL    HW237422   3.364   0.482   9.074  0.3976  0.1641 -0.0573
 8655SOL     OW37423   2.761   4.417   2.522  0.3763 -0.5207 -0.4507
 8655SOL    HW137424   2.706   4.349   2.483 -0.0487 -0.2092 -0.3993
 8655SOL    HW237425   2.711   4.451   2.597 -1.0926 -2.4094 -0.5670
 8656SOL     OW37426   1.885   4.247   6.485  0.0204  0.0980  0.5372
 8656SOL    HW137427   1.928   4.219   6.405 -0.5790  1.3712 -0.2314
 8656SOL    HW237428   1.795   4.221   6.472 -0.5599  3.5475 -2.3277
 8657SOL     OW37429   3.217   3.134   9.119  0.2399  0.3422  0.8967
 8657SOL    HW137430   3.302   3.162   9.084 -1.2453  1.3378 -1.8907
 8657SOL    HW237431   3.168   3.144   9.037  1.4249 -1.6845 -0.0628
 8658SOL     OW37432   3.608   1.047   6.649 -0.1625 -0.4188  0.1367
 8658SOL    HW137433   3.579   1.022   6.737 -0.1114  0.4580  0.4037
 8658SOL    HW237434   3.685   1.101   6.667 -1.3328  1.4618 -0.4500
 8659SOL     OW37435   2.921   1.645  17.186  0.0643  0.6673  0.0536
 8659SOL    HW137436   2.964   1.701  17.121  1.8453 -2.2813 -1.3125
 8659SOL    HW237437   2.840   1.696  17.194  1.2300  2.4436  0.4786
 8660SOL     OW37438   0.403   2.920   1.616  0.1894  0.3894  0.9087
 8660SOL    HW137439   0.315   2.936   1.582 -0.7289 -1.1874  2.5048
 8660SOL    HW237440   0.436   2.907   1.527 -0.2108 -2.2504  1.1384
 8661SOL     OW37441   0.103   4.301   5.677  0.0814 -0.3771  0.4089
 8661SOL    HW137442   0.026   4.299   5.735 -1.4237  0.6988 -1.5506
 8661SOL    HW237443   0.103   4.395   5.656 -0.0062 -0.3519  0.5174
 8662SOL     OW37444   2.908   0.350   8.776 -0.4863  0.2198 -0.1706
 8662SOL    HW137445   2.820   0.337   8.742 -0.2247 -1.2082 -0.3052
 8662SOL    HW237446   2.959   0.325   8.699 -2.5413  0.3762 -1.5678
 8663SOL     OW37447   2.462   2.508  15.086 -0.4815  0.7618 -0.2201
 8663SOL    HW137448   2.427   2.420  15.096 -1.6647  1.1087 -1.4148
 8663SOL    HW237449   2.518   2.517  15.163  1.5861  1.5682 -1.7951
 8664SOL     OW37450   0.307   3.607   8.130  0.0141 -0.1358 -0.0841
 8664SOL    HW137451   0.393   3.648   8.139 -0.0130  0.0701 -0.7055
 8664SOL    HW237452   0.285   3.583   8.220  0.2652  0.0581  0.0281
 8665SOL     OW37453   1.287   3.080   9.222  0.3607  0.4078  0.6440
 8665SOL    HW137454   1.210   3.025   9.233  0.6482 -0.0089  0.5725
 8665SOL    HW237455   1.261   3.128   9.144  0.4056  0.0908  0.4341
 8666SOL     OW37456   3.966   4.252   8.849  0.1149 -0.1617 -0.7481
 8666SOL    HW137457   3.893   4.212   8.897  0.2709 -1.5234 -1.6742
 8666SOL    HW237458   3.981   4.332   8.901  0.1604 -0.3462 -0.4763
 8667SOL     OW37459   2.969   0.195  11.027  0.3436  0.4842  0.3355
 8667SOL    HW137460   3.008   0.282  11.029  3.4318 -0.8953  0.3007
 8667SOL    HW237461   2.981   0.173  11.119 -2.2626 -1.4966  0.2319
 8668SOL     OW37462   4.106   2.557  13.329 -0.0320  0.1454 -0.2128
 8668SOL    HW137463   4.064   2.485  13.281  0.7092 -1.8480  2.1085
 8668SOL    HW237464   4.191   2.568  13.286 -0.1867  0.5267 -0.4232
 8669SOL     OW37465   1.222   0.570   5.413 -0.0256 -0.3878  0.4062
 8669SOL    HW137466   1.273   0.491   5.429 -2.2173 -1.8534  0.1754
 8669SOL    HW237467   1.257   0.627   5.481  0.0843 -1.4758  1.2451
 8670SOL     OW37468   4.055   2.864   0.019 -0.6120 -0.1668 -0.2542
 8670SOL    HW137469   4.141   2.821   0.013 -0.6766 -0.4301  0.7702
 8670SOL    HW237470   4.051   2.916   0.099 -1.7276 -0.5838 -0.0432
 8671SOL     OW37471   1.315   4.458   3.171 -0.7524 -0.1938  0.3360
 8671SOL    HW137472   1.252   4.476   3.240  0.0675 -1.1059  1.3242
 8671SOL    HW237473   1.386   4.424   3.226  0.5670  0.0192 -1.2194
 8672SOL     OW37474   3.682   3.802   6.868  0.6310 -0.2961  0.4793
 8672SOL    HW137475   3.631   3.875   6.902  0.4887 -0.8536  1.4634
 8672SOL    HW237476   3.645   3.786   6.781 -0.4907 -0.6194  1.0207
 8673SOL     OW37477   2.627   2.936  16.788  0.1058  0.7007 -0.1918
 8673SOL    HW137478   2.575   3.010  16.756  2.6944  3.0790  1.1770
 8673SOL    HW237479   2.645   2.974  16.874  0.6013  0.2517 -0.0991
 8674SOL     OW37480   0.847   1.785   3.856  0.4070  0.1303 -0.0194
 8674SOL    HW137481   0.782   1.853   3.838  0.0929 -0.0030  0.5915
 8674SOL    HW237482   0.868   1.746   3.771  0.7953 -1.1370  0.6655
 8675SOL     OW37483   0.100   1.315   4.097  0.4895 -0.2636 -0.3916
 8675SOL    HW137484   0.043   1.379   4.139  1.0854  0.8772 -1.3229
 8675SOL    HW237485   0.177   1.363   4.067  1.5008 -0.6900  1.4964
 8676SOL     OW37486   3.593   2.432  12.850  0.5370  0.3524 -0.7413
 8676SOL    HW137487   3.613   2.362  12.911 -0.7635  1.7696  1.2889
 8676SOL    HW237488   3.501   2.452  12.871 -0.1491 -1.3822 -2.1019
 8677SOL     OW37489   1.531   1.759   8.169 -0.3004  0.1327  0.1445
 8677SOL    HW137490   1.522   1.680   8.116  1.7277 -0.0911  0.1342
 8677SOL    HW237491   1.443   1.768   8.203 -0.9511 -0.9463 -1.2627
 8678SOL     OW37492   3.926   3.078  15.948  0.4866 -0.3512  0.1527
 8678SOL    HW137493   4.005   3.106  15.902  1.2594 -2.2853  0.2823
 8678SOL    HW237494   3.869   3.060  15.874  1.4004  1.7157 -1.0517
 8679SOL     OW37495   3.908   1.492   5.635 -0.5719  0.2544  0.0614
 8679SOL    HW137496   3.994   1.489   5.678  0.1371  1.5432 -1.2530
 8679SOL    HW237497   3.901   1.403   5.601  2.8093  1.5726 -4.1343
 8680SOL     OW37498   3.558   3.730  11.530  0.2862  0.0927 -0.2744
 8680SOL    HW137499   3.487   3.668  11.514 -2.7301  3.1481  1.2657
 8680SOL    HW237500   3.639   3.694  11.494  1.4042  1.2293  1.0822
 8681SOL     OW37501   0.071   4.047   9.027  0.3341  0.2700 -0.0925
 8681SOL    HW137502   0.118   3.981   9.078  1.1161  2.7237  2.3075
 8681SOL    HW237503   0.131   4.121   9.021 -0.6821  1.1843  1.1911
 8682SOL     OW37504   2.487   3.962  14.297 -0.0682  0.0213  0.7277
 8682SOL    HW137505   2.573   3.992  14.269  0.0473 -0.5609  0.4636
 8682SOL    HW237506   2.444   4.046  14.312 -1.5122 -0.7112  0.7039
 8683SOL     OW37507   0.743   2.984   8.320  0.1619 -0.8643  0.2210
 8683SOL    HW137508   0.697   2.958   8.240 -0.7827  2.3348 -0.3102
 8683SOL    HW237509   0.675   3.018   8.378  0.4722  2.1528 -1.1608
 8684SOL     OW37510   4.614   3.347   9.067 -0.1770 -0.7296  0.2061
 8684SOL    HW137511   4.636   3.417   9.128  1.6284  0.8977 -2.3272
 8684SOL    HW237512   4.635   3.378   8.978 -1.1948  1.8245  0.8481
 8685SOL     OW37513   0.813   4.209   5.511  0.0928 -0.1601  0.0462
 8685SOL    HW137514   0.722   4.181   5.523 -0.3232  0.5754 -1.4461
 8685SOL    HW237515   0.854   4.128   5.482  0.7068 -0.1623  0.9002
 8686SOL     OW37516   0.190   0.715   4.373 -0.4768  0.4689  0.6283
 8686SOL    HW137517   0.164   0.765   4.295  0.9506  1.1015  0.5547
 8686SOL    HW237518   0.266   0.673   4.333 -1.0470  1.4591 -1.5285
 8687SOL     OW37519   2.035   2.716   4.063 -0.0715  0.1469 -0.1279
 8687SOL    HW137520   2.104   2.707   4.128 -1.3144 -0.9730  1.0235
 8687SOL    HW237521   2.060   2.786   4.002 -1.3085 -0.2101 -1.0560
 8688SOL     OW37522   3.651   1.936   0.092  0.1535 -0.0241 -0.0556
 8688SOL    HW137523   3.620   1.847   0.108 -0.4478 -0.1081 -1.6694
 8688SOL    HW237524   3.646   1.972   0.181  1.6461 -2.0009  0.8271
 8689SOL     OW37525   4.446   0.337  14.824 -0.0731  0.4371 -0.4720
 8689SOL    HW137526   4.452   0.292  14.739 -0.8475  0.1174 -0.3517
 8689SOL    HW237527   4.502   0.280  14.876 -0.0331  0.8778 -0.0378
 8690SOL     OW37528   3.408   2.790   7.054 -0.2419 -0.2514  0.3324
 8690SOL    HW137529   3.398   2.876   7.013  2.4740  0.3035  0.8218
 8690SOL    HW237530   3.413   2.826   7.143 -0.6503  1.4749 -0.3426
 8691SOL     OW37531   0.700   4.399   5.900 -0.0436  0.0192  0.0692
 8691SOL    HW137532   0.613   4.416   5.936 -0.9520 -0.7086 -1.7823
 8691SOL    HW237533   0.705   4.306   5.925 -1.4434  0.1274  0.7491
 8692SOL     OW37534   1.605   2.373   0.387  0.5330 -0.1359  0.5534
 8692SOL    HW137535   1.519   2.330   0.384  0.2023  0.5236  0.3351
 8692SOL    HW237536   1.617   2.341   0.476  0.6566  2.5913  1.5191
 8693SOL     OW37537   1.649   0.004   0.361  0.4445 -0.1605  0.7741
 8693SOL    HW137538   1.694   4.655   0.314 -1.9180 -0.2446 -1.3295
 8693SOL    HW237539   1.582   4.678   0.410 -1.3598  0.1328 -1.4062
 8694SOL     OW37540   4.491   4.164   7.294 -0.4393  0.2934  0.3570
 8694SOL    HW137541   4.459   4.238   7.345  1.4126  1.9827 -0.9685
 8694SOL    HW237542   4.479   4.204   7.208  0.0397 -0.4758 -0.0656
 8695SOL     OW37543   4.082   1.908   3.477  0.0122 -0.2497  0.1891
 8695SOL    HW137544   4.113   1.941   3.393  1.8115  0.1571  0.9961
 8695SOL    HW237545   3.990   1.893   3.455  0.2981  0.0654 -1.2349
 8696SOL     OW37546   2.611   3.288   8.645 -0.0867  0.4116  0.1951
 8696SOL    HW137547   2.574   3.341   8.715 -0.0147  0.8464 -0.0954
 8696SOL    HW237548   2.658   3.359   8.600 -2.0972  0.9607 -1.0240
 8697SOL     OW37549   1.337   0.155   6.017  0.1365 -0.1119 -0.4293
 8697SOL    HW137550   1.254   0.169   6.062  1.2136  4.2789  0.2807
 8697SOL    HW237551   1.307   0.136   5.929  1.5481 -1.2998 -0.6639
 8698SOL     OW37552   3.027   0.032   6.581 -0.2737 -0.0446  0.3393
 8698SOL    HW137553   3.115   0.051   6.613 -0.4785 -0.1600  0.9550
 8698SOL    HW237554   2.982   4.715   6.656 -1.3861 -1.5740 -1.0869
 8699SOL     OW37555   0.827   4.522   0.570  0.1965 -0.2939  0.1798
 8699SOL    HW137556   0.740   4.561   0.578  0.1891  0.4838 -3.8996
 8699SOL    HW237557   0.875   4.564   0.642  2.2401 -0.6542 -0.9722
 8700SOL     OW37558   3.471   1.691   2.821 -0.3688  0.4465  0.3316
 8700SOL    HW137559   3.535   1.650   2.880 -1.0990  0.2262  0.9779
 8700SOL    HW237560   3.522   1.735   2.753 -0.6030 -1.8457 -1.3201
 8701SOL     OW37561   4.673   2.351   4.865  0.3857  0.1563 -0.4764
 8701SOL    HW137562   4.605   2.356   4.798  0.5108  3.2294 -0.3999
 8701SOL    HW237563   0.024   2.330   4.806 -1.1999  0.8672 -2.6758
 8702SOL     OW37564   3.799   3.558   4.095  0.0050  0.1360  0.3468
 8702SOL    HW137565   3.862   3.508   4.147 -1.1554 -0.9816  0.6640
 8702SOL    HW237566   3.718   3.508   4.102 -0.6582  1.1801  0.1766
 8703SOL     OW37567   0.979   0.917   5.537 -0.0710  0.1640 -0.1061
 8703SOL    HW137568   0.931   0.974   5.597 -1.2707 -0.8502 -0.1216
 8703SOL    HW237569   1.067   0.954   5.544  0.4452 -1.0633 -0.0609
 8704SOL     OW37570   1.881   4.388   2.097 -0.0280  0.1638 -0.0145
 8704SOL    HW137571   1.843   4.438   2.169 -0.9733 -1.4290  0.6002
 8704SOL    HW237572   1.953   4.349   2.147  0.1041 -0.7327 -0.9193
 8705SOL     OW37573   1.747   3.471   4.649  0.1453  0.4630 -0.0276
 8705SOL    HW137574   1.802   3.466   4.726  1.5849  1.9975 -0.9669
 8705SOL    HW237575   1.680   3.402   4.656  1.8634 -1.5288 -3.3628
 8706SOL     OW37576   1.120   1.130   1.235  0.4704 -0.5744  0.5825
 8706SOL    HW137577   1.111   1.138   1.330 -0.3231  0.2714  0.4374
 8706SOL    HW237578   1.205   1.174   1.229  0.9526 -1.4728  0.8327
 8707SOL     OW37579   1.868   0.062  10.223 -0.3459 -0.0039 -0.3133
 8707SOL    HW137580   1.811   0.106  10.285 -0.0358  0.6423 -0.4921
 8707SOL    HW237581   1.847   0.100  10.137 -1.3843 -0.2892 -0.1834
 8708SOL     OW37582   4.032   4.409   7.395 -0.7964  0.5530 -0.3347
 8708SOL    HW137583   4.031   4.450   7.309  0.6996  0.6655 -0.3070
 8708SOL    HW237584   3.943   4.414   7.430 -0.5292 -2.6169  0.8070
 8709SOL     OW37585   0.280   1.227   4.357 -0.5790 -0.0684  0.2596
 8709SOL    HW137586   0.368   1.203   4.386  0.1284  0.0844 -1.8062
 8709SOL    HW237587   0.283   1.206   4.264 -4.0623 -0.5445  0.2604
 8710SOL     OW37588   0.118   0.087   6.638  0.0992 -0.3823 -0.8451
 8710SOL    HW137589   0.129   0.163   6.582  1.4662 -0.5503 -0.8086
 8710SOL    HW237590   0.206   0.080   6.676 -0.2213 -1.8431 -0.3459
 8711SOL     OW37591   0.602   3.837   6.177  0.0410  0.4812 -0.2699
 8711SOL    HW137592   0.566   3.915   6.220 -2.0769  0.8477 -2.6496
 8711SOL    HW237593   0.526   3.780   6.185  0.3226 -0.0137 -1.1636
 8712SOL     OW37594   3.531   1.821   5.388 -0.1339  0.2785  0.3373
 8712SOL    HW137595   3.586   1.764   5.442 -0.3687 -0.0392  0.2467
 8712SOL    HW237596   3.517   1.898   5.442  0.9507  0.8667 -0.2338
 8713SOL     OW37597   1.690   2.972   7.822 -0.2470  0.0904 -0.2738
 8713SOL    HW137598   1.600   2.954   7.796  0.2597 -3.3378  0.2460
 8713SOL    HW237599   1.719   2.881   7.817 -1.5530 -0.2334 -1.7998
 8714SOL     OW37600   1.752   1.629   1.679  0.3143  0.0104  0.0920
 8714SOL    HW137601   1.698   1.673   1.614 -0.7185 -0.0593  0.8981
 8714SOL    HW237602   1.809   1.704   1.692  0.5882 -0.9479  4.4991
 8715SOL     OW37603   2.520   2.721   2.957 -0.3071  0.5653  0.2459
 8715SOL    HW137604   2.564   2.649   3.002 -1.2021 -0.2868 -0.2339
 8715SOL    HW237605   2.537   2.691   2.867  0.7068  1.7765  0.0330
 8716SOL     OW37606   1.637   0.128  16.462  0.3411 -0.2283 -0.1630
 8716SOL    HW137607   1.679   0.121  16.376  1.1005  3.1437 -0.0873
 8716SOL    HW237608   1.670   0.212  16.495  0.5600 -0.6603  0.7000
 8717SOL     OW37609   0.864   2.786   8.453  0.0081 -0.4344 -0.1603
 8717SOL    HW137610   0.956   2.798   8.428 -0.1109 -0.6651 -0.7149
 8717SOL    HW237611   0.830   2.859   8.401  0.7431 -0.3530 -0.5306
 8718SOL     OW37612   2.979   2.803  14.213 -0.2854 -0.1996 -0.0511
 8718SOL    HW137613   2.942   2.720  14.242 -0.8330  0.3478  0.7918
 8718SOL    HW237614   2.961   2.802  14.119 -2.0581 -0.6247  0.2953
 8719SOL     OW37615   3.635   3.629   1.890 -0.0037 -0.0656  0.3516
 8719SOL    HW137616   3.553   3.642   1.843 -0.6133  0.2562  1.5110
 8719SOL    HW237617   3.704   3.635   1.823  0.7863 -2.7508  0.9121
 8720SOL     OW37618   2.398   0.035   6.288  0.1743 -0.7642  0.2900
 8720SOL    HW137619   2.474   0.040   6.346  0.4618  0.8032 -0.2165
 8720SOL    HW237620   2.346   4.694   6.339 -1.0600  0.0109 -0.0025
 8721SOL     OW37621   4.269   3.836   0.272  0.0763 -0.0544  0.1669
 8721SOL    HW137622   4.303   3.924   0.259  2.3005 -0.6798  1.5976
 8721SOL    HW237623   4.325   3.803   0.342 -0.5354 -0.2238  0.5734
 8722SOL     OW37624   3.697   4.128   7.789 -0.6657  0.2021 -0.5018
 8722SOL    HW137625   3.637   4.055   7.770 -1.1884  0.6747 -0.6621
 8722SOL    HW237626   3.771   4.075   7.819 -1.4814 -0.3113  0.6142
 8723SOL     OW37627   3.532   0.886  13.914 -0.1841  0.2342  0.0105
 8723SOL    HW137628   3.459   0.918  13.968 -0.3484  1.5435 -0.9982
 8723SOL    HW237629   3.612   0.917  13.956 -0.3167  2.2473 -1.2581
 8724SOL     OW37630   1.537   3.661   7.380  0.1309  0.2389 -0.4307
 8724SOL    HW137631   1.507   3.572   7.365  0.6886 -0.1666  0.8800
 8724SOL    HW237632   1.478   3.710   7.323  0.5192  1.6348  0.3683
 8725SOL     OW37633   0.790   1.205   3.268 -0.3987 -0.3115 -0.2800
 8725SOL    HW137634   0.775   1.163   3.183  1.9120 -3.1946  0.7252
 8725SOL    HW237635   0.864   1.260   3.239 -0.5186 -1.1015 -2.0433
 8726SOL     OW37636   3.705   0.070  12.956 -0.2563 -0.3934  0.0779
 8726SOL    HW137637   3.737   0.044  13.042  3.0532 -2.4683 -1.8052
 8726SOL    HW237638   3.629   0.126  12.971 -1.3188 -1.3057 -1.9040
 8727SOL     OW37639   2.508   1.872   8.767 -0.2489 -0.1147 -0.0058
 8727SOL    HW137640   2.546   1.815   8.700  1.3812 -1.9672  2.4630
 8727SOL    HW237641   2.447   1.925   8.715 -0.7260 -0.2769  0.3965
 8728SOL     OW37642   3.689   2.610   8.277 -0.4090 -0.5602 -0.1345
 8728SOL    HW137643   3.732   2.535   8.319 -0.2893  0.2651  1.2016
 8728SOL    HW237644   3.696   2.681   8.341  1.2118 -0.6382 -0.2175
 8729SOL     OW37645   4.134   4.281  17.220 -0.2256  0.3055  0.5246
 8729SOL    HW137646   4.229   4.290  17.224 -0.4920  1.9844  2.6282
 8729SOL    HW237647   4.113   4.336  17.144  1.2446 -1.3607 -1.0835
 8730SOL     OW37648   0.977   0.185   7.639  0.6710 -0.3639  0.1346
 8730SOL    HW137649   0.989   0.280   7.631 -1.6604 -0.2142 -1.8289
 8730SOL    HW237650   0.958   0.156   7.550  0.2609  0.9835 -0.2312
 8731SOL     OW37651   0.146   4.482   4.495 -0.7246 -0.7632 -0.0973
 8731SOL    HW137652   0.074   4.418   4.498 -1.4720  0.0006 -1.3486
 8731SOL    HW237653   0.143   4.499   4.589  1.5804 -0.5416 -0.0753
 8732SOL     OW37654   0.528   4.433  10.641  0.1941  0.2789  0.2653
 8732SOL    HW137655   0.599   4.401  10.696 -1.0572 -0.7217  1.3194
 8732SOL    HW237656   0.453   4.405  10.694 -0.1116  0.8923  0.1620
 8733SOL     OW37657   1.495   4.498  14.937 -0.0309  0.0004 -0.6581
 8733SOL    HW137658   1.533   4.585  14.933  1.0804 -0.5782 -2.5128
 8733SOL    HW237659   1.566   4.467  14.993  0.0542 -0.8706 -1.2539
 8734SOL     OW37660   3.942   2.678   4.257  0.3581 -0.3685 -0.4065
 8734SOL    HW137661   3.968   2.702   4.168  0.2781  2.9662  0.4706
 8734SOL    HW237662   3.861   2.630   4.242 -0.3507  0.9610 -0.8167
 8735SOL     OW37663   1.613   1.776   6.265  0.0093  0.0774  0.1337
 8735SOL    HW137664   1.644   1.687   6.282 -1.2756 -0.7221 -1.7825
 8735SOL    HW237665   1.606   1.790   6.171  0.6570  0.5270  0.1561
 8736SOL     OW37666   2.737   2.668  14.289 -0.1882  0.3217 -0.1525
 8736SOL    HW137667   2.686   2.677  14.208 -0.4907 -1.5559 -0.1834
 8736SOL    HW237668   2.706   2.743  14.339  1.3099  0.2272  0.9163
 8737SOL     OW37669   0.300   1.924   6.681  0.5124 -0.2144  0.1728
 8737SOL    HW137670   0.269   1.840   6.715 -1.4096  1.2002  1.8665
 8737SOL    HW237671   0.396   1.917   6.685  0.4076 -1.4804  0.6944
 8738SOL     OW37672   3.547   4.207  15.199 -0.1148 -0.0759  0.3676
 8738SOL    HW137673   3.586   4.262  15.267  0.6840  1.2022 -1.1503
 8738SOL    HW237674   3.470   4.176  15.248  0.4094 -1.2294  0.4576
 8739SOL     OW37675   2.067   4.277   2.248  0.3330 -0.1611 -0.4912
 8739SOL    HW137676   2.144   4.306   2.198  1.2111 -0.6629  0.5862
 8739SOL    HW237677   2.096   4.269   2.338  1.8643  0.0072 -0.9762
 8740SOL     OW37678   2.821   1.037   2.933 -0.1242  0.0630  0.0435
 8740SOL    HW137679   2.801   1.089   3.011 -0.0698  0.1157  0.0217
 8740SOL    HW237680   2.790   1.105   2.873 -0.7041  1.1985  1.6392
 8741SOL     OW37681   1.933   3.847   3.566 -0.1995  0.0092 -0.2163
 8741SOL    HW137682   1.855   3.891   3.599 -1.2206 -1.7517 -0.3048
 8741SOL    HW237683   1.967   3.813   3.649 -1.2909 -0.6622 -0.0546
 8742SOL     OW37684   0.499   4.233   2.150 -0.3065  0.3139 -0.2677
 8742SOL    HW137685   0.469   4.198   2.066  0.3462 -0.9003 -0.0117
 8742SOL    HW237686   0.421   4.226   2.205 -0.7289 -2.5166 -1.2288
 8743SOL     OW37687   0.707   2.974   4.978 -0.5868 -0.3790  0.1462
 8743SOL    HW137688   0.773   2.978   5.046 -0.6075 -0.2842  0.1608
 8743SOL    HW237689   0.620   2.995   5.012 -0.1049 -0.5652  1.4661
 8744SOL     OW37690   4.286   3.779  13.095  0.4171 -0.1965 -0.2297
 8744SOL    HW137691   4.296   3.686  13.118  2.7267 -0.3072 -1.7190
 8744SOL    HW237692   4.358   3.790  13.033  1.6543  0.5941  1.3541
 8745SOL     OW37693   2.719   2.872   5.825  0.3607 -0.1036 -0.1982
 8745SOL    HW137694   2.737   2.912   5.740  0.9916 -0.3028 -0.1580
 8745SOL    HW237695   2.755   2.935   5.887  1.3422 -2.1718  1.3364
 8746SOL     OW37696   0.872   1.367  17.327  0.0986  0.4155  0.4510
 8746SOL    HW137697   0.931   1.438  17.352  1.2459  0.0367 -1.1816
 8746SOL    HW237698   0.920   1.295  17.370 -1.1607 -0.1752  0.8623
 8747SOL     OW37699   4.511   2.409   0.058 -0.4710  0.5614  0.1047
 8747SOL    HW137700   4.470   2.368  17.669 -2.2583  0.8978  0.8681
 8747SOL    HW237701   4.467   2.366   0.131 -1.1752 -0.6922 -1.0651
 8748SOL     OW37702   2.405   4.608   3.877 -0.7664 -0.5792 -0.0259
 8748SOL    HW137703   2.454   4.572   3.802 -0.8104 -1.1451  0.2130
 8748SOL    HW237704   2.318   4.616   3.839 -1.0135  0.8361  0.8662
 8749SOL     OW37705   1.753   0.594   6.315 -0.6898 -0.9149  0.0423
 8749SOL    HW137706   1.763   0.574   6.222  2.3035 -0.7311  0.3207
 8749SOL    HW237707   1.718   0.512   6.349  0.6135 -1.2744  0.4965
 8750SOL     OW37708   4.676   3.832   4.579  0.3034  0.1504 -0.0646
 8750SOL    HW137709   4.658   3.751   4.627  1.1746 -0.8320 -1.4014
 8750SOL    HW237710   4.676   3.893   4.654 -0.5636 -0.1905  0.2092
 8751SOL     OW37711   1.993   0.053   2.076  0.0266  0.2741  0.0084
 8751SOL    HW137712   2.084   0.033   2.096 -0.2949 -0.9759  0.2292
 8751SOL    HW237713   1.996   0.026   1.984  1.5335 -1.3982  0.5622
 8752SOL     OW37714   0.500   3.673   8.754  0.6158  0.1196  0.0134
 8752SOL    HW137715   0.559   3.605   8.787 -1.6279 -1.3653  0.9295
 8752SOL    HW237716   0.562   3.705   8.688  0.0953 -0.0359 -0.5533
 8753SOL     OW37717   0.343   2.727   5.380  0.2342  0.3792  0.0085
 8753SOL    HW137718   0.272   2.683   5.428  0.5353 -1.8854 -1.6210
 8753SOL    HW237719   0.400   2.651   5.372 -1.2750 -0.7082 -0.4074
 8754SOL     OW37720   2.012   1.710  15.854 -0.6174  0.0135 -0.2707
 8754SOL    HW137721   2.034   1.748  15.939  0.7688  1.4139 -1.2675
 8754SOL    HW237722   1.966   1.631  15.884  0.2458 -0.5875 -0.5443
 8755SOL     OW37723   3.643   3.787  14.949  0.2997  0.5532 -0.2702
 8755SOL    HW137724   3.585   3.771  15.024 -0.4035  1.9708 -0.5097
 8755SOL    HW237725   3.714   3.725  14.963  0.7512  0.9736 -0.7254
 8756SOL     OW37726   4.389   3.909   3.661  0.1304 -0.0166 -0.1334
 8756SOL    HW137727   4.370   3.936   3.571 -2.0022 -0.5870  0.1510
 8756SOL    HW237728   4.313   3.853   3.674  0.7674 -1.3859 -2.1792
 8757SOL     OW37729   3.031   0.871   6.702 -0.3568 -0.4602  0.0198
 8757SOL    HW137730   3.003   0.870   6.794  0.7229 -3.2304  0.3047
 8757SOL    HW237731   3.121   0.840   6.691 -0.2637  0.3570 -1.5273
 8758SOL     OW37732   0.973   0.255  10.869  0.1995  0.2511 -0.2067
 8758SOL    HW137733   0.974   0.274  10.963  2.5125 -0.5564 -0.0697
 8758SOL    HW237734   1.062   0.226  10.851  0.5449  0.1883  1.5934
 8759SOL     OW37735   3.050   1.210  17.635 -0.1925 -0.5507  0.2778
 8759SOL    HW137736   3.044   1.120  17.666 -2.6856  0.0351  1.5350
 8759SOL    HW237737   2.964   1.243  17.664  1.1209  3.6527 -0.5081
 8760SOL     OW37738   0.804   2.489   6.146 -0.2254  0.3936 -0.1468
 8760SOL    HW137739   0.793   2.564   6.205 -1.4350  0.2918 -0.2328
 8760SOL    HW237740   0.716   2.453   6.161  0.1787 -0.7040 -0.3972
 8761SOL     OW37741   3.974   2.836   3.428 -0.5228 -0.3518  0.1735
 8761SOL    HW137742   4.003   2.823   3.518  0.2034 -0.2322 -0.0434
 8761SOL    HW237743   4.032   2.906   3.399 -1.8845  0.2355 -1.1254
 8762SOL     OW37744   1.278   1.108   7.116 -0.4264  0.0742  0.9472
 8762SOL    HW137745   1.196   1.065   7.142 -1.0971 -0.0900 -1.4791
 8762SOL    HW237746   1.282   1.087   7.023 -4.3989  2.1235  0.3202
 8763SOL     OW37747   1.626   0.892   3.310 -0.1698 -0.3960  0.1782
 8763SOL    HW137748   1.714   0.930   3.319  0.1879 -1.0829 -0.4312
 8763SOL    HW237749   1.607   0.857   3.397  1.1228 -1.4979  0.0023
 8764SOL     OW37750   4.532   4.322   2.943  0.1726 -0.1560 -0.3307
 8764SOL    HW137751   4.580   4.402   2.922  1.0660 -1.6935 -4.1923
 8764SOL    HW237752   4.594   4.277   2.885  1.5141  0.9655  0.2415
 8765SOL     OW37753   1.978   2.755  11.702 -0.5672 -0.7306 -0.0224
 8765SOL    HW137754   2.050   2.792  11.650  0.8141 -2.6628  0.5192
 8765SOL    HW237755   1.915   2.827  11.706 -0.8485 -0.9343 -0.7145
 8766SOL     OW37756   2.731   3.733   5.683 -0.0256  0.2753  0.7648
 8766SOL    HW137757   2.711   3.748   5.775  0.3610 -1.3449  1.1088
 8766SOL    HW237758   2.781   3.652   5.680  1.0667  1.0952 -3.6241
 8767SOL     OW37759   1.595   3.142   9.154 -0.2116 -0.9001 -0.4595
 8767SOL    HW137760   1.560   3.214   9.103 -1.7116  1.7613  4.3033
 8767SOL    HW237761   1.515   3.109   9.196 -1.2409  1.4982 -0.5687
 8768SOL     OW37762   0.755   1.036   6.611 -0.0480  0.5400 -0.8042
 8768SOL    HW137763   0.708   1.074   6.686 -0.9924 -0.8502 -0.6941
 8768SOL    HW237764   0.814   1.109   6.590 -1.3268  1.5344 -0.9604
 8769SOL     OW37765   3.285   3.699  14.869  0.0766 -0.0607 -0.4510
 8769SOL    HW137766   3.354   3.714  14.934 -0.4912 -0.6117  0.2823
 8769SOL    HW237767   3.317   3.751  14.795 -1.1700  1.0780 -0.1954
 8770SOL     OW37768   1.205   3.035   4.345 -0.1296  0.2039 -0.2510
 8770SOL    HW137769   1.166   3.094   4.410  1.9217  2.2813 -0.9161
 8770SOL    HW237770   1.298   3.053   4.357 -0.2726  1.6417 -1.3393
 8771SOL     OW37771   3.339   3.926   3.874 -0.3156  0.1663  0.3219
 8771SOL    HW137772   3.411   3.969   3.920 -1.4011  1.2302  1.0495
 8771SOL    HW237773   3.289   3.992   3.826  0.3142  1.0111  0.8176
 8772SOL     OW37774   4.261   4.698   9.694  0.1319 -0.1506  0.1027
 8772SOL    HW137775   4.280   0.068   9.671  1.1750 -1.0338 -2.6215
 8772SOL    HW237776   4.279   4.648   9.614  0.5553 -0.9690  0.7166
 8773SOL     OW37777   2.137   2.277   1.031  0.0337  0.3724  0.0307
 8773SOL    HW137778   2.056   2.245   1.073  0.7390  0.8997  1.8107
 8773SOL    HW237779   2.208   2.267   1.094 -0.8768  0.3783  1.0613
 8774SOL     OW37780   4.637   1.083   8.348 -0.7470 -0.6465  0.2008
 8774SOL    HW137781   4.610   1.155   8.405  0.1251  0.2114 -0.4734
 8774SOL    HW237782   4.623   1.004   8.400  1.6588 -1.3465 -0.2370
 8775SOL     OW37783   2.124   0.320  13.565 -0.1970 -0.5333 -0.2536
 8775SOL    HW137784   2.146   0.319  13.472  1.8298 -1.6969  0.2409
 8775SOL    HW237785   2.091   0.409  13.574  0.1436 -0.4958  0.5591
 8776SOL     OW37786   2.927   1.796   6.270 -0.4702 -0.2004 -0.1890
 8776SOL    HW137787   2.890   1.748   6.344  1.7580 -0.9755  0.4161
 8776SOL    HW237788   3.018   1.810   6.295 -0.0242  1.9248 -2.9102
 8777SOL     OW37789   2.860   4.347   6.785  0.1183  0.0172 -0.0443
 8777SOL    HW137790   2.839   4.266   6.738  2.2570 -0.2307 -0.5761
 8777SOL    HW237791   2.861   4.409   6.712  0.7690 -1.5557 -1.3626
 8778SOL     OW37792   4.264   0.446   7.806  0.2357  0.3892  0.4449
 8778SOL    HW137793   4.287   0.494   7.726 -0.2714 -0.7055 -0.3670
 8778SOL    HW237794   4.300   0.502   7.874 -0.7261  1.1558  0.3248
 8779SOL     OW37795   0.707   4.017  11.180 -0.4503 -0.6678 -0.6454
 8779SOL    HW137796   0.646   4.045  11.111  0.1932 -2.1282 -1.7939
 8779SOL    HW237797   0.645   4.006  11.253 -0.8330  3.7497 -0.3313
 8780SOL     OW37798   1.156   2.830   3.534  0.6492  0.0607  0.2417
 8780SOL    HW137799   1.149   2.804   3.442  1.9842  2.5170 -0.5725
 8780SOL    HW237800   1.118   2.918   3.524  1.3954  0.6368  2.3900
 8781SOL     OW37801   0.764   4.482   6.918  0.2223 -0.1096  0.2981
 8781SOL    HW137802   0.859   4.481   6.917  0.2217 -0.8227  1.1233
 8781SOL    HW237803   0.741   4.397   6.956 -0.7295 -1.3189 -2.9778
 8782SOL     OW37804   2.273   0.790   8.351 -0.0190 -0.0127  0.1187
 8782SOL    HW137805   2.315   0.869   8.317 -0.2065  0.0847  0.1097
 8782SOL    HW237806   2.262   0.738   8.271  1.6704 -2.7804  1.7109
 8783SOL     OW37807   1.444   1.066   2.435  0.2770 -0.5537  0.1695
 8783SOL    HW137808   1.392   1.134   2.480 -1.6362 -0.4388 -2.2300
 8783SOL    HW237809   1.387   0.989   2.438 -0.7923  0.2830  1.3216
 8784SOL     OW37810   3.380   4.055   1.795 -0.1822 -0.4898  0.3525
 8784SOL    HW137811   3.363   4.110   1.871 -0.2358 -2.5934  1.8499
 8784SOL    HW237812   3.473   4.047   1.815  0.1218  0.8265 -0.5819
 8785SOL     OW37813   0.633   1.252   7.824 -0.1060  0.3547 -0.1757
 8785SOL    HW137814   0.586   1.168   7.826  0.8226 -0.1509  0.9203
 8785SOL    HW237815   0.600   1.294   7.745 -0.4310 -3.0990 -1.8704
 8786SOL     OW37816   3.208   4.334   7.512  0.3249 -0.1735  0.1172
 8786SOL    HW137817   3.168   4.247   7.511 -1.7187  0.7440  2.9544
 8786SOL    HW237818   3.299   4.305   7.524  0.5001 -0.7666 -2.7044
 8787SOL     OW37819   2.834   0.012   4.858 -0.7081  0.3289  0.4691
 8787SOL    HW137820   2.746   4.701   4.835 -0.5818  0.5896 -0.3892
 8787SOL    HW237821   2.870   4.695   4.778 -0.0012  0.8776  0.5306
 8788SOL     OW37822   4.198   4.578   4.726 -0.1039  0.0864  0.6691
 8788SOL    HW137823   4.188   4.663   4.769 -1.9206  0.3040 -0.1790
 8788SOL    HW237824   4.176   4.602   4.636  0.0665  1.8203  1.0794
 8789SOL     OW37825   2.275   1.654  10.082  0.3352  0.4431  0.9199
 8789SOL    HW137826   2.216   1.703  10.140 -0.1668  2.9354 -1.7251
 8789SOL    HW237827   2.295   1.725  10.022  0.4964 -0.3748  0.0018
 8790SOL     OW37828   3.360   0.815  17.296  0.4230  0.2829  0.4280
 8790SOL    HW137829   3.333   0.833  17.386 -0.7198  0.5258  0.0348
 8790SOL    HW237830   3.405   0.895  17.268 -2.5981  1.6780 -0.4472
 8791SOL     OW37831   1.208   2.733   2.282  0.3991 -0.2501 -0.1808
 8791SOL    HW137832   1.197   2.654   2.335 -0.9664  1.1888  1.6526
 8791SOL    HW237833   1.151   2.729   2.206  0.5907 -0.5318 -0.3108
 8792SOL     OW37834   3.375   1.626   4.943  0.5853 -0.0362 -0.1907
 8792SOL    HW137835   3.346   1.562   5.008 -1.3248  1.1739  0.1237
 8792SOL    HW237836   3.378   1.571   4.865  0.1064 -0.4801  0.0996
 8793SOL     OW37837   0.675   4.292   3.911  0.0921 -0.2964  0.3943
 8793SOL    HW137838   0.633   4.300   3.996  0.3703  0.2622  0.4785
 8793SOL    HW237839   0.598   4.312   3.856  1.6787  1.7465 -1.0916
 8794SOL     OW37840   1.704   1.150   9.097 -0.4645 -0.2769 -0.0525
 8794SOL    HW137841   1.732   1.241   9.090 -2.3917  0.1744 -1.8688
 8794SOL    HW237842   1.621   1.154   9.146 -0.2211 -1.2980  0.4526
 8795SOL     OW37843   2.581   0.510   3.201 -0.1933  0.2871  0.4389
 8795SOL    HW137844   2.634   0.478   3.128  0.0142  0.2579  0.6052
 8795SOL    HW237845   2.504   0.551   3.160  0.0476 -1.4156 -1.7311
 8796SOL     OW37846   3.628   2.907   4.564 -0.4958 -0.1621 -0.3544
 8796SOL    HW137847   3.653   2.958   4.641  3.0281 -1.0576 -0.9238
 8796SOL    HW237848   3.615   2.821   4.606  0.4132 -0.4610 -0.6964
 8797SOL     OW37849   1.553   1.184  16.150 -0.3066 -0.0924  0.0492
 8797SOL    HW137850   1.544   1.176  16.055 -1.0584  1.3841  0.0128
 8797SOL    HW237851   1.622   1.117  16.157  0.0555  0.1548 -1.1227
 8798SOL     OW37852   0.032   0.874   6.199 -0.6477  0.2764 -0.3626
 8798SOL    HW137853   0.053   0.785   6.230 -0.1522 -0.6739 -3.4292
 8798SOL    HW237854   0.091   0.932   6.247  1.4957 -1.7845 -0.5049
 8799SOL     OW37855   4.568   1.088   4.102 -0.3746 -0.4359 -0.0789
 8799SOL    HW137856   4.533   1.159   4.048 -0.7129 -0.9109 -0.4845
 8799SOL    HW237857   4.647   1.126   4.140  0.3720 -2.8866  0.8104
 8800SOL     OW37858   4.710   1.115   3.470  0.4214  0.7790  0.2585
 8800SOL    HW137859   4.620   1.121   3.502 -0.6667  0.3969 -2.7219
 8800SOL    HW237860   0.041   1.171   3.527  0.4585 -1.3849  2.3749
 8801SOL     OW37861   1.672   0.356   2.215 -0.0261  0.0064  0.0017
 8801SOL    HW137862   1.673   0.369   2.120  1.6587 -0.2443 -0.0085
 8801SOL    HW237863   1.660   0.261   2.223  2.5004 -0.1147  2.2373
 8802SOL     OW37864   1.578   3.066  15.327  0.2581  0.1230 -0.4459
 8802SOL    HW137865   1.574   3.074  15.232 -1.4430 -0.3869 -0.4140
 8802SOL    HW237866   1.665   3.030  15.341  0.2600  0.4524  0.4046
 8803SOL     OW37867   3.331   4.345  11.880  0.5523 -0.2038  0.6160
 8803SOL    HW137868   3.399   4.371  11.943  3.4153 -1.5410 -1.9110
 8803SOL    HW237869   3.362   4.380  11.796  0.9204  0.9437  1.2253
 8804SOL     OW37870   0.157   4.056   3.062 -0.3116 -0.1644  0.0974
 8804SOL    HW137871   0.132   4.081   3.151  2.1718  2.2284  0.1206
 8804SOL    HW237872   0.220   4.122   3.033 -1.5057  0.6238 -0.6981
 8805SOL     OW37873   0.368   1.836   2.568  0.0038  0.3194  0.8459
 8805SOL    HW137874   0.416   1.823   2.486 -1.2244 -2.6961  0.6336
 8805SOL    HW237875   0.336   1.749   2.589  0.6184  0.1344  1.0051
 8806SOL     OW37876   2.235   0.236   6.178  0.1632  0.1361 -0.4122
 8806SOL    HW137877   2.301   0.269   6.116  0.4807 -1.5190 -0.9528
 8806SOL    HW237878   2.284   0.189   6.245 -0.2566  0.2692 -0.0123
 8807SOL     OW37879   3.675   0.429   6.788  0.6835  0.9412  0.4444
 8807SOL    HW137880   3.710   0.517   6.792 -2.9841  2.4299 -0.3407
 8807SOL    HW237881   3.690   0.403   6.879  1.4013 -1.3696 -0.3231
 8808SOL     OW37882   2.018   3.232   1.176 -0.0409 -0.2495 -0.6553
 8808SOL    HW137883   1.979   3.181   1.247  0.9811  1.2426  0.9892
 8808SOL    HW237884   2.025   3.167   1.107 -0.9895  2.1452 -3.0072
 8809SOL     OW37885   4.366   2.699  12.941  0.1643  0.3208 -0.0475
 8809SOL    HW137886   4.293   2.760  12.954  1.4528  1.6407  0.9526
 8809SOL    HW237887   4.423   2.750  12.884  1.5418  0.2784  1.3153
 8810SOL     OW37888   4.696   0.653  17.381 -0.2952  0.0215 -0.2848
 8810SOL    HW137889   4.704   0.693  17.294 -0.8082 -2.4443 -1.4543
 8810SOL    HW237890   4.605   0.662  17.409 -0.0987 -1.7463  0.9320
 8811SOL     OW37891   2.495   1.992  11.262  0.2317 -0.5452  0.0661
 8811SOL    HW137892   2.587   2.005  11.288  0.4074 -0.2710 -0.6887
 8811SOL    HW237893   2.463   1.956  11.345 -1.5301  2.4547  0.6998
 8812SOL     OW37894   1.657   3.308   3.771 -0.4821 -0.3053  0.1549
 8812SOL    HW137895   1.715   3.371   3.812 -1.6108  0.8031  0.0442
 8812SOL    HW237896   1.575   3.340   3.808 -0.5112  0.3993 -0.5200
 8813SOL     OW37897   2.964   3.942   3.857  0.6840  0.2974  0.0024
 8813SOL    HW137898   2.987   3.878   3.924  1.3465  0.6562  0.1238
 8813SOL    HW237899   3.029   3.922   3.789  0.1211 -1.8549  0.0980
 8814SOL     OW37900   1.644   3.936   3.619  0.2299  1.0796  0.7247
 8814SOL    HW137901   1.624   3.926   3.526  0.7958 -0.4690  0.7632
 8814SOL    HW237902   1.601   3.865   3.667 -0.0831  0.0855 -1.0339
 8815SOL     OW37903   1.011   0.857   6.189 -0.1258 -0.3653  0.3325
 8815SOL    HW137904   1.017   0.874   6.095 -0.9013 -2.1804 -0.0466
 8815SOL    HW237905   1.090   0.908   6.209 -1.1260  0.6820  1.5413
 8816SOL     OW37906   4.419   3.372   1.848  0.1187  0.0804 -0.0073
 8816SOL    HW137907   4.467   3.289   1.847  0.7306  0.4166  1.1088
 8816SOL    HW237908   4.424   3.394   1.941 -3.1958  1.3123 -0.1233
 8817SOL     OW37909   0.561   4.236   4.306 -0.1893  0.7283 -0.5502
 8817SOL    HW137910   0.477   4.258   4.346 -0.3455  0.1640 -0.5719
 8817SOL    HW237911   0.575   4.284   4.224 -3.8251  0.1589 -1.5057
 8818SOL     OW37912   3.330   0.704  15.041  0.1227  0.1602  0.4996
 8818SOL    HW137913   3.295   0.648  15.110 -0.5533 -0.9628 -0.7345
 8818SOL    HW237914   3.413   0.732  15.078  0.8351 -1.5017  0.1365
 8819SOL     OW37915   1.598   3.807   0.368  0.2971  0.1519  0.5318
 8819SOL    HW137916   1.546   3.743   0.319 -0.8582  0.1860  1.7127
 8819SOL    HW237917   1.560   3.886   0.329 -0.5597 -0.3891  0.2697
 8820SOL     OW37918   3.381   0.096   3.212  0.6483  0.9769  0.1039
 8820SOL    HW137919   3.401   0.017   3.160 -1.2976  0.5403  0.0323
 8820SOL    HW237920   3.286   0.091   3.216  0.7400 -1.6953 -0.9509
 8821SOL     OW37921   2.641   2.578   3.195  0.2724 -0.3411  0.1446
 8821SOL    HW137922   2.635   2.660   3.243 -0.7608  0.1338 -0.8010
 8821SOL    HW237923   2.734   2.556   3.192  0.4005 -0.0921  2.8054
 8822SOL     OW37924   0.626   3.643   2.504 -0.4571 -0.5247 -0.4787
 8822SOL    HW137925   0.618   3.721   2.450  1.7897 -0.1287 -0.2652
 8822SOL    HW237926   0.537   3.608   2.496  0.0290 -1.0125 -3.7417
 8823SOL     OW37927   1.880   0.858   4.537 -0.7810 -0.0709  0.0752
 8823SOL    HW137928   1.870   0.913   4.460  0.1047 -1.5583 -1.1004
 8823SOL    HW237929   1.850   0.774   4.502 -1.2590 -0.4018  1.2592
 8824SOL     OW37930   0.502   4.155   6.808 -0.5981 -0.6329 -0.2821
 8824SOL    HW137931   0.483   4.061   6.817  0.1428 -0.8363 -0.8399
 8824SOL    HW237932   0.523   4.164   6.716 -1.4245 -1.6306 -0.5665
 8825SOL     OW37933   3.226   3.422  10.115 -0.5087  0.5649 -0.1691
 8825SOL    HW137934   3.266   3.433  10.202 -1.1625  1.6981 -0.0152
 8825SOL    HW237935   3.165   3.352  10.136  0.1912 -0.8295 -2.8223
 8826SOL     OW37936   4.436   4.035   0.199  0.3149 -0.4189  0.1611
 8826SOL    HW137937   4.471   3.983   0.126  1.1557  0.5255 -0.1002
 8826SOL    HW237938   4.520   4.067   0.230  1.0177 -1.8675 -0.2479
 8827SOL     OW37939   1.322   2.399   4.982 -0.6815 -0.0260  0.0325
 8827SOL    HW137940   1.336   2.371   4.892 -0.3445  2.4102 -0.6573
 8827SOL    HW237941   1.323   2.494   4.975  1.1792 -0.1278 -0.9879
 8828SOL     OW37942   0.686   2.921   7.188  0.7393  0.9337  0.4768
 8828SOL    HW137943   0.754   2.872   7.235  1.0118  1.4868  0.6602
 8828SOL    HW237944   0.651   2.971   7.261 -2.2919 -0.0915 -0.2813
 8829SOL     OW37945   1.236   3.176   2.659  0.1215 -0.2765  0.4411
 8829SOL    HW137946   1.272   3.144   2.742  1.2937 -2.4479 -0.9204
 8829SOL    HW237947   1.157   3.122   2.654 -0.6208  0.7500  1.0028
 8830SOL     OW37948   2.645   1.345   1.851 -0.2200  0.6246  0.6654
 8830SOL    HW137949   2.566   1.291   1.858  0.1213  0.1403  0.7999
 8830SOL    HW237950   2.655   1.358   1.945 -0.3109  0.0326  0.7616
 8831SOL     OW37951   2.283   3.668   2.047  0.0895 -0.2898 -0.2511
 8831SOL    HW137952   2.213   3.731   2.033  0.7459  0.5218  0.1661
 8831SOL    HW237953   2.251   3.588   2.004 -0.2651 -0.7573  0.8778
 8832SOL     OW37954   3.018   2.315   8.736  0.0196  0.6167 -0.0556
 8832SOL    HW137955   3.062   2.306   8.820 -1.3955 -0.1386  0.6060
 8832SOL    HW237956   3.036   2.408   8.719 -2.7827  1.0496 -0.7095
 8833SOL     OW37957   3.711   0.847   5.561 -0.2035 -1.2477  0.1157
 8833SOL    HW137958   3.792   0.814   5.600 -0.7614 -1.3727  1.1711
 8833SOL    HW237959   3.699   0.936   5.596  3.1888 -1.3324  1.4732
 8834SOL     OW37960   2.420   1.211   4.998  0.2899 -0.4652 -0.5272
 8834SOL    HW137961   2.368   1.277   5.044  1.5392  0.1991 -0.0785
 8834SOL    HW237962   2.503   1.251   5.023 -0.7336  0.0523  2.0166
 8835SOL     OW37963   1.352   2.288   7.507 -0.5348  0.3241 -0.3212
 8835SOL    HW137964   1.342   2.202   7.466 -0.9998  0.4715 -0.5164
 8835SOL    HW237965   1.353   2.338   7.425  1.9076 -0.4217 -0.7418
 8836SOL     OW37966   1.575   3.618   4.456 -0.2483 -0.0081 -0.4962
 8836SOL    HW137967   1.624   3.574   4.526 -1.4651 -1.6971 -0.7106
 8836SOL    HW237968   1.642   3.641   4.392  0.3460 -1.7374 -0.4971
 8837SOL     OW37969   2.274   4.155   5.462 -0.5437  0.0733 -0.1040
 8837SOL    HW137970   2.196   4.100   5.472 -1.4257  1.1778 -0.9254
 8837SOL    HW237971   2.299   4.181   5.551 -1.8542 -0.4779  0.4218
 8838SOL     OW37972   2.328   1.832   4.380  0.6693 -0.4644  0.3238
 8838SOL    HW137973   2.236   1.835   4.353  1.4633  0.0760 -2.3747
 8838SOL    HW237974   2.325   1.856   4.472 -0.9095 -3.1108  0.9524
 8839SOL     OW37975   2.037   2.842   3.028  0.1362  0.5215  0.0857
 8839SOL    HW137976   2.015   2.752   3.004  1.4773 -0.5812  3.0368
 8839SOL    HW237977   2.043   2.828   3.122 -1.3969 -1.1105 -0.0632
 8840SOL     OW37978   4.438   1.850  16.390  0.1177 -0.2343  0.5015
 8840SOL    HW137979   4.381   1.923  16.368  0.8693  0.2832  0.3076
 8840SOL    HW237980   4.382   1.794  16.445 -3.8382  1.4558 -1.8716
 8841SOL     OW37981   0.189   4.644  13.844 -0.1291 -0.8506 -0.3979
 8841SOL    HW137982   0.252   4.581  13.810 -1.2580 -0.3786 -3.3195
 8841SOL    HW237983   0.203   4.715  13.782  1.7731  0.9065  2.0160
 8842SOL     OW37984   4.002   3.462   2.192  0.1632  0.3523  0.1713
 8842SOL    HW137985   4.032   3.395   2.132 -1.3133  0.9000 -1.1669
 8842SOL    HW237986   4.027   3.544   2.149  0.2110  0.8036  1.0446
 8843SOL     OW37987   2.651   0.266   5.298  0.1727  0.7396  0.3207
 8843SOL    HW137988   2.747   0.265   5.302  0.0848 -0.8440  2.2585
 8843SOL    HW237989   2.637   0.262   5.204  3.9641 -1.2588 -0.1715
 8844SOL     OW37990   4.638   1.901   6.936 -0.2932 -0.3491 -0.3737
 8844SOL    HW137991   4.600   1.822   6.898 -2.8358  0.6031  0.2148
 8844SOL    HW237992   4.661   1.878   7.026 -1.3665  0.4468  0.1106
 8845SOL     OW37993   2.070   2.730   4.474  0.0929 -0.6800 -0.0608
 8845SOL    HW137994   2.100   2.643   4.500  0.8603 -1.2567 -2.8083
 8845SOL    HW237995   2.020   2.712   4.394 -1.2923  1.7149  0.2481
 8846SOL     OW37996   3.852   1.343  12.421 -0.5928  0.2107  0.6214
 8846SOL    HW137997   3.795   1.352  12.345  0.2542 -0.9566 -0.1486
 8846SOL    HW237998   3.847   1.435  12.448  0.7013  0.1929  0.9522
 8847SOL     OW37999   1.760   4.340   1.641 -0.7169  0.3204  0.2342
 8847SOL    HW138000   1.687   4.333   1.702 -0.8134  1.0663  0.2065
 8847SOL    HW238001   1.776   4.434   1.635 -0.9479  0.5271  2.7648
 8848SOL     OW38002   0.023   3.693  17.260  0.0640  0.6735  0.6520
 8848SOL    HW138003   0.044   3.744  17.182 -2.7102  2.3066  0.9578
 8848SOL    HW238004   0.088   3.735  17.316  1.2004 -0.9461  0.5315
 8849SOL     OW38005   4.089   4.183   0.237  0.0270 -0.7447  0.8041
 8849SOL    HW138006   4.098   4.260   0.181 -1.5366 -2.1227 -1.3287
 8849SOL    HW238007   4.163   4.126   0.214  0.0480  0.3374 -1.7679
 8850SOL     OW38008   4.269   4.050   7.721 -0.3158  0.2552 -0.3002
 8850SOL    HW138009   4.236   4.036   7.632 -1.3818  1.7874 -0.1422
 8850SOL    HW238010   4.364   4.059   7.708 -0.2352 -0.7804 -0.4253
 8851SOL     OW38011   4.105   3.653   9.033 -0.0533 -0.1564  0.0337
 8851SOL    HW138012   4.137   3.585   8.973  1.4197  0.8903 -0.3656
 8851SOL    HW238013   4.174   3.669   9.097 -0.0952 -3.0441  0.7811
 8852SOL     OW38014   2.413   4.254   5.967  0.1055  0.0413  0.4208
 8852SOL    HW138015   2.440   4.164   5.984  1.4172  0.1238 -1.2131
 8852SOL    HW238016   2.431   4.292   6.053 -3.7139  0.7184  0.9214
 8853SOL     OW38017   0.090   0.008   7.117  0.2956  0.1344 -0.2850
 8853SOL    HW138018   0.072   4.638   7.140  0.2942  0.2367  0.1093
 8853SOL    HW238019   0.031   0.048   7.180  1.4040  1.0299  0.1994
 8854SOL     OW38020   2.812   4.448   6.534  0.3232 -0.4288 -0.1075
 8854SOL    HW138021   2.837   4.395   6.458  0.9154  0.4831 -0.5398
 8854SOL    HW238022   2.770   4.516   6.481 -0.2142 -0.0036  0.8543
 8855SOL     OW38023   2.694   3.018  17.298  0.1587 -0.0657 -0.4747
 8855SOL    HW138024   2.622   3.016  17.361 -0.4268 -0.2196 -1.1493
 8855SOL    HW238025   2.681   3.104  17.257 -1.6774  0.4224  1.1393
 8856SOL     OW38026   2.443   1.746   5.048  0.0362 -0.1922 -0.0229
 8856SOL    HW138027   2.469   1.695   4.971 -0.7082  0.0075 -0.4042
 8856SOL    HW238028   2.466   1.828   5.006 -1.2369 -0.1282 -0.6069
 8857SOL     OW38029   1.625   2.001   2.427  0.7131 -0.1357 -0.3470
 8857SOL    HW138030   1.601   2.090   2.400 -0.4902 -0.4423 -0.2808
 8857SOL    HW238031   1.653   2.018   2.517 -2.4933 -1.4569  0.8885
 8858SOL     OW38032   0.312   4.613   8.545  0.0595 -0.0669  0.1135
 8858SOL    HW138033   0.359   4.593   8.626  1.9314  0.5088 -0.8325
 8858SOL    HW238034   0.262   4.532   8.538 -0.5930  0.1653  2.2223
 8859SOL     OW38035   2.848   3.697   9.302  0.1294  0.2797  1.0207
 8859SOL    HW138036   2.772   3.752   9.323 -1.8192 -1.4511 -1.3690
 8859SOL    HW238037   2.894   3.753   9.241 -1.4802  0.6838  0.1706
 8860SOL     OW38038   3.746   2.965   4.322 -0.2194 -0.3790 -0.4697
 8860SOL    HW138039   3.701   2.882   4.304  2.7194 -1.8230 -1.3442
 8860SOL    HW238040   3.746   2.963   4.418  0.0473 -0.0294 -0.4660
 8861SOL     OW38041   1.317   3.568   6.704 -0.2535 -0.1321 -0.0772
 8861SOL    HW138042   1.266   3.501   6.659  0.0865 -1.8989  2.1786
 8861SOL    HW238043   1.382   3.592   6.638 -1.6477  0.7327 -1.1550
 8862SOL     OW38044   4.135   2.265  15.855 -0.1633  0.0143 -0.3416
 8862SOL    HW138045   4.206   2.229  15.908  0.1365 -0.0090 -0.7678
 8862SOL    HW238046   4.095   2.188  15.814 -1.4739  0.0432  0.8704
 8863SOL     OW38047   2.942   2.537  13.496 -0.3362  0.0671  0.1120
 8863SOL    HW138048   2.929   2.524  13.402 -1.0016  2.5182 -0.1278
 8863SOL    HW238049   2.855   2.521  13.533  0.0767 -1.0312  0.6343
 8864SOL     OW38050   1.692   2.830  12.255 -0.0985  0.1386  0.2396
 8864SOL    HW138051   1.777   2.820  12.299  1.0781  1.3237 -1.7425
 8864SOL    HW238052   1.672   2.737  12.252 -1.2892  0.3403  2.1503
 8865SOL     OW38053   3.555   0.330   4.088  0.6992 -0.3081  0.2894
 8865SOL    HW138054   3.477   0.299   4.133 -0.0781 -0.1035 -0.9030
 8865SOL    HW238055   3.622   0.288   4.142  0.4234 -1.9630 -0.6555
 8866SOL     OW38056   1.952   3.717   5.192  0.7043 -0.3359  0.1035
 8866SOL    HW138057   2.005   3.693   5.117  0.6051 -0.9940  0.2437
 8866SOL    HW238058   1.974   3.663   5.268 -1.2537 -2.4921 -0.8686
 8867SOL     OW38059   2.407   2.862  12.371 -0.4549 -0.0903  0.4348
 8867SOL    HW138060   2.489   2.815  12.356 -1.1781 -0.7838 -1.4326
 8867SOL    HW238061   2.432   2.947  12.336  0.1209 -0.4852 -0.1322
 8868SOL     OW38062   2.681   0.190   0.383 -0.6258  0.1441 -0.0560
 8868SOL    HW138063   2.677   0.105   0.339 -0.6037  1.4853 -2.6201
 8868SOL    HW238064   2.770   0.202   0.415 -0.8912  2.6103 -0.1908
 8869SOL     OW38065   2.339   2.849  16.839  0.4773  0.4162  0.0334
 8869SOL    HW138066   2.379   2.792  16.772  0.2515 -3.5493  3.2578
 8869SOL    HW238067   2.291   2.906  16.779 -0.1011  0.7377  0.8145
 8870SOL     OW38068   1.951   3.284   2.210 -0.0267  0.3507  0.3563
 8870SOL    HW138069   2.006   3.328   2.275  0.4049  0.6541 -0.2118
 8870SOL    HW238070   1.916   3.359   2.162  1.3114  0.1905 -0.8995
 8871SOL     OW38071   0.760   1.815   7.223  0.5448  0.6375 -0.2440
 8871SOL    HW138072   0.713   1.762   7.158 -2.2193  2.1759  0.4694
 8871SOL    HW238073   0.709   1.794   7.301  2.0077 -0.2643  0.4471
 8872SOL     OW38074   1.618   2.028   9.510  0.2921  0.7621  0.4793
 8872SOL    HW138075   1.579   1.955   9.558  1.0096 -0.2598 -0.4687
 8872SOL    HW238076   1.690   1.982   9.466 -0.2475  0.2727  0.1064
 8873SOL     OW38077   0.629   2.485  15.017  0.4304 -0.2217  0.2811
 8873SOL    HW138078   0.676   2.449  15.093  0.8604  1.1959  0.6932
 8873SOL    HW238079   0.689   2.457  14.948  2.6816  3.3854  0.7443
 8874SOL     OW38080   0.623   2.016   1.349 -0.1981  0.5495 -0.0870
 8874SOL    HW138081   0.717   2.011   1.333  0.1736 -0.3877  2.4702
 8874SOL    HW238082   0.610   1.943   1.288 -1.1499  0.8688 -0.2768
 8875SOL     OW38083   4.404   4.525  10.637  0.0459  0.6371  0.3703
 8875SOL    HW138084   4.344   4.598  10.622  0.5114  0.7451 -0.9642
 8875SOL    HW238085   4.339   4.484  10.695  0.0053 -1.4110 -1.1132
 8876SOL     OW38086   3.686   0.252  12.288 -0.3384  0.2620 -0.4806
 8876SOL    HW138087   3.661   0.282  12.375 -0.4297 -0.5384 -0.2235
 8876SOL    HW238088   3.601   0.236  12.246 -1.2300  0.5524  1.2016
 8877SOL     OW38089   4.375   3.440   5.661 -0.9101 -0.4530  0.0375
 8877SOL    HW138090   4.319   3.489   5.600 -0.3193  0.0326 -0.1095
 8877SOL    HW238091   4.456   3.490   5.662 -1.2961  0.1466  1.2571
 8878SOL     OW38092   3.906   1.894  16.765 -0.2305  0.3401  0.4981
 8878SOL    HW138093   3.984   1.902  16.819 -0.2704  1.1397  0.4299
 8878SOL    HW238094   3.837   1.881  16.830  0.3796 -0.4767  0.9849
 8879SOL     OW38095   2.343   2.174   9.027 -0.0114 -0.2036  0.3587
 8879SOL    HW138096   2.363   2.218   8.945  0.0689  0.4083  0.7042
 8879SOL    HW238097   2.250   2.197   9.033 -0.5438 -2.1301 -0.4702
 8880SOL     OW38098   2.225   3.650  12.354  0.0628 -0.2197 -0.8761
 8880SOL    HW138099   2.159   3.583  12.336 -1.5951  0.8038  1.2839
 8880SOL    HW238100   2.218   3.655  12.450  2.4192 -1.3777 -0.6596
 8881SOL     OW38101   0.504   2.228   0.829  0.0698 -0.1413 -0.1943
 8881SOL    HW138102   0.543   2.220   0.742  2.2065 -0.8431  0.8112
 8881SOL    HW238103   0.443   2.155   0.820 -1.6842  1.4521 -1.1876
 8882SOL     OW38104   1.827   2.550   0.415 -0.3999 -0.0861  0.2502
 8882SOL    HW138105   1.895   2.525   0.477 -3.0073 -1.0174  2.7881
 8882SOL    HW238106   1.749   2.499   0.440  0.4407 -0.7846  1.4348
 8883SOL     OW38107   1.044   2.976   9.170  0.0194 -0.2730  0.3763
 8883SOL    HW138108   0.959   3.016   9.156 -0.3766 -1.2571 -0.0371
 8883SOL    HW238109   1.017   2.884   9.176  0.4513 -0.4346 -0.0739
 8884SOL     OW38110   1.090   3.895   4.648  0.2168 -0.3217 -0.0869
 8884SOL    HW138111   1.075   3.930   4.560  0.7425 -0.1804 -0.1169
 8884SOL    HW238112   1.049   3.968   4.694 -1.9658 -1.9186  0.4919
 8885SOL     OW38113   2.525   0.084   8.093  0.2087 -0.2403 -0.0189
 8885SOL    HW138114   2.568   0.168   8.073  0.7443 -0.3882  0.5009
 8885SOL    HW238115   2.578   0.021   8.045 -0.0214 -0.1295 -0.4201
 8886SOL     OW38116   2.192   2.416   4.770 -0.2996 -0.0379 -0.1880
 8886SOL    HW138117   2.123   2.433   4.705  0.3940  1.3540 -0.5623
 8886SOL    HW238118   2.253   2.481   4.734  0.2400 -0.3142  0.2480
 8887SOL     OW38119   2.182   0.334  13.316  1.0447  0.0768 -0.1084
 8887SOL    HW138120   2.219   0.276  13.249 -0.9483 -0.9719 -0.3000
 8887SOL    HW238121   2.097   0.359  13.279  0.8821 -2.2327 -1.3057
 8888SOL     OW38122   0.397   2.730  17.610  0.3351  0.6694 -0.3665
 8888SOL    HW138123   0.323   2.758  17.664 -1.9007 -1.3225 -2.3291
 8888SOL    HW238124   0.378   2.636  17.601  1.1820  0.2296  2.5253
 8889SOL     OW38125   0.180   1.851   3.326  0.3498 -0.0888 -0.1789
 8889SOL    HW138126   0.134   1.856   3.242  2.3982  0.0610 -1.2926
 8889SOL    HW238127   0.123   1.913   3.372  1.6508  1.5104 -0.7311
 8890SOL     OW38128   1.450   4.382   7.152 -0.1591  0.5006  0.4157
 8890SOL    HW138129   1.374   4.388   7.094  0.5738 -0.9990 -0.7159
 8890SOL    HW238130   1.405   4.398   7.235 -0.4545  0.3663  0.2801
 8891SOL     OW38131   1.289   3.386  15.208  0.1994 -0.8257 -0.3035
 8891SOL    HW138132   1.355   3.443  15.247  2.3006 -2.4684 -1.4508
 8891SOL    HW238133   1.286   3.407  15.115  0.8804  1.5414  0.2000
 8892SOL     OW38134   0.833   0.800   2.130  0.3841 -0.2430 -0.2120
 8892SOL    HW138135   0.914   0.835   2.093  1.0212 -1.2470  0.2264
 8892SOL    HW238136   0.788   0.781   2.047  2.5367  0.5311 -1.5753
 8893SOL     OW38137   2.493   2.549   1.343  0.0700  0.1761  0.0721
 8893SOL    HW138138   2.563   2.613   1.330  0.2878 -0.2441 -0.8355
 8893SOL    HW238139   2.410   2.597   1.336 -0.4277 -0.5544  1.0329
 8894SOL     OW38140   2.880   2.850  10.762  0.2429 -0.2734  0.0717
 8894SOL    HW138141   2.883   2.788  10.836  0.6576 -0.8233 -0.4046
 8894SOL    HW238142   2.863   2.932  10.809  3.5673  0.5308 -0.1460
 8895SOL     OW38143   3.205   2.570   7.106 -0.1739 -0.0069  0.6383
 8895SOL    HW138144   3.230   2.662   7.108 -2.5673  0.7155 -1.6189
 8895SOL    HW238145   3.278   2.537   7.158  0.5482  0.0554 -0.3302
 8896SOL     OW38146   0.851   2.122  13.904  0.3010  0.3623  0.0814
 8896SOL    HW138147   0.858   2.177  13.826 -2.2736  1.8184  0.8495
 8896SOL    HW238148   0.844   2.196  13.965  2.0744  2.5499 -2.3587
 8897SOL     OW38149   0.439   3.354  16.396  0.5754 -0.0360 -0.1110
 8897SOL    HW138150   0.382   3.394  16.461 -1.1634 -0.9092 -1.1080
 8897SOL    HW238151   0.521   3.400  16.417  1.3937 -1.5989  0.1065
 8898SOL     OW38152   1.253   2.078   2.286 -0.0904  0.2531  0.3567
 8898SOL    HW138153   1.339   2.112   2.311  0.2727 -1.1828  1.0659
 8898SOL    HW238154   1.198   2.156   2.276 -1.1933 -0.5136  0.3728
 8899SOL     OW38155   1.382   2.427   1.597 -0.3201 -0.0802  0.1268
 8899SOL    HW138156   1.332   2.359   1.551  1.0208 -0.8738 -0.1467
 8899SOL    HW238157   1.346   2.509   1.562 -0.4901 -0.0846  0.2886
 8900SOL     OW38158   3.597   4.082  11.215 -0.6064  0.6038  0.0903
 8900SOL    HW138159   3.682   4.117  11.188  0.5039 -2.0043  0.2930
 8900SOL    HW238160   3.541   4.150  11.176 -1.2941 -0.1142 -0.1786
 8901SOL     OW38161   1.617   0.759   6.821 -0.0067 -0.2035 -0.5100
 8901SOL    HW138162   1.710   0.773   6.836 -0.3210  2.6708 -1.3984
 8901SOL    HW238163   1.611   0.727   6.731  1.2590 -1.2781 -0.2071
 8902SOL     OW38164   0.447   0.884   2.789  0.2878 -0.3373 -0.2454
 8902SOL    HW138165   0.501   0.906   2.865  0.5421 -0.9397 -0.2518
 8902SOL    HW238166   0.364   0.856   2.828  0.4414 -0.4613 -0.0084
 8903SOL     OW38167   2.084   0.221  16.482 -0.0157 -0.1943  0.3752
 8903SOL    HW138168   2.049   0.169  16.410 -1.2098  1.2140 -0.0802
 8903SOL    HW238169   2.016   0.212  16.549  1.9282  0.3466  2.4275
 8904SOL     OW38170   1.750   4.599   2.937 -0.6236 -0.4473  0.3547
 8904SOL    HW138171   1.832   4.619   2.983 -0.9934  1.6114  0.0981
 8904SOL    HW238172   1.747   4.504   2.929  1.3199 -0.3521 -1.5618
 8905SOL     OW38173   3.553   0.144   8.010  0.0309  0.7192  0.2775
 8905SOL    HW138174   3.592   0.213   8.063 -2.0782  2.0171  0.1176
 8905SOL    HW238175   3.503   0.092   8.073  0.0606  0.8817  0.4332
 8906SOL     OW38176   3.772   3.559   8.226 -0.0175  0.1848 -0.7154
 8906SOL    HW138177   3.820   3.479   8.205 -1.4625 -0.5755 -1.1153
 8906SOL    HW238178   3.815   3.594   8.305  0.0178 -0.3012 -0.5212
 8907SOL     OW38179   0.001   3.698  11.068  0.5344 -0.2253  0.7556
 8907SOL    HW138180   0.047   3.723  10.988  1.2523  0.5096  1.3977
 8907SOL    HW238181   0.024   3.607  11.086 -3.4770 -0.9718  2.1867
 8908SOL     OW38182   3.845   2.368   1.592 -0.5361 -0.2041 -0.2477
 8908SOL    HW138183   3.837   2.461   1.571  1.7981 -0.2640 -1.3912
 8908SOL    HW238184   3.759   2.335   1.620 -0.6571  2.0371  2.0393
 8909SOL     OW38185   3.378   0.076   2.044  0.9096 -0.4299 -0.2673
 8909SOL    HW138186   3.448   0.036   2.097 -0.6326 -1.0955  1.2829
 8909SOL    HW238187   3.303   0.019   2.065  0.4927  0.4597  0.6694
 8910SOL     OW38188   2.555   3.709   6.190  0.5488 -0.4605 -0.0333
 8910SOL    HW138189   2.474   3.723   6.239  0.2525  0.5542 -0.8200
 8910SOL    HW238190   2.584   3.621   6.215  1.2663 -0.4857 -0.9413
 8911SOL     OW38191   3.181   0.008   6.906  0.3347 -0.0706 -0.3498
 8911SOL    HW138192   3.230   4.651   6.931 -0.3564 -0.6256 -0.7208
 8911SOL    HW238193   3.231   0.047   6.835  0.3841  0.0916 -0.2249
 8912SOL     OW38194   3.716   1.582  17.393  0.4083 -0.1007  0.7202
 8912SOL    HW138195   3.753   1.597  17.480 -0.5965  2.1809  0.7598
 8912SOL    HW238196   3.629   1.549  17.414  0.4910 -0.9129 -0.1842
 8913SOL     OW38197   2.035   3.506   7.123 -0.0369  0.2577  0.4590
 8913SOL    HW138198   2.121   3.548   7.124  0.1037 -0.0207 -1.2899
 8913SOL    HW238199   1.991   3.581   7.162  0.6219  0.7674  0.2199
 8914SOL     OW38200   0.697   0.360  13.995 -0.6796 -0.2589  0.2254
 8914SOL    HW138201   0.662   0.447  13.978 -0.9333 -0.6784 -1.3898
 8914SOL    HW238202   0.661   0.333  14.079  0.7440 -0.2959  0.8183
 8915SOL     OW38203   3.742   0.394  11.205 -0.3122  0.2509  0.1638
 8915SOL    HW138204   3.725   0.363  11.294  0.3637 -1.5770 -0.3434
 8915SOL    HW238205   3.783   0.316  11.167 -1.5134 -1.4882  2.3999
 8916SOL     OW38206   3.540   2.290   5.800  0.2789 -0.1172  0.3838
 8916SOL    HW138207   3.559   2.320   5.711  2.2739  2.5722  1.7397
 8916SOL    HW238208   3.621   2.301   5.849  1.4283 -0.9408 -1.3312
 8917SOL     OW38209   1.718   0.983   5.655  0.1432  0.0687  0.2010
 8917SOL    HW138210   1.749   0.944   5.736 -1.0375  1.2076  1.2151
 8917SOL    HW238211   1.627   0.953   5.656 -0.6339  2.5376  3.1437
 8918SOL     OW38212   3.604   1.168   6.178  0.3509 -0.5573  0.2004
 8918SOL    HW138213   3.562   1.251   6.201 -0.4608 -1.2343  1.1487
 8918SOL    HW238214   3.535   1.124   6.130 -0.9760  0.5470  1.1086
 8919SOL     OW38215   0.920   4.263   8.570 -0.6332 -0.3147 -0.3211
 8919SOL    HW138216   0.970   4.203   8.626 -0.2141 -1.1113 -1.5489
 8919SOL    HW238217   0.966   4.243   8.488 -1.0075 -1.4276 -0.2543
 8920SOL     OW38218   3.297   3.168   3.402  0.0290  0.2766 -0.3961
 8920SOL    HW138219   3.340   3.246   3.366 -0.3011  0.3874 -0.5492
 8920SOL    HW238220   3.368   3.134   3.456 -1.4915  0.0514  1.4578
 8921SOL     OW38221   2.246   1.678   6.905 -0.2782  0.3277 -0.2606
 8921SOL    HW138222   2.290   1.592   6.904 -0.7514  0.0978 -0.8598
 8921SOL    HW238223   2.187   1.675   6.830 -0.1076 -2.3513 -0.2936
 8922SOL     OW38224   2.883   0.726  10.991 -0.7044  0.0225 -0.3122
 8922SOL    HW138225   2.824   0.652  10.980 -0.8219  0.4266 -2.3177
 8922SOL    HW238226   2.924   0.736  10.905  1.2864 -1.1216  0.4929
 8923SOL     OW38227   1.949   4.505   0.689 -0.3871 -0.4315 -0.3220
 8923SOL    HW138228   1.985   4.576   0.636 -1.7527 -1.2389 -2.3323
 8923SOL    HW238229   2.020   4.490   0.752 -0.0407  2.1713 -0.1065
 8924SOL     OW38230   0.535   4.063  11.405  0.1574  0.0047  0.3402
 8924SOL    HW138231   0.559   4.013  11.483 -3.1177 -0.0955  1.2680
 8924SOL    HW238232   0.533   4.153  11.437 -0.6064 -0.3614  1.3046
 8925SOL     OW38233   1.984   1.786   9.002  0.4620  0.1940  0.2820
 8925SOL    HW138234   2.038   1.805   9.079  1.2700  1.2106 -0.5327
 8925SOL    HW238235   2.034   1.829   8.932 -0.4392 -0.7498 -0.9418
 8926SOL     OW38236   1.511   0.488   0.580  0.2873  0.2072  0.2321
 8926SOL    HW138237   1.439   0.445   0.625 -2.1039  0.8794 -2.9508
 8926SOL    HW238238   1.464   0.563   0.543  2.1195  2.2514  2.0671
 8927SOL     OW38239   3.937   4.300  16.802  0.6307 -0.1541 -0.4563
 8927SOL    HW138240   3.915   4.384  16.762 -0.7721 -0.7799 -0.9853
 8927SOL    HW238241   4.008   4.331  16.859 -1.6905  2.0227  1.2445
 8928SOL     OW38242   0.475   1.797   2.300 -0.2799  0.1469  0.0940
 8928SOL    HW138243   0.543   1.737   2.330  0.4122 -0.1064 -1.9362
 8928SOL    HW238244   0.410   1.732   2.275 -1.2702  0.2390  2.4326
 8929SOL     OW38245   0.296   3.896   9.104 -0.0002  0.0719 -0.2179
 8929SOL    HW138246   0.301   3.909   9.199  1.8441 -0.5177 -0.2191
 8929SOL    HW238247   0.384   3.865   9.082 -1.1433 -2.8187 -0.7373
 8930SOL     OW38248   2.316   3.361   7.977 -0.1791  0.3645 -0.2851
 8930SOL    HW138249   2.301   3.439   8.031 -3.0189  0.0277 -0.5943
 8930SOL    HW238250   2.336   3.398   7.891  0.6376  0.9388  0.1548
 8931SOL     OW38251   4.476   1.412   3.614  0.0648 -0.5799 -0.3816
 8931SOL    HW138252   4.570   1.409   3.631 -0.1557 -0.6898  0.8335
 8931SOL    HW238253   4.472   1.458   3.530  0.4400  1.5689  0.7772
 8932SOL     OW38254   3.215   3.550  17.174 -0.4441  0.2443 -0.4037
 8932SOL    HW138255   3.232   3.535  17.081  0.0973  1.7357 -0.5436
 8932SOL    HW238256   3.301   3.582  17.201 -1.0633  1.5103  0.0186
 8933SOL     OW38257   4.211   0.448   8.265  0.1211 -0.2692 -0.5866
 8933SOL    HW138258   4.138   0.445   8.327 -0.6550  1.5364 -1.4397
 8933SOL    HW238259   4.276   0.398   8.315  0.6086 -0.4846 -1.4370
 8934SOL     OW38260   1.477   4.683   2.950 -0.2586 -0.2886 -1.1005
 8934SOL    HW138261   1.571   4.674   2.969 -0.5317  0.8184  0.7093
 8934SOL    HW238262   1.447   0.014   3.024  1.0930 -0.2951 -0.5408
 8935SOL     OW38263   4.185   3.821   5.767 -0.2241 -0.3875 -0.3526
 8935SOL    HW138264   4.131   3.744   5.749  0.9863 -0.9818 -1.4701
 8935SOL    HW238265   4.135   3.862   5.837  1.8595  2.2752 -0.4431
 8936SOL     OW38266   2.021   4.097  12.747  0.0420  0.5121  0.2825
 8936SOL    HW138267   1.945   4.098  12.689 -2.0875  2.3745  3.1343
 8936SOL    HW238268   2.091   4.081  12.684 -0.6624 -1.2905 -0.0351
 8937SOL     OW38269   0.580   1.828  13.633 -0.4664 -0.3682  0.6012
 8937SOL    HW138270   0.632   1.831  13.713  2.3521 -0.7944 -1.2178
 8937SOL    HW238271   0.578   1.734  13.619 -0.1375 -0.2739 -0.1063
 8938SOL     OW38272   0.427   3.191   2.450  0.7861  0.0638  0.7007
 8938SOL    HW138273   0.501   3.140   2.482  0.0354 -1.6052 -0.1784
 8938SOL    HW238274   0.384   3.127   2.393  0.3330  1.8061 -0.9372
 8939SOL     OW38275   3.275   3.954  13.388  0.1913 -0.1740 -0.1152
 8939SOL    HW138276   3.367   3.973  13.368  0.4771 -0.9366  0.4855
 8939SOL    HW238277   3.229   4.024  13.341  0.4778  0.7841  1.0283
 8940SOL     OW38278   1.588   2.860   6.421 -1.1572  0.0095  0.3505
 8940SOL    HW138279   1.645   2.898   6.487  0.0292 -0.9003 -0.1410
 8940SOL    HW238280   1.506   2.850   6.469 -2.2144  3.5613 -0.7373
 8941SOL     OW38281   1.933   4.530   8.905  0.0529  0.7220  0.2337
 8941SOL    HW138282   1.860   4.490   8.857 -0.0816  1.3106 -0.0461
 8941SOL    HW238283   1.959   4.448   8.947 -0.5266  0.7248  0.5927
 8942SOL     OW38284   0.586   0.948   8.440  0.2102  0.4070  0.3640
 8942SOL    HW138285   0.599   1.040   8.419 -0.1320  0.2250 -0.6356
 8942SOL    HW238286   0.671   0.909   8.417 -0.2952 -0.1051 -0.6246
 8943SOL     OW38287   0.659   1.181   1.435  0.2324 -0.4180 -0.8754
 8943SOL    HW138288   0.729   1.242   1.410 -0.6595  0.2377 -1.7754
 8943SOL    HW238289   0.706   1.119   1.490  0.2170 -0.6305 -1.1018
 8944SOL     OW38290   4.509   0.141   2.200 -0.0329 -0.3943 -0.4436
 8944SOL    HW138291   4.495   0.219   2.146 -2.0568  1.1821  2.3041
 8944SOL    HW238292   4.488   0.077   2.133 -0.2739  0.1796 -0.9217
 8945SOL     OW38293   2.262   4.024   9.106 -0.3023  0.4513 -0.2201
 8945SOL    HW138294   2.300   4.036   9.193  1.0476 -1.0562 -0.5852
 8945SOL    HW238295   2.343   4.009   9.058 -0.9199 -0.6477 -0.9190
 8946SOL     OW38296   3.339   0.080   5.428 -0.2986  0.2650  0.2268
 8946SOL    HW138297   3.323   0.135   5.351  1.0922 -0.5392 -0.6459
 8946SOL    HW238298   3.328   0.140   5.502 -0.0880 -1.6385  1.7772
 8947SOL     OW38299   3.864   0.841   2.538  0.0164 -0.0973 -0.7376
 8947SOL    HW138300   3.775   0.867   2.512 -0.9007 -1.4276  1.1118
 8947SOL    HW238301   3.867   0.757   2.492  0.5548 -0.7261  0.4409
 8948SOL     OW38302   3.441   1.914   6.132  0.0780 -0.1147 -0.0257
 8948SOL    HW138303   3.392   1.867   6.065 -0.9139  1.0249 -0.0937
 8948SOL    HW238304   3.487   1.978   6.077  3.1842 -0.9232  1.6023
 8949SOL     OW38305   2.382   4.303   5.085  0.1818 -0.4146 -0.1484
 8949SOL    HW138306   2.376   4.304   4.989  0.9329  2.3898 -0.1727
 8949SOL    HW238307   2.440   4.376   5.107 -0.9435  0.2087  0.7689
 8950SOL     OW38308   2.027   0.407   9.255 -0.0294 -0.0448 -0.0234
 8950SOL    HW138309   2.018   0.502   9.261 -0.6551 -0.2485  2.2990
 8950SOL    HW238310   2.118   0.387   9.277 -1.1364 -2.6321  2.2532
 8951SOL     OW38311   3.601   3.503   7.931  0.0622 -0.2244  0.0885
 8951SOL    HW138312   3.667   3.572   7.927 -1.0419  0.6834 -2.0077
 8951SOL    HW238313   3.659   3.430   7.956 -0.5263 -1.0001 -0.7889
 8952SOL     OW38314   2.147   0.531   6.358 -0.0329  0.4007  0.5382
 8952SOL    HW138315   2.114   0.499   6.273  0.2017  2.2724 -0.2548
 8952SOL    HW238316   2.174   0.447   6.395 -1.6872 -0.1336  0.5310
 8953SOL     OW38317   2.780   3.201   7.932 -0.2508  0.1934 -0.0266
 8953SOL    HW138318   2.823   3.138   7.990 -2.1051 -1.5315 -0.5206
 8953SOL    HW238319   2.689   3.172   7.944 -0.5579  0.9549 -0.5308
 8954SOL     OW38320   3.334   0.494  17.003  0.5982 -0.7350 -0.0161
 8954SOL    HW138321   3.268   0.561  17.022 -0.3850 -1.1584 -1.9108
 8954SOL    HW238322   3.413   0.542  17.026 -1.0257  2.5766 -1.2443
 8955SOL     OW38323   2.432   2.575   4.001 -0.2948 -0.0648  0.7240
 8955SOL    HW138324   2.501   2.551   4.062 -1.3752 -1.0662  1.5407
 8955SOL    HW238325   2.470   2.594   3.915  0.2116 -3.0878  0.2669
 8956SOL     OW38326   1.122   1.913  14.939  0.3585  0.4923 -0.3687
 8956SOL    HW138327   1.119   1.937  15.032 -0.4415 -1.1148  0.0240
 8956SOL    HW238328   1.192   1.848  14.944  0.2532  0.3183 -1.1158
 8957SOL     OW38329   4.526   1.775  16.149 -0.0341  0.3347 -0.0452
 8957SOL    HW138330   4.582   1.851  16.128  0.6297 -0.1612 -0.0659
 8957SOL    HW238331   4.500   1.804  16.236 -0.1277  1.0515 -0.3103
 8958SOL     OW38332   2.549   4.534   1.395 -0.5810 -0.4919  0.3721
 8958SOL    HW138333   2.563   4.628   1.407 -2.0687  0.0676 -2.2366
 8958SOL    HW238334   2.462   4.531   1.354  0.0579  1.0082 -1.0973
 8959SOL     OW38335   0.447   2.705   7.198  0.7182  0.3540  0.4414
 8959SOL    HW138336   0.527   2.724   7.149 -0.0282 -0.9385 -1.3166
 8959SOL    HW238337   0.417   2.629   7.147 -0.4247  0.8580  0.3634
 8960SOL     OW38338   3.432   3.994   6.045  0.2354  0.0749  0.0350
 8960SOL    HW138339   3.503   4.000   6.109 -1.2148 -1.7019  1.8367
 8960SOL    HW238340   3.473   3.921   5.999 -1.7015 -1.0093  0.0079
 8961SOL     OW38341   4.474   4.649   1.546 -0.1716 -0.2603 -0.0592
 8961SOL    HW138342   4.389   4.643   1.589 -0.7682 -1.2358 -1.3756
 8961SOL    HW238343   4.499   4.556   1.541  1.1878  0.1517 -0.8370
 8962SOL     OW38344   2.837   1.424   5.294 -0.4983  0.2512 -0.1803
 8962SOL    HW138345   2.913   1.370   5.274 -1.1027 -1.7979  3.0434
 8962SOL    HW238346   2.861   1.505   5.249 -0.6882  0.1126 -0.5356
 8963SOL     OW38347   4.063   2.391  12.756  0.4555 -0.1684  0.0244
 8963SOL    HW138348   3.992   2.328  12.762 -0.4216  0.8202  0.1512
 8963SOL    HW238349   4.057   2.424  12.846  3.1721  0.7019 -0.0849
 8964SOL     OW38350   1.862   1.239   5.526 -0.2227 -0.7813 -0.1360
 8964SOL    HW138351   1.897   1.150   5.521  1.0550 -0.2783 -0.2899
 8964SOL    HW238352   1.771   1.218   5.547 -0.5811  0.3118 -0.5743
 8965SOL     OW38353   1.048   3.063   7.287 -0.3155 -0.0279  0.7479
 8965SOL    HW138354   1.143   3.052   7.285 -0.4761 -1.2785  0.0145
 8965SOL    HW238355   1.022   2.975   7.316 -0.2212  0.2895  1.8033
 8966SOL     OW38356   3.571   4.562   7.287 -0.4135 -0.1765  0.3988
 8966SOL    HW138357   3.566   4.657   7.290 -1.3522 -0.2320  0.7204
 8966SOL    HW238358   3.482   4.534   7.264 -0.2061 -0.6527  0.1748
 8967SOL     OW38359   3.823   0.327  16.046 -0.0487 -0.3600  0.0625
 8967SOL    HW138360   3.894   0.263  16.053  2.1625  1.8828 -1.9719
 8967SOL    HW238361   3.837   0.363  15.959  0.7591  0.7391  0.6506
 8968SOL     OW38362   4.067   2.530   3.148 -0.5538 -0.0994  0.0306
 8968SOL    HW138363   4.145   2.567   3.188  0.0428 -0.6399 -0.6428
 8968SOL    HW238364   4.001   2.579   3.199  0.8759  1.8497  0.0116
 8969SOL     OW38365   4.293   4.154  13.421  0.4364  0.8973  0.3659
 8969SOL    HW138366   4.226   4.159  13.353  0.4530 -0.7665  0.2346
 8969SOL    HW238367   4.314   4.061  13.426 -2.2116  0.2890 -0.0023
 8970SOL     OW38368   4.468   0.373   5.192  0.0853  0.5119 -1.0841
 8970SOL    HW138369   4.557   0.407   5.186  0.1800  0.4368 -0.0507
 8970SOL    HW238370   4.439   0.370   5.100 -1.8451  0.5443 -0.4684
 8971SOL     OW38371   2.606   2.987  11.520  0.0493  0.3861  0.1803
 8971SOL    HW138372   2.552   2.938  11.582 -0.8811  2.0440  0.6821
 8971SOL    HW238373   2.689   2.997  11.567 -0.9819 -2.2123  2.5030
 8972SOL     OW38374   1.712   4.548   3.588 -0.0891 -0.5355  0.4200
 8972SOL    HW138375   1.634   4.522   3.637 -0.3789  0.8135  0.6871
 8972SOL    HW238376   1.697   4.528   3.496  0.4872  0.3964  0.1286
 8973SOL     OW38377   4.416   4.103  10.317  0.2963 -0.2650  0.4209
 8973SOL    HW138378   4.373   4.057  10.245 -3.3572 -0.1232  2.5012
 8973SOL    HW238379   4.509   4.087  10.305 -0.0729 -2.0569 -0.1160
 8974SOL     OW38380   3.242   4.164  14.613  0.3278 -0.1963 -0.0191
 8974SOL    HW138381   3.199   4.249  14.603 -0.9468 -0.5754  2.1749
 8974SOL    HW238382   3.226   4.117  14.531 -0.9490 -1.9572  1.2491
 8975SOL     OW38383   3.949   4.518   7.971  0.4215 -0.1284  0.3650
 8975SOL    HW138384   3.966   4.444   8.029 -2.1332 -2.5135 -1.9579
 8975SOL    HW238385   3.910   4.480   7.892  0.1432 -0.1313  0.5066
 8976SOL     OW38386   1.482   1.786   5.918 -0.0934 -0.0245 -0.4885
 8976SOL    HW138387   1.572   1.818   5.927 -0.0243 -0.9070  1.8807
 8976SOL    HW238388   1.440   1.870   5.899  1.6163  0.6598 -1.3052
 8977SOL     OW38389   4.457   4.668   1.031 -0.5976 -0.1317 -0.7679
 8977SOL    HW138390   4.405   4.650   1.109  1.3988 -2.6451 -0.0122
 8977SOL    HW238391   4.538   4.620   1.048 -0.4281  0.0056 -1.1942
 8978SOL     OW38392   3.406   3.296   2.774 -0.0116  0.0534 -0.8944
 8978SOL    HW138393   3.440   3.386   2.776  0.9439 -0.3304  0.4181
 8978SOL    HW238394   3.392   3.290   2.680 -1.8212  1.5072 -0.7119
 8979SOL     OW38395   0.431   2.680   0.749 -0.3841 -0.0767 -0.6804
 8979SOL    HW138396   0.412   2.652   0.838  2.4260  0.3445  0.0492
 8979SOL    HW238397   0.355   2.633   0.716 -0.1825 -0.0223 -1.2282
 8980SOL     OW38398   2.791   0.654  16.890  0.8840 -0.0815  0.6180
 8980SOL    HW138399   2.810   0.568  16.927 -0.2649  0.1049  1.6482
 8980SOL    HW238400   2.706   0.668  16.931  0.6075 -1.6828  0.5811
 8981SOL     OW38401   3.371   0.481   7.828 -0.4652  0.0443  0.4085
 8981SOL    HW138402   3.413   0.398   7.805  0.7031 -0.0066  2.7077
 8981SOL    HW238403   3.392   0.538   7.754  1.3614  0.8135  1.5043
 8982SOL     OW38404   1.037   3.983   3.579  0.1708 -0.5742  0.1390
 8982SOL    HW138405   1.076   4.067   3.553 -2.5588 -0.3974 -3.5203
 8982SOL    HW238406   0.952   4.003   3.618  0.6912  1.5808  0.2018
 8983SOL     OW38407   2.742   2.890   8.342  0.5062 -0.2357 -0.2632
 8983SOL    HW138408   2.794   2.811   8.326  1.0596 -0.1001  0.8517
 8983SOL    HW238409   2.676   2.854   8.402 -0.6383  0.2912 -1.2163
 8984SOL     OW38410   1.757   2.238  16.568  0.5442 -0.2136  0.2532
 8984SOL    HW138411   1.722   2.180  16.635 -1.7463  1.3016  0.3994
 8984SOL    HW238412   1.813   2.296  16.619 -0.2282  0.3368  0.4736
 8985SOL     OW38413   4.310   0.768  13.025  0.0343 -0.7616  0.0020
 8985SOL    HW138414   4.229   0.733  13.061  0.1286  0.0341  0.9965
 8985SOL    HW238415   4.341   0.701  12.965 -0.2365 -0.0781 -0.8951
 8986SOL     OW38416   2.512   2.565   8.031 -0.8164 -0.3646 -0.4242
 8986SOL    HW138417   2.506   2.655   8.062 -4.1532 -0.6406 -0.3533
 8986SOL    HW238418   2.474   2.579   7.944 -1.0862  0.0462 -0.2385
 8987SOL     OW38419   3.333   1.052  11.917 -0.3579  0.0866 -0.1119
 8987SOL    HW138420   3.323   1.085  12.006  0.5476 -0.7448  0.3019
 8987SOL    HW238421   3.241   1.051  11.889 -0.5551 -0.3541  0.5409
 8988SOL     OW38422   4.182   1.217   4.019 -0.6166 -0.4592  0.3236
 8988SOL    HW138423   4.223   1.131   4.030  1.2384  0.2810 -0.8301
 8988SOL    HW238424   4.162   1.217   3.926  1.3912 -0.5985 -0.1174
 8989SOL     OW38425   1.649   2.464   2.290 -0.6411 -0.2758 -0.2080
 8989SOL    HW138426   1.599   2.532   2.335  1.8258  1.5432 -0.2164
 8989SOL    HW238427   1.727   2.517   2.272 -0.3115 -1.4392 -2.2988
 8990SOL     OW38428   0.390   2.577  15.112  0.5213  0.2106  0.4552
 8990SOL    HW138429   0.477   2.543  15.092 -0.2407  0.7817 -3.8749
 8990SOL    HW238430   0.349   2.500  15.150  0.0496 -0.0247 -0.5314
 8991SOL     OW38431   1.542   2.818   8.109 -0.0046  0.4346 -0.7904
 8991SOL    HW138432   1.493   2.785   8.184  0.4559 -1.5965 -1.3779
 8991SOL    HW238433   1.613   2.754   8.111  1.0471  1.6655  1.0674
 8992SOL     OW38434   1.765   4.540  16.349 -0.5926 -0.0532 -0.2517
 8992SOL    HW138435   1.817   4.462  16.330 -0.9616 -0.7028  1.3814
 8992SOL    HW238436   1.752   4.559  16.256 -0.2327  3.5204  0.4388
 8993SOL     OW38437   4.271   3.927  17.160 -0.3130  0.7081 -0.3102
 8993SOL    HW138438   4.346   3.886  17.204  0.8777  1.2129 -1.8828
 8993SOL    HW238439   4.191   3.893  17.200 -0.6452  1.6333 -0.1930
 8994SOL     OW38440   4.720   4.246   4.519 -0.3402  0.0943  0.1708
 8994SOL    HW138441   4.705   4.204   4.604  0.3516 -1.0864 -0.2833
 8994SOL    HW238442   0.059   4.186   4.475 -0.5241 -0.3659  0.5469
 8995SOL     OW38443   3.622   3.196   5.433  0.0642 -0.3901  0.2059
 8995SOL    HW138444   3.587   3.108   5.447  1.4803 -0.8439  0.9167
 8995SOL    HW238445   3.541   3.247   5.438  0.3669  0.0448  0.6929
 8996SOL     OW38446   1.956   1.846   1.654 -0.3416 -0.2086  0.1322
 8996SOL    HW138447   2.030   1.859   1.595  0.3573  0.2321  1.1017
 8996SOL    HW238448   1.975   1.915   1.718 -1.0266 -1.2436  1.4720
 8997SOL     OW38449   3.251   2.365  12.881 -0.6154  0.0231 -0.1654
 8997SOL    HW138450   3.166   2.399  12.910 -0.7060  0.3886 -0.8657
 8997SOL    HW238451   3.275   2.420  12.806 -1.7060  1.7662  0.7456
 8998SOL     OW38452   0.849   2.830   4.072  0.5541  0.6422  0.3260
 8998SOL    HW138453   0.823   2.879   4.150  0.9913  1.7201 -0.2040
 8998SOL    HW238454   0.810   2.875   3.997  1.5100 -4.3633 -3.1517
 8999SOL     OW38455   1.352   4.036   8.850 -0.1579 -0.1299  0.7866
 8999SOL    HW138456   1.335   3.942   8.850  1.9202 -0.4941 -0.8007
 8999SOL    HW238457   1.317   4.059   8.763  0.9906 -0.0954  0.3392
 9000SOL     OW38458   1.964   4.031   5.252 -0.2141  0.1453  0.4199
 9000SOL    HW138459   1.979   3.966   5.183 -0.8790  0.6628 -0.2122
 9000SOL    HW238460   2.019   3.990   5.319  0.6348 -0.0229 -0.3766
 9001SOL     OW38461   3.879   3.098   3.276  0.4200 -0.3925  0.2967
 9001SOL    HW138462   3.895   3.135   3.189  1.6070 -0.4926  0.4760
 9001SOL    HW238463   3.799   3.055   3.246  0.0081 -0.8244  2.0074
 9002SOL     OW38464   4.647   1.254   6.067  0.0936 -0.6791  0.1453
 9002SOL    HW138465   4.691   1.335   6.040 -1.2217  0.3383  1.0805
 9002SOL    HW238466   4.715   1.222   6.127  1.4495  1.0439 -0.4649
 9003SOL     OW38467   3.856   0.253   0.292 -0.1327  0.1285  0.3817
 9003SOL    HW138468   3.925   0.190   0.313  0.3879  0.5074 -0.1954
 9003SOL    HW238469   3.827   0.300   0.370  0.2611  0.1752  0.4984
 9004SOL     OW38470   4.208   3.002   1.229 -0.5683 -0.4682 -0.1820
 9004SOL    HW138471   4.142   2.960   1.283  0.5210 -0.2880  1.2762
 9004SOL    HW238472   4.282   2.962   1.275  1.0851  1.9069 -0.8034
 9005SOL     OW38473   0.682   4.314  10.975 -0.0781 -0.1718 -0.4918
 9005SOL    HW138474   0.706   4.356  10.893 -0.4686  3.6484  1.3328
 9005SOL    HW238475   0.592   4.298  10.945 -0.2855  0.9964 -0.5187
 9006SOL     OW38476   3.804   0.099   7.433  0.0613 -0.2861  0.1203
 9006SOL    HW138477   3.785   0.029   7.495  0.3330 -0.3978  0.0780
 9006SOL    HW238478   3.715   0.095   7.399 -0.2751  2.4626  0.6308
 9007SOL     OW38479   1.552   3.285   4.733 -0.6223  0.1837  0.1153
 9007SOL    HW138480   1.513   3.198   4.739  0.2709 -0.3534 -1.7825
 9007SOL    HW238481   1.478   3.330   4.691 -0.7057 -0.9209 -0.9399
 9008SOL     OW38482   4.450   0.646   5.957 -0.4473  0.1720 -0.4480
 9008SOL    HW138483   4.436   0.554   5.936  2.0358 -0.1933 -0.5931
 9008SOL    HW238484   4.543   0.653   5.981  0.3147 -1.5742 -2.9512
 9009SOL     OW38485   1.956   4.383   4.800 -0.3490  0.3318 -0.1630
 9009SOL    HW138486   1.982   4.294   4.824  0.5761  0.3037 -1.2848
 9009SOL    HW238487   1.932   4.365   4.709  2.6977 -1.5493 -0.5945
 9010SOL     OW38488   2.934   2.803  16.045  0.3687  0.3284 -0.2165
 9010SOL    HW138489   2.995   2.844  16.105 -0.3257  1.0310  0.0135
 9010SOL    HW238490   2.857   2.803  16.101  0.5622  1.6535  0.0510
 9011SOL     OW38491   1.482   1.904   1.692  0.2988  0.0121  0.0256
 9011SOL    HW138492   1.440   1.985   1.718 -0.1405 -0.7822  1.7599
 9011SOL    HW238493   1.535   1.889   1.770 -1.0021  2.4895  1.3443
 9012SOL     OW38494   1.545   3.152   6.285  0.1582  0.1459  0.2332
 9012SOL    HW138495   1.591   3.090   6.340 -1.2325 -1.4503 -0.4175
 9012SOL    HW238496   1.608   3.150   6.213 -0.8655 -0.1566 -0.6693
 9013SOL     OW38497   1.359   3.257   7.084  0.2451 -0.1360 -0.0903
 9013SOL    HW138498   1.293   3.262   7.015 -1.0095 -1.3786  1.0321
 9013SOL    HW238499   1.440   3.245   7.033  1.6341  1.5531  1.7418
 9014SOL     OW38500   4.157   1.772  12.924 -0.1517 -0.3793  0.1124
 9014SOL    HW138501   4.205   1.700  12.882  0.9414 -0.7433  1.9596
 9014SOL    HW238502   4.143   1.829  12.848  0.0860 -3.7132 -2.4435
 9015SOL     OW38503   0.002   1.525   8.339 -0.1390 -0.4181  0.1142
 9015SOL    HW138504   0.037   1.495   8.423  0.1751 -0.9228 -0.1971
 9015SOL    HW238505   4.686   1.439   8.321  0.6657 -0.4783 -1.2259
 9016SOL     OW38506   1.728   1.242   7.717 -0.1181  0.0013  0.4138
 9016SOL    HW138507   1.781   1.165   7.699 -0.3059  0.0235 -0.2253
 9016SOL    HW238508   1.642   1.200   7.713  0.7125 -1.3038 -3.5975
 9017SOL     OW38509   1.383   1.131   9.608  0.4344  0.2840  0.0980
 9017SOL    HW138510   1.416   1.053   9.564  0.3779 -0.8133  1.9883
 9017SOL    HW238511   1.289   1.119   9.596  0.4206  0.9628 -0.4889
 9018SOL     OW38512   2.179   2.197   5.466 -0.3558 -0.2976  0.5573
 9018SOL    HW138513   2.213   2.118   5.508 -2.1882 -1.8169 -0.8333
 9018SOL    HW238514   2.119   2.227   5.534  1.0477 -0.4548  1.8580
 9019SOL     OW38515   1.250   1.163   2.634 -0.3922  0.5224  0.7234
 9019SOL    HW138516   1.296   1.238   2.672  1.8693  0.5208 -2.0874
 9019SOL    HW238517   1.273   1.079   2.674 -0.2272 -0.5454 -1.6312
 9020SOL     OW38518   4.262   1.148  12.428  0.1113 -0.6066  0.0394
 9020SOL    HW138519   4.253   1.136  12.333 -0.6487 -1.3134  0.1989
 9020SOL    HW238520   4.169   1.151  12.452  0.5445  2.3027  1.3341
 9021SOL     OW38521   3.747   4.083  14.963  0.5700 -0.2816  0.2555
 9021SOL    HW138522   3.831   4.096  14.919  0.0893  1.5968 -0.1165
 9021SOL    HW238523   3.768   4.005  15.015 -0.3452 -2.4674 -2.6456
 9022SOL     OW38524   2.951   3.770   2.107 -0.3754  0.0542  0.3197
 9022SOL    HW138525   2.987   3.723   2.031  1.7255 -0.6687  1.7553
 9022SOL    HW238526   2.865   3.730   2.101  0.5654 -1.7450 -1.0692
 9023SOL     OW38527   3.579   1.548  13.146  0.1990  0.3186 -0.0830
 9023SOL    HW138528   3.672   1.532  13.159 -0.0439 -1.9369 -1.1262
 9023SOL    HW238529   3.580   1.610  13.073  1.2198 -0.0023 -0.3392
 9024SOL     OW38530   2.362   4.118   1.396  0.4636 -0.3684 -0.4086
 9024SOL    HW138531   2.307   4.053   1.352  1.7229 -2.9353  1.8177
 9024SOL    HW238532   2.428   4.130   1.328  1.3063 -1.3750  0.2276
 9025SOL     OW38533   0.750   0.809   8.013  0.4174  0.1740  0.0841
 9025SOL    HW138534   0.782   0.786   7.925 -0.1184  0.1848 -0.1128
 9025SOL    HW238535   0.784   0.898   8.016  0.8103  0.0293  0.0180
 9026SOL     OW38536   4.679   0.426   6.747  0.3314  0.2210  0.8016
 9026SOL    HW138537   4.591   0.433   6.784  0.6670  2.0311  1.2805
 9026SOL    HW238538   4.655   0.418   6.654  1.8052 -2.5795  0.6780
 9027SOL     OW38539   4.430   4.173  15.054 -0.0450  0.1327  0.0854
 9027SOL    HW138540   4.396   4.164  14.965 -0.8280  2.0568  0.2020
 9027SOL    HW238541   4.358   4.226  15.089  1.3187  0.4223  2.4346
 9028SOL     OW38542   4.377   0.667   5.552 -0.0479 -0.4169 -0.2763
 9028SOL    HW138543   4.438   0.696   5.485 -0.5914 -1.5370 -1.2475
 9028SOL    HW238544   4.391   0.576   5.527  2.7210 -0.1963  0.4609
 9029SOL     OW38545   1.521   3.585   3.724 -0.4378 -0.2469  0.0117
 9029SOL    HW138546   1.438   3.543   3.703 -2.6244  4.1928 -0.3472
 9029SOL    HW238547   1.543   3.621   3.638 -0.0574 -0.7968 -0.1245
 9030SOL     OW38548   0.309   4.169   7.270 -0.3776  0.3476  0.0485
 9030SOL    HW138549   0.395   4.161   7.309 -0.8358  0.7862  1.1529
 9030SOL    HW238550   0.326   4.121   7.188  1.9766 -1.0319  1.3468
 9031SOL     OW38551   2.189   0.914   7.025  0.4328  0.4184  0.3318
 9031SOL    HW138552   2.176   0.934   7.118 -1.2144  1.4951 -0.1174
 9031SOL    HW238553   2.106   0.872   7.001  0.6806 -0.2014  0.5732
 9032SOL     OW38554   3.661   0.208   8.255  0.1124  0.4317 -0.0397
 9032SOL    HW138555   3.695   0.126   8.220  2.1149  1.8243 -1.2961
 9032SOL    HW238556   3.738   0.264   8.258 -0.9431  1.6998  4.2611
 9033SOL     OW38557   2.326   2.140   7.455 -0.0736  0.2733 -0.3325
 9033SOL    HW138558   2.385   2.203   7.496  0.0971  0.7681 -1.3372
 9033SOL    HW238559   2.265   2.124   7.527 -0.0382 -0.6918 -0.5210
 9034SOL     OW38560   0.661   0.526   3.235 -0.2944 -0.3677  0.7156
 9034SOL    HW138561   0.717   0.449   3.226  0.0004  0.1766 -2.2104
 9034SOL    HW238562   0.581   0.482   3.265 -0.3565  0.2743  1.4818
 9035SOL     OW38563   4.098   4.536  10.678  0.5313 -0.3635 -0.4300
 9035SOL    HW138564   4.048   4.594  10.735  1.6618 -0.6726  0.8806
 9035SOL    HW238565   4.047   4.550  10.598 -0.2128 -0.6846 -0.0126
 9036SOL     OW38566   1.691   2.044  13.492 -0.8182  0.1411 -0.6220
 9036SOL    HW138567   1.636   2.072  13.419 -0.4912  1.5763 -0.3190
 9036SOL    HW238568   1.766   2.000  13.451 -1.8856 -0.8915 -1.4482
 9037SOL     OW38569   1.612   3.864  11.402  0.2638  0.7236  0.0758
 9037SOL    HW138570   1.631   3.772  11.382  0.1273  0.6601  0.2305
 9037SOL    HW238571   1.628   3.904  11.317  1.4510  1.1957  0.5286
 9038SOL     OW38572   2.896   4.025   8.038 -0.6963  0.6871 -0.4530
 9038SOL    HW138573   2.884   4.053   8.128  2.0557 -0.8210  0.4139
 9038SOL    HW238574   2.830   3.957   8.028  0.8693 -0.6578 -1.6937
 9039SOL     OW38575   4.507   3.889   7.189 -0.1354  0.2040  0.2459
 9039SOL    HW138576   4.602   3.876   7.192 -0.1470  0.3084  1.0613
 9039SOL    HW238577   4.508   3.981   7.214  1.0646  0.6930 -1.5465
 9040SOL     OW38578   3.204   3.795   0.211  0.1037 -0.1012 -0.6976
 9040SOL    HW138579   3.205   3.882   0.173 -2.4153  0.0039 -0.4999
 9040SOL    HW238580   3.232   3.729   0.147 -0.2632 -1.2926  0.3650
 9041SOL     OW38581   1.228   3.715   8.484 -1.2057 -0.3249  0.2795
 9041SOL    HW138582   1.207   3.686   8.395  0.8462  0.0618 -0.3428
 9041SOL    HW238583   1.242   3.630   8.525 -1.0135 -1.3843 -1.9740
 9042SOL     OW38584   3.106   2.053   6.111 -0.2046  0.7825 -0.1900
 9042SOL    HW138585   3.143   2.118   6.051  0.5878  0.8902  0.4185
 9042SOL    HW238586   3.127   1.975   6.059  0.5928  1.3274 -0.6863
 9043SOL     OW38587   1.902   1.783   8.176  0.5204  0.7202 -0.1763
 9043SOL    HW138588   1.921   1.693   8.201 -2.3034 -0.3201 -1.7347
 9043SOL    HW238589   1.843   1.760   8.104  1.5704  0.5293 -0.9767
 9044SOL     OW38590   2.899   3.422   7.874 -0.4263  0.1716  0.1773
 9044SOL    HW138591   2.854   3.340   7.890  1.6142 -0.7147  1.3695
 9044SOL    HW238592   2.982   3.382   7.848 -0.9121 -0.0067 -1.1110
 9045SOL     OW38593   3.689   1.330   1.281  0.4357  0.2448 -0.1298
 9045SOL    HW138594   3.689   1.312   1.375  0.7926 -0.0282 -0.1827
 9045SOL    HW238595   3.701   1.244   1.241  1.2150  0.8582 -1.2463
 9046SOL     OW38596   2.072   3.823   1.998 -0.3455 -0.0560  0.0106
 9046SOL    HW138597   2.041   3.894   2.055  1.5529 -0.2844  1.3412
 9046SOL    HW238598   2.000   3.832   1.935  0.1146  0.4775 -0.4398
 9047SOL     OW38599   3.939   0.639   4.979 -0.2741  0.3801 -0.7244
 9047SOL    HW138600   3.913   0.702   5.045 -0.5585  0.0170 -0.4865
 9047SOL    HW238601   3.851   0.619   4.947 -0.6450  0.8485  0.0046
 9048SOL     OW38602   3.518   3.273  15.386  0.1158  0.1241 -0.2327
 9048SOL    HW138603   3.456   3.279  15.458 -0.9308  0.6677 -1.1883
 9048SOL    HW238604   3.527   3.177  15.385 -0.3625  0.1117 -2.1319
 9049SOL     OW38605   1.377   1.381   2.692 -0.5710 -0.2612 -0.2243
 9049SOL    HW138606   1.463   1.346   2.671 -0.5848 -1.3661  1.5194
 9049SOL    HW238607   1.403   1.441   2.762 -0.2623  1.4990 -1.8500
 9050SOL     OW38608   3.645   1.121   5.647 -0.1166 -0.3841 -0.2255
 9050SOL    HW138609   3.566   1.166   5.618 -0.4936 -1.9660 -1.6651
 9050SOL    HW238610   3.711   1.171   5.597  1.5917 -0.4686  1.9585
 9051SOL     OW38611   4.313   0.476  16.561 -0.5531  0.7668  0.2352
 9051SOL    HW138612   4.238   0.509  16.609  0.5936  2.7316  0.6950
 9051SOL    HW238613   4.378   0.535  16.601  1.1870 -0.1770 -1.1645
 9052SOL     OW38614   4.682   3.293   7.747 -0.0737  0.1188 -0.2980
 9052SOL    HW138615   4.616   3.358   7.771 -0.3875 -0.7755  1.3057
 9052SOL    HW238616   0.013   3.340   7.682  1.9432  0.3878  1.5181
 9053SOL     OW38617   1.753   2.798   4.016 -0.1515  0.3497 -0.1427
 9053SOL    HW138618   1.716   2.730   3.959 -0.0912  1.3673 -1.4004
 9053SOL    HW238619   1.833   2.752   4.042  0.0591  1.1120  0.5295
 9054SOL     OW38620   0.921   1.087   0.540  0.1489  0.1946 -0.5438
 9054SOL    HW138621   0.989   1.077   0.607 -0.4163 -2.4047 -0.3571
 9054SOL    HW238622   0.875   1.004   0.550 -3.4150  2.4532  1.4657
 9055SOL     OW38623   1.012   0.709   1.847 -0.5950  0.4363 -0.2011
 9055SOL    HW138624   0.959   0.737   1.772 -1.1768 -0.1063  0.0110
 9055SOL    HW238625   1.041   0.796   1.874 -0.5896  0.7415 -1.1862
 9056SOL     OW38626   0.074   1.120   0.070 -0.2241  0.3508 -0.3488
 9056SOL    HW138627   0.140   1.060   0.035 -1.8764 -1.8164  0.2663
 9056SOL    HW238628   0.094   1.199   0.018  1.5374 -0.3822 -0.7993
 9057SOL     OW38629   1.083   4.427   3.679  0.4470  0.7213 -0.2272
 9057SOL    HW138630   0.988   4.440   3.683  0.5142  0.6298  1.6398
 9057SOL    HW238631   1.108   4.515   3.708 -1.1549  0.6141  1.4909
 9058SOL     OW38632   0.970   3.919   1.448 -0.3978 -0.6863  0.4493
 9058SOL    HW138633   0.892   3.974   1.460 -1.5331 -1.6573 -2.5746
 9058SOL    HW238634   0.930   3.838   1.417  0.4890 -1.1096  0.4162
 9059SOL     OW38635   3.301   0.514   8.091 -0.7173 -0.4817  0.1562
 9059SOL    HW138636   3.306   0.500   7.997  0.4446  0.5037  0.0781
 9059SOL    HW238637   3.266   0.428   8.112 -0.2234 -0.3637  1.4457
 9060SOL     OW38638   0.702   3.341  13.571 -0.0408  0.9788 -0.5216
 9060SOL    HW138639   0.610   3.323  13.554 -0.4390  2.9228 -0.4779
 9060SOL    HW238640   0.716   3.423  13.523 -1.5668  0.9986 -0.9141
 9061SOL     OW38641   4.352   3.267   8.961  0.7233  0.1251  0.3180
 9061SOL    HW138642   4.412   3.286   9.034  0.6253  0.3887  0.3282
 9061SOL    HW238643   4.329   3.355   8.932  2.0944  0.6788  0.8906
 9062SOL     OW38644   4.135   1.499  12.816 -0.3620 -0.1935 -0.4196
 9062SOL    HW138645   4.078   1.457  12.880  1.4841 -0.7606  0.8693
 9062SOL    HW238646   4.152   1.427  12.755 -0.9102  0.7240 -1.6381
 9063SOL     OW38647   1.573   1.358   0.690 -0.3730 -0.3169 -0.1855
 9063SOL    HW138648   1.560   1.442   0.646  1.1851 -0.6775 -1.3729
 9063SOL    HW238649   1.611   1.321   0.610 -1.8127 -0.9301 -0.5767
 9064SOL     OW38650   4.667   0.019  12.533  0.7027  0.3510 -0.0689
 9064SOL    HW138651   4.625   0.014  12.447  1.2742 -1.5721 -0.2398
 9064SOL    HW238652   0.023   0.068  12.508  1.4352 -0.9548 -0.3857
 9065SOL     OW38653   0.829   4.517  14.680 -0.1135 -0.3957 -0.5869
 9065SOL    HW138654   0.856   4.449  14.741 -0.5711  0.8169  0.9484
 9065SOL    HW238655   0.917   4.550  14.662 -1.3315  1.9780 -2.1024
 9066SOL     OW38656   2.063   2.669   2.228 -0.1161  0.3391  0.1095
 9066SOL    HW138657   2.142   2.723   2.225 -0.7654  1.4032  1.4988
 9066SOL    HW238658   2.078   2.614   2.151 -1.1536  0.2100 -0.0051
 9067SOL     OW38659   3.415   0.123   0.101 -0.3381 -0.3472 -0.7327
 9067SOL    HW138660   3.466   0.198   0.132 -2.4688  1.5584 -1.8126
 9067SOL    HW238661   3.473   0.096   0.030  0.7819 -0.0397  0.0665
 9068SOL     OW38662   2.977   0.480  17.101 -0.2025 -0.1683  0.4076
 9068SOL    HW138663   2.976   0.575  17.095  2.0860 -0.0972  1.0451
 9068SOL    HW238664   2.939   0.455  17.185 -1.8779  0.6011 -0.1290
 9069SOL     OW38665   2.804   2.851  16.586 -0.0318 -0.0286 -0.6603
 9069SOL    HW138666   2.884   2.890  16.622 -1.1887  2.2641 -0.6013
 9069SOL    HW238667   2.743   2.869  16.658 -1.3788  1.1921 -2.1226
 9070SOL     OW38668   1.417   4.657   6.676 -0.4185 -0.1167 -0.6718
 9070SOL    HW138669   1.460   4.601   6.741 -0.2965 -0.9247 -1.4481
 9070SOL    HW238670   1.457   0.020   6.695 -2.1020  0.2072  1.4151
 9071SOL     OW38671   1.257   3.150   1.519 -0.2492  0.0862 -0.6022
 9071SOL    HW138672   1.196   3.086   1.556 -0.9199  0.0623 -1.7351
 9071SOL    HW238673   1.320   3.090   1.478 -0.2193 -0.9534  0.9825
 9072SOL     OW38674   0.516   0.128   8.641  0.0721 -0.3377  0.1387
 9072SOL    HW138675   0.606   0.123   8.674 -0.2830  0.7798  1.2803
 9072SOL    HW238676   0.480   0.040   8.629  1.4863 -1.0610  1.0946
 9073SOL     OW38677   3.190   2.022  12.709 -0.8850 -0.0746  0.0204
 9073SOL    HW138678   3.175   2.101  12.760  0.9832 -1.2525  2.3790
 9073SOL    HW238679   3.179   2.052  12.619  0.6618 -0.3770 -0.2577
 9074SOL     OW38680   1.121   0.566   8.376  0.3956 -0.0535  0.2524
 9074SOL    HW138681   1.200   0.599   8.419  0.6584  1.8363 -1.6133
 9074SOL    HW238682   1.050   0.604   8.428 -0.8457  0.6860 -1.9262
 9075SOL     OW38683   2.982   0.713   9.146  0.2696  0.1326 -0.1412
 9075SOL    HW138684   2.968   0.632   9.098  2.9352  0.9534 -2.3078
 9075SOL    HW238685   2.934   0.771   9.086 -1.8676 -1.2596  0.2305
 9076SOL     OW38686   4.571   0.151   2.470  0.4452 -0.7625 -0.5070
 9076SOL    HW138687   4.545   0.128   2.381  2.7907 -2.1276 -0.8600
 9076SOL    HW238688   4.505   0.213   2.501 -1.1194 -2.9829  0.6169
 9077SOL     OW38689   3.627   4.372  12.288  0.1421 -0.0093  0.3290
 9077SOL    HW138690   3.682   4.442  12.253 -1.8427  1.2930 -0.1230
 9077SOL    HW238691   3.672   4.356  12.371 -2.2977 -2.4286  1.1867
 9078SOL     OW38692   0.893   1.602   5.025  0.3314  0.4974  0.0172
 9078SOL    HW138693   0.839   1.568   5.096  1.0554 -1.1286 -0.2216
 9078SOL    HW238694   0.980   1.566   5.043  1.7868  3.6314 -0.7878
 9079SOL     OW38695   3.713   0.587   6.094  0.3629 -0.4632  0.0861
 9079SOL    HW138696   3.747   0.595   6.005 -1.0785 -3.8278 -0.7614
 9079SOL    HW238697   3.691   0.673   6.131 -0.2834 -0.4959 -0.2204
 9080SOL     OW38698   4.045   4.113   4.832  0.3428  0.0753 -0.3657
 9080SOL    HW138699   3.987   4.103   4.907  1.3751 -0.8095  0.3100
 9080SOL    HW238700   3.983   4.119   4.760 -1.3151  0.0381  1.0730
 9081SOL     OW38701   2.140   0.824   9.628  0.2440  0.8117 -0.3804
 9081SOL    HW138702   2.165   0.821   9.536  0.1476  1.9648 -0.4419
 9081SOL    HW238703   2.202   0.884   9.669 -0.1327  0.3327  0.9097
 9082SOL     OW38704   3.649   0.906   3.147 -0.1441 -0.2053  0.5572
 9082SOL    HW138705   3.589   0.968   3.190 -0.3974 -1.6692  2.3420
 9082SOL    HW238706   3.727   0.961   3.142  1.5530 -2.6974  0.0628
 9083SOL     OW38707   0.520   3.535  15.385  0.2152  0.1412 -0.1993
 9083SOL    HW138708   0.454   3.599  15.412 -0.5941  0.7156 -3.5852
 9083SOL    HW238709   0.605   3.571  15.413 -0.5850  0.9480  1.2072
 9084SOL     OW38710   1.121   0.339  13.627 -0.1737 -0.3382 -0.0874
 9084SOL    HW138711   1.030   0.346  13.654 -0.1614  0.4765 -0.2353
 9084SOL    HW238712   1.112   0.267  13.565 -0.3383 -0.5555  0.1916
 9085SOL     OW38713   4.440   1.151   2.394 -0.2421  0.6002 -0.5735
 9085SOL    HW138714   4.450   1.070   2.345  1.5692  1.3595 -1.4814
 9085SOL    HW238715   4.363   1.180   2.345  0.4313 -0.6299 -2.3641
 9086SOL     OW38716   4.271   3.279   3.763 -0.1749  0.0382 -0.2668
 9086SOL    HW138717   4.365   3.266   3.778  0.2550  0.7522 -2.4151
 9086SOL    HW238718   4.277   3.339   3.688  3.2504  1.1635  0.8972
 9087SOL     OW38719   1.533   0.495   9.461  0.7186  0.0559 -1.0513
 9087SOL    HW138720   1.607   0.542   9.500  0.5311  0.5372 -1.2730
 9087SOL    HW238721   1.457   0.541   9.498 -0.6999 -2.7107 -0.5279
 9088SOL     OW38722   3.657   2.218   3.357 -0.5343  0.3782 -0.4938
 9088SOL    HW138723   3.731   2.162   3.333  0.5894  1.3176  0.7670
 9088SOL    HW238724   3.648   2.204   3.452  1.8067  0.9849 -0.1978
 9089SOL     OW38725   1.292   0.290   7.714  0.2974 -0.9161 -0.0055
 9089SOL    HW138726   1.206   0.286   7.672  0.2771 -0.7580  0.0212
 9089SOL    HW238727   1.311   0.383   7.707 -3.3391 -0.1076  0.8360
 9090SOL     OW38728   4.127   0.238  13.973 -0.8444 -0.3389  0.3229
 9090SOL    HW138729   4.190   0.235  13.900 -2.5518 -0.8046 -1.1330
 9090SOL    HW238730   4.056   0.282  13.927  0.6889 -1.0756 -2.7968
 9091SOL     OW38731   1.002   3.935  10.922  0.1697 -0.0196  0.0303
 9091SOL    HW138732   0.978   4.023  10.951  0.7149 -0.5772  2.1870
 9091SOL    HW238733   0.962   3.882  10.992 -1.5961  0.8205 -0.3279
 9092SOL     OW38734   0.458   3.437   7.461  0.7462  0.7608  0.6003
 9092SOL    HW138735   0.529   3.399   7.410 -1.8329 -0.1953 -2.2493
 9092SOL    HW238736   0.489   3.527   7.467  1.7662  0.3329  1.7889
 9093SOL     OW38737   3.860   2.109   3.648  0.2282  0.1276 -0.0491
 9093SOL    HW138738   3.771   2.084   3.626  0.1743  0.1439  0.1528
 9093SOL    HW238739   3.913   2.067   3.580  0.6323 -1.3190  1.1654
 9094SOL     OW38740   1.374   1.928   7.554  0.1413  0.0644  0.1870
 9094SOL    HW138741   1.340   1.958   7.470  0.8526 -1.2935 -0.5924
 9094SOL    HW238742   1.296   1.909   7.608  0.9343  0.1953  1.3831
 9095SOL     OW38743   0.673   0.327  12.724 -1.1692 -0.0417 -0.0175
 9095SOL    HW138744   0.756   0.284  12.747 -0.6759  1.3092  0.7121
 9095SOL    HW238745   0.616   0.296  12.794 -2.0054  0.6219 -0.4006
 9096SOL     OW38746   1.147   3.552   7.356 -0.1652 -0.8691 -0.1558
 9096SOL    HW138747   1.128   3.495   7.282 -2.7437 -2.7921  1.9751
 9096SOL    HW238748   1.197   3.489   7.408  2.8026  0.9594 -0.7627
 9097SOL     OW38749   4.208   2.819   7.062 -0.2584  0.0447 -0.0913
 9097SOL    HW138750   4.226   2.869   6.983  0.8613  2.0034  1.3808
 9097SOL    HW238751   4.206   2.732   7.022 -0.1125 -0.4318  0.9379
 9098SOL     OW38752   4.649   0.296   9.920  0.4757  0.0081  0.0569
 9098SOL    HW138753   4.664   0.236   9.993 -2.3809  0.0958  0.7009
 9098SOL    HW238754   4.557   0.278   9.900  0.3701  0.2786  0.3080
 9099SOL     OW38755   4.118   0.343  13.358  0.2106 -0.4388  0.3315
 9099SOL    HW138756   4.199   0.386  13.329 -0.2087  0.7740  0.9565
 9099SOL    HW238757   4.063   0.415  13.390 -0.9985 -1.0817 -0.3114
 9100SOL     OW38758   0.472   3.959   2.226  0.0755  0.0129 -0.5349
 9100SOL    HW138759   0.434   3.871   2.238  0.8691 -0.0734  1.3739
 9100SOL    HW238760   0.395   4.013   2.208 -0.4657 -0.7391 -0.4853
 9101SOL     OW38761   0.414   0.225  12.238 -0.1283  0.0304 -0.5700
 9101SOL    HW138762   0.365   0.226  12.320  0.1443  4.1716 -0.4888
 9101SOL    HW238763   0.390   0.309  12.198  0.9122 -0.0630 -1.3755
 9102SOL     OW38764   4.422   4.521   4.895  0.4322 -0.0277 -0.3086
 9102SOL    HW138765   4.351   4.531   4.833  1.8918  0.8352 -1.8315
 9102SOL    HW238766   4.384   4.462   4.960 -0.6636 -0.0623 -1.0007
 9103SOL     OW38767   0.843   3.751   6.254  0.0782 -0.2377  0.1735
 9103SOL    HW138768   0.761   3.791   6.224  0.1175 -1.0925 -1.0660
 9103SOL    HW238769   0.901   3.824   6.237  0.1296 -0.0069  1.3435
 9104SOL     OW38770   2.776   3.604  15.964 -0.1082  0.0788 -0.0630
 9104SOL    HW138771   2.689   3.568  15.981  0.9234 -1.0559  2.9084
 9104SOL    HW238772   2.792   3.652  16.046 -0.2698  0.0538 -0.0178
 9105SOL     OW38773   0.781   0.428   5.493 -0.1475  0.1104  0.3211
 9105SOL    HW138774   0.857   0.485   5.481  0.2748 -0.2066  1.5238
 9105SOL    HW238775   0.726   0.484   5.549 -1.6346 -0.1045 -0.9194
 9106SOL     OW38776   2.037   4.058   6.619  0.0638  0.6052 -0.2562
 9106SOL    HW138777   1.985   4.116   6.563 -0.1813  0.5552 -0.0802
 9106SOL    HW238778   2.080   4.117   6.681 -2.4005  1.7793  0.3363
 9107SOL     OW38779   0.872   0.127   4.571  0.0659  0.6459  0.6589
 9107SOL    HW138780   0.854   0.168   4.655  0.7381 -1.3989  1.8271
 9107SOL    HW238781   0.902   0.205   4.525  1.5491 -1.0630 -1.2830
 9108SOL     OW38782   0.352   4.364   8.163 -0.1517  0.1289  0.2893
 9108SOL    HW138783   0.398   4.447   8.156  0.8789 -0.5177 -0.6604
 9108SOL    HW238784   0.263   4.390   8.142 -0.9557 -0.9024  2.4666
 9109SOL     OW38785   2.714   3.126   6.178  0.1178 -0.1200  0.0501
 9109SOL    HW138786   2.775   3.113   6.104 -1.2790 -1.1798 -0.9128
 9109SOL    HW238787   2.710   3.039   6.217 -1.9394  0.2720  0.7154
 9110SOL     OW38788   4.216   1.639   0.185 -0.5537 -0.1880  0.1470
 9110SOL    HW138789   4.168   1.656   0.104  0.4387  3.4077  0.3427
 9110SOL    HW238790   4.255   1.726   0.190  0.4005 -0.6550  1.0444
 9111SOL     OW38791   2.649   2.587   2.721 -0.2247  0.1440  0.9141
 9111SOL    HW138792   2.696   2.529   2.781 -1.2325  1.3499  2.9138
 9111SOL    HW238793   2.711   2.660   2.721 -0.1382  0.0662  0.4142
 9112SOL     OW38794   3.390   4.677   8.949 -0.2833 -0.1380  0.1367
 9112SOL    HW138795   3.333   0.023   8.913 -0.0180  1.3094  2.4139
 9112SOL    HW238796   3.332   4.603   8.967 -0.6141 -0.0922 -0.7362
 9113SOL     OW38797   2.392   2.565   2.643  0.1289  0.1154  0.3923
 9113SOL    HW138798   2.484   2.576   2.668  0.6041 -0.4177 -1.0964
 9113SOL    HW238799   2.402   2.536   2.552  0.9608 -0.1080  0.5494
 9114SOL     OW38800   1.743   1.922   9.253  0.0484 -0.2085 -0.2717
 9114SOL    HW138801   1.649   1.917   9.270  0.0127  2.5136  0.3845
 9114SOL    HW238802   1.742   1.950   9.161  0.5224 -0.5756 -0.3856
 9115SOL     OW38803   4.110   0.592   5.593 -0.1376 -0.3064  0.1365
 9115SOL    HW138804   4.099   0.575   5.499  0.5618  0.1118 -0.0165
 9115SOL    HW238805   4.197   0.632   5.591 -0.1260 -0.3502 -0.3082
 9116SOL     OW38806   4.243   0.678   6.859 -0.2100 -0.0070 -0.5941
 9116SOL    HW138807   4.165   0.657   6.910  0.2362 -0.1547  0.0272
 9116SOL    HW238808   4.234   0.772   6.844  1.2055  0.4961  1.7039
 9117SOL     OW38809   0.581   0.115   7.073  0.0511  0.1576 -0.1977
 9117SOL    HW138810   0.486   0.114   7.057  0.4956 -1.1365 -2.7616
 9117SOL    HW238811   0.579   0.051   7.144  1.5225  1.5104  1.0564
 9118SOL     OW38812   3.442   3.408  11.232  0.1987 -0.1797  0.1680
 9118SOL    HW138813   3.525   3.397  11.278 -0.7880 -0.6665  1.8303
 9118SOL    HW238814   3.434   3.325  11.187  1.6698  0.2641 -0.9149
 9119SOL     OW38815   1.226   2.719   2.748 -0.0569  0.3053  0.5873
 9119SOL    HW138816   1.142   2.702   2.790  0.8250  0.5665  2.4311
 9119SOL    HW238817   1.209   2.794   2.691  1.0482  0.6311  0.6859
 9120SOL     OW38818   1.293   0.776   3.635 -0.2634 -0.0434  0.6306
 9120SOL    HW138819   1.212   0.824   3.649  0.1414  1.0809 -0.8074
 9120SOL    HW238820   1.354   0.830   3.585 -1.2292 -2.0646 -2.7290
 9121SOL     OW38821   0.657   1.661   2.420 -0.0087  0.1118  0.0084
 9121SOL    HW138822   0.709   1.741   2.410 -0.5585  0.5972  1.1119
 9121SOL    HW238823   0.709   1.601   2.366 -0.6359  0.8131 -1.3805
 9122SOL     OW38824   4.557   2.537   6.479 -0.0515 -0.0464 -0.4341
 9122SOL    HW138825   4.597   2.465   6.528 -1.4532 -1.2482 -1.0550
 9122SOL    HW238826   4.632   2.589   6.451  1.1649 -2.1306 -1.0805
 9123SOL     OW38827   0.284   1.611   6.778 -0.3609  0.0744 -0.0335
 9123SOL    HW138828   0.354   1.564   6.825  1.2881  1.6287 -0.9679
 9123SOL    HW238829   0.222   1.636   6.846 -0.1091  0.2035  0.1517
 9124SOL     OW38830   0.416   0.845   6.056 -0.0379 -0.0673 -0.3310
 9124SOL    HW138831   0.451   0.933   6.070  1.1600 -0.5440 -0.2350
 9124SOL    HW238832   0.469   0.800   6.122 -0.2545 -1.0758 -0.8408
 9125SOL     OW38833   0.879   1.561   7.759  0.7261 -0.1483  0.0618
 9125SOL    HW138834   0.939   1.632   7.781  1.5261 -0.9672  0.5242
 9125SOL    HW238835   0.842   1.542   7.844  0.8499 -0.5137  0.0332
 9126SOL     OW38836   2.177   3.580   1.395  0.0955 -0.2362  0.0997
 9126SOL    HW138837   2.142   3.658   1.437  2.7355  1.2528 -0.4564
 9126SOL    HW238838   2.239   3.558   1.465 -1.5484  1.3156  2.0209
 9127SOL     OW38839   2.122   1.521   1.382  0.5608  0.0557 -0.1049
 9127SOL    HW138840   2.040   1.516   1.431  0.3571  3.1490 -0.1788
 9127SOL    HW238841   2.108   1.450   1.319 -1.5711 -0.3827  0.8815
 9128SOL     OW38842   2.474   3.444   1.485 -0.2274 -0.6171 -1.4869
 9128SOL    HW138843   2.427   3.519   1.523  2.9049  0.2828  0.5505
 9128SOL    HW238844   2.474   3.483   1.398 -0.9728  0.7814 -0.8676
 9129SOL     OW38845   1.038   0.895  11.055  0.2238 -0.1207 -0.0727
 9129SOL    HW138846   1.130   0.922  11.055  0.3856 -0.6888  1.2321
 9129SOL    HW238847   1.054   0.805  11.025  2.3622 -0.9532  3.6680
 9130SOL     OW38848   1.075   4.382   7.715 -0.3183 -0.2720  0.8153
 9130SOL    HW138849   1.041   4.428   7.792  0.3691 -0.3719  1.1832
 9130SOL    HW238850   1.133   4.446   7.672 -0.0584 -1.1706 -0.1746
 9131SOL     OW38851   2.598   2.416   7.376 -0.1970  0.3003  0.1488
 9131SOL    HW138852   2.666   2.457   7.430  0.9275  0.3037 -1.2499
 9131SOL    HW238853   2.527   2.397   7.437  0.0749  0.9738  0.6775
 9132SOL     OW38854   3.146   2.267   7.293  0.5397 -0.7221 -0.0883
 9132SOL    HW138855   3.156   2.299   7.383 -2.3572  1.1660 -0.4609
 9132SOL    HW238856   3.228   2.219   7.277  0.6016 -1.0727  1.2616
 9133SOL     OW38857   1.064   0.424   0.775  0.0563 -0.1956 -0.4916
 9133SOL    HW138858   0.972   0.398   0.779 -0.5894  2.2508  0.1682
 9133SOL    HW238859   1.059   0.519   0.786  0.9555 -0.4013  1.6347
 9134SOL     OW38860   0.626   3.563   3.225 -0.3268 -0.8253  0.6032
 9134SOL    HW138861   0.690   3.569   3.155  0.2467  3.8845  1.5215
 9134SOL    HW238862   0.658   3.483   3.266 -1.4116 -1.7036 -0.2668
 9135SOL     OW38863   1.966   0.872   1.230 -0.0854 -0.1871  0.4495
 9135SOL    HW138864   2.046   0.921   1.246  0.1320 -0.1813 -0.6349
 9135SOL    HW238865   1.908   0.919   1.170 -0.9743 -1.6065  0.1793
 9136SOL     OW38866   3.998   2.163  17.198  0.2203 -0.2363 -0.3921
 9136SOL    HW138867   4.040   2.137  17.280 -0.6342  0.4386  0.2528
 9136SOL    HW238868   3.981   2.079  17.155  2.1122 -1.2200  0.8061
 9137SOL     OW38869   0.661   3.687  17.604 -0.3585  0.4749  0.1494
 9137SOL    HW138870   0.643   3.729  17.520  1.8179  0.4808 -0.3119
 9137SOL    HW238871   0.595   3.618  17.599 -1.8370  2.0962 -2.5883
 9138SOL     OW38872   0.406   0.924   3.812 -0.2185 -0.3755  0.2740
 9138SOL    HW138873   0.406   0.958   3.902  1.8112 -1.2901  0.6305
 9138SOL    HW238874   0.465   0.850   3.824 -1.6928 -1.4846  0.6937
 9139SOL     OW38875   0.750   0.156   3.791 -0.5179  0.6680  0.2803
 9139SOL    HW138876   0.798   0.187   3.868  0.2840 -0.8554  0.3822
 9139SOL    HW238877   0.659   0.170   3.817 -0.2910  3.0004 -0.1725
 9140SOL     OW38878   3.604   2.039   0.454 -0.4657 -0.5834 -0.2767
 9140SOL    HW138879   3.570   2.007   0.537 -0.0443  0.2177  0.2027
 9140SOL    HW238880   3.698   2.052   0.462 -0.9040  0.3299  3.1838
 9141SOL     OW38881   0.156   1.740   8.361 -0.2998 -0.3244 -0.4710
 9141SOL    HW138882   0.083   1.683   8.339 -1.2693  0.9412 -0.4823
 9141SOL    HW238883   0.100   1.813   8.385  0.0967  0.4142 -1.8444
 9142SOL     OW38884   2.805   3.634   5.156 -0.1256 -0.0070  0.1259
 9142SOL    HW138885   2.896   3.616   5.179  0.4487 -0.7805 -2.6663
 9142SOL    HW238886   2.821   3.667   5.067  1.2454 -0.7126  0.1115
 9143SOL     OW38887   2.331   1.177   1.551 -0.0014 -0.2621 -0.0190
 9143SOL    HW138888   2.402   1.216   1.502 -0.0441 -0.6620 -0.3972
 9143SOL    HW238889   2.272   1.133   1.490 -1.0662 -1.1523  1.6461
 9144SOL     OW38890   1.446   1.913   9.277  0.0363 -0.3661 -0.2077
 9144SOL    HW138891   1.388   1.945   9.208  1.6858  0.1258 -1.3378
 9144SOL    HW238892   1.404   1.839   9.322  1.0326  0.9395  2.8885
 9145SOL     OW38893   2.035   4.703   2.356 -0.4620 -0.2841  0.2289
 9145SOL    HW138894   2.094   4.660   2.294  0.6456  1.3112  0.1672
 9145SOL    HW238895   1.972   0.029   2.303 -0.3841  2.2932  2.4791
 9146SOL     OW38896   4.219   0.440  17.663  0.6455  0.8319 -0.1207
 9146SOL    HW138897   4.133   0.399  17.652  0.4139  1.1020  0.6704
 9146SOL    HW238898   4.275   0.370   0.007  0.3313  0.5148 -0.2733
 9147SOL     OW38899   2.636   1.699  12.489  0.0815  0.0894 -0.3995
 9147SOL    HW138900   2.568   1.656  12.541 -2.2097  2.7715 -1.1148
 9147SOL    HW238901   2.584   1.735  12.417  1.2699  0.4652 -1.0571
 9148SOL     OW38902   2.436   0.402   1.558 -0.0974  0.8754  0.5668
 9148SOL    HW138903   2.380   0.324   1.560  1.1362  0.0373  4.0943
 9148SOL    HW238904   2.371   0.470   1.572  1.3244  2.3434  0.0853
 9149SOL     OW38905   1.168   1.957   1.513  0.3870 -0.5921 -0.1133
 9149SOL    HW138906   1.201   1.872   1.485 -0.0094  0.0691 -2.5826
 9149SOL    HW238907   1.172   1.935   1.606 -1.0811 -0.2350  0.0310
 9150SOL     OW38908   4.016   4.517   7.129 -0.0753  0.4479  0.0842
 9150SOL    HW138909   3.922   4.500   7.122  0.2541 -2.2209  2.1578
 9150SOL    HW238910   4.031   4.531   7.035  4.1403  1.4565  0.9206
 9151SOL     OW38911   3.958   1.273  13.502  0.0966  0.6137 -1.1670
 9151SOL    HW138912   3.934   1.361  13.474  2.3975  0.8496 -2.3889
 9151SOL    HW238913   3.972   1.223  13.422 -2.9900 -0.4518 -1.0604
 9152SOL     OW38914   3.790   1.808   4.371 -0.1803  0.2682  0.1010
 9152SOL    HW138915   3.824   1.799   4.282  0.9777  2.3803  0.3271
 9152SOL    HW238916   3.865   1.826   4.427  1.0335 -0.3884 -1.3014
 9153SOL     OW38917   0.929   4.249   4.028  0.1936 -0.1743 -0.6472
 9153SOL    HW138918   0.986   4.221   3.958  1.2215 -0.5532  0.3409
 9153SOL    HW238919   1.001   4.262   4.090  0.0614 -0.2651 -0.4723
 9154SOL     OW38920   4.161   4.177   9.653  0.1274  0.2810 -0.2064
 9154SOL    HW138921   4.083   4.124   9.638  0.8471 -1.3907  1.9308
 9154SOL    HW238922   4.134   4.269   9.648 -0.6848  0.2965  4.0682
 9155SOL     OW38923   1.695   1.844   2.959 -0.2695  0.1397 -0.4711
 9155SOL    HW138924   1.751   1.920   2.976 -0.8621  0.9885 -2.3922
 9155SOL    HW238925   1.627   1.888   2.909  0.9872  0.6009 -1.7565
 9156SOL     OW38926   4.264   2.030   6.295 -0.4671 -0.1909  0.0121
 9156SOL    HW138927   4.318   2.091   6.346 -0.1523 -0.9517  0.5971
 9156SOL    HW238928   4.287   2.065   6.209  0.0666 -1.7938 -0.4854
 9157SOL     OW38929   3.835   4.564   4.354  0.5999 -0.4984 -0.4970
 9157SOL    HW138930   3.904   4.609   4.307 -0.8224  1.0422 -1.1151
 9157SOL    HW238931   3.893   4.518   4.415 -0.4267 -0.3919  0.5733
 9158SOL     OW38932   2.587   0.369  12.772  0.1650 -0.9436 -0.1731
 9158SOL    HW138933   2.500   0.361  12.809 -0.0146  2.9775  0.2289
 9158SOL    HW238934   2.563   0.399  12.684  0.1685  0.1250  0.1895
 9159SOL     OW38935   4.062   2.203   8.747  0.1239 -0.1790  0.4226
 9159SOL    HW138936   4.110   2.246   8.818  1.1362 -0.8923  0.1651
 9159SOL    HW238937   3.975   2.178   8.780  0.0712 -0.7256 -0.1324
 9160SOL     OW38938   1.197   1.149  10.330 -0.2238  0.0062 -0.2973
 9160SOL    HW138939   1.226   1.086  10.395 -3.1203 -0.4510  0.5618
 9160SOL    HW238940   1.223   1.118  10.243 -0.9432  0.9121 -0.8378
 9161SOL     OW38941   3.185   2.807   6.555 -0.3303 -0.1530 -0.1924
 9161SOL    HW138942   3.127   2.787   6.629  1.9472 -3.2086  0.8097
 9161SOL    HW238943   3.169   2.730   6.500  3.3324 -0.9566 -0.1494
 9162SOL     OW38944   1.887   1.617   7.645 -0.0696  0.3485 -0.7351
 9162SOL    HW138945   1.942   1.630   7.722 -2.7903 -0.0758  1.2553
 9162SOL    HW238946   1.871   1.704   7.608 -1.0619  1.2936  1.9834
 9163SOL     OW38947   3.574   1.952   7.507 -0.4879 -0.0763 -0.3328
 9163SOL    HW138948   3.610   1.902   7.580 -0.4989  0.5722  0.1167
 9163SOL    HW238949   3.654   1.954   7.454  0.2653  0.1896  0.8207
 9164SOL     OW38950   2.608   3.510   9.733 -0.2187 -0.3718  0.0279
 9164SOL    HW138951   2.679   3.562   9.771  0.3810 -1.3816  0.2893
 9164SOL    HW238952   2.608   3.556   9.650  2.3296  0.2293  0.3550
 9165SOL     OW38953   0.568   2.982   4.688 -0.6734  0.2252  0.2590
 9165SOL    HW138954   0.575   2.897   4.645  1.3334 -0.2957  1.6631
 9165SOL    HW238955   0.611   2.967   4.772  1.4676  0.7083 -0.7556
 9166SOL     OW38956   3.134   2.176   7.799  0.0909  0.0421  0.3858
 9166SOL    HW138957   3.073   2.102   7.792  0.3991 -0.1584 -0.1651
 9166SOL    HW238958   3.172   2.148   7.882  0.9791 -2.5217 -0.8800
 9167SOL     OW38959   0.379   4.390   7.625 -0.5920 -0.0489  0.0263
 9167SOL    HW138960   0.305   4.364   7.570 -1.5107  1.1430  0.6945
 9167SOL    HW238961   0.422   4.305   7.628 -1.0867 -0.2852  0.5607
 9168SOL     OW38962   1.468   4.414   6.217 -0.4578  0.4883 -0.3053
 9168SOL    HW138963   1.543   4.432   6.274  0.4500  2.0310 -1.9779
 9168SOL    HW238964   1.521   4.384   6.143 -1.7207 -1.1697 -0.5472
 9169SOL     OW38965   2.334   4.543   6.454 -0.2871  0.0496  0.5135
 9169SOL    HW138966   2.407   4.538   6.516  1.1149 -2.7493 -1.3540
 9169SOL    HW238967   2.322   4.451   6.430 -2.2070  0.6283 -0.7366
 9170SOL     OW38968   2.632   1.236   2.766  0.3189 -0.5327 -0.3565
 9170SOL    HW138969   2.569   1.270   2.702 -0.4044 -2.2769 -0.5723
 9170SOL    HW238970   2.586   1.153   2.782 -2.2958  1.2158  1.3513
 9171SOL     OW38971   4.629   0.820  12.549  0.3890  0.1199  0.1403
 9171SOL    HW138972   4.548   0.845  12.505 -0.1871 -0.9268  0.5941
 9171SOL    HW238973   4.595   0.798  12.636 -1.2155 -0.6089 -0.6720
 9172SOL     OW38974   4.575   0.887   5.078  0.4740  0.6294  0.1419
 9172SOL    HW138975   4.655   0.887   5.025  1.4207 -1.2237  1.5878
 9172SOL    HW238976   4.600   0.938   5.154 -0.1853 -0.2438  0.9419
 9173SOL     OW38977   3.895   1.683   8.810  0.2882  0.1425 -0.1160
 9173SOL    HW138978   3.912   1.589   8.797  0.4377  0.5453 -2.8580
 9173SOL    HW238979   3.803   1.702   8.797  0.5983  0.1609 -2.2586
 9174SOL     OW38980   1.416   3.020   9.910  0.3972 -0.4576 -0.0465
 9174SOL    HW138981   1.461   3.082   9.968 -1.2948 -1.5356  2.4323
 9174SOL    HW238982   1.438   2.934   9.948  1.8992 -0.6247 -1.2674
 9175SOL     OW38983   0.644   0.005   5.771 -0.2398 -0.2645 -0.6245
 9175SOL    HW138984   0.692   0.069   5.718  1.8171 -1.1765  0.1656
 9175SOL    HW238985   0.706   4.653   5.769  1.3932  1.1079  0.5168
 9176SOL     OW38986   3.680   2.068   5.132  0.0966 -0.2695  0.4537
 9176SOL    HW138987   3.606   2.009   5.115  1.4656 -1.2828 -1.9893
 9176SOL    HW238988   3.741   2.004   5.169  0.1569 -0.0421  0.7445
 9177SOL     OW38989   2.442   3.414   8.291  0.5072  0.4843 -0.1855
 9177SOL    HW138990   2.412   3.333   8.333  2.0477  1.7014  3.2335
 9177SOL    HW238991   2.537   3.414   8.296  0.3739 -0.5402  2.2618
 9178SOL     OW38992   3.642   1.129  15.630 -0.1937  0.6816 -1.0715
 9178SOL    HW138993   3.677   1.132  15.540 -0.4964 -1.7931 -1.2868
 9178SOL    HW238994   3.553   1.158  15.613 -0.4800  0.0779 -0.6165
 9179SOL     OW38995   2.034   4.226   6.254  0.6298  0.3124  0.3701
 9179SOL    HW138996   2.027   4.142   6.209  2.0477 -0.1298  0.9726
 9179SOL    HW238997   2.018   4.282   6.178 -0.7979 -1.7111 -0.8267
 9180SOL     OW38998   4.676   4.669  17.056 -0.1650 -0.5234 -0.4541
 9180SOL    HW138999   4.597   0.002  17.059 -0.0486 -0.4767  1.6785
 9180SOL    HW239000   0.022   0.016  17.063 -0.1998 -0.5785  0.3759
 9181SOL     OW39001   2.140   4.000   8.576  0.1728  0.0495 -0.2625
 9181SOL    HW139002   2.113   4.015   8.666 -1.0662 -1.3726 -0.3991
 9181SOL    HW239003   2.201   4.071   8.557 -1.1135  1.1420 -0.2429
 9182SOL     OW39004   0.459   1.868   5.867  0.0331 -0.0239 -0.4695
 9182SOL    HW139005   0.421   1.905   5.787  0.4215 -1.2541 -1.2391
 9182SOL    HW239006   0.496   1.788   5.828 -0.6011  1.3226 -3.8324
 9183SOL     OW39007   1.967   3.658   7.707  0.3876  0.0007  0.0144
 9183SOL    HW139008   1.875   3.679   7.720 -0.4604 -3.8519  0.4197
 9183SOL    HW239009   1.970   3.644   7.613 -1.5303 -1.7609  0.1981
 9184SOL     OW39010   0.689   1.033   3.881  0.4744 -0.0936  0.0511
 9184SOL    HW139011   0.661   1.041   3.789  1.1974 -0.3751 -0.1955
 9184SOL    HW239012   0.783   1.031   3.866  0.7255  0.6164  1.5079
 9185SOL     OW39013   3.430   0.792  14.336  0.0328  0.2133 -0.0406
 9185SOL    HW139014   3.460   0.724  14.396 -1.0093 -0.0964  0.1155
 9185SOL    HW239015   3.373   0.842  14.394  0.6457 -0.0122  0.7622
 9186SOL     OW39016   3.150   2.750   5.924  0.2151  0.1105  0.5414
 9186SOL    HW139017   3.229   2.784   5.966 -0.4743 -0.8256  2.5610
 9186SOL    HW239018   3.101   2.735   6.005 -0.9831  0.4792 -0.1063
 9187SOL     OW39019   0.220   1.284   8.482 -0.2410  0.0068  0.6137
 9187SOL    HW139020   0.187   1.244   8.401  0.0357 -0.5558  0.7811
 9187SOL    HW239021   0.228   1.211   8.543  1.0416  1.1708  1.8195
 9188SOL     OW39022   1.100   0.869   7.805 -0.3017  0.5264 -0.4196
 9188SOL    HW139023   1.179   0.815   7.814  0.4935  1.3680 -2.4291
 9188SOL    HW239024   1.139   0.956   7.805 -1.0445  0.8612 -0.0657
 9189SOL     OW39025   3.609   2.486   2.764 -0.3420  0.6618 -0.1642
 9189SOL    HW139026   3.696   2.520   2.784  0.3271 -0.1388 -1.7664
 9189SOL    HW239027   3.559   2.567   2.749 -0.2117  1.4089  3.3655
 9190SOL     OW39028   2.663   1.476   6.322  0.5182 -0.6635  0.6435
 9190SOL    HW139029   2.612   1.481   6.403  0.6788 -0.3405  0.7245
 9190SOL    HW239030   2.671   1.570   6.311  0.6778 -0.7924 -0.3522
 9191SOL     OW39031   4.241   0.775   4.435 -0.0226 -0.1519 -0.0405
 9191SOL    HW139032   4.327   0.756   4.473  0.1368  1.1958  0.2616
 9191SOL    HW239033   4.226   0.695   4.383  1.3228  0.9289 -2.0966
 9192SOL     OW39034   4.635   4.176   3.554 -0.0289 -0.0781 -0.8919
 9192SOL    HW139035   4.668   4.213   3.636  2.1784 -2.2427 -0.7886
 9192SOL    HW239036   4.544   4.204   3.555  0.3806  1.2054  1.4006
 9193SOL     OW39037   2.144   3.870   2.446 -0.0525  0.3519 -0.0452
 9193SOL    HW139038   2.145   3.776   2.467  0.3724  0.0921 -1.2435
 9193SOL    HW239039   2.209   3.873   2.376  1.3326 -0.0643  1.2169
 9194SOL     OW39040   2.982   1.066  14.503 -0.1428 -0.1582  0.0846
 9194SOL    HW139041   2.956   1.156  14.484  0.4539 -0.1498 -0.6967
 9194SOL    HW239042   2.894   1.029  14.509  0.2251 -0.9719  0.5590
 9195SOL     OW39043   2.109   3.179   3.653 -0.8316  0.3686  0.1808
 9195SOL    HW139044   2.076   3.115   3.589 -0.1879  0.0502  0.1627
 9195SOL    HW239045   2.049   3.182   3.728 -0.0169 -0.8070  0.8731
 9196SOL     OW39046   4.164   2.765   8.197 -0.0275 -1.1023 -0.2048
 9196SOL    HW139047   4.107   2.754   8.121 -0.0494  1.3873 -0.5241
 9196SOL    HW239048   4.103   2.816   8.251 -1.1305 -2.8574  0.2115
 9197SOL     OW39049   2.958   1.051   8.136  0.0066 -0.0330 -0.3069
 9197SOL    HW139050   2.898   1.059   8.062  2.6294  1.7994 -2.2201
 9197SOL    HW239051   2.932   1.127   8.188  2.0659 -0.0290  0.7286
 9198SOL     OW39052   3.269   3.174   5.684  0.5352  0.1610 -0.0859
 9198SOL    HW139053   3.352   3.158   5.728 -0.9389 -0.1034  2.5876
 9198SOL    HW239054   3.304   3.208   5.602  0.8385  1.1385  0.4436
 9199SOL     OW39055   4.631   0.462   2.307  0.3915 -0.0877  0.1398
 9199SOL    HW139056   4.709   0.406   2.310  1.2910  1.1320 -0.3633
 9199SOL    HW239057   4.592   0.434   2.224  0.0423 -0.6655  0.4993
 9200SOL     OW39058   1.630   0.862   8.746  0.5162 -0.1256 -0.6240
 9200SOL    HW139059   1.630   0.768   8.763  1.4950  0.0011  0.0931
 9200SOL    HW239060   1.668   0.891   8.829 -0.6102 -0.9427  0.1787
 9201SOL     OW39061   2.565   3.282   7.726 -0.4027  0.0002  0.2621
 9201SOL    HW139062   2.546   3.248   7.813  1.3964  1.3634  1.1818
 9201SOL    HW239063   2.546   3.208   7.668  1.1956 -0.5401  0.4531
 9202SOL     OW39064   3.517   4.102   3.414  0.2399 -0.0173  0.0304
 9202SOL    HW139065   3.480   4.171   3.470  0.1263 -1.5010  1.7842
 9202SOL    HW239066   3.474   4.026   3.452  0.0461  0.2311  0.3138
 9203SOL     OW39067   2.807   1.722   6.494  1.1974 -0.2098 -0.3497
 9203SOL    HW139068   2.713   1.706   6.495  0.9832  1.2541  2.9654
 9203SOL    HW239069   2.814   1.816   6.512  1.2990 -0.6551  1.8655
 9204SOL     OW39070   3.514   1.745   6.352 -0.1604 -0.6171  0.5609
 9204SOL    HW139071   3.495   1.819   6.294 -0.0111 -2.8364 -2.3003
 9204SOL    HW239072   3.605   1.731   6.329  0.2355  4.2565 -0.8993
 9205SOL     OW39073   0.464   1.875   3.643  0.1025 -0.5356 -0.5153
 9205SOL    HW139074   0.546   1.919   3.664 -1.6195  1.4115  2.1707
 9205SOL    HW239075   0.471   1.800   3.702 -0.8439  0.3094  0.6625
 9206SOL     OW39076   3.615   0.802  11.663  0.6446  0.0807  0.1505
 9206SOL    HW139077   3.591   0.881  11.615  1.6382 -1.2356 -2.4561
 9206SOL    HW239078   3.682   0.768  11.604 -2.2270  0.7006 -3.4671
 9207SOL     OW39079   1.208   2.950   4.703 -0.2595  0.2110  0.6852
 9207SOL    HW139080   1.173   2.890   4.769 -0.6182 -1.2164 -0.7892
 9207SOL    HW239081   1.258   2.885   4.653  0.0173  0.6850  0.3485
 9208SOL     OW39082   4.045   3.687   0.237 -0.4505  0.1078  0.5495
 9208SOL    HW139083   3.976   3.747   0.211  0.5590  1.7558  1.7177
 9208SOL    HW239084   4.126   3.738   0.238  0.1005 -0.7703  0.5672
 9209SOL     OW39085   2.195   3.470   1.858 -0.3078 -0.3125 -0.4358
 9209SOL    HW139086   2.174   3.377   1.846 -0.8448  0.0023 -1.9135
 9209SOL    HW239087   2.116   3.510   1.822  0.2736  2.0014  0.8373
 9210SOL     OW39088   2.483   4.111   2.148  0.4058 -0.4567  0.2405
 9210SOL    HW139089   2.453   4.044   2.085  2.2510 -0.1305 -0.9818
 9210SOL    HW239090   2.515   4.052   2.217 -2.0973 -2.3472 -0.1884
 9211SOL     OW39091   4.619   0.005   6.124  0.4106 -0.0552 -0.0095
 9211SOL    HW139092   4.668   4.692   6.049  2.8084 -2.3920  2.6478
 9211SOL    HW239093   4.689   4.714   6.188  1.2092  3.8916 -0.0759
 9212SOL     OW39094   2.398   3.958   9.359  0.4756 -0.1757 -0.6481
 9212SOL    HW139095   2.399   4.025   9.428  1.7639  0.7551 -1.5714
 9212SOL    HW239096   2.385   3.879   9.413  2.2387  0.3467  0.5688
 9213SOL     OW39097   0.049   1.236   2.622 -0.1872 -0.4569  0.2791
 9213SOL    HW139098   0.136   1.211   2.590  0.7106  0.6970  1.8523
 9213SOL    HW239099   0.004   1.249   2.538  0.9998  2.4252  0.1057
 9214SOL     OW39100   0.420   2.948   6.567 -0.1237 -0.3116  0.3658
 9214SOL    HW139101   0.416   3.022   6.627  0.8134 -0.6641  0.8576
 9214SOL    HW239102   0.417   2.995   6.483 -2.7424 -3.7953 -1.4545
 9215SOL     OW39103   2.085   2.025   5.131  0.1337 -0.1254  0.2710
 9215SOL    HW139104   2.009   2.037   5.073 -0.5371 -0.5979  1.0645
 9215SOL    HW239105   2.154   2.071   5.083  0.4930  0.3955  1.2939
 9216SOL     OW39106   2.624   0.605   0.043  0.4398  0.7333 -0.6191
 9216SOL    HW139107   2.668   0.556   0.113  0.5987  1.8155  0.0356
 9216SOL    HW239108   2.674   0.578  17.653  2.3199 -0.8369  1.1157
 9217SOL     OW39109   0.422   0.374   6.897  0.2160  0.3741 -1.2933
 9217SOL    HW139110   0.381   0.292   6.924  1.7350 -0.1277 -0.5476
 9217SOL    HW239111   0.383   0.440   6.955  3.0627 -0.9628  2.1134
 9218SOL     OW39112   1.553   1.426  10.237  0.2041  0.5086 -0.1222
 9218SOL    HW139113   1.530   1.478  10.160  0.7069  1.2181  0.2151
 9218SOL    HW239114   1.611   1.356  10.208 -0.2698  0.5897 -1.2497
 9219SOL     OW39115   3.434   2.073   3.263 -0.5330  0.3316 -0.0284
 9219SOL    HW139116   3.505   2.136   3.268 -0.2138  0.1487 -2.0737
 9219SOL    HW239117   3.440   2.026   3.346 -1.2343 -0.9028 -0.6803
 9220SOL     OW39118   2.304   1.952  11.843  0.2585  0.4697 -0.3642
 9220SOL    HW139119   2.210   1.964  11.856 -0.0448 -2.5208  0.1960
 9220SOL    HW239120   2.295   1.875  11.788  4.3796 -0.3886  0.1369
 9221SOL     OW39121   0.379   2.849   3.902 -0.6011 -0.9034 -0.2337
 9221SOL    HW139122   0.459   2.800   3.922  0.1293  0.6502  0.6448
 9221SOL    HW239123   0.315   2.779   3.891 -0.1999 -1.2775 -0.1794
 9222SOL     OW39124   1.229   3.171   8.605 -0.1453  0.1123 -0.6454
 9222SOL    HW139125   1.141   3.188   8.638 -1.0269 -1.4642 -2.1902
 9222SOL    HW239126   1.223   3.148   8.513 -0.3470  0.4363 -0.7149
 9223SOL     OW39127   3.191   1.261  10.925 -0.0700  0.0731  0.7285
 9223SOL    HW139128   3.187   1.304  10.840  0.0973 -0.5314  0.4115
 9223SOL    HW239129   3.263   1.201  10.906  0.5615  0.9944  0.2244
 9224SOL     OW39130   4.047   4.417   2.223 -0.2368  0.1330 -0.3562
 9224SOL    HW139131   4.024   4.368   2.143 -0.9741 -0.1179  0.0014
 9224SOL    HW239132   4.108   4.481   2.188 -0.8864  0.5864 -0.6691
 9225SOL     OW39133   1.050   2.520   3.179  0.7063  0.1991  0.4417
 9225SOL    HW139134   1.016   2.578   3.110 -0.0977  0.2431  0.8761
 9225SOL    HW239135   0.988   2.561   3.240  0.0617 -0.3887  0.1830
 9226SOL     OW39136   4.364   1.216   2.646 -0.0427 -0.3068 -0.2666
 9226SOL    HW139137   4.396   1.301   2.616  2.0483  0.2727  3.5921
 9226SOL    HW239138   4.397   1.167   2.571  0.6065  1.7795 -1.3464
 9227SOL     OW39139   1.544   0.143   3.635 -0.6156 -0.7116  0.4599
 9227SOL    HW139140   1.492   0.114   3.561 -2.6009  2.8842  0.4243
 9227SOL    HW239141   1.488   0.130   3.712  0.9078  1.5625  1.9644
 9228SOL     OW39142   1.416   0.500  16.899 -0.2181  0.3989  0.4094
 9228SOL    HW139143   1.470   0.576  16.876 -0.2695  0.1628 -0.4684
 9228SOL    HW239144   1.326   0.533  16.895  0.1192  1.1490 -0.7401
 9229SOL     OW39145   2.327   3.191   4.830 -0.0838 -0.0761 -0.2668
 9229SOL    HW139146   2.365   3.129   4.767  0.1528 -0.5986  0.3913
 9229SOL    HW239147   2.257   3.140   4.870 -1.2302  0.7690 -1.2231
 9230SOL     OW39148   4.215   1.694  13.779  0.2645 -0.4079 -0.3008
 9230SOL    HW139149   4.244   1.780  13.750 -1.7129  1.0072  1.9046
 9230SOL    HW239150   4.152   1.671  13.710  0.6636  2.1103 -1.4823
 9231SOL     OW39151   3.074   0.337   2.626 -0.4828 -0.2920 -0.3307
 9231SOL    HW139152   3.067   0.257   2.678 -3.1062 -0.5371 -1.0649
 9231SOL    HW239153   2.987   0.375   2.639 -0.3567  1.1548 -3.7587
 9232SOL     OW39154   3.404   2.770  13.747  0.1774  0.0123  0.0462
 9232SOL    HW139155   3.325   2.824  13.741  1.7256  2.6706  3.6047
 9232SOL    HW239156   3.473   2.818  13.700  1.6542 -0.2790  1.9254
 9233SOL     OW39157   4.638   0.605   6.351 -0.0945  0.7326  0.4004
 9233SOL    HW139158   4.554   0.607   6.305  0.5136  0.0497 -0.7177
 9233SOL    HW239159   4.640   0.512   6.375  0.3169  1.5795  3.6508
 9234SOL     OW39160   0.321   3.569   2.548  0.5549 -0.1133 -0.8958
 9234SOL    HW139161   0.291   3.488   2.589 -2.2791  0.2907 -2.1849
 9234SOL    HW239162   0.246   3.618   2.581  1.1768 -0.5070  1.1366
 9235SOL     OW39163   4.340   2.899  10.914  0.1204  0.3111  0.0850
 9235SOL    HW139164   4.253   2.915  10.950 -0.1784  0.7179 -0.8354
 9235SOL    HW239165   4.322   2.919  10.822  2.1116 -0.3694 -0.4573
 9236SOL     OW39166   0.833   4.319   1.497  0.2847  0.3514  0.3864
 9236SOL    HW139167   0.833   4.304   1.402  2.3946  0.7244  0.3212
 9236SOL    HW239168   0.781   4.247   1.534 -1.0718  0.4408 -1.3384
 9237SOL     OW39169   4.037   1.967   5.698  0.3951  0.2538 -0.0597
 9237SOL    HW139170   4.011   2.059   5.708 -2.2906 -0.3339 -1.5880
 9237SOL    HW239171   4.109   1.990   5.639 -0.6910 -0.4345 -1.6388
 9238SOL     OW39172   3.389   3.883   1.539  0.3551 -0.6727  0.8779
 9238SOL    HW139173   3.424   3.969   1.561 -1.7000  0.1418  0.9563
 9238SOL    HW239174   3.300   3.912   1.516  0.0618 -0.5689  2.1738
 9239SOL     OW39175   3.584   4.128   2.378  0.1594 -0.5345  0.2302
 9239SOL    HW139176   3.539   4.163   2.301 -0.3447 -2.0464 -0.1620
 9239SOL    HW239177   3.678   4.146   2.372  0.2491 -0.7797  0.9000
 9240SOL     OW39178   3.514   2.341   6.541 -0.2345 -0.1832 -0.2740
 9240SOL    HW139179   3.515   2.250   6.512 -0.6080  0.2839 -1.7773
 9240SOL    HW239180   3.585   2.340   6.605  0.8847 -1.0364 -1.5268
 9241SOL     OW39181   1.275   0.459   2.679  0.0075  0.0238  0.0803
 9241SOL    HW139182   1.237   0.493   2.760  0.1865  0.8681 -0.1919
 9241SOL    HW239183   1.198   0.475   2.624  0.0931  2.2277  0.6223
 9242SOL     OW39184   0.884   1.182   3.533  0.1253  0.0633  0.4431
 9242SOL    HW139185   0.819   1.162   3.466  1.5262  1.8440 -1.4615
 9242SOL    HW239186   0.964   1.162   3.484 -0.7667 -3.1871  0.3496
 9243SOL     OW39187   0.945   2.547   4.665 -0.6347 -0.0021 -0.0981
 9243SOL    HW139188   0.995   2.491   4.724 -0.6134 -1.8793 -1.9019
 9243SOL    HW239189   0.982   2.630   4.694 -1.7705  0.7405 -0.7591
 9244SOL     OW39190   2.393   0.800   3.228 -0.1278  0.1674  0.2674
 9244SOL    HW139191   2.344   0.736   3.176 -0.1252  1.2911 -1.1146
 9244SOL    HW239192   2.324   0.864   3.210  1.2207  1.6209  0.2504
 9245SOL     OW39193   1.423   3.759   2.699  0.3097 -0.6933 -0.5256
 9245SOL    HW139194   1.456   3.717   2.619  1.2123 -0.7763 -0.1101
 9245SOL    HW239195   1.346   3.803   2.663 -0.2086 -0.4470  0.8867
 9246SOL     OW39196   1.381   2.668  11.812 -0.2461 -0.1996 -0.1047
 9246SOL    HW139197   1.326   2.642  11.886 -0.0621  0.4397  0.2578
 9246SOL    HW239198   1.463   2.664  11.862 -0.7052  0.3898  0.7144
 9247SOL     OW39199   1.676   0.410   3.980  0.0611 -0.0619 -0.1294
 9247SOL    HW139200   1.667   0.505   3.977 -2.9239 -0.2964  2.5135
 9247SOL    HW239201   1.772   0.412   3.978  0.0978 -2.3079 -0.0739
 9248SOL     OW39202   3.640   4.645   3.751 -0.4402 -0.6988  0.3658
 9248SOL    HW139203   3.594   4.721   3.785 -0.3024 -0.5043  0.1138
 9248SOL    HW239204   3.635   4.581   3.822  0.3836 -1.5575 -0.3524
 9249SOL     OW39205   3.786   2.559  15.053 -0.2705  0.3281 -0.1910
 9249SOL    HW139206   3.764   2.641  15.010  1.1176 -0.2194 -1.9323
 9249SOL    HW239207   3.755   2.584  15.140  2.4222  2.4156  0.1310
 9250SOL     OW39208   0.650   0.718   7.411  0.3589 -0.0664 -0.6743
 9250SOL    HW139209   0.578   0.775   7.384 -1.9542 -1.5468  2.4042
 9250SOL    HW239210   0.728   0.760   7.374  0.1094 -1.4376 -2.7670
 9251SOL     OW39211   1.332   2.611   9.307 -0.4387  0.4930 -0.4120
 9251SOL    HW139212   1.362   2.631   9.396  0.7228 -0.0881 -0.6610
 9251SOL    HW239213   1.389   2.538   9.280  1.2369  1.1255  1.3744
 9252SOL     OW39214   3.809   2.317   4.091 -0.0948 -0.1986  0.0422
 9252SOL    HW139215   3.763   2.237   4.115 -0.7625 -0.3504 -1.7379
 9252SOL    HW239216   3.874   2.293   4.025 -0.4014 -0.4542 -0.1666
 9253SOL     OW39217   1.941   1.563  13.808 -0.4527  0.4967  0.2840
 9253SOL    HW139218   1.886   1.599  13.738  3.0026 -1.8596 -3.6424
 9253SOL    HW239219   2.023   1.607  13.785 -2.3548  2.6247 -2.4773
 9254SOL     OW39220   0.102   2.389   2.015 -0.3985 -0.1930  0.0713
 9254SOL    HW139221   0.010   2.390   1.990 -0.2075 -1.6098 -0.6979
 9254SOL    HW239222   0.141   2.450   1.951  2.2641 -2.3088 -0.3283
 9255SOL     OW39223   0.935   2.195   1.560  0.5623  0.3700  0.0507
 9255SOL    HW139224   1.020   2.211   1.518  0.5664  3.2665  1.1805
 9255SOL    HW239225   0.953   2.212   1.652 -0.4686  2.6583 -0.1646
 9256SOL     OW39226   2.123   3.742  14.637 -0.2005 -0.3559 -0.1981
 9256SOL    HW139227   2.194   3.752  14.573  0.1254 -1.4837 -0.0239
 9256SOL    HW239228   2.154   3.673  14.696  1.9496 -0.3511 -1.3090
 9257SOL     OW39229   3.812   1.592   3.579  0.5646  0.1063 -0.2010
 9257SOL    HW139230   3.834   1.550   3.662  0.6809  0.5063 -0.0334
 9257SOL    HW239231   3.782   1.513   3.533 -1.9712  0.7309  0.3876
 9258SOL     OW39232   1.267   0.446   9.953 -0.8261  0.0434  0.1111
 9258SOL    HW139233   1.319   0.502  10.011 -1.9920  1.0560  0.1830
 9258SOL    HW239234   1.228   0.390  10.020 -0.9633 -1.4246 -1.1939
 9259SOL     OW39235   4.239   0.311   6.691  0.3099 -0.0023 -0.3334
 9259SOL    HW139236   4.183   0.270   6.625  1.7323 -2.4853  0.0107
 9259SOL    HW239237   4.258   0.224   6.726 -0.2428  0.7784  1.9448
 9260SOL     OW39238   2.008   3.261   8.213  0.3746 -0.0090  0.6053
 9260SOL    HW139239   1.970   3.226   8.133 -1.0140  2.4905  0.2047
 9260SOL    HW239240   2.037   3.346   8.182  1.1637 -1.5698 -2.9148
 9261SOL     OW39241   3.943   1.425   8.770  0.1168  0.4845  0.1652
 9261SOL    HW139242   3.897   1.379   8.840 -0.2051  1.7769  0.8092
 9261SOL    HW239243   3.931   1.352   8.709  0.4076 -0.7960  1.6710
 9262SOL     OW39244   3.392   1.437   4.388  0.1469  0.0710  0.3635
 9262SOL    HW139245   3.473   1.485   4.368 -0.2927  0.1871 -1.1980
 9262SOL    HW239246   3.320   1.498   4.375 -0.3812 -0.4063  1.0651
 9263SOL     OW39247   1.037   2.812   3.798 -0.1992  0.6719 -0.4501
 9263SOL    HW139248   1.081   2.818   3.713 -0.1978  2.2291 -0.3516
 9263SOL    HW239249   0.979   2.739   3.776 -0.1763  0.0579  1.5345
 9264SOL     OW39250   0.997   3.674   1.305  0.6695 -0.0450 -0.1212
 9264SOL    HW139251   1.056   3.599   1.312  2.2217  1.0777 -1.2244
 9264SOL    HW239252   0.992   3.686   1.210  0.9526 -0.0025 -0.1309
 9265SOL     OW39253   2.614   0.182   7.684  0.3637 -0.1452 -0.3528
 9265SOL    HW139254   2.538   0.186   7.626 -0.9336 -0.6313  1.2949
 9265SOL    HW239255   2.687   0.219   7.635  0.1938  0.7271  0.0398
 9266SOL     OW39256   0.167   3.748   6.737 -0.4422  0.3947 -0.1472
 9266SOL    HW139257   0.081   3.769   6.700 -0.4272  0.0155 -0.4034
 9266SOL    HW239258   0.157   3.658   6.769  0.0367  0.5443  0.4311
 9267SOL     OW39259   3.647   3.955  10.727  0.6387  0.3063 -0.0290
 9267SOL    HW139260   3.719   4.001  10.685  0.5183  0.0091 -0.5583
 9267SOL    HW239261   3.584   4.022  10.754 -0.2299  0.0369 -1.3826
 9268SOL     OW39262   4.016   4.413   4.485  0.3966 -0.2509  0.2201
 9268SOL    HW139263   4.052   4.431   4.572  0.8391  0.1334 -0.0422
 9268SOL    HW239264   4.095   4.379   4.443  0.2463  0.4558 -0.6397
 9269SOL     OW39265   0.339   3.620   6.920  0.6793  0.2967  0.5357
 9269SOL    HW139266   0.337   3.689   6.853  0.3031 -0.0163  0.2216
 9269SOL    HW239267   0.375   3.552   6.863 -3.3512 -1.6391  0.2702
 9270SOL     OW39268   4.022   0.788   3.015 -0.1596  0.2227  0.2958
 9270SOL    HW139269   3.938   0.777   3.061 -0.3389 -2.3461 -0.6238
 9270SOL    HW239270   3.989   0.831   2.936  1.4767  1.5195  0.3348
 9271SOL     OW39271   1.457   4.327   2.128 -0.2377 -0.1445 -0.1024
 9271SOL    HW139272   1.377   4.364   2.093 -0.6117  1.0248  1.9849
 9271SOL    HW239273   1.480   4.391   2.195 -0.4701  2.5971 -2.6645
 9272SOL     OW39274   2.335   1.079  16.983 -0.4053 -0.3125 -0.0636
 9272SOL    HW139275   2.281   1.047  16.910 -0.3399 -2.4797  0.8367
 9272SOL    HW239276   2.412   1.112  16.937  0.1399 -0.2893  0.8679
 9273SOL     OW39277   3.374   1.402  11.482  0.2318  0.2935 -0.0565
 9273SOL    HW139278   3.443   1.358  11.433 -1.2444 -2.9729  0.7781
 9273SOL    HW239279   3.404   1.492  11.493 -0.8196  0.3916  1.9653
 9274SOL     OW39280   2.551   2.300  16.123 -0.6445  0.0207  0.4235
 9274SOL    HW139281   2.475   2.245  16.142  0.1164 -1.3670 -0.5493
 9274SOL    HW239282   2.514   2.387  16.132 -2.4843 -0.3603 -3.1731
 9275SOL     OW39283   1.289   2.785   9.089 -0.0616 -0.0631  0.4472
 9275SOL    HW139284   1.377   2.778   9.051  0.0001  0.9548  0.3922
 9275SOL    HW239285   1.300   2.768   9.182  0.5852 -2.1098 -0.0018
 9276SOL     OW39286   3.518   1.677   7.022 -0.1362 -0.4886 -0.1485
 9276SOL    HW139287   3.504   1.607   7.085 -3.5942  0.3050 -0.0765
 9276SOL    HW239288   3.440   1.668   6.968  0.3968 -3.7558 -0.3630
 9277SOL     OW39289   1.722   1.024   6.484 -0.9307  0.0846  0.2021
 9277SOL    HW139290   1.814   1.039   6.460 -0.7744 -0.9433  0.1386
 9277SOL    HW239291   1.730   1.015   6.579 -1.2106  0.4474  0.2556
 9278SOL     OW39292   1.431   3.289  17.499  0.3718  0.2051  0.0795
 9278SOL    HW139293   1.484   3.334  17.434 -0.9623 -0.1404 -1.2518
 9278SOL    HW239294   1.490   3.232  17.547 -1.1380 -1.5125 -0.0882
 9279SOL     OW39295   4.022   0.794   4.773 -0.1910  0.1946  0.2465
 9279SOL    HW139296   3.996   0.747   4.852 -1.9851 -1.4860 -1.3401
 9279SOL    HW239297   3.970   0.745   4.710 -0.2328  1.9851 -1.0923
 9280SOL     OW39298   1.560   3.633   3.982 -1.1598 -0.6287  0.5781
 9280SOL    HW139299   1.499   3.706   3.991 -2.2751 -1.3608 -0.9084
 9280SOL    HW239300   1.538   3.614   3.891  0.6160  2.0692 -0.4093
 9281SOL     OW39301   2.291   3.933   5.743 -0.0115 -0.5144 -0.8996
 9281SOL    HW139302   2.325   3.871   5.807 -0.8532 -1.1247 -1.0478
 9281SOL    HW239303   2.345   3.902   5.670 -1.8883 -1.4498 -1.8879
 9282SOL     OW39304   1.298   2.283   4.673  0.6777 -0.3521  0.2686
 9282SOL    HW139305   1.385   2.253   4.647 -0.6010 -2.6967 -1.3082
 9282SOL    HW239306   1.304   2.369   4.633 -0.5385 -0.0441  0.7645
 9283SOL     OW39307   0.717   0.760   2.700 -0.3113  0.5734 -0.0390
 9283SOL    HW139308   0.806   0.774   2.735 -0.1851 -0.5621  0.0977
 9283SOL    HW239309   0.685   0.735   2.787 -0.7180  1.5697  0.0974
 9284SOL     OW39310   2.137   1.976   0.863  0.7241 -0.3017 -0.3402
 9284SOL    HW139311   2.211   1.948   0.809  1.7266 -1.4276  1.6330
 9284SOL    HW239312   2.179   2.008   0.942  0.1781  0.5822 -0.4071
 9285SOL     OW39313   3.177   4.036  14.369 -0.0326  0.4853 -0.0138
 9285SOL    HW139314   3.146   4.124  14.346 -1.5169  0.9246  3.6387
 9285SOL    HW239315   3.192   3.995  14.284 -1.3385  0.9346 -0.4609
 9286SOL     OW39316   1.820   3.918  11.867 -0.1415 -0.1378  0.0429
 9286SOL    HW139317   1.826   3.841  11.923  0.4187 -0.5270 -0.5560
 9286SOL    HW239318   1.906   3.953  11.889  0.5836  0.1905 -3.3548
 9287SOL     OW39319   2.380   2.305   8.142 -0.1793  0.0792  0.1235
 9287SOL    HW139320   2.465   2.269   8.165 -0.3307 -0.2858  0.1013
 9287SOL    HW239321   2.402   2.387   8.098 -0.1427 -0.8625 -1.6121
 9288SOL     OW39322   2.919   2.181   2.737 -0.0414 -0.2306 -0.5998
 9288SOL    HW139323   2.870   2.218   2.663  0.7458  0.4957 -0.7515
 9288SOL    HW239324   2.953   2.254   2.787  0.5652 -1.8706  1.3753
 9289SOL     OW39325   1.886   2.594   3.466  0.0458  0.3730 -0.1471
 9289SOL    HW139326   1.947   2.549   3.524 -0.8718 -0.0458  0.4848
 9289SOL    HW239327   1.829   2.650   3.519  0.9073 -1.3603  2.6138
 9290SOL     OW39328   3.059   1.798   1.916  0.2697  0.0529 -0.5566
 9290SOL    HW139329   3.135   1.741   1.905  0.6062  0.1376  1.2881
 9290SOL    HW239330   3.016   1.780   1.832  2.3075 -2.8123 -0.9793
 9291SOL     OW39331   1.469   3.113   4.371  0.1381  0.2573  0.4994
 9291SOL    HW139332   1.477   3.193   4.319 -1.0870 -1.0190 -1.6646
 9291SOL    HW239333   1.521   3.055   4.315  3.6525  3.4665  0.4653
 9292SOL     OW39334   3.089   1.393   6.492 -0.6502  0.1236  0.1222
 9292SOL    HW139335   3.030   1.417   6.420  2.4941  0.7152 -2.2567
 9292SOL    HW239336   3.170   1.426   6.453 -0.6277  0.0868  0.1380
 9293SOL     OW39337   4.436   1.960   2.897 -0.1965 -0.4571 -0.3652
 9293SOL    HW139338   4.466   2.021   2.964  0.7294 -1.1523 -0.1514
 9293SOL    HW239339   4.520   1.925   2.868 -0.7459 -1.0884 -1.1989
 9294SOL     OW39340   4.119   1.285  13.993 -0.2807 -0.4556  0.4198
 9294SOL    HW139341   4.068   1.308  14.070 -0.3731 -1.1853  0.5695
 9294SOL    HW239342   4.081   1.204  13.962  3.2711 -1.6715 -0.7853
 9295SOL     OW39343   1.767   2.835  17.013 -0.2672 -0.2917  0.4412
 9295SOL    HW139344   1.771   2.920  16.970 -0.9409 -0.7459 -0.5398
 9295SOL    HW239345   1.841   2.842  17.073  2.7753 -1.7924 -3.1851
 9296SOL     OW39346   1.815   1.393   6.203 -0.1069  0.4576 -0.3152
 9296SOL    HW139347   1.892   1.363   6.155 -0.6671 -0.5451 -0.5887
 9296SOL    HW239348   1.849   1.469   6.249 -3.0763  0.9963  0.9749
 9297SOL     OW39349   1.285   3.230   4.101  0.1845  0.0502  0.3345
 9297SOL    HW139350   1.266   3.194   4.188  0.0276 -0.1092  0.2350
 9297SOL    HW239351   1.286   3.324   4.118 -0.2405  0.0127  0.5718
 9298SOL     OW39352   2.032   3.424  13.613 -0.1731  0.7674 -0.1581
 9298SOL    HW139353   1.982   3.373  13.549  1.4230 -0.0265 -0.7867
 9298SOL    HW239354   2.100   3.460  13.556 -1.0765  0.2295 -1.5778
 9299SOL     OW39355   3.249   4.336   4.987 -0.9363 -0.1753 -0.6187
 9299SOL    HW139356   3.245   4.264   4.924 -0.2815 -1.6333  0.9993
 9299SOL    HW239357   3.205   4.402   4.933  0.5191  2.6036  1.6244
 9300SOL     OW39358   3.852   1.221   6.179 -0.2122 -0.6960  0.5905
 9300SOL    HW139359   3.760   1.195   6.186 -0.4633  0.2720  1.0176
 9300SOL    HW239360   3.880   1.202   6.268 -2.9373  0.0743  1.6072
 9301SOL     OW39361   0.771   0.245   4.927  0.2748  0.1968  0.2048
 9301SOL    HW139362   0.683   0.210   4.915  1.1907 -1.9540 -0.2794
 9301SOL    HW239363   0.763   0.341   4.926 -1.7937  0.0311  0.6545
 9302SOL     OW39364   4.234   1.414   4.734 -0.2884  0.3158  0.0141
 9302SOL    HW139365   4.304   1.471   4.701 -1.9040  1.4715 -1.4435
 9302SOL    HW239366   4.293   1.339   4.735 -0.1492  0.4270  0.2323
 9303SOL     OW39367   4.125   2.385  12.450  0.7408  0.8282 -0.0668
 9303SOL    HW139368   4.088   2.369  12.536  0.2038 -0.4087 -0.5343
 9303SOL    HW239369   4.171   2.307  12.420 -1.2086  0.6803 -2.8030
 9304SOL     OW39370   4.681   2.204   2.609  0.1648 -0.0098 -0.3674
 9304SOL    HW139371   0.024   2.133   2.618  1.7169  1.3899 -0.4185
 9304SOL    HW239372   4.615   2.152   2.564  0.1474  1.0085 -1.5189
 9305SOL     OW39373   3.750   4.285  12.513 -0.1857 -0.4687  0.0906
 9305SOL    HW139374   3.835   4.284  12.471 -0.2337 -1.4685  0.0178
 9305SOL    HW239375   3.769   4.308  12.604  1.1412 -1.6307  0.1002
 9306SOL     OW39376   1.007   3.034  13.027  0.0627  0.1456  0.4868
 9306SOL    HW139377   1.030   3.126  13.024 -2.0681  0.6820  0.6421
 9306SOL    HW239378   0.912   3.033  13.035 -0.2004  2.8385 -2.3588
 9307SOL     OW39379   0.495   1.688   1.709  0.0261  0.2187  0.2390
 9307SOL    HW139380   0.447   1.609   1.733  0.1424  1.5293  4.6532
 9307SOL    HW239381   0.490   1.683   1.613 -0.2425 -3.4694  0.4679
 9308SOL     OW39382   4.203   2.134   3.680  0.1817 -0.1793 -0.1631
 9308SOL    HW139383   4.163   2.145   3.594 -1.1973 -2.0413  0.2541
 9308SOL    HW239384   4.248   2.050   3.669  0.2171 -0.3746  1.5069
 9309SOL     OW39385   2.992   0.747   9.709  0.0267  0.5433 -0.4318
 9309SOL    HW139386   2.923   0.813   9.721 -0.3408  0.3105 -1.2742
 9309SOL    HW239387   3.021   0.763   9.620 -0.4752  1.2725 -0.4650
 9310SOL     OW39388   3.058   2.860   4.040 -0.0399  0.2442 -0.2625
 9310SOL    HW139389   3.102   2.783   4.003 -1.1773 -0.6610  0.2543
 9310SOL    HW239390   3.113   2.938   4.031 -0.8494  1.1378  2.5943
 9311SOL     OW39391   2.531   3.937   4.614 -0.2216  0.5169 -0.0350
 9311SOL    HW139392   2.495   3.958   4.700  1.3350 -0.8073  0.9394
 9311SOL    HW239393   2.501   3.847   4.599  0.5004  0.2627  0.0710
 9312SOL     OW39394   1.031   2.391   3.977  0.0803 -0.3475 -0.0687
 9312SOL    HW139395   1.048   2.435   3.894  0.1536  1.1290  0.7189
 9312SOL    HW239396   0.986   2.462   4.023 -0.5539 -0.4891 -0.4657
 9313SOL     OW39397   1.745   4.626   7.816  0.1322 -0.5329  0.2510
 9313SOL    HW139398   1.783   4.580   7.891 -2.4330 -1.9219  0.7153
 9313SOL    HW239399   1.650   4.620   7.832  0.1221  1.3384  0.9549
 9314SOL     OW39400   1.952   4.033   2.131  0.6913 -0.5716  0.5589
 9314SOL    HW139401   1.976   4.117   2.169  2.0567  0.1130 -1.8245
 9314SOL    HW239402   1.871   4.016   2.179  0.7718 -2.3354  0.0862
 9315SOL     OW39403   0.703   1.885  13.881 -0.2637 -0.1919  0.5117
 9315SOL    HW139404   0.728   1.977  13.880 -0.1542 -0.2226  0.4875
 9315SOL    HW239405   0.772   1.834  13.923  0.0672  0.1199  0.3398
 9316SOL     OW39406   0.488   4.445  13.961 -0.6265  0.0654 -0.2413
 9316SOL    HW139407   0.555   4.377  13.953 -0.1186  0.2965  2.2318
 9316SOL    HW239408   0.405   4.399  13.950 -1.3653  1.3618 -0.1754
 9317SOL     OW39409   2.939   3.179   2.478 -0.4854  0.6394 -0.2901
 9317SOL    HW139410   2.962   3.262   2.436  0.4955  0.5323  0.0448
 9317SOL    HW239411   2.952   3.195   2.571 -0.8476 -0.5143 -0.0414
 9318SOL     OW39412   0.808   2.922   5.300 -0.4543  0.8171 -0.2261
 9318SOL    HW139413   0.800   2.915   5.395 -2.6749  2.0118 -0.3302
 9318SOL    HW239414   0.765   2.845   5.263  0.3185  0.6001 -0.6831
 9319SOL     OW39415   1.726   1.193   9.654 -0.3706  0.3455  0.1505
 9319SOL    HW139416   1.720   1.145   9.572  0.7305 -0.9177  0.7970
 9319SOL    HW239417   1.820   1.201   9.671 -0.0123 -1.3558 -1.0233
 9320SOL     OW39418   2.503   0.358   0.474 -0.2748 -0.7719 -0.9435
 9320SOL    HW139419   2.518   0.423   0.405 -0.1620  0.9330  0.6953
 9320SOL    HW239420   2.543   0.276   0.444  1.6063 -0.7075  1.4449
 9321SOL     OW39421   3.847   0.207   3.807  0.2492 -0.8992  0.7045
 9321SOL    HW139422   3.830   0.171   3.720  1.3299  1.2961 -0.4011
 9321SOL    HW239423   3.806   0.147   3.869  3.9077 -1.5231  2.5266
 9322SOL     OW39424   1.989   4.077   0.519 -0.1714  0.1021 -0.3503
 9322SOL    HW139425   2.027   4.055   0.435 -0.5001 -0.8045 -0.2653
 9322SOL    HW239426   1.933   4.002   0.538  0.1713  0.4253  1.9527
 9323SOL     OW39427   0.348   3.222   8.571  0.0289 -0.2633 -0.4307
 9323SOL    HW139428   0.363   3.316   8.581 -1.1238 -0.0473 -0.7189
 9323SOL    HW239429   0.273   3.212   8.629 -0.1657  1.2770 -0.4015
 9324SOL     OW39430   0.610   2.185   1.932  0.3313 -0.5163 -0.4010
 9324SOL    HW139431   0.553   2.253   1.896 -0.9766 -0.5454  1.5921
 9324SOL    HW239432   0.580   2.103   1.894 -0.7330 -0.4099  0.1881
 9325SOL     OW39433   4.058   1.178   6.957 -0.4436  0.4176  0.1175
 9325SOL    HW139434   4.150   1.190   6.934 -0.5481  3.2272  1.2448
 9325SOL    HW239435   4.066   1.240   7.029  1.3144  0.0363  0.2443
 9326SOL     OW39436   3.465   2.348  17.625  0.2419 -0.9063  0.7435
 9326SOL    HW139437   3.542   2.362  17.570 -0.7248 -1.2603 -0.7164
 9326SOL    HW239438   3.501   2.313   0.018 -0.7044 -3.0948  0.2080
 9327SOL     OW39439   4.226   1.477   3.746  0.0770 -0.5727  0.8121
 9327SOL    HW139440   4.316   1.467   3.715  0.2304 -0.7378  1.3184
 9327SOL    HW239441   4.194   1.547   3.688  0.9987 -0.0502  0.9453
 9328SOL     OW39442   1.264   3.363   6.046 -0.5702  0.4562  0.8502
 9328SOL    HW139443   1.320   3.331   5.975  0.0462  2.3233  0.4860
 9328SOL    HW239444   1.256   3.290   6.107  2.0049 -1.0064 -0.5359
 9329SOL     OW39445   0.303   4.253  10.497  0.0747 -0.0862 -0.1128
 9329SOL    HW139446   0.346   4.329  10.537  0.4118 -0.1352 -0.3779
 9329SOL    HW239447   0.217   4.281  10.465 -0.1222 -0.7954 -0.1952
 9330SOL     OW39448   1.924   0.013   5.687 -0.2422  0.0158 -0.0078
 9330SOL    HW139449   1.953   0.060   5.765 -0.9162  0.7072 -0.1664
 9330SOL    HW239450   2.005   4.704   5.646 -0.3455  1.6061 -1.3802
 9331SOL     OW39451   3.859   0.304   9.952 -0.0027 -0.7171  0.5956
 9331SOL    HW139452   3.801   0.375   9.980 -0.4163  0.1759 -2.5648
 9331SOL    HW239453   3.798   0.261   9.893 -1.5302  1.1770  0.7823
 9332SOL     OW39454   4.394   2.450   6.100  0.1502  0.1302 -0.2517
 9332SOL    HW139455   4.381   2.509   6.175 -1.5074  0.5642 -0.8791
 9332SOL    HW239456   4.405   2.508   6.025 -0.2499  0.1869 -0.2671
 9333SOL     OW39457   0.062   0.146   3.771  0.3610 -0.2898  0.1342
 9333SOL    HW139458   0.089   0.224   3.818  1.5529 -1.2929  1.1151
 9333SOL    HW239459   0.031   0.181   3.687 -1.0617 -1.6323  0.0897
 9334SOL     OW39460   4.545   3.594   3.753 -0.4112  0.3450 -0.6515
 9334SOL    HW139461   4.459   3.570   3.788 -0.5861  0.8568 -0.7308
 9334SOL    HW239462   4.568   3.679   3.792 -2.2514  0.7485 -0.4257
 9335SOL     OW39463   3.852   1.181   6.718 -0.6428  0.3703  0.1678
 9335SOL    HW139464   3.889   1.148   6.800  0.6915  1.6021  0.0657
 9335SOL    HW239465   3.781   1.242   6.736 -0.8476  0.6487 -1.6144
 9336SOL     OW39466   3.908   3.822  11.184 -0.3480 -1.0162  0.4087
 9336SOL    HW139467   3.860   3.829  11.102 -2.1481  0.4749  1.5958
 9336SOL    HW239468   3.934   3.913  11.195 -1.1212 -0.6448 -0.9020
 9337SOL     OW39469   4.020   1.129  12.494  0.1810 -0.6298  0.3892
 9337SOL    HW139470   3.983   1.094  12.575  1.9305 -3.3677  0.0128
 9337SOL    HW239471   3.957   1.200  12.482 -2.0137 -2.6231  0.1485
 9338SOL     OW39472   0.852   1.442   9.147 -0.1393 -0.5546 -0.0933
 9338SOL    HW139473   0.845   1.515   9.208  1.9715 -1.4143  1.1953
 9338SOL    HW239474   0.837   1.484   9.062 -2.7268  0.2798  0.8029
 9339SOL     OW39475   1.821   2.259   8.532  0.2347  0.3574 -0.3379
 9339SOL    HW139476   1.758   2.331   8.539  0.0814  0.2080 -0.1873
 9339SOL    HW239477   1.859   2.262   8.620  3.1881  1.8427 -1.6671
 9340SOL     OW39478   4.112   1.990  16.194  0.1499  0.0410  0.6718
 9340SOL    HW139479   4.025   2.029  16.187  1.5880  2.6182 -2.7655
 9340SOL    HW239480   4.100   1.902  16.160 -0.9164  0.7367 -0.7214
 9341SOL     OW39481   4.213   3.616   5.518  0.1528 -0.2676  0.0138
 9341SOL    HW139482   4.244   3.702   5.546  2.3182 -1.0534  0.0496
 9341SOL    HW239483   4.214   3.624   5.423 -0.1528 -1.1136 -0.0619
 9342SOL     OW39484   2.578   0.474  11.511 -0.5500  0.4939  0.0110
 9342SOL    HW139485   2.644   0.406  11.526  0.0587  1.0646 -0.0764
 9342SOL    HW239486   2.567   0.476  11.416  0.9990 -1.0843 -0.2100
 9343SOL     OW39487   4.250   4.325   7.823 -0.2823 -0.1312 -0.0893
 9343SOL    HW139488   4.232   4.312   7.917 -0.8894  0.5844 -0.1048
 9343SOL    HW239489   4.255   4.234   7.793  0.1024 -0.5851  1.3145
 9344SOL     OW39490   1.986   0.257   3.487  0.1885  0.2441  0.1578
 9344SOL    HW139491   1.950   0.332   3.439 -1.4044 -0.8569 -0.3637
 9344SOL    HW239492   1.921   0.260   3.558 -0.9788 -1.9729 -0.8230
 9345SOL     OW39493   3.535   0.366   3.124  0.1484  0.0885 -0.3093
 9345SOL    HW139494   3.536   0.430   3.195  1.8491 -1.5737  1.1824
 9345SOL    HW239495   3.480   0.301   3.169  0.7193 -1.4323 -1.7821
 9346SOL     OW39496   0.844   0.300   3.193 -0.2533  0.6415  0.1907
 9346SOL    HW139497   0.912   0.314   3.259  0.1921  2.4301 -0.6421
 9346SOL    HW239498   0.821   0.212   3.221 -0.4627 -0.6901 -4.1406
 9347SOL     OW39499   0.715   1.952   8.841 -0.2510  0.0213 -0.3816
 9347SOL    HW139500   0.807   1.946   8.813  0.6339 -2.7889  2.9813
 9347SOL    HW239501   0.667   1.989   8.768  0.3124 -1.2051 -1.3869
 9348SOL     OW39502   2.028   1.610   5.008 -0.3669  0.0574  0.0378
 9348SOL    HW139503   1.945   1.657   5.020 -1.1826 -1.4341  0.2289
 9348SOL    HW239504   2.061   1.633   5.095  3.0035 -0.4465 -1.1052
 9349SOL     OW39505   3.421   3.231   3.785  0.6464 -0.2950 -0.0713
 9349SOL    HW139506   3.412   3.294   3.713  0.2272  0.4821  0.6668
 9349SOL    HW239507   3.463   3.160   3.736 -0.5518 -1.6831  0.9037
 9350SOL     OW39508   3.865   2.331  16.013  0.5136  0.2721  0.0409
 9350SOL    HW139509   3.951   2.296  15.993  0.7241  1.3481 -0.9309
 9350SOL    HW239510   3.826   2.313  15.927  2.2228 -0.2807 -0.5999
 9351SOL     OW39511   1.798   2.037  17.347  1.1058  0.1896  0.0621
 9351SOL    HW139512   1.869   2.039  17.411  1.8975  1.1437 -0.8395
 9351SOL    HW239513   1.752   2.121  17.352 -2.2266 -1.7469  1.6239
 9352SOL     OW39514   3.404   3.268  13.273  0.0621 -0.3580  0.4914
 9352SOL    HW139515   3.417   3.204  13.343  1.3161  0.3507  0.9174
 9352SOL    HW239516   3.378   3.348  13.319 -1.9324 -1.3260  1.0504
 9353SOL     OW39517   3.355   3.135  13.792 -0.0481  0.1266 -0.2148
 9353SOL    HW139518   3.372   3.225  13.821 -0.2929  0.1366 -0.1029
 9353SOL    HW239519   3.278   3.108  13.843  1.0868  1.3268  2.1337
 9354SOL     OW39520   0.423   2.419  17.288 -0.3686  0.3479  0.0093
 9354SOL    HW139521   0.399   2.439  17.197  2.3288  1.9491 -0.3550
 9354SOL    HW239522   0.365   2.345  17.307  0.4713 -0.0774  0.8745
 9355SOL     OW39523   3.294   3.311   4.857 -0.3935 -0.0092 -0.3992
 9355SOL    HW139524   3.363   3.363   4.898 -0.9513  0.8090 -0.4798
 9355SOL    HW239525   3.239   3.383   4.825  3.0381  2.3810 -0.9220
 9356SOL     OW39526   1.178   2.877   5.754 -0.2005  0.2029 -0.5495
 9356SOL    HW139527   1.181   2.785   5.725 -1.4080 -0.8752  2.7765
 9356SOL    HW239528   1.204   2.871   5.845  0.0235  0.6326 -0.5887
 9357SOL     OW39529   0.999   0.201   6.872 -0.2657  0.4571  0.9255
 9357SOL    HW139530   0.919   0.151   6.891 -0.1701 -0.0662 -0.0423
 9357SOL    HW239531   1.056   0.133   6.837  0.1123 -0.0047  2.4148
 9358SOL     OW39532   3.628   3.398  11.549  0.4179  0.2972 -0.2661
 9358SOL    HW139533   3.693   3.435  11.489  0.0359  2.1809  0.4922
 9358SOL    HW239534   3.558   3.463  11.549  0.1226 -0.0289  0.3683
 9359SOL     OW39535   0.950   3.569  11.540  0.0020 -0.1077  0.4820
 9359SOL    HW139536   1.005   3.647  11.533 -0.6201  0.6211  3.5272
 9359SOL    HW239537   0.956   3.553  11.634  0.0748 -0.9765  0.3321
 9360SOL     OW39538   0.763   3.332   9.725 -0.4394 -0.3660  0.5692
 9360SOL    HW139539   0.728   3.306   9.640 -1.4638  2.9053 -0.0054
 9360SOL    HW239540   0.730   3.264   9.783 -1.1356 -0.7573 -0.2911
 9361SOL     OW39541   0.537   3.250   2.738 -0.2818 -0.1167 -0.5065
 9361SOL    HW139542   0.455   3.253   2.788  1.0080  1.2366  1.5411
 9361SOL    HW239543   0.510   3.252   2.646 -2.0614 -1.7839 -0.0274
 9362SOL     OW39544   2.388   0.743   0.162  0.4552 -0.9649 -0.4751
 9362SOL    HW139545   2.439   0.689   0.101  2.4524 -0.8415  1.0565
 9362SOL    HW239546   2.461   0.790   0.203 -1.2091 -0.2494  1.6045
 9363SOL     OW39547   4.584   3.123   8.441 -0.2285  0.5752  0.2800
 9363SOL    HW139548   4.612   3.040   8.403  0.3447  0.7280  0.3780
 9363SOL    HW239549   4.649   3.182   8.403 -0.0996  0.7896  0.8215
 9364SOL     OW39550   3.796   1.686   8.167 -0.0285 -0.0615  0.3887
 9364SOL    HW139551   3.762   1.615   8.114  1.3997 -1.2679  1.1012
 9364SOL    HW239552   3.887   1.674   8.193  0.3232  0.0343 -0.8076
 9365SOL     OW39553   2.201   2.622  16.942  0.2856  0.6442 -1.5291
 9365SOL    HW139554   2.229   2.707  16.909  1.2518  1.6340  1.8208
 9365SOL    HW239555   2.106   2.634  16.946  0.0079 -1.5682 -1.4662
 9366SOL     OW39556   0.643   4.672  15.751  0.1308  0.5881  0.2706
 9366SOL    HW139557   0.700   4.609  15.707  0.7912  0.8936  0.6908
 9366SOL    HW239558   0.617   4.603  15.812  0.3885  0.0305 -0.2449
 9367SOL     OW39559   0.952   1.354   5.856  0.2086 -0.0301 -0.0293
 9367SOL    HW139560   0.963   1.414   5.783 -0.7314  1.3257  0.9347
 9367SOL    HW239561   0.947   1.417   5.928 -0.2022 -1.5648  1.2788
 9368SOL     OW39562   4.609   0.162  13.592 -0.4352 -0.2543 -0.0821
 9368SOL    HW139563   4.534   0.110  13.621 -0.3951 -1.0532 -1.3863
 9368SOL    HW239564   4.679   0.125  13.645 -0.7725 -0.9675 -0.1305
 9369SOL     OW39565   4.483   1.710  11.318  0.3030 -0.4851 -0.0895
 9369SOL    HW139566   4.546   1.779  11.336 -1.1679  0.3146  1.9747
 9369SOL    HW239567   4.474   1.720  11.223  2.1368 -0.5343 -0.2755
 9370SOL     OW39568   3.429   1.079  17.265 -0.1728  0.2361 -0.0274
 9370SOL    HW139569   3.375   1.118  17.333  0.6515  1.3294 -0.0066
 9370SOL    HW239570   3.495   1.148  17.258 -2.1590  1.8884 -2.5023
 9371SOL     OW39571   4.574   4.063   8.848  0.2872  0.6340  0.1696
 9371SOL    HW139572   4.552   3.971   8.861 -2.5730  1.1816 -0.5790
 9371SOL    HW239573   4.662   4.063   8.884 -0.0209 -0.2992  0.9412
 9372SOL     OW39574   0.796   3.154   0.640 -0.4160 -0.7718 -0.1124
 9372SOL    HW139575   0.709   3.189   0.624  0.4414  1.8338  0.9630
 9372SOL    HW239576   0.775   3.062   0.623 -1.2169 -0.1828 -2.2038
 9373SOL     OW39577   1.248   3.839   1.386  0.7246  0.1692 -0.0321
 9373SOL    HW139578   1.156   3.864   1.398  0.5881 -0.9963  1.4232
 9373SOL    HW239579   1.283   3.927   1.375 -2.2475  1.2453 -1.0703
 9374SOL     OW39580   0.478   2.587   2.132 -0.3178  0.3118  0.0919
 9374SOL    HW139581   0.466   2.539   2.214  0.6174  0.7861  0.5206
 9374SOL    HW239582   0.459   2.515   2.073  2.7791 -1.9765  1.8604
 9375SOL     OW39583   2.518   2.812   8.502 -0.0870 -0.6107 -0.3352
 9375SOL    HW139584   2.485   2.902   8.500  0.6543 -0.2528  2.3473
 9375SOL    HW239585   2.439   2.762   8.519  0.4069 -1.6051 -0.9301
 9376SOL     OW39586   1.010   1.268   5.174  0.0401 -0.4460  0.3561
 9376SOL    HW139587   0.981   1.357   5.159  0.4896  0.3076  4.0743
 9376SOL    HW239588   0.929   1.220   5.191  0.6719 -1.2374  1.1533
 9377SOL     OW39589   1.355   3.951   0.023  0.0438  0.5514  0.0756
 9377SOL    HW139590   1.450   3.959   0.033  0.1294  0.9850 -1.1134
 9377SOL    HW239591   1.326   4.025   0.076 -1.5115  1.7246 -2.4246
 9378SOL     OW39592   3.193   4.034  15.611 -0.0699 -0.3235  0.1753
 9378SOL    HW139593   3.251   4.043  15.687 -0.3587  2.7062  0.0392
 9378SOL    HW239594   3.168   3.942  15.605 -1.6992  0.0980  0.5596
 9379SOL     OW39595   4.481   4.631   7.191  0.5212 -0.3855 -0.2729
 9379SOL    HW139596   4.402   4.579   7.206  1.0556 -1.1798 -0.2001
 9379SOL    HW239597   4.469   4.654   7.099  2.5091 -1.2871 -0.7520
 9380SOL     OW39598   0.990   2.680   0.077  0.3348  0.9268 -0.0866
 9380SOL    HW139599   0.923   2.638   0.131 -0.7093  3.0814  0.2750
 9380SOL    HW239600   1.039   2.599   0.060 -2.0043 -0.6102  0.5045
 9381SOL     OW39601   3.874   2.229   4.838  0.3379 -0.2503 -0.1594
 9381SOL    HW139602   3.861   2.134   4.838 -0.2387 -0.1748  1.0866
 9381SOL    HW239603   3.784   2.255   4.860  1.1190  1.3314  1.1206
 9382SOL     OW39604   4.624   3.643  14.584 -0.0344  0.1699 -0.5000
 9382SOL    HW139605   4.630   3.593  14.665 -4.0541  1.1497  0.4113
 9382SOL    HW239606   4.548   3.602  14.542 -0.2200 -2.0619  2.0759
 9383SOL     OW39607   1.773   4.448   8.005  0.1055 -0.8691 -0.1389
 9383SOL    HW139608   1.823   4.478   8.081  1.3314 -0.3168 -1.1514
 9383SOL    HW239609   1.712   4.387   8.045 -0.7088 -0.6944 -1.1311
 9384SOL     OW39610   0.890   4.493  14.007 -0.5056 -0.0757 -0.4451
 9384SOL    HW139611   0.972   4.456  13.973  0.6840  1.4058  0.7872
 9384SOL    HW239612   0.873   4.553  13.934 -2.4976 -0.0346  0.0449
 9385SOL     OW39613   4.669   0.047   5.602 -0.5267 -0.4495 -0.6694
 9385SOL    HW139614   4.582   0.088   5.601 -0.8258 -1.0345  1.6430
 9385SOL    HW239615   4.711   0.107   5.663  0.8801 -1.4349 -0.6816
 9386SOL     OW39616   1.861   4.037   6.982 -0.2390 -0.0332  0.0893
 9386SOL    HW139617   1.799   3.980   7.026  1.8397  0.0809  3.1591
 9386SOL    HW239618   1.930   4.041   7.049  1.3668 -1.8086 -1.4379
 9387SOL     OW39619   3.500   0.214  15.926  0.3527 -0.0162  0.7551
 9387SOL    HW139620   3.408   0.240  15.931  0.4089  0.3674 -0.4162
 9387SOL    HW239621   3.528   0.298  15.960 -3.0389  1.6713 -0.6233
 9388SOL     OW39622   3.144   3.712   8.641 -0.4985  0.3361 -0.4669
 9388SOL    HW139623   3.172   3.785   8.585  0.7664 -0.6873 -1.1731
 9388SOL    HW239624   3.052   3.733   8.656 -0.3429  1.3762 -0.9694
 9389SOL     OW39625   2.361   4.633   6.925 -0.0166 -0.2861  0.8076
 9389SOL    HW139626   2.321   4.692   6.989 -0.8561  2.1009 -1.8753
 9389SOL    HW239627   2.290   4.630   6.860  1.7453 -1.3456 -1.0734
 9390SOL     OW39628   3.017   2.432  12.987 -0.0555  0.2695 -0.2276
 9390SOL    HW139629   2.975   2.511  12.954  1.2396  1.2255  0.3789
 9390SOL    HW239630   3.007   2.449  13.081 -1.4734 -0.7411 -0.1978
 9391SOL     OW39631   3.132   4.556   7.387  0.0804  0.1607 -0.4439
 9391SOL    HW139632   3.147   4.484   7.448  0.8506 -0.1022 -0.9461
 9391SOL    HW239633   3.196   4.545   7.316  0.3367  1.6849 -0.4467
 9392SOL     OW39634   1.479   2.016   3.864 -0.1216 -0.2511 -0.3651
 9392SOL    HW139635   1.429   2.092   3.892  1.9046  0.7129  0.6072
 9392SOL    HW239636   1.463   2.029   3.770  0.7157  0.4530 -0.4062
 9393SOL     OW39637   4.363   3.503   4.342  0.1716 -0.0258 -0.2492
 9393SOL    HW139638   4.337   3.448   4.268 -0.1777  0.1315 -0.2426
 9393SOL    HW239639   4.456   3.483   4.343 -0.0067 -0.6890  1.8272
 9394SOL     OW39640   2.304   2.775  17.411  0.2086  0.6068  0.9125
 9394SOL    HW139641   2.213   2.805  17.403  0.7067  2.2842  1.5906
 9394SOL    HW239642   2.285   2.681  17.418  1.1559  0.1804 -2.4236
 9395SOL     OW39643   0.403   4.102   3.287 -0.0971  0.0592 -0.5375
 9395SOL    HW139644   0.340   4.042   3.327 -0.4515  0.2237 -0.8493
 9395SOL    HW239645   0.365   4.186   3.315 -0.7036 -0.0942 -0.8990
 9396SOL     OW39646   4.094   4.176   7.283  0.1230  0.0497 -0.4555
 9396SOL    HW139647   4.137   4.218   7.208 -1.0054  4.4187  1.3322
 9396SOL    HW239648   4.070   4.244   7.346 -0.5292 -0.5857 -0.0134
 9397SOL     OW39649   2.543   4.037   2.943 -0.6011  0.1946  0.2204
 9397SOL    HW139650   2.594   4.039   2.862 -0.8351  1.4702  0.1050
 9397SOL    HW239651   2.606   3.985   2.994 -0.1165  3.2425  2.7852
 9398SOL     OW39652   0.955   0.615  16.360  0.3408 -0.1704  0.0897
 9398SOL    HW139653   0.988   0.566  16.285  3.7290  0.1909  1.3100
 9398SOL    HW239654   0.864   0.609  16.332  0.3891  0.8335 -0.2713
 9399SOL     OW39655   3.530   2.575  13.130  0.3985  0.2907  0.1462
 9399SOL    HW139656   3.473   2.499  13.115  1.8361 -0.6135 -0.6894
 9399SOL    HW239657   3.488   2.616  13.206 -1.0917  0.7783 -0.9303
 9400SOL     OW39658   1.240   1.600   8.703 -0.2429 -0.5774 -0.1081
 9400SOL    HW139659   1.323   1.589   8.748  0.4077  1.0601 -0.8895
 9400SOL    HW239660   1.185   1.538   8.751 -0.3494 -1.2545 -1.1181
 9401SOL     OW39661   4.695   1.952   8.385  0.2143 -0.2567 -0.3032
 9401SOL    HW139662   4.630   1.935   8.317  1.5236 -1.6370 -1.1988
 9401SOL    HW239663   4.654   2.016   8.444  1.5728  2.9268 -2.7878
 9402SOL     OW39664   0.540   2.394  10.315 -0.5142 -0.6424 -0.1708
 9402SOL    HW139665   0.464   2.444  10.287  0.1106 -0.4945 -1.6165
 9402SOL    HW239666   0.561   2.443  10.395 -1.2912 -0.8528  0.1585
 9403SOL     OW39667   1.141   2.086  10.219 -0.8418 -0.1749 -0.1933
 9403SOL    HW139668   1.197   2.018  10.254  0.6148  2.0432  1.7477
 9403SOL    HW239669   1.057   2.044  10.239 -0.2744 -0.7840  0.8391
 9404SOL     OW39670   2.489   1.717  11.104  0.3526  0.4043 -0.1428
 9404SOL    HW139671   2.546   1.747  11.032  1.5053 -1.5439 -0.0450
 9404SOL    HW239672   2.465   1.803  11.138  1.1818  0.8324 -0.6275
 9405SOL     OW39673   3.182   4.609  16.603 -0.8391 -0.2118  0.2488
 9405SOL    HW139674   3.121   4.672  16.565 -2.1093 -3.4747 -3.1683
 9405SOL    HW239675   3.217   4.659  16.676 -2.2042  0.8980  0.1303
 9406SOL     OW39676   3.779   0.481   3.790  0.1985  0.0977  0.0173
 9406SOL    HW139677   3.792   0.388   3.809 -0.1193 -0.0052 -0.2910
 9406SOL    HW239678   3.731   0.504   3.870  3.4487 -0.4159  2.1561
 9407SOL     OW39679   4.321   4.127   9.120  0.1739 -0.0057  0.0397
 9407SOL    HW139680   4.327   4.055   9.183  0.0367  2.4826  2.8779
 9407SOL    HW239681   4.268   4.079   9.057 -1.3983  1.8850 -0.0928
 9408SOL     OW39682   4.406   0.493  17.229  0.7204  0.1135  0.0978
 9408SOL    HW139683   4.395   0.586  17.208  0.3197 -0.0153 -0.2679
 9408SOL    HW239684   4.328   0.481  17.283  1.3532 -0.4172  0.8917
 9409SOL     OW39685   0.897   3.193   8.195  0.1017  0.3757 -0.8827
 9409SOL    HW139686   0.831   3.260   8.213 -0.0197 -0.0116  0.1054
 9409SOL    HW239687   0.879   3.125   8.260  2.1487  0.2926 -0.3937
 9410SOL     OW39688   1.520   3.866  15.291 -0.4994  0.3167  0.2890
 9410SOL    HW139689   1.615   3.866  15.289 -0.5234  0.7860 -0.7322
 9410SOL    HW239690   1.507   3.821  15.374  0.3861 -1.5735 -0.5856
 9411SOL     OW39691   2.209   2.182  13.709 -0.0196  0.1786 -0.0227
 9411SOL    HW139692   2.114   2.179  13.700  0.1785 -1.1923 -1.5703
 9411SOL    HW239693   2.214   2.160  13.802 -0.4070  0.8571  0.1634
 9412SOL     OW39694   4.164   1.632   8.541 -0.3748  0.1615 -0.4840
 9412SOL    HW139695   4.152   1.558   8.601 -2.1924  1.1214  0.3443
 9412SOL    HW239696   4.234   1.682   8.584  1.2212 -1.8967 -0.6861
 9413SOL     OW39697   2.414   1.663   7.759 -0.6588  0.1895  0.0457
 9413SOL    HW139698   2.364   1.733   7.801  0.2416  0.3503  0.8534
 9413SOL    HW239699   2.493   1.708   7.727  1.0575 -2.7645  0.1492
 9414SOL     OW39700   4.221   1.501   8.790  0.2472 -0.0635  0.1458
 9414SOL    HW139701   4.126   1.501   8.806  0.4676  1.2477  1.4563
 9414SOL    HW239702   4.255   1.550   8.865 -0.5113 -0.7404  0.9291
 9415SOL     OW39703   3.986   1.915   8.371  0.5648 -0.1710 -0.1562
 9415SOL    HW139704   4.017   1.849   8.309 -0.6927 -0.0080 -0.9425
 9415SOL    HW239705   4.069   1.941   8.413  0.3598 -2.6084  1.7651
 9416SOL     OW39706   1.819   3.618  10.830 -0.4277  0.3182  0.5371
 9416SOL    HW139707   1.811   3.523  10.841 -0.7489  0.0818 -1.7196
 9416SOL    HW239708   1.726   3.641  10.818 -0.4324 -0.2728 -0.5497
 9417SOL     OW39709   4.247   2.092   5.538  0.1485 -0.3780 -0.2494
 9417SOL    HW139710   4.301   2.076   5.461  1.0950  1.5942  0.0128
 9417SOL    HW239711   4.285   2.179   5.552 -2.4028  1.0207 -1.8322
 9418SOL     OW39712   0.097   4.690  14.302  0.3847 -0.1534 -0.3775
 9418SOL    HW139713   0.193   4.685  14.301  0.3893  0.0947 -1.5854
 9418SOL    HW239714   0.077   4.654  14.215  2.6823 -0.4801 -0.7772
 9419SOL     OW39715   1.573   0.518  12.551 -0.0439  0.2302  0.0320
 9419SOL    HW139716   1.624   0.447  12.590  0.6139 -0.0691 -1.3718
 9419SOL    HW239717   1.637   0.559  12.493 -0.7034  1.2951  0.0380
 9420SOL     OW39718   1.237   2.888   6.035 -0.5019 -0.3287 -0.0055
 9420SOL    HW139719   1.309   2.843   6.080  0.8046 -1.1302 -2.8555
 9420SOL    HW239720   1.182   2.924   6.104  1.5058 -0.3267  1.5892
 9421SOL     OW39721   4.596   3.221   9.346 -0.2014  0.1119  0.4288
 9421SOL    HW139722   4.618   3.249   9.257  0.9038 -1.1353  0.3114
 9421SOL    HW239723   4.672   3.241   9.401  0.8992 -2.4315 -0.1717
 9422SOL     OW39724   2.987   4.445   4.854 -0.4230  0.0200 -0.4684
 9422SOL    HW139725   2.976   4.355   4.823 -0.4033  0.2565 -1.1612
 9422SOL    HW239726   2.951   4.490   4.777 -1.3539  1.8351  1.0398
 9423SOL     OW39727   3.744   2.348   5.963 -0.2920 -0.0804 -0.1742
 9423SOL    HW139728   3.812   2.415   5.959  0.5005 -0.8420  0.6705
 9423SOL    HW239729   3.750   2.318   6.053 -0.9753  4.0399  1.2284
 9424SOL     OW39730   4.383   2.329  10.990 -0.3377  0.0404 -0.0157
 9424SOL    HW139731   4.380   2.425  10.991 -2.4881 -0.0326  0.0275
 9424SOL    HW239732   4.415   2.301  10.904  0.0506 -1.0452  0.4834
 9425SOL     OW39733   0.573   3.827   9.019 -0.3288 -0.0458 -0.1132
 9425SOL    HW139734   0.575   3.800   8.927 -1.1961  1.7865 -0.6700
 9425SOL    HW239735   0.656   3.874   9.026 -0.6776  0.5739 -0.1796
 9426SOL     OW39736   3.185   4.559  15.356  0.2007  0.1094 -0.1386
 9426SOL    HW139737   3.229   4.507  15.423 -1.8706 -0.1046  1.0612
 9426SOL    HW239738   3.098   4.525  15.374  1.1794 -1.8095  0.9457
 9427SOL     OW39739   2.952   3.001  14.849 -0.2682 -0.0397 -0.8923
 9427SOL    HW139740   2.888   3.071  14.833  0.1884  0.6867  0.4243
 9427SOL    HW239741   2.926   2.944  14.777  1.4177 -0.9765 -0.7683
 9428SOL     OW39742   3.655   0.610   7.513  0.0319  0.3258 -0.3419
 9428SOL    HW139743   3.655   0.686   7.571  2.3962 -0.3137  0.4865
 9428SOL    HW239744   3.707   0.549   7.566 -0.3985  0.2521 -0.0019
 9429SOL     OW39745   0.843   3.098   0.912 -0.1815  0.0746  0.0249
 9429SOL    HW139746   0.816   3.091   0.821  0.3033 -0.9336 -0.0369
 9429SOL    HW239747   0.907   3.168   0.907  0.5708 -0.6236 -0.0983
 9430SOL     OW39748   0.227   1.263  13.992 -0.0499  0.2623 -0.2698
 9430SOL    HW139749   0.151   1.281  13.937  0.9105 -0.3944 -1.8229
 9430SOL    HW239750   0.248   1.352  14.021 -1.4248  1.6206 -3.4173
 9431SOL     OW39751   0.703   4.295  14.171  0.1948 -0.0025  0.2312
 9431SOL    HW139752   0.617   4.254  14.183 -0.0949  1.0940  1.9921
 9431SOL    HW239753   0.753   4.233  14.118 -0.5877 -0.3129 -0.1387
 9432SOL     OW39754   0.912   3.225   6.476  0.0585 -0.0669 -0.3625
 9432SOL    HW139755   0.937   3.140   6.511 -0.0268  1.1650  2.6783
 9432SOL    HW239756   0.841   3.197   6.419  0.0901 -2.8475  0.9840
 9433SOL     OW39757   3.269   1.132  16.791 -0.6802 -0.6445 -0.1077
 9433SOL    HW139758   3.209   1.116  16.718  0.2312 -0.5055 -0.8926
 9433SOL    HW239759   3.350   1.088  16.765 -1.2656 -1.6776 -0.1682
 9434SOL     OW39760   2.024   2.416   8.720 -0.1887  0.2871  0.0243
 9434SOL    HW139761   1.985   2.493   8.680 -0.6807  0.8517  1.6157
 9434SOL    HW239762   2.051   2.455   8.803  2.6922 -1.0707 -0.2696
 9435SOL     OW39763   4.605   2.946   6.329  0.8258  0.0248 -0.7166
 9435SOL    HW139764   4.658   2.866   6.333 -0.3451 -0.6566  1.4015
 9435SOL    HW239765   4.659   2.999   6.271 -2.4197  1.0975 -2.7723
 9436SOL     OW39766   3.660   1.613   5.537 -0.0860 -0.4212 -0.6558
 9436SOL    HW139767   3.588   1.599   5.599 -0.7914  1.2256 -1.0920
 9436SOL    HW239768   3.736   1.574   5.580  0.6761  1.0547 -0.6594
 9437SOL     OW39769   1.125   3.182  12.461 -0.2582  0.5089 -0.1232
 9437SOL    HW139770   1.064   3.249  12.489 -1.0756 -0.6179  0.7869
 9437SOL    HW239771   1.195   3.223  12.410 -1.0243  1.4611 -0.3993
 9438SOL     OW39772   1.452   4.047   0.303  0.5636  0.1389  0.3079
 9438SOL    HW139773   1.538   4.078   0.275  2.2180 -0.9899  4.0489
 9438SOL    HW239774   1.395   4.113   0.266  0.3042 -1.0069 -1.3181
 9439SOL     OW39775   1.874   1.791   6.540 -0.0036  0.1346  0.0312
 9439SOL    HW139776   1.855   1.869   6.487 -0.3254  0.6991  0.9868
 9439SOL    HW239777   1.951   1.826   6.585 -1.0304 -0.6323  2.3429
 9440SOL     OW39778   1.471   0.959   1.988 -0.4339 -0.0838 -0.0962
 9440SOL    HW139779   1.414   0.958   1.912 -1.8571 -2.1268  0.9963
 9440SOL    HW239780   1.525   0.883   1.967 -1.5657 -0.1532 -2.6812
 9441SOL     OW39781   0.249   2.065   0.204  0.0958  0.3719 -0.4218
 9441SOL    HW139782   0.266   2.157   0.186 -2.3696  1.0062  0.5017
 9441SOL    HW239783   0.244   2.029   0.115 -1.3792  2.9496 -1.3899
 9442SOL     OW39784   2.836   4.500  16.188 -0.0430  0.1553  0.8008
 9442SOL    HW139785   2.913   4.444  16.196 -0.5458 -0.4557  1.3155
 9442SOL    HW239786   2.826   4.534  16.277 -2.2890 -1.2520  1.0881
 9443SOL     OW39787   2.539   1.888  16.286  0.5626 -0.3982  0.1318
 9443SOL    HW139788   2.510   1.937  16.364 -2.6843 -2.0644 -0.0408
 9443SOL    HW239789   2.533   1.796  16.309 -0.9511 -0.0066  1.3813
 9444SOL     OW39790   1.112   3.202  15.012 -0.3758 -0.2545 -0.3314
 9444SOL    HW139791   1.027   3.242  15.031  0.5678  2.1534 -1.1423
 9444SOL    HW239792   1.103   3.173  14.922 -3.4498 -1.6190  0.4414
 9445SOL     OW39793   2.930   3.231   2.738 -0.2048 -0.1723  0.2739
 9445SOL    HW139794   2.932   3.298   2.806 -2.1376  0.6086 -0.4288
 9445SOL    HW239795   2.851   3.178   2.750  0.4920 -0.8780  1.6369
 9446SOL     OW39796   1.124   4.063   2.608  0.3273 -0.3513  0.3776
 9446SOL    HW139797   1.163   4.089   2.691  1.5565  0.6653 -0.5270
 9446SOL    HW239798   1.200   4.086   2.556 -0.8757  1.4043 -0.5990
 9447SOL     OW39799   4.248   3.346   4.123 -0.9220 -0.0287  0.7148
 9447SOL    HW139800   4.339   3.319   4.109 -1.2413 -0.4688 -0.4931
 9447SOL    HW239801   4.201   3.262   4.119  1.0791 -1.1331  0.4687
 9448SOL     OW39802   4.221   1.838   4.132 -0.6323  0.1961 -0.6315
 9448SOL    HW139803   4.204   1.895   4.058  1.6051  2.0982  0.2916
 9448SOL    HW239804   4.258   1.759   4.094  1.7501 -0.0831  2.2332
 9449SOL     OW39805   1.814   2.684   2.315  0.1031 -0.1971 -0.0703
 9449SOL    HW139806   1.772   2.738   2.248  0.9279 -0.0405 -0.4641
 9449SOL    HW239807   1.902   2.693   2.279  1.2594 -0.9568  2.6160
 9450SOL     OW39808   1.200   0.994   9.218 -0.1464  0.3742  0.0643
 9450SOL    HW139809   1.172   0.957   9.302  2.6054  0.2355  0.9286
 9450SOL    HW239810   1.152   1.077   9.215  2.2737  1.8050  0.3995
 9451SOL     OW39811   3.651   3.229  16.458  0.0059  0.0025 -0.0256
 9451SOL    HW139812   3.722   3.292  16.457 -0.1751  0.2452  2.3654
 9451SOL    HW239813   3.663   3.190  16.371 -1.2696  0.2969 -0.3322
 9452SOL     OW39814   2.894   4.063  11.107 -0.2506 -0.8892  0.1804
 9452SOL    HW139815   2.848   3.989  11.069 -0.5726  0.0050 -1.1584
 9452SOL    HW239816   2.821   4.116  11.139  0.7822  1.4885 -1.3630
 9453SOL     OW39817   3.928   0.771   6.641 -0.4093  0.7013  0.2132
 9453SOL    HW139818   3.976   0.689   6.651  1.2852  1.7919  1.0382
 9453SOL    HW239819   3.990   0.824   6.691  0.4617 -0.1301  0.0344
 9454SOL     OW39820   2.629   3.853   3.446 -0.1613  0.7214 -0.1649
 9454SOL    HW139821   2.683   3.917   3.493 -1.6821  2.2672 -0.5709
 9454SOL    HW239822   2.583   3.913   3.389 -1.1720  0.8811  0.8162
 9455SOL     OW39823   0.728   2.542   8.629  0.0067 -0.0348  0.0199
 9455SOL    HW139824   0.767   2.479   8.689  0.5624  1.5104  1.2972
 9455SOL    HW239825   0.690   2.609   8.685  2.7400  1.7337 -0.2044
 9456SOL     OW39826   2.990   2.984   6.518 -0.0976 -0.4911 -0.3644
 9456SOL    HW139827   3.069   2.930   6.510  0.7929  0.9974 -1.7460
 9456SOL    HW239828   2.934   2.919   6.560  1.1420 -1.5601 -0.3679
 9457SOL     OW39829   4.226   2.967   3.436 -0.5361 -0.3435  0.1614
 9457SOL    HW139830   4.232   2.935   3.346  0.4618  1.4167 -0.4040
 9457SOL    HW239831   4.259   3.056   3.425  0.3489 -0.7677 -0.5573
 9458SOL     OW39832   3.214   2.176   6.578 -0.4678 -0.6118  0.0942
 9458SOL    HW139833   3.169   2.131   6.507  0.0606 -0.2689 -0.4579
 9458SOL    HW239834   3.255   2.243   6.524  0.8839 -2.6094 -1.3531
 9459SOL     OW39835   2.341   0.571   7.716  0.2141  0.0184 -0.2377
 9459SOL    HW139836   2.366   0.528   7.634 -0.8364 -0.9537 -0.0602
 9459SOL    HW239837   2.419   0.575   7.770 -1.6172 -0.6541  2.4587
 9460SOL     OW39838   0.925   1.803  15.232  0.1998  0.3463  0.1599
 9460SOL    HW139839   0.934   1.775  15.141 -0.3841  0.5397  0.0413
 9460SOL    HW239840   1.018   1.817  15.252  0.7509  0.6402 -2.5437
 9461SOL     OW39841   3.458   4.635  15.757  0.2828 -0.6874 -0.1441
 9461SOL    HW139842   3.550   4.641  15.784 -0.0723  0.1118  0.8879
 9461SOL    HW239843   3.480   4.644  15.664  0.0886  0.9415 -0.0305
 9462SOL     OW39844   0.075   2.454   6.548 -0.7958 -0.2389 -0.6561
 9462SOL    HW139845   0.080   2.508   6.627  1.7204  1.4947 -1.9913
 9462SOL    HW239846   0.149   2.393   6.547 -0.8079 -0.2324 -1.8091
 9463SOL     OW39847   3.799   1.828   5.236 -0.2418 -0.0964 -0.0582
 9463SOL    HW139848   3.861   1.854   5.303 -1.2474  1.2933  0.3410
 9463SOL    HW239849   3.733   1.784   5.289 -0.1381  1.0856  1.0644
 9464SOL     OW39850   4.652   4.393  10.575 -0.8683 -0.0837  0.2521
 9464SOL    HW139851   4.578   4.453  10.585 -0.2406  0.6346  0.5795
 9464SOL    HW239852   4.643   4.313  10.627  1.3873 -0.2901  0.3093
 9465SOL     OW39853   4.196   2.148  13.268 -0.3009  0.2338  0.6748
 9465SOL    HW139854   4.268   2.184  13.318 -1.0674  2.1114  0.4250
 9465SOL    HW239855   4.143   2.111  13.338 -2.1581  0.7177 -0.4498
 9466SOL     OW39856   4.514   1.684   6.842  0.1481  0.4536 -0.5967
 9466SOL    HW139857   4.544   1.625   6.911 -1.0111 -0.5434 -0.9442
 9466SOL    HW239858   4.503   1.627   6.765  0.1858  0.3472 -0.5225
 9467SOL     OW39859   4.139   4.459   8.333 -0.2409  0.2357  0.5140
 9467SOL    HW139860   4.052   4.470   8.293 -0.3197 -0.0493  0.6056
 9467SOL    HW239861   4.129   4.514   8.411  0.3370  0.0648  0.7092
 9468SOL     OW39862   1.679   0.741   6.563 -0.1588  0.4487 -0.1932
 9468SOL    HW139863   1.694   0.675   6.496 -1.5489 -0.1891  0.1246
 9468SOL    HW239864   1.761   0.791   6.572 -0.3660  0.9121 -0.9142
 9469SOL     OW39865   0.302   0.508   7.138  0.3315 -0.1309 -0.2365
 9469SOL    HW139866   0.330   0.540   7.224  1.7731 -0.4909 -0.5822
 9469SOL    HW239867   0.245   0.438   7.169  2.3935 -2.2371 -1.2851
 9470SOL     OW39868   3.138   3.516   3.727  0.0211 -0.4314 -0.1915
 9470SOL    HW139869   3.132   3.609   3.750 -1.1233  0.2929 -3.3824
 9470SOL    HW239870   3.225   3.497   3.762  0.6116 -0.9129 -1.9378
 9471SOL     OW39871   4.625   3.977   4.994  0.6701 -0.1512  0.2724
 9471SOL    HW139872   4.604   3.886   4.977 -2.0068  0.3489  0.8278
 9471SOL    HW239873   4.717   3.958   5.013  1.3723  2.5056 -0.4338
 9472SOL     OW39874   2.310   2.665   8.257  0.2501 -0.3571 -0.6350
 9472SOL    HW139875   2.356   2.678   8.340 -1.8906 -1.9178  0.7917
 9472SOL    HW239876   2.244   2.732   8.273  0.4276  0.1078 -1.8492
 9473SOL     OW39877   1.507   0.963   7.475  0.0312 -0.0991 -0.2723
 9473SOL    HW139878   1.523   1.053   7.447 -3.1497  0.9144  1.1627
 9473SOL    HW239879   1.431   0.977   7.531  0.7183 -1.2085  0.9205
 9474SOL     OW39880   4.143   2.843  12.976  0.5013  0.6246 -0.6143
 9474SOL    HW139881   4.049   2.848  12.955  1.2018  0.5430 -3.7473
 9474SOL    HW239882   4.140   2.918  13.035 -0.4633 -0.3471  0.5840
 9475SOL     OW39883   1.115   0.623  11.158  0.0548  0.6092 -0.1905
 9475SOL    HW139884   1.181   0.554  11.148  1.6638  2.1665 -0.3791
 9475SOL    HW239885   1.106   0.610  11.253  1.2159 -0.0993 -0.1773
 9476SOL     OW39886   1.978   1.098   6.471 -0.8330 -0.1503  0.2726
 9476SOL    HW139887   2.028   1.080   6.550  2.1637 -1.8966 -2.0263
 9476SOL    HW239888   1.979   1.194   6.476  0.2435 -0.1944  0.7167
 9477SOL     OW39889   1.407   3.512   6.216 -0.5903  0.1177  0.2172
 9477SOL    HW139890   1.368   3.445   6.159 -0.9116  1.5391 -1.2441
 9477SOL    HW239891   1.374   3.587   6.166  1.2513 -0.9118 -2.5449
 9478SOL     OW39892   3.298   0.975   0.053  0.0539 -0.3604 -0.9870
 9478SOL    HW139893   3.226   0.927   0.095 -0.8576  0.2475 -1.8747
 9478SOL    HW239894   3.300   0.939  17.652 -2.8420 -1.2012 -0.7350
 9479SOL     OW39895   2.274   4.236  15.326 -0.2734  0.2379 -0.1515
 9479SOL    HW139896   2.365   4.262  15.340  0.7240 -0.9568 -4.4332
 9479SOL    HW239897   2.271   4.188  15.409  1.1792  0.7683  0.2077
 9480SOL     OW39898   2.848   2.198   8.569  0.1904 -0.2714 -0.5338
 9480SOL    HW139899   2.845   2.292   8.556  0.3468 -0.0843  0.7800
 9480SOL    HW239900   2.923   2.194   8.628 -0.3700  0.5051  0.2312
 9481SOL     OW39901   0.241   1.864   9.589 -0.0510  0.0392  0.1976
 9481SOL    HW139902   0.151   1.865   9.558 -0.1992  1.2537  0.6775
 9481SOL    HW239903   0.274   1.938   9.538 -0.5892  1.5171  2.0045
 9482SOL     OW39904   0.634   4.213   3.193 -0.0659 -0.9186  0.1756
 9482SOL    HW139905   0.669   4.146   3.252  1.1327 -0.3113  0.1595
 9482SOL    HW239906   0.541   4.191   3.199  0.1962 -1.6233  1.6907
 9483SOL     OW39907   3.888   4.428   6.494  0.1120  0.1409 -0.1244
 9483SOL    HW139908   3.829   4.366   6.452  0.3897 -0.7125  0.7373
 9483SOL    HW239909   3.833   4.468   6.561 -0.8506 -1.3715  0.0065
 9484SOL     OW39910   1.374   0.992   8.337  0.2281 -0.8723  0.1422
 9484SOL    HW139911   1.387   0.989   8.431 -1.9213  0.6327  0.4931
 9484SOL    HW239912   1.465   0.986   8.308 -0.5088 -2.9114 -1.7355
 9485SOL     OW39913   1.855   2.933   8.663 -0.1775  0.3837 -0.1785
 9485SOL    HW139914   1.807   2.946   8.744  1.5661  2.2063  0.5675
 9485SOL    HW239915   1.837   3.018   8.623  0.1109  0.4500 -0.1709
 9486SOL     OW39916   3.263   0.570  13.188  0.1018  0.3887  0.0148
 9486SOL    HW139917   3.296   0.519  13.113 -1.1780  1.1104 -1.0494
 9486SOL    HW239918   3.168   0.565  13.177  0.1442 -0.2180 -0.1067
 9487SOL     OW39919   2.619   0.972   6.588  0.1776  0.5134  0.1791
 9487SOL    HW139920   2.589   0.979   6.497 -0.9873  0.5243  0.5704
 9487SOL    HW239921   2.675   0.894   6.589 -0.6748 -0.1223 -1.7476
 9488SOL     OW39922   2.799   2.195  17.463  0.8337  0.4303 -0.6026
 9488SOL    HW139923   2.712   2.220  17.494  0.8294  2.0247 -1.8698
 9488SOL    HW239924   2.820   2.269  17.406  2.2472  1.3400  1.0787
 9489SOL     OW39925   0.584   4.650  14.665  0.1335  0.9738  0.2897
 9489SOL    HW139926   0.538   4.661  14.748 -1.5685  0.1238 -0.5294
 9489SOL    HW239927   0.672   4.620  14.686  0.1551  2.2243  2.0151
 9490SOL     OW39928   2.065   3.285  11.788 -0.3053 -0.2983 -0.2553
 9490SOL    HW139929   2.025   3.221  11.847  2.1732 -1.8136 -0.1867
 9490SOL    HW239930   1.985   3.328  11.759 -0.3942  0.6791  1.4708
 9491SOL     OW39931   4.384   0.963   1.217  0.6863 -0.0090  0.2194
 9491SOL    HW139932   4.425   0.971   1.303 -1.4775 -0.9708  1.3322
 9491SOL    HW239933   4.298   0.944   1.255  0.0447 -1.7119 -2.0994
 9492SOL     OW39934   2.133   4.550   3.848 -0.2737  0.3597  0.5973
 9492SOL    HW139935   2.061   4.494   3.821 -0.5998  1.0598  0.0027
 9492SOL    HW239936   2.102   4.633   3.810 -2.0911 -0.8532 -0.5324
 9493SOL     OW39937   2.264   4.223   8.556 -0.2792 -0.9581  0.6246
 9493SOL    HW139938   2.217   4.286   8.611  0.7171  0.0962  0.2541
 9493SOL    HW239939   2.274   4.282   8.481 -1.5237 -0.2717  0.9898
 9494SOL     OW39940   2.401   1.424   4.262  0.1540 -0.1291 -0.4374
 9494SOL    HW139941   2.375   1.503   4.214 -0.4180  0.8122  1.4249
 9494SOL    HW239942   2.424   1.370   4.186  1.8741  0.2615 -0.1979
 9495SOL     OW39943   0.652   2.893   6.925 -0.2041 -0.5334 -0.1216
 9495SOL    HW139944   0.559   2.869   6.924 -0.4445  0.4471 -0.7275
 9495SOL    HW239945   0.673   2.878   7.017  0.5790 -1.4621 -0.4474
 9496SOL     OW39946   3.394   3.540  12.439 -0.0201  0.3014 -0.4012
 9496SOL    HW139947   3.469   3.534  12.379  0.2555  0.5747 -0.0809
 9496SOL    HW239948   3.442   3.532  12.521  1.5728 -2.6188 -1.5890
 9497SOL     OW39949   1.935   0.597  12.554  0.8534  0.0101 -0.3894
 9497SOL    HW139950   1.852   0.595  12.507  1.6962  1.5417 -1.9541
 9497SOL    HW239951   1.906   0.619  12.642 -1.2181  0.3032 -1.1536
 9498SOL     OW39952   0.072   1.783   7.160 -0.9113 -0.1668  0.3327
 9498SOL    HW139953   0.155   1.824   7.186 -0.3154 -1.8495  1.0903
 9498SOL    HW239954   0.058   1.733   7.240 -3.2506  0.7059  0.4647
 9499SOL     OW39955   0.007   2.134  10.616 -0.0258  0.2558  0.7283
 9499SOL    HW139956   0.070   2.139  10.544 -1.6149 -1.6350 -0.8231
 9499SOL    HW239957   0.062   2.093  10.683 -0.7343  0.9308  1.7187
 9500SOL     OW39958   1.630   2.055  15.664  0.1422 -0.4358 -0.2350
 9500SOL    HW139959   1.717   2.051  15.626  0.5579 -2.7235  0.9539
 9500SOL    HW239960   1.619   1.961  15.675  0.6759 -0.4891 -0.1827
 9501SOL     OW39961   2.661   0.260  10.040  0.1699 -0.3307  0.0887
 9501SOL    HW139962   2.659   0.350  10.072 -3.1715 -0.1140 -0.7197
 9501SOL    HW239963   2.751   0.231  10.052 -0.5717 -1.8735  1.8460
 9502SOL     OW39964   2.255   2.796   9.875 -0.5135  0.2311 -0.5499
 9502SOL    HW139965   2.220   2.716   9.835  1.0258 -1.0490  0.6636
 9502SOL    HW239966   2.201   2.864   9.835 -0.9894  0.1801  0.0108
 9503SOL     OW39967   2.365   1.224   0.602  0.0393  0.6284  0.3353
 9503SOL    HW139968   2.460   1.226   0.590 -0.1667  1.0340 -1.1823
 9503SOL    HW239969   2.370   1.256   0.692 -1.8852 -1.3525  1.1332
 9504SOL     OW39970   2.921   1.218   8.550  1.1169 -0.0575  0.2557
 9504SOL    HW139971   2.910   1.248   8.640 -1.9989 -0.0440 -0.1357
 9504SOL    HW239972   2.995   1.157   8.552  1.1180 -0.0678 -0.1997
 9505SOL     OW39973   4.721   0.260   7.605 -0.4651 -0.2495  0.1062
 9505SOL    HW139974   0.029   0.346   7.634 -2.2420  0.5414 -0.4588
 9505SOL    HW239975   0.078   0.209   7.628 -0.3001  1.0741  2.4850
 9506SOL     OW39976   0.152   0.087   8.435 -0.0414 -0.3759 -0.5799
 9506SOL    HW139977   0.233   0.128   8.404  0.0441 -0.3051 -0.2639
 9506SOL    HW239978   0.192   0.010   8.474 -1.2650 -0.8866 -0.3389
 9507SOL     OW39979   2.044   2.822  10.071 -0.0856  0.2875 -0.1107
 9507SOL    HW139980   1.977   2.805  10.004 -1.4495  1.2715  0.9799
 9507SOL    HW239981   2.114   2.764  10.042 -1.3301 -0.7818 -0.9959
 9508SOL     OW39982   0.848   4.482  10.036  0.9731  0.6395 -0.3754
 9508SOL    HW139983   0.815   4.483  10.126 -0.0725 -2.0437 -0.7344
 9508SOL    HW239984   0.919   4.420  10.052 -0.9417 -1.1912  0.9042
 9509SOL     OW39985   1.020   2.838  14.290  0.6638  0.0229  0.0814
 9509SOL    HW139986   0.963   2.851  14.366 -1.3827 -1.5951 -1.2114
 9509SOL    HW239987   1.052   2.748  14.290  2.8196  0.7263  3.8155
 9510SOL     OW39988   0.961   3.833  11.473  0.1725 -0.1942  0.2071
 9510SOL    HW139989   1.045   3.879  11.476 -0.1762  0.4181  0.5194
 9510SOL    HW239990   0.962   3.788  11.389  2.2833  0.0639  0.0737
 9511SOL     OW39991   3.107   0.379   9.225 -0.4445 -0.7308  0.3025
 9511SOL    HW139992   3.158   0.460   9.218 -0.2456 -0.8713  0.1233
 9511SOL    HW239993   3.119   0.328   9.145  1.4288 -2.5430  1.7273
 9512SOL     OW39994   0.620   3.442   8.444 -0.2361  0.2883  0.8263
 9512SOL    HW139995   0.651   3.391   8.518  1.5870  0.8581  0.4521
 9512SOL    HW239996   0.538   3.471   8.483 -0.6526  0.6160 -0.2681
 9513SOL     OW39997   0.545   0.660   6.871  0.2509  0.4312 -0.2165
 9513SOL    HW139998   0.577   0.711   6.796  1.6126  1.7119  1.2326
 9513SOL    HW239999   0.453   0.684   6.874  0.0220 -0.2752 -1.5274
 9514SOL     OW40000   3.793   1.255  12.866  0.5250  0.3391  0.0058
 9514SOL    HW140001   3.769   1.226  12.953  1.1713  1.0645  0.4261
 9514SOL    HW240002   3.850   1.187  12.829  1.5757  0.8517  0.6721
 9515SOL     OW40003   1.281   4.159  11.620  0.0540 -0.0212  0.9453
 9515SOL    HW140004   1.366   4.165  11.664  0.0261  0.0630  0.9876
 9515SOL    HW240005   1.263   4.252  11.607  2.2917  0.2317 -0.2659
 9516SOL     OW40006   4.030   2.372   4.678  0.1332  0.3081 -0.4327
 9516SOL    HW140007   4.101   2.408   4.731  0.3547 -0.2518 -0.3472
 9516SOL    HW240008   3.997   2.300   4.731 -1.8637  2.3304  1.0681
 9517SOL     OW40009   2.688   0.769   7.477  0.5011 -0.0279  0.6015
 9517SOL    HW140010   2.653   0.843   7.527  0.2393 -0.1233  0.5598
 9517SOL    HW240011   2.729   0.714   7.543 -1.4201  0.1432  1.9287
 9518SOL     OW40012   2.252   1.589   6.372 -0.3533 -0.1051 -0.2091
 9518SOL    HW140013   2.238   1.560   6.462  1.6831 -0.2763  0.0631
 9518SOL    HW240014   2.242   1.511   6.318  2.2517 -1.1323  0.7568
 9519SOL     OW40015   1.048   4.330   2.934  0.1466  0.4998  0.2258
 9519SOL    HW140016   1.032   4.284   3.016  1.6193 -0.2238  0.1124
 9519SOL    HW240017   1.127   4.284   2.903 -1.0679 -1.8786  0.7111
 9520SOL     OW40018   0.983   3.877   8.097  0.5360  0.5151 -0.0568
 9520SOL    HW140019   1.012   3.950   8.042  2.3339  0.0141  0.2397
 9520SOL    HW240020   0.893   3.903   8.118 -0.5032 -0.7077 -3.0066
 9521SOL     OW40021   3.653   1.280   1.818  0.4057  0.4948  0.3800
 9521SOL    HW140022   3.622   1.239   1.737 -1.8761  1.1240  0.9362
 9521SOL    HW240023   3.576   1.337   1.822  0.7929  0.9615  1.0128
 9522SOL     OW40024   0.789   2.839   6.685  0.4222  0.2452 -0.3544
 9522SOL    HW140025   0.719   2.798   6.634  0.3279 -0.4364  0.3222
 9522SOL    HW240026   0.746   2.844   6.771  2.3529 -2.1535  0.7797
 9523SOL     OW40027   1.611   3.311   1.935 -0.0703  0.6450 -0.3319
 9523SOL    HW140028   1.547   3.282   1.870 -0.4518 -1.9878  1.1969
 9523SOL    HW240029   1.672   3.374   1.898  1.4904 -0.6514  0.0343
 9524SOL     OW40030   3.428   2.064   9.069  0.3206 -0.6036 -0.2930
 9524SOL    HW140031   3.453   2.155   9.085 -0.1041 -0.5590  0.1065
 9524SOL    HW240032   3.348   2.059   9.121  0.9511 -0.8808  0.6454
 9525SOL     OW40033   4.716   3.485   9.906  0.2157  0.5168  0.2088
 9525SOL    HW140034   0.072   3.518   9.862  1.1149  1.9248  2.8590
 9525SOL    HW240035   4.648   3.515   9.845  0.1883 -1.2235 -0.6195
 9526SOL     OW40036   0.431   1.543   0.817  1.0282 -0.3208 -0.3773
 9526SOL    HW140037   0.471   1.477   0.874 -0.7152  0.1954  1.4526
 9526SOL    HW240038   0.494   1.615   0.820  1.2656 -0.4697 -1.8753
 9527SOL     OW40039   0.427   3.102   1.298 -0.0845  0.4102  0.2803
 9527SOL    HW140040   0.415   3.191   1.334 -0.4472  0.5259 -0.1148
 9527SOL    HW240041   0.449   3.127   1.209  0.8083  0.1249  0.4207
 9528SOL     OW40042   3.265   2.196   2.850 -0.0462 -0.7625 -0.1125
 9528SOL    HW140043   3.251   2.101   2.841  0.7174 -0.7826 -1.1059
 9528SOL    HW240044   3.357   2.205   2.874 -1.1718 -1.3055  4.4687
 9529SOL     OW40045   4.029   3.875   5.979  0.8312 -0.3795 -0.0344
 9529SOL    HW140046   4.023   3.947   6.041  1.3537 -0.3762  0.0199
 9529SOL    HW240047   3.935   3.858   5.976  0.8748 -0.8622  1.5795
 9530SOL     OW40048   1.953   4.646  15.273 -0.2058  0.0727 -0.4304
 9530SOL    HW140049   2.027   4.591  15.299  0.6628  0.5056 -1.9347
 9530SOL    HW240050   1.921   4.688  15.352  0.4568  0.4284 -0.3463
 9531SOL     OW40051   1.424   3.722   7.703 -0.0739  0.5652 -0.4131
 9531SOL    HW140052   1.356   3.744   7.639  0.8453 -1.0430 -1.9368
 9531SOL    HW240053   1.419   3.628   7.690 -0.1205  0.6126 -0.7494
 9532SOL     OW40054   3.167   1.747   2.707  0.4549  0.0964 -0.5269
 9532SOL    HW140055   3.071   1.747   2.703  0.4226  0.9509  0.5048
 9532SOL    HW240056   3.193   1.660   2.737 -0.6555  0.4948  1.5420
 9533SOL     OW40057   1.683   2.813   6.000 -0.1907  0.3136 -0.0473
 9533SOL    HW140058   1.754   2.874   6.018  0.0259 -0.4132  1.5966
 9533SOL    HW240059   1.640   2.868   5.935 -0.3772  0.6364  0.3503
 9534SOL     OW40060   1.820   1.571   4.430  0.4011 -0.0167  0.1435
 9534SOL    HW140061   1.880   1.562   4.356  1.2474  1.5523  0.6364
 9534SOL    HW240062   1.748   1.623   4.393 -2.3049 -3.0863  1.1010
 9535SOL     OW40063   2.045   4.509  10.591 -0.2780  0.0584  0.1756
 9535SOL    HW140064   2.113   4.559  10.548 -0.8912  1.4477  0.8243
 9535SOL    HW240065   2.022   4.566  10.665 -0.1661  0.8427 -0.3930
 9536SOL     OW40066   0.850   1.732  16.717 -0.1470 -0.3766 -0.6438
 9536SOL    HW140067   0.863   1.822  16.747 -1.0608 -0.2639 -0.5848
 9536SOL    HW240068   0.770   1.720  16.666 -0.1574 -1.2304 -0.4350
 9537SOL     OW40069   2.027   3.890  11.012 -0.5639 -0.5404  0.6216
 9537SOL    HW140070   2.063   3.854  10.931 -2.6492  0.3253 -0.6928
 9537SOL    HW240071   1.984   3.969  10.977 -1.3320 -0.8998  0.7442
 9538SOL     OW40072   4.102   2.984   0.291 -0.3405  0.2915  0.0592
 9538SOL    HW140073   4.015   2.978   0.329 -0.1407  0.5388  0.5701
 9538SOL    HW240074   4.151   2.974   0.373  0.2761  2.5811 -0.0323
 9539SOL     OW40075   3.397   4.311   2.260 -0.5427  0.1938 -0.3392
 9539SOL    HW140076   3.335   4.273   2.321  0.8235 -1.8826 -0.2222
 9539SOL    HW240077   3.433   4.385   2.310 -0.5689  0.8210 -1.2485
 9540SOL     OW40078   2.953   2.408   7.108 -0.0720  0.2215 -0.2164
 9540SOL    HW140079   3.001   2.357   7.173  2.0103  0.0692 -1.8819
 9540SOL    HW240080   3.016   2.480   7.096 -2.1471  1.6555 -2.3764
 9541SOL     OW40081   3.974   0.256  13.118 -0.3437  0.1904 -0.2720
 9541SOL    HW140082   4.038   0.285  13.184 -2.6443  0.5694  1.7930
 9541SOL    HW240083   3.899   0.313  13.133 -1.5938 -0.7003 -3.2639
 9542SOL     OW40084   2.476   3.211  11.651 -0.4583  0.2874 -0.2186
 9542SOL    HW140085   2.527   3.140  11.612 -0.5432 -0.2320  0.6114
 9542SOL    HW240086   2.534   3.287  11.644  0.1777 -0.3267 -1.6497
 9543SOL     OW40087   2.124   2.505   0.852  0.1429 -0.5563  0.4524
 9543SOL    HW140088   2.121   2.434   0.917 -2.7073 -0.1324  0.7564
 9543SOL    HW240089   2.209   2.483   0.813  0.7100 -1.0260  1.9129
 9544SOL     OW40090   2.921   3.550  11.185  0.1850 -0.4905 -0.4237
 9544SOL    HW140091   2.978   3.548  11.261 -0.7997  3.9763  0.4053
 9544SOL    HW240092   2.841   3.504  11.211  1.3118 -1.7982  0.7101
 9545SOL     OW40093   3.890   2.358   2.339 -1.1586 -0.3013  0.3627
 9545SOL    HW140094   3.937   2.298   2.282  0.7462  2.2867 -0.7821
 9545SOL    HW240095   3.797   2.345   2.321 -0.8843 -0.0878 -1.2202
 9546SOL     OW40096   3.321   0.208  16.633  0.1584 -0.5746 -0.2259
 9546SOL    HW140097   3.346   0.164  16.552  0.7934  2.5950 -1.7494
 9546SOL    HW240098   3.407   0.222  16.672  0.0470 -1.6434  0.4051
 9547SOL     OW40099   1.209   2.907   3.119 -0.1934  0.5773  0.5977
 9547SOL    HW140100   1.156   2.845   3.169 -1.7952  0.7826 -0.8574
 9547SOL    HW240101   1.289   2.858   3.100 -1.0038 -1.0743  1.4964
 9548SOL     OW40102   2.409   0.222  14.069  0.4435  0.5868 -0.5911
 9548SOL    HW140103   2.475   0.219  14.138 -0.3754 -0.2147  0.1529
 9548SOL    HW240104   2.339   0.269  14.115  1.1205 -0.8485  1.9084
 9549SOL     OW40105   3.630   2.539  17.123  0.3798 -0.1140  0.0316
 9549SOL    HW140106   3.674   2.489  17.192  1.4766 -1.3697 -1.5896
 9549SOL    HW240107   3.696   2.607  17.107  0.7717 -1.0593 -2.4163
 9550SOL     OW40108   3.956   1.627   2.410  0.3396  0.2034  0.3101
 9550SOL    HW140109   3.994   1.705   2.449  2.8006 -1.0242  0.3844
 9550SOL    HW240110   3.957   1.575   2.490 -1.8400 -0.8558 -0.3618
 9551SOL     OW40111   1.231   1.026   6.273 -0.1704  0.9669  0.0447
 9551SOL    HW140112   1.317   1.064   6.288  0.0179  0.7430 -0.4926
 9551SOL    HW240113   1.175   1.102   6.291 -0.7240  0.6816 -0.4376
 9552SOL     OW40114   0.932   1.622   4.048  0.2425  0.2253 -0.3811
 9552SOL    HW140115   0.909   1.683   3.978 -1.9049 -1.7378 -1.4168
 9552SOL    HW240116   0.858   1.560   4.041  0.5786 -0.4770  2.1482
 9553SOL     OW40117   3.734   0.951   0.950 -0.1994 -0.3333  0.8057
 9553SOL    HW140118   3.766   0.971   1.038  0.1325 -1.0501  0.8429
 9553SOL    HW240119   3.765   1.031   0.907  0.3242 -0.7249  0.4660
 9554SOL     OW40120   4.499   3.430  14.451 -0.4714  0.1694  0.0706
 9554SOL    HW140121   4.423   3.426  14.394  0.1459 -0.3819 -0.7124
 9554SOL    HW240122   4.452   3.386  14.522 -1.9839  0.7919 -0.5425
 9555SOL     OW40123   0.809   4.456   5.646 -0.1050 -0.0392  0.3617
 9555SOL    HW140124   0.791   4.376   5.597 -2.0263 -0.6067  1.9485
 9555SOL    HW240125   0.770   4.427   5.729 -2.6942 -1.2434 -1.2851
 9556SOL     OW40126   2.538   3.026   4.959  0.0165 -0.3592  0.5577
 9556SOL    HW140127   2.626   3.020   4.997  0.5810  1.2044 -0.5361
 9556SOL    HW240128   2.512   3.108   5.001 -0.7923  0.4489 -1.5335
 9557SOL     OW40129   0.772   3.739   8.704 -0.2208  0.3685 -0.6139
 9557SOL    HW140130   0.832   3.734   8.779 -0.5333  2.5859 -0.2232
 9557SOL    HW240131   0.815   3.774   8.626  1.4335  1.4561  0.7554
 9558SOL     OW40132   2.549   3.916   8.638  0.4289  0.3175 -0.9474
 9558SOL    HW140133   2.590   4.001   8.652  0.7425  0.0784 -0.3958
 9558SOL    HW240134   2.618   3.864   8.596 -0.0329 -1.2709  0.2289
 9559SOL     OW40135   1.031   2.571   7.609 -0.0966 -0.6756 -0.1505
 9559SOL    HW140136   1.127   2.569   7.614 -0.2455 -1.5460  2.3847
 9559SOL    HW240137   1.017   2.635   7.678  1.4264  0.6451 -1.0396
 9560SOL     OW40138   1.922   3.196  11.357  0.1589 -0.3336 -0.1817
 9560SOL    HW140139   2.006   3.236  11.380 -0.2271  0.9568 -1.0223
 9560SOL    HW240140   1.943   3.106  11.380  1.3263 -0.0429 -0.1200
 9561SOL     OW40141   0.048   3.889   7.154  0.6400 -0.3232 -0.0618
 9561SOL    HW140142   0.087   3.924   7.074  3.3934 -0.0896  1.3671
 9561SOL    HW240143   0.121   3.835   7.185  1.4083  0.1444 -1.0629
 9562SOL     OW40144   1.887   1.875  13.729  0.6906  0.2825  0.4814
 9562SOL    HW140145   1.973   1.839  13.751 -0.3104 -1.3400  1.7825
 9562SOL    HW240146   1.911   1.960  13.693 -2.1660 -0.1130 -2.3538
 9563SOL     OW40147   3.596   3.262   7.169 -0.0524  0.1216 -0.0160
 9563SOL    HW140148   3.631   3.176   7.144  2.7172  1.4850 -0.8754
 9563SOL    HW240149   3.548   3.273   7.087 -1.6913 -0.6371  0.8383
 9564SOL     OW40150   1.813   2.245   5.353  0.0068 -0.0550  0.2871
 9564SOL    HW140151   1.808   2.264   5.260 -0.2985 -1.3482  0.0333
 9564SOL    HW240152   1.773   2.325   5.386  1.3882  1.0522 -0.7230
 9565SOL     OW40153   1.747   0.136   0.594  0.4273 -0.1449 -0.2975
 9565SOL    HW140154   1.696   0.202   0.641  0.6331 -1.7785  2.2260
 9565SOL    HW240155   1.688   0.114   0.522  0.7907 -1.4712 -0.1935
   4.72135   4.72135  17.68772
