Membrane in water
40155
    1TCq1    O1    1   1.900   4.701  10.561 -0.1602 -0.1161 -0.5868
    1TCq1    C1    2   1.815   4.657  10.659  0.2327  0.0151 -0.0387
    1TCq1    O2    3   1.710   4.596  10.652  0.0884 -0.6746 -0.0315
    1TCq1    C2    4   1.891   4.662  10.783 -0.1279 -0.0946  0.5049
    1TCq1    C3    5   1.945   0.056  10.819 -0.5043  0.6668  0.0398
    1TCq1    C4    6   1.969   0.089  10.950  0.1016  0.4795 -0.4474
    1TCq1    C5    7   1.925   4.719  11.046 -0.5773  0.7247 -0.3931
    1TCq1    C6    8   1.866   4.598  11.008 -0.1519 -0.1661  0.4668
    1TCq1    C7    9   1.846   4.570  10.877 -0.4154 -0.4931  0.2508
    1TCq1    C8   10   1.809   4.519  11.116  0.1745 -0.3384  0.1807
    1TCq1    O4   11   1.763   4.589  11.210  0.3535 -0.4822  0.0746
    1TCq1    C9   12   2.040   0.209  10.994  0.2209  0.4811 -0.0956
    1TCq1    O5   13   2.093   0.273  10.897 -0.0125 -0.0315  0.5790
    1TCq1    O6   14   2.002   0.259  11.107  0.4045 -0.3626  0.0762
    1TCq1    H1   15   1.993   4.720  10.586  0.4710  0.0592 -3.0607
    1TCq1    H2   16   1.961   0.136  10.748 -1.5407  0.1728 -0.7397
    1TCq1    H3   17   1.940   0.020  11.151 -1.0770  1.5101 -0.4908
    1TCq1    H4   18   1.798   4.476  10.855  2.9529 -1.8375 -1.2294
    2MPD2     C   19   1.661   4.092  11.339  0.7931 -0.1447 -0.5174
    2MPD2    C1   20   1.614   4.220  11.355  0.5498 -0.0087  0.3947
    2MPD2    C2   21   1.669   4.316  11.279  0.5824  0.2919 -0.5100
    2MPD2    C3   22   1.756   4.289  11.178 -0.2888 -0.0630 -0.5678
    2MPD2    C4   23   1.801   4.161  11.154  0.4498  0.7372  0.3199
    2MPD2    C5   24   1.755   4.069  11.242 -0.8199 -0.2675  0.0973
    2MPD2     H   25   1.634   4.418  11.294 -0.6446  0.0790 -1.9608
    2MPD2    H1   26   1.873   4.136  11.077 -0.7207 -1.5885 -0.0143
    2MPD2    H2   27   1.645   4.014  11.412  0.6820  1.8433  1.6007
    2MPD2    H3   28   1.777   3.966  11.215 -0.7710 -0.7138  1.8550
    2MPD2     N   29   1.815   4.387  11.093  0.1793  0.2243  0.0259
    2MPD2    H5   30   1.885   4.352  11.028 -1.6097  1.0307 -2.3118
    2MPD2    N1   31   1.531   4.255  11.466  0.1305 -0.5575  0.1440
    2MPD2    H7   32   1.505   4.352  11.478  0.8099 -0.2638 -0.7988
    3TCq1    O1   33   1.608   1.919  10.821 -0.2026  0.4221  0.1182
    3TCq1    C1   34   1.517   2.001  10.881 -0.4636  0.3832 -0.1238
    3TCq1    O2   35   1.496   2.114  10.839  0.4250  0.2389 -0.6219
    3TCq1    C2   36   1.553   1.986  11.027 -0.4253  0.6800 -0.4537
    3TCq1    C3   37   1.664   1.923  11.062 -0.2724 -0.3369  0.0511
    3TCq1    C4   38   1.681   1.860  11.178 -0.3276 -0.5517  1.1015
    3TCq1    C5   39   1.581   1.842  11.271  0.3223  0.1249  0.2739
    3TCq1    C6   40   1.459   1.897  11.234  0.1802  0.7900  0.1975
    3TCq1    C7   41   1.446   1.980  11.117 -0.2235  0.2542  0.1185
    3TCq1    C8   42   1.345   1.881  11.329  0.5014  0.0931 -0.3872
    3TCq1    O4   43   1.380   1.850  11.441  0.3376 -0.0175 -0.2879
    3TCq1    C9   44   1.805   1.802  11.214  0.2123  1.3186  0.5474
    3TCq1    O5   45   1.797   1.738  11.328  0.3397 -0.2772 -0.0042
    3TCq1    O6   46   1.900   1.796  11.130 -0.3047 -0.2365 -0.2243
    3TCq1    H1   47   1.590   1.829  10.856 -2.8905  1.0405  0.3496
    3TCq1    H2   48   1.748   1.927  10.993  0.5852  1.1946  1.2105
    3TCq1    H3   49   1.594   1.796  11.369 -0.3648 -0.3348  0.1475
    3TCq1    H4   50   1.348   2.020  11.093 -0.0706  0.5351 -0.0424
    4MPD2     C   51   0.840   1.905  11.442  0.5391 -0.7449 -0.5435
    4MPD2    C1   52   0.856   1.944  11.311 -0.5018  0.3107 -0.5848
    4MPD2    C2   53   0.990   1.947  11.269 -0.0262 -0.0235 -0.8355
    4MPD2    C3   54   1.098   1.905  11.350  0.4880 -0.2660 -0.4831
    4MPD2    C4   55   1.080   1.864  11.482 -0.1835 -0.1126 -0.1301
    4MPD2    C5   56   0.945   1.868  11.522 -0.1427 -0.2911 -1.1538
    4MPD2     H   57   1.002   1.989  11.169  0.7456  1.5960 -0.0700
    4MPD2    H1   58   1.159   1.818  11.541 -0.5672 -0.2794  0.2491
    4MPD2    H2   59   0.742   1.887  11.484 -1.3079  2.9063 -3.2492
    4MPD2    H3   60   0.917   1.815  11.613  0.9665  1.4095  0.1750
    4MPD2     N   61   1.221   1.907  11.276  0.2467 -0.0134 -0.1163
    4MPD2    H5   62   1.211   1.936  11.179 -1.0058  1.0069  0.3154
    4MPD2    N1   63   0.746   1.991  11.224  0.4838 -0.8163  0.4940
    4MPD2    H7   64   0.763   2.025  11.130 -2.5513  1.0996  0.6490
    5TCq1    O1   65   2.066   2.905  11.950  1.2827  0.4170 -0.1203
    5TCq1    C1   66   2.051   2.835  11.831  0.0329  0.2611 -0.2219
    5TCq1    O2   67   2.121   2.739  11.798 -0.0389 -0.3519 -0.2822
    5TCq1    C2   68   1.931   2.869  11.762 -0.1331  0.0149 -0.3548
    5TCq1    C3   69   1.820   2.909  11.830 -0.7441  0.4286 -0.4900
    5TCq1    C4   70   1.715   2.961  11.756  0.0599  0.0610  0.2167
    5TCq1    C5   71   1.723   2.986  11.618  0.1419 -0.1121 -0.3414
    5TCq1    C6   72   1.833   2.917  11.559  0.5802 -0.0660  0.2046
    5TCq1    C7   73   1.940   2.862  11.628  0.4293 -0.2630  0.2678
    5TCq1    C8   74   1.807   2.852  11.431 -0.9752 -0.3954  0.0957
    5TCq1    O4   75   1.859   2.743  11.409  0.2283 -0.5466 -0.2734
    5TCq1    C9   76   1.597   3.011  11.832 -0.0856  0.5006 -0.0076
    5TCq1    O5   77   1.514   3.082  11.770  0.1136 -0.3481 -0.4186
    5TCq1    O6   78   1.611   3.022  11.956 -0.2401  0.2938 -0.6435
    5TCq1    H1   79   2.007   2.983  11.960  1.2230  0.4994 -1.2119
    5TCq1    H2   80   1.811   2.911  11.938  1.1042  1.0755 -0.3473
    5TCq1    H3   81   1.629   3.017  11.574 -0.7654 -2.5514 -0.1596
    5TCq1    H4   82   2.024   2.820  11.573 -0.4189  1.5658 -2.4549
    6MPD2     C   83   1.582   2.941  11.167 -0.4360  0.2670 -0.4126
    6MPD2    C1   84   1.685   2.877  11.227 -0.3537 -0.2563  0.0728
    6MPD2    C2   85   1.719   2.754  11.170 -0.3476  0.0132 -0.1618
    6MPD2    C3   86   1.666   2.701  11.050 -0.0528 -0.0603 -0.3111
    6MPD2    C4   87   1.559   2.769  10.997  0.1441 -0.4676  0.7647
    6MPD2    C5   88   1.518   2.889  11.058 -1.2287  0.2795 -1.4228
    6MPD2     H   89   1.795   2.690  11.214  0.5783 -0.0859 -1.9246
    6MPD2    H1   90   1.510   2.737  10.906  2.9977 -1.5721 -0.3801
    6MPD2    H2   91   1.542   3.031  11.213 -0.6866  0.3354 -0.7600
    6MPD2    H3   92   1.434   2.939  11.010  0.8417  1.7313 -3.5271
    6MPD2     N   93   1.746   2.601  10.980  0.1113  0.2288  0.1802
    6MPD2    H5   94   1.827   2.559  11.024  0.6653  0.9010 -0.2023
    6MPD2    N1   95   1.727   2.926  11.352  0.1206 -0.5281  0.4899
    6MPD2    H7   96   1.674   3.007  11.383  2.7440  1.4607 -0.1991
    7TCq1    O1   97   3.740   2.490  13.598 -0.2982  0.5448  0.3302
    7TCq1    C1   98   3.782   2.476  13.476  0.0241 -0.3070 -0.0642
    7TCq1    O2   99   3.886   2.416  13.447  0.2520  0.2270 -0.2398
    7TCq1    C2  100   3.666   2.448  13.393  0.1614 -0.4438  0.4066
    7TCq1    C3  101   3.577   2.545  13.360  0.2427  0.4717  0.4880
    7TCq1    C4  102   3.485   2.522  13.254  0.3333  0.0466 -0.6391
    7TCq1    C5  103   3.493   2.405  13.182 -0.6957  0.1504 -0.0704
    7TCq1    C6  104   3.584   2.311  13.218  0.3758  0.3938  1.0690
    7TCq1    C7  105   3.669   2.327  13.326  0.1245 -0.1325  0.2219
    7TCq1    C8  106   3.558   2.174  13.186  0.0274 -0.5449  0.2409
    7TCq1    O4  107   3.615   2.092  13.255 -0.1008 -0.0537 -0.5630
    7TCq1    C9  108   3.392   2.622  13.227  0.0295  0.1493  0.0124
    7TCq1    O5  109   3.312   2.596  13.133  0.3705  0.2569 -0.1680
    7TCq1    O6  110   3.380   2.719  13.300  0.1827 -0.0997 -0.1262
    7TCq1    H1  111   3.644   2.508  13.612 -0.6157  0.6024 -1.9462
    7TCq1    H2  112   3.562   2.634  13.419 -1.2487 -0.4058  1.4356
    7TCq1    H3  113   3.405   2.395  13.119 -1.3079  2.4789  0.3798
    7TCq1    H4  114   3.745   2.255  13.353  0.5129  0.2185  0.0626
    8MPD2     C  115   3.268   1.802  12.990  0.2286  0.2032  0.3597
    8MPD2    C1  116   3.369   1.796  13.082 -0.0566  0.6357 -0.2470
    8MPD2    C2  117   3.440   1.912  13.120 -0.0549 -0.0841  0.2665
    8MPD2    C3  118   3.398   2.031  13.065  0.4684  0.1318  0.2050
    8MPD2    C4  119   3.301   2.037  12.968  0.2064  0.5676 -0.0222
    8MPD2    C5  120   3.231   1.921  12.932  0.2875 -0.3254  0.1832
    8MPD2     H  121   3.529   1.909  13.182 -0.6293  1.2107  1.1436
    8MPD2    H1  122   3.271   2.132  12.926 -3.1261 -0.0706  0.9670
    8MPD2    H2  123   3.208   1.718  12.957 -2.1995  1.6589  0.9980
    8MPD2    H3  124   3.155   1.918  12.856 -0.5084 -0.4314  0.9860
    8MPD2     N  125   3.460   2.151  13.097  0.1465 -0.3429 -0.5808
    8MPD2    H5  126   3.428   2.234  13.049 -0.2793 -0.9250 -1.3027
    8MPD2    N1  127   3.396   1.662  13.135 -0.5571  0.4126 -0.0474
    8MPD2    H7  128   3.358   1.578  13.093 -0.4666  0.4372 -0.1791
    9TCq1    O1  129   1.304   4.325  11.218 -0.0863  0.3727  0.0365
    9TCq1    C1  130   1.370   4.443  11.220 -0.1728  0.6924  0.5391
    9TCq1    O2  131   1.395   4.507  11.320 -0.1549  0.2221  0.1433
    9TCq1    C2  132   1.366   4.501  11.080  0.3083 -0.2622  0.9134
    9TCq1    C3  133   1.381   4.424  10.971  0.3431  0.2413  0.0262
    9TCq1    C4  134   1.410   4.479  10.849  0.4037 -0.7928  0.1752
    9TCq1    C5  135   1.427   4.611  10.827  0.3116 -0.7483 -0.1066
    9TCq1    C6  136   1.412   4.693  10.939  0.1865  0.0003  0.3366
    9TCq1    C7  137   1.383   4.638  11.064  0.4859 -0.0918  0.2091
    9TCq1    C8  138   1.442   0.112  10.935  0.1306  0.5845  0.6325
    9TCq1    O4  139   1.445   0.162  10.824  0.6836  0.1276 -0.0464
    9TCq1    C9  140   1.376   4.395  10.734 -0.3676  0.4582 -0.1449
    9TCq1    O5  141   1.346   4.462  10.635 -0.1781 -0.3492  0.0142
    9TCq1    O6  142   1.368   4.272  10.744 -0.7848 -0.1581  0.3241
    9TCq1    H1  143   1.280   4.277  11.136 -1.6184  2.1264 -0.5259
    9TCq1    H2  144   1.391   4.316  10.978  1.5635  0.3580  0.1060
    9TCq1    H3  145   1.438   4.644  10.724 -0.0262  2.9361  1.0255
    9TCq1    H4  146   1.361   4.689  11.157  0.3859 -1.8849  1.1697
   10MPD2     C  147   1.431   0.405  11.000  0.5912 -0.1343  0.4813
   10MPD2    C1  148   1.459   0.306  11.093 -0.8440 -0.8718  0.1616
   10MPD2    C2  149   1.496   0.342  11.217  0.0433  0.7404 -0.2507
   10MPD2    C3  150   1.503   0.474  11.256  0.2320  0.4030  0.2563
   10MPD2    C4  151   1.476   0.570  11.160  1.0734  0.4229 -0.4884
   10MPD2    C5  152   1.438   0.535  11.038  0.1110 -0.5711  0.5468
   10MPD2     H  153   1.511   0.256  11.282 -2.6702  0.2741 -0.2207
   10MPD2    H1  154   1.506   0.673  11.174  1.5991 -0.1364  2.5331
   10MPD2    H2  155   1.383   0.386  10.905  1.7358  2.6227 -0.6391
   10MPD2    H3  156   1.427   0.607  10.958  1.2948 -0.3774  0.5588
   10MPD2     N  157   1.544   0.508  11.382  0.4533  0.1890  0.4677
   10MPD2    H5  158   1.524   0.604  11.406 -2.1480 -0.7015  1.9560
   10MPD2    N1  159   1.448   0.169  11.059 -0.1508 -0.6533  0.1436
   10MPD2    H7  160   1.459   0.108  11.139  2.5013 -1.7906 -1.1081
   11TCq1    O1  161   2.024   0.782  14.504  0.3511 -0.3692 -0.0411
   11TCq1    C1  162   1.902   0.774  14.442  0.3891 -0.3078 -0.1992
   11TCq1    O2  163   1.849   0.672  14.398 -0.1942  0.2451 -0.4799
   11TCq1    C2  164   1.881   0.891  14.364 -0.3297  0.8088  0.4944
   11TCq1    C3  165   1.916   1.010  14.423  0.0212  0.2604  0.8210
   11TCq1    C4  166   1.896   1.122  14.349 -0.5260  0.0661  0.4230
   11TCq1    C5  167   1.842   1.116  14.223 -0.2645  0.6205  1.0077
   11TCq1    C6  168   1.801   0.996  14.172  0.5313 -0.0562  0.0720
   11TCq1    C7  169   1.824   0.880  14.245 -0.3554 -0.4607 -0.3796
   11TCq1    C8  170   1.702   0.993  14.067  0.6398  0.7605 -0.1110
   11TCq1    O4  171   1.636   1.088  14.038 -0.0502  0.6348  0.2643
   11TCq1    C9  172   1.928   1.246  14.404  0.2810  0.1103 -0.3100
   11TCq1    O5  173   1.980   1.249  14.517 -0.5474  0.2875  0.4199
   11TCq1    O6  174   1.909   1.349  14.338 -0.1033  0.2980 -0.5073
   11TCq1    H1  175   2.074   0.865  14.489  1.0916 -0.2361  3.3241
   11TCq1    H2  176   1.956   1.006  14.523  0.2994  1.3165  0.7487
   11TCq1    H3  177   1.827   1.208  14.167 -1.4890  0.0277  0.3544
   11TCq1    H4  178   1.789   0.782  14.214 -0.8845  0.5917 -3.1802
   12MPD2     C  179   1.553   0.922  13.805  0.5935 -0.3935  0.2458
   12MPD2    C1  180   1.661   0.855  13.872 -0.5301 -0.2248 -0.1546
   12MPD2    C2  181   1.716   0.745  13.805 -0.5505  0.1774  0.2049
   12MPD2    C3  182   1.667   0.700  13.682  0.7549 -0.4149 -0.7166
   12MPD2    C4  183   1.560   0.764  13.622 -0.2076  0.6992 -0.1809
   12MPD2    C5  184   1.504   0.873  13.682  0.3314 -0.0848 -0.0512
   12MPD2     H  185   1.803   0.693  13.845  1.1894  2.9008 -0.0186
   12MPD2    H1  186   1.517   0.744  13.525 -0.1508 -0.0764 -0.0452
   12MPD2    H2  187   1.503   1.008  13.849 -0.2633 -0.3484 -0.8071
   12MPD2    H3  188   1.429   0.933  13.632 -0.9381 -1.1883  0.5542
   12MPD2     N  189   1.723   0.593  13.604  0.2136 -0.4405 -0.6280
   12MPD2    H5  190   1.692   0.570  13.511  1.7827 -3.1920 -0.4544
   12MPD2    N1  191   1.723   0.887  13.993 -0.4443  0.7501  0.8740
   12MPD2    H7  192   1.805   0.832  14.014 -0.6609 -0.5268 -1.6351
   13TCq1    O1  193   0.660   4.041  11.178  0.8551  0.2675  0.0831
   13TCq1    C1  194   0.672   4.158  11.250  0.2821 -0.5691  0.2526
   13TCq1    O2  195   0.579   4.226  11.284 -0.2272  0.1577 -0.0567
   13TCq1    C2  196   0.800   4.216  11.217  0.0478  0.6180  0.5247
   13TCq1    C3  197   0.898   4.132  11.178 -0.0338  0.2701  0.0547
   13TCq1    C4  198   1.003   4.186  11.115  0.2351 -0.0212 -0.7571
   13TCq1    C5  199   1.021   4.317  11.095 -0.5743 -0.6237 -0.2097
   13TCq1    C6  200   0.925   4.399  11.146  0.3107  0.0279 -0.3684
   13TCq1    C7  201   0.808   4.352  11.200 -0.0981  0.2265 -0.3509
   13TCq1    C8  202   0.936   4.544  11.123  0.3973 -0.0574 -0.1476
   13TCq1    O4  203   0.891   4.617  11.208 -0.0737  0.4218 -0.3359
   13TCq1    C9  204   1.111   4.098  11.074  0.4776 -0.7444  0.0056
   13TCq1    O5  205   1.212   4.157  11.031 -0.7886 -0.7799  0.0852
   13TCq1    O6  206   1.087   3.973  11.066  0.2599 -0.2253 -0.2585
   13TCq1    H1  207   0.746   4.010  11.142  1.0025 -0.5462  1.1451
   13TCq1    H2  208   0.895   4.028  11.208 -1.1203  0.1293 -0.5670
   13TCq1    H3  209   1.109   4.356  11.045 -0.2961  0.9562  1.5183
   13TCq1    H4  210   0.734   4.420  11.241  1.2183  0.8061  1.0688
   14MPD2     C  211   1.091   4.696  10.813  0.0725 -0.4560  0.2532
   14MPD2    C1  212   1.031   4.693  10.939 -0.2195 -0.2214  0.0631
   14MPD2    C2  213   1.011   0.092  11.003 -0.6085  0.3090  0.7970
   14MPD2    C3  214   1.050   0.209  10.947  0.5731 -0.0880 -0.3654
   14MPD2    C4  215   1.117   0.215  10.828 -0.1071  0.3189 -0.1665
   14MPD2    C5  216   1.135   0.097  10.759 -0.5467 -0.8459 -0.2907
   14MPD2     H  217   0.976   0.091  11.106 -0.3740  0.5322  0.8802
   14MPD2    H1  218   1.152   0.307  10.782  0.6975  0.3272  0.4483
   14MPD2    H2  219   1.104   4.607  10.754  0.5427  0.4865 -1.0684
   14MPD2    H3  220   1.181   0.089  10.661 -0.4493  0.0179 -0.3192
   14MPD2     N  221   1.024   0.329  11.026  0.0189 -0.1232 -0.5894
   14MPD2    H5  222   1.001   0.311  11.123  2.0058 -1.1471 -0.3071
   14MPD2    N1  223   0.994   4.572  10.996 -0.1439 -0.0226  0.7110
   14MPD2    H7  224   0.992   4.492  10.933 -0.4825 -0.2936  1.0688
   15TCq1    O1  225   2.229   0.010   0.976 -0.3087 -0.0369  0.2749
   15TCq1    C1  226   2.249   0.058   1.104  0.0950 -0.3136  0.2283
   15TCq1    O2  227   2.190   0.155   1.152  0.4122  0.2338 -0.3611
   15TCq1    C2  228   2.364   4.720   1.162  0.1260 -0.3531 -0.3339
   15TCq1    C3  229   2.395   0.040   1.293 -0.0739 -0.0818 -0.0575
   15TCq1    C4  230   2.495   4.704   1.355  0.0955 -0.7581 -1.0120
   15TCq1    C5  231   2.576   4.615   1.292  0.8016  0.8265  0.4348
   15TCq1    C6  232   2.546   4.579   1.160  0.5795 -0.1301 -0.4285
   15TCq1    C7  233   2.446   4.639   1.091 -0.3822  0.1333  0.6241
   15TCq1    C8  234   2.632   4.483   1.093 -0.4464  1.3139  0.1384
   15TCq1    O4  235   2.723   4.445   1.161  0.0605 -0.3909  0.3516
   15TCq1    C9  236   2.516   0.013   1.493  0.1902  0.2528 -0.8645
   15TCq1    O5  237   2.611   4.674   1.549  0.1482 -0.1326 -0.4188
   15TCq1    O6  238   2.428   0.078   1.548  0.4110  0.7658 -0.0636
   15TCq1    H1  239   2.247   4.636   0.966  0.9602  0.1844  0.4848
   15TCq1    H2  240   2.322   0.103   1.343 -0.4392 -0.2147 -0.4185
   15TCq1    H3  241   2.641   4.557   1.357 -0.0427 -0.8641 -0.2267
   15TCq1    H4  242   2.425   4.619   0.987  1.1641 -1.0064  0.5437
   16MPD2     C  243   2.548   4.246   0.831  0.5529  0.8465 -0.1585
   16MPD2    C1  244   2.618   4.296   0.937  0.9134  0.2923 -0.2108
   16MPD2    C2  245   2.733   4.231   0.989  0.0457  0.4430 -0.2734
   16MPD2    C3  246   2.765   4.108   0.938 -0.0254 -0.4037 -0.2783
   16MPD2    C4  247   2.687   4.053   0.835 -1.0755 -0.2625 -0.0141
   16MPD2    C5  248   2.578   4.123   0.787 -0.1526 -0.3326  0.2467
   16MPD2     H  249   2.785   4.262   1.079  0.3801  0.2221 -0.3895
   16MPD2    H1  250   2.700   3.952   0.799  4.2862  0.6278 -0.6617
   16MPD2    H2  251   2.464   4.298   0.786 -1.1059 -1.6501  0.0532
   16MPD2    H3  252   2.527   4.084   0.700  1.5857  0.5132 -1.1736
   16MPD2     N  253   2.879   4.041   1.001  0.0141 -0.5906 -0.4435
   16MPD2    H5  254   2.919   4.078   1.086  5.4330 -2.2413 -2.2690
   16MPD2    N1  255   2.575   4.419   0.988  0.1100  0.0944 -0.5752
   16MPD2    H7  256   2.489   4.461   0.953  0.2621 -1.0401 -2.3224
   17TCq1    O1  257   1.474   4.205  10.477 -0.1458 -0.3631  0.2131
   17TCq1    C1  258   1.555   4.118  10.424 -0.2014  0.4235 -0.4534
   17TCq1    O2  259   1.590   4.111  10.305 -0.4023  0.1107 -0.4200
   17TCq1    C2  260   1.547   3.997  10.507  0.1498  0.3018 -0.1419
   17TCq1    C3  261   1.449   3.991  10.607 -0.3934  0.4424 -0.8528
   17TCq1    C4  262   1.468   3.887  10.697 -0.1355 -0.6573  0.5985
   17TCq1    C5  263   1.574   3.802  10.689  0.3891  0.7920 -0.2408
   17TCq1    C6  264   1.662   3.812  10.590  0.1231  0.3360 -0.6991
   17TCq1    C7  265   1.651   3.914  10.497  0.3513 -0.8782 -0.2384
   17TCq1    C8  266   1.745   3.710  10.560 -0.0966  0.9996 -0.1447
   17TCq1    O4  267   1.736   3.609  10.630 -0.8252  0.1035  0.1261
   17TCq1    C9  268   1.373   3.875  10.804  0.4522 -0.2737  0.3984
   17TCq1    O5  269   1.416   3.818  10.908  0.2632 -0.7047 -0.2593
   17TCq1    O6  270   1.268   3.947  10.798  0.6494  0.5369 -0.2481
   17TCq1    H1  271   1.441   4.196  10.569 -0.4192 -0.7293  0.0777
   17TCq1    H2  272   1.358   4.050  10.605 -1.4750 -1.2465 -1.2798
   17TCq1    H3  273   1.585   3.729  10.769  1.3891  1.3003  0.0774
   17TCq1    H4  274   1.711   3.928  10.408  2.0932  1.0644  1.2421
   18MPD2     C  275   1.961   3.528  10.470  0.4053  0.3888  0.5123
   18MPD2    C1  276   1.964   3.661  10.453 -0.5527  0.6476  0.6971
   18MPD2    C2  277   2.081   3.708  10.402 -0.0715  0.2492 -0.1875
   18MPD2    C3  278   2.188   3.635  10.361 -0.2069  0.4045  0.0105
   18MPD2    C4  279   2.180   3.499  10.376  0.1674 -0.8044  0.6522
   18MPD2    C5  280   2.068   3.446  10.434  0.7858 -0.1232  0.1218
   18MPD2     H  281   2.089   3.813  10.376 -0.1569  0.1320 -0.6868
   18MPD2    H1  282   2.259   3.434  10.338 -0.9818 -1.2715 -0.9260
   18MPD2    H2  283   1.880   3.473  10.518  1.3428  0.2477  1.9291
   18MPD2    H3  284   2.067   3.338  10.442 -0.2679 -0.2385 -1.5817
   18MPD2     N  285   2.307   3.703  10.310  0.2181 -0.7418 -1.3764
   18MPD2    H5  286   2.296   3.802  10.290  1.3434 -0.3202  0.1143
   18MPD2    N1  287   1.862   3.749  10.490 -0.2653  0.1180 -0.4535
   18MPD2    H7  288   1.859   3.843  10.450  1.7699  0.3473 -0.0294
   19TMC2    C1  289   2.833   0.372  13.603 -0.3800  0.4905  0.4095
   19TMC2    C2  290   2.798   0.431  13.481 -0.1398  0.0916 -0.3581
   19TMC2    C3  291   2.666   0.452  13.459 -0.3977  1.0888  0.5301
   19TMC2    C4  292   2.740   0.330  13.698  0.0334 -0.1103  0.0267
   19TMC2    C5  293   2.610   0.354  13.669  0.5899  0.1332 -0.8631
   19TMC2    C6  294   2.565   0.414  13.550 -0.5227  0.8542 -0.0454
   19TMC2     C  295   2.966   0.316  13.604 -0.1679 -0.2375 -0.1905
   19TMC2     O  296   3.034   0.315  13.502 -0.0057 -0.3444 -0.1304
   19TMC2     H  297   2.867   0.458  13.402  1.0100  0.5818  0.7996
   19TMC2    H1  298   2.769   0.270  13.783 -0.9155 -0.2896  0.2243
   19TMC2    H2  299   2.464   0.412  13.510 -0.9920  0.3373  1.1783
   19TMC2    C7  300   2.510   0.276  13.747  0.1897  0.2586 -0.1445
   19TMC2    C8  301   2.616   0.498  13.328  0.1618 -0.2370 -0.4852
   19TMC2    O1  302   2.562   0.171  13.788  0.1526 -0.2815  0.6985
   19TMC2    O2  303   2.664   0.467  13.221  0.3587  0.4810  0.0536
   19TMC2    O5  304   2.547   0.610  13.364  0.5189  0.0711 -0.1195
   19TMC2    H5  305   2.536   0.638  13.457 -0.1474  0.6512 -0.3702
   20MPD2     C  306   3.227   0.182  13.692  0.6913 -0.0790  0.2337
   20MPD2    C1  307   3.138   0.251  13.774 -0.3847 -0.4512 -0.3888
   20MPD2    C2  308   3.164   0.251  13.910  0.2399 -0.3226  0.0939
   20MPD2    C3  309   3.279   0.204  13.967 -0.1568  0.1094  0.2575
   20MPD2    C4  310   3.373   0.148  13.885  0.1291  0.2519  0.4138
   20MPD2    C5  311   3.343   0.131  13.752 -0.6632  0.1999 -0.6113
   20MPD2     H  312   3.104   0.313  13.975  0.1830  0.3905 -0.6357
   20MPD2    H1  313   3.468   0.120  13.929  0.2731 -0.5887 -0.4374
   20MPD2    H2  314   3.213   0.169  13.585 -1.5477  2.7982  0.1754
   20MPD2    H3  315   3.417   0.076  13.694 -0.0941  0.5399 -0.2174
   20MPD2     N  316   3.300   0.188  14.110  0.2301  0.3607 -0.6934
   20MPD2    H5  317   3.382   0.135  14.139  1.0813  1.3711 -1.2323
   20MPD2    N1  318   3.013   0.309  13.731 -0.3430 -0.0984  0.3375
   20MPD2    H7  319   2.949   0.343  13.803  2.0488  1.9575  1.5010
   21MPD2     C  320   0.176   0.931  14.164 -0.5826  0.3264  0.3499
   21MPD2    C1  321   0.279   0.853  14.220 -1.0016  0.1354  0.0955
   21MPD2    C2  322   0.270   0.812  14.352  0.2461  0.7731 -0.1776
   21MPD2    C3  323   0.155   0.841  14.429  0.1622 -0.3273  0.4140
   21MPD2    C4  324   0.052   0.900  14.365 -0.0725 -0.0698 -0.3319
   21MPD2    C5  325   0.064   0.956  14.245  0.4526 -0.1351 -0.7325
   21MPD2     H  326   0.350   0.755  14.398  1.3775  0.4584 -2.5586
   21MPD2    H1  327   4.686   0.922  14.424  1.0257 -1.0369  1.6764
   21MPD2    H2  328   0.176   0.982  14.068  3.4135  0.6009  0.5003
   21MPD2    H3  329   4.713   1.029  14.212  1.9141  0.9981 -1.4301
   21MPD2     N  330   0.143   0.808  14.564  0.0198 -0.8444 -0.3174
   21MPD2    H5  331   0.059   0.836  14.613  0.4437 -2.9308  1.5892
   21MPD2    N1  332   0.389   0.800  14.149 -0.4115  0.1691 -0.2837
   21MPD2    H7  333   0.454   0.746  14.205  1.0269  3.4959  1.2714
   22TCq2    C1  334   0.227   0.730  14.636 -0.1034 -0.0720  0.4805
   22TCq2    O2  335   0.335   0.669  14.609 -0.1903  0.1705 -0.0680
   22TCq2    C2  336   0.167   0.711  14.768  0.5303  0.5341  0.0262
   22TCq2    C3  337   0.199   0.591  14.828  0.0052  0.4904  0.3372
   22TCq2    C4  338   0.169   0.585  14.964  0.2322  0.5850  0.2254
   22TCq2    C5  339   0.133   0.696  15.039  0.5252 -0.0832 -0.4905
   22TCq2    C6  340   0.116   0.816  14.974  0.4684  0.7258  0.9487
   22TCq2    C7  341   0.127   0.831  14.838  0.3088 -1.0591 -0.3273
   22TCq2    C8  342   0.089   0.926  15.063  0.5031  0.4323  0.0038
   22TCq2    O4  343   0.129   0.919  15.176  0.3527 -0.5302 -0.0020
   22TCq2    C9  344   0.195   0.467  15.043  0.2440 -0.1830 -0.1233
   22TCq2    O5  345   0.254   0.376  14.975 -0.2003  0.3753  0.1183
   22TCq2    O6  346   0.179   0.481  15.164 -0.1762  0.6332  0.3159
   22TCq2    H2  347   0.229   0.505  14.770 -1.2086 -0.7818  1.5656
   22TCq2    H3  348   0.129   0.696  15.147  1.3730  0.0303 -0.4600
   22TCq2    H4  349   0.123   0.927  14.789 -1.1375 -0.4936  0.8939
   23MPD2     C  350   2.286   2.269  14.855  1.0166  0.1295 -0.4207
   23MPD2    C1  351   2.190   2.225  14.944 -0.2786 -0.1541 -0.1796
   23MPD2    C2  352   2.061   2.253  14.916  0.4787 -0.0183  0.1215
   23MPD2    C3  353   2.020   2.326  14.802  0.5702  0.2704 -0.2228
   23MPD2    C4  354   2.113   2.361  14.708  0.4000  0.4541  0.3045
   23MPD2    C5  355   2.246   2.333  14.741 -0.3413  0.1471  0.1858
   23MPD2     H  356   1.989   2.217  14.988  1.0751  0.7425  1.1003
   23MPD2    H1  357   2.078   2.416  14.621  2.1933 -0.7354 -1.1636
   23MPD2    H2  358   2.393   2.258  14.869  0.8167  0.5691  1.5766
   23MPD2    H3  359   2.324   2.367  14.673  0.7111 -1.2084  0.7340
   23MPD2     N  360   1.884   2.360  14.773 -0.2217 -0.0160 -0.1422
   23MPD2    H5  361   1.858   2.386  14.678  2.3780  2.3009 -0.2165
   23MPD2    N1  362   2.219   2.164  15.065 -0.1528  0.2420 -0.3534
   23MPD2    H7  363   2.150   2.115  15.120  1.0683 -0.5920  0.4247
   24TCq2    C1  364   1.787   2.349  14.861  0.2557 -0.0721 -0.5616
   24TCq2    O2  365   1.793   2.326  14.983 -0.6023  0.2834  0.7367
   24TCq2    C2  366   1.664   2.399  14.803 -0.4545  0.0225  0.0260
   24TCq2    C3  367   1.650   2.402  14.666 -0.2739 -0.8014 -0.4530
   24TCq2    C4  368   1.541   2.451  14.610 -0.5305  0.4295 -0.2095
   24TCq2    C5  369   1.438   2.495  14.691 -1.1586 -0.7736  0.0093
   24TCq2    C6  370   1.452   2.495  14.825  0.0276 -0.1139  0.3168
   24TCq2    C7  371   1.568   2.450  14.880  0.2699  0.2886  0.0242
   24TCq2    C8  372   1.336   2.512  14.916  0.0962  0.4750 -0.3486
   24TCq2    O4  373   1.364   2.505  15.035 -0.0238  0.2162  0.0534
   24TCq2    C9  374   1.513   2.444  14.466  0.2025  0.3575  0.1880
   24TCq2    O5  375   1.610   2.397  14.397 -0.1695  0.6135  0.4049
   24TCq2    O6  376   1.388   2.449  14.438 -0.2950 -0.3518 -0.1316
   24TCq2    H2  377   1.713   2.355  14.591  0.1407  2.0023 -1.8608
   24TCq2    H3  378   1.356   2.543  14.638 -1.9166 -0.6647  1.2804
   24TCq2    H4  379   1.592   2.466  14.984 -1.3124 -0.7437  0.5419
   25TMC2    C1  380   0.837   4.381  11.643 -0.0824  0.0601  0.2749
   25TMC2    C2  381   0.876   4.509  11.652 -0.2595  0.0248  0.7936
   25TMC2    C3  382   0.783   4.593  11.708 -0.1089 -0.4032  0.2816
   25TMC2    C4  383   0.731   4.328  11.708  0.2349 -0.4479  0.6615
   25TMC2    C5  384   0.655   4.412  11.778 -0.1885  0.6096 -0.4846
   25TMC2    C6  385   0.674   4.543  11.768  0.5233  0.2283  0.0194
   25TMC2     C  386   0.921   4.290  11.566 -0.3061  0.3425  0.0744
   25TMC2     O  387   1.019   4.342  11.515  0.1407  0.1224  0.2502
   25TMC2     H  388   0.970   4.546  11.614 -1.7885  0.2291 -2.7510
   25TMC2    H1  389   0.708   4.223  11.725  1.5630 -0.2937  3.4907
   25TMC2    H2  390   0.606   4.612  11.817 -2.5504 -1.2254 -2.1581
   25TMC2    C7  391   0.584   4.357  11.886  0.0489  0.5635 -0.3007
   25TMC2    C8  392   0.830   0.000  11.764 -0.2348 -0.0653  0.2287
   25TMC2    O1  393   0.633   4.269  11.960  0.0691 -0.3655 -0.0797
   25TMC2    O2  394   0.799   0.048  11.874  0.1921  0.1680  0.2804
   25TMC2    O5  395   0.929   0.051  11.692 -0.2292  0.7012 -0.4538
   25TMC2    H5  396   0.920   0.022  11.599  0.6415 -2.2415  0.3599
   26MPD2     C  397   1.073   3.828  11.436  0.2808  0.5696 -0.1945
   26MPD2    C1  398   0.943   3.818  11.477  0.2202  1.0660  0.2250
   26MPD2    C2  399   0.874   3.930  11.520  0.4177 -0.6521 -0.0994
   26MPD2    C3  400   0.939   4.050  11.511  0.0388 -0.6685 -0.0262
   26MPD2    C4  401   1.072   4.057  11.472  0.0051 -0.2371 -0.0277
   26MPD2    C5  402   1.140   3.944  11.438  0.8222 -0.5279 -0.7578
   26MPD2     H  403   0.771   3.928  11.555  0.3928  1.9827  0.0010
   26MPD2    H1  404   1.126   4.150  11.487  0.5643 -0.4922 -0.4824
   26MPD2    H2  405   1.130   3.738  11.417 -0.8389 -0.4705  1.3621
   26MPD2    H3  406   1.247   3.951  11.419  1.1666  0.4904  1.5803
   26MPD2     N  407   0.872   4.161  11.561 -0.6319  0.1750 -0.6707
   26MPD2    H5  408   0.784   4.145  11.609  0.5011 -0.2291  1.2613
   26MPD2    N1  409   0.891   3.690  11.468  0.1075  0.6150  0.1867
   26MPD2    H7  410   0.954   3.624  11.422  1.3040  2.4261 -0.7750
   27TMC2    C1  411   0.011   1.424  12.014 -0.9618  0.0095 -0.1994
   27TMC2    C2  412   4.710   1.443  11.881 -0.3241 -0.6112  0.2323
   27TMC2    C3  413   0.003   1.568  11.833 -0.3277 -0.1671  0.1587
   27TMC2    C4  414   0.055   1.521  12.099  0.7185  0.3192  0.9172
   27TMC2    C5  415   0.067   1.645  12.038  0.1529  0.8346  0.1209
   27TMC2    C6  416   0.046   1.672  11.909 -0.2621 -0.3971 -0.2357
   27TMC2     C  417   4.683   1.296  12.055 -1.0499  0.4494 -0.7711
   27TMC2     O  418   4.696   1.202  11.983  0.1822  0.0783  0.2324
   27TMC2     H  419   4.668   1.359  11.827  0.4814 -1.2462  0.5916
   27TMC2    H1  420   0.070   1.507  12.206  1.3629  0.4634  0.8461
   27TMC2    H2  421   0.063   1.772  11.870  2.2975 -0.1660  1.4767
   27TMC2    C7  422   0.089   1.748  12.139  0.3194 -0.3439  0.3249
   27TMC2    C8  423   4.686   1.601  11.701  0.3767 -0.4210 -0.4305
   27TMC2    O1  424   0.137   1.711  12.246 -0.7395  0.7902  1.0014
   27TMC2    O2  425   0.003   1.697  11.634 -0.2341  0.0457 -0.1272
   27TMC2    O5  426   4.569   1.522  11.682  0.8662 -0.2127 -0.0317
   27TMC2    H5  427   4.535   1.466  11.755  3.2292 -2.2425 -0.4705
   28MPD2     C  428   4.352   1.034  12.352 -0.2302  0.2433 -0.0520
   28MPD2    C1  429   4.354   1.162  12.391  0.1971 -0.0005 -0.3565
   28MPD2    C2  430   4.444   1.244  12.330 -0.4767  0.1846  0.1763
   28MPD2    C3  431   4.517   1.215  12.223  1.0033  0.3797  0.4104
   28MPD2    C4  432   4.516   1.083  12.180  0.1182 -0.3013  0.0285
   28MPD2    C5  433   4.435   0.995  12.248 -0.1485 -0.3145  0.4476
   28MPD2     H  434   4.463   1.343  12.370  0.4668  0.9002 -2.0324
   28MPD2    H1  435   4.577   1.047  12.098  0.6251 -1.8945  1.1137
   28MPD2    H2  436   4.277   0.966  12.392 -1.5803  1.1646 -0.9866
   28MPD2    H3  437   4.443   0.893  12.215  0.3688 -0.8555  2.2568
   28MPD2     N  438   4.593   1.317  12.159 -0.6469 -0.4464  0.9375
   28MPD2    H5  439   4.586   1.411  12.198  1.4598  0.4228 -0.7785
   28MPD2    N1  440   4.272   1.208  12.496 -0.3270 -0.1960 -0.2021
   28MPD2    H7  441   4.209   1.138  12.535 -1.6306  0.3731 -1.2971
   29MPD2     C  442   3.865   3.479  14.275 -0.3710 -0.6490  0.1470
   29MPD2    C1  443   3.912   3.456  14.402 -0.0994 -0.0009 -0.2036
   29MPD2    C2  444   3.940   3.571  14.474  0.6498  1.0547 -0.1040
   29MPD2    C3  445   3.923   3.701  14.427 -0.2201 -0.2689 -0.1504
   29MPD2    C4  446   3.880   3.715  14.301 -0.2650 -0.6365  0.0260
   29MPD2    C5  447   3.859   3.608  14.224 -0.1806 -0.3189 -0.9686
   29MPD2     H  448   3.973   3.553  14.576 -0.9587 -1.5197 -0.0506
   29MPD2    H1  449   3.864   3.808  14.248  0.3572 -2.0886 -2.7225
   29MPD2    H2  450   3.836   3.399  14.207  1.7585 -0.6040 -0.8036
   29MPD2    H3  451   3.816   3.620  14.125 -0.3816  0.6863 -0.7573
   29MPD2     N  452   3.939   3.821  14.498  0.5013 -0.7728 -0.0411
   29MPD2    H5  453   3.925   3.912  14.455 -1.4157 -0.7827  0.5885
   29MPD2    N1  454   3.942   3.325  14.453 -0.0890 -0.5983  0.4629
   29MPD2    H7  455   3.995   3.314  14.538  1.3260  0.5032 -0.2959
   30TCq2    C1  456   3.976   3.843  14.626 -0.6948 -1.0487 -0.1530
   30TCq2    O2  457   4.010   3.762  14.717 -0.0985 -0.2854 -0.6473
   30TCq2    C2  458   3.992   3.984  14.650 -0.0921  0.8320 -0.5231
   30TCq2    C3  459   4.034   4.019  14.779 -0.6535 -0.1675 -0.1423
   30TCq2    C4  460   4.080   4.143  14.800  0.0550 -1.1630  0.0299
   30TCq2    C5  461   4.104   4.228  14.693  0.6178 -0.1803  0.5151
   30TCq2    C6  462   4.063   4.187  14.567  0.1401 -0.2096  0.6341
   30TCq2    C7  463   3.994   4.077  14.547 -0.1351 -0.3553  0.1727
   30TCq2    C8  464   4.029   4.299  14.475  0.8536  0.0527 -0.5561
   30TCq2    O4  465   3.921   4.291  14.422 -0.2936  0.2774 -0.0645
   30TCq2    C9  466   4.109   4.186  14.935 -0.5983  0.1305  0.0303
   30TCq2    O5  467   4.177   4.294  14.939 -0.0477 -0.4350 -0.1892
   30TCq2    O6  468   4.060   4.118  15.030 -0.0270  0.2519  0.2333
   30TCq2    H2  469   4.026   3.947  14.860 -0.8936  1.0051  0.8732
   30TCq2    H3  470   4.144   4.325  14.719 -1.6155  0.5179  1.2700
   30TCq2    H4  471   3.956   4.063  14.447  1.1952  1.4735 -0.5934
   31MPD2     C  472   2.027   2.755  14.732 -0.0342 -0.6456 -0.0134
   31MPD2    C1  473   1.912   2.831  14.729  1.2875  0.8431  0.3330
   31MPD2    C2  474   1.822   2.819  14.838 -1.1389 -0.7795  0.0309
   31MPD2    C3  475   1.842   2.731  14.939 -0.2854 -0.2597 -0.1569
   31MPD2    C4  476   1.949   2.644  14.926  0.4722 -0.0801  0.4930
   31MPD2    C5  477   2.042   2.660  14.828  0.0196 -0.0411 -0.4358
   31MPD2     H  478   1.743   2.893  14.846 -0.0508  0.4084 -0.3102
   31MPD2    H1  479   1.980   2.567  14.995 -1.1234 -0.9140  0.2887
   31MPD2    H2  480   2.104   2.761  14.656  0.1878 -1.3232  0.1611
   31MPD2    H3  481   2.133   2.601  14.824  0.0089 -0.1769  1.3510
   31MPD2     N  482   1.759   2.710  15.050 -0.0854  0.3562  0.0024
   31MPD2    H5  483   1.790   2.632  15.108  0.7686  0.6591 -0.0504
   31MPD2    N1  484   1.893   2.931  14.626 -0.1115 -0.1469 -0.7176
   31MPD2    H7  485   1.969   2.955  14.564 -0.9825  0.4884 -1.5242
   32TCq2    C1  486   1.631   2.770  15.073  0.1132  0.1913 -0.5287
   32TCq2    O2  487   1.563   2.827  14.992 -0.4245  0.7452  0.1068
   32TCq2    C2  488   1.565   2.731  15.198 -0.3216 -0.2767  0.5506
   32TCq2    C3  489   1.432   2.768  15.196 -0.5758 -0.7604  0.1012
   32TCq2    C4  490   1.354   2.740  15.306  1.0799 -0.3364  0.2548
   32TCq2    C5  491   1.406   2.692  15.421  0.0895 -0.7993  0.4134
   32TCq2    C6  492   1.545   2.672  15.421 -0.0836  0.6916 -0.3239
   32TCq2    C7  493   1.626   2.682  15.309 -0.0645 -0.1193 -1.0314
   32TCq2    C8  494   1.623   2.638  15.542  0.5927  0.5939  0.4800
   32TCq2    O4  495   1.737   2.589  15.540 -0.3625  0.3615  0.2479
   32TCq2    C9  496   1.214   2.759  15.303 -0.0709  0.2714 -1.0384
   32TCq2    O5  497   1.158   2.794  15.415  0.4088 -0.1161 -0.1542
   32TCq2    O6  498   1.163   2.794  15.195  0.4493 -0.1845  0.2386
   32TCq2    H2  499   1.377   2.797  15.107  2.4144  1.0163 -1.1549
   32TCq2    H3  500   1.342   2.662  15.503 -1.8803  1.3010 -0.3304
   32TCq2    H4  501   1.732   2.661  15.315 -0.0630  1.2320  3.7738
   33MPD2     C  502   2.895   4.303  10.109 -0.4144 -0.2151 -0.7871
   33MPD2    C1  503   2.795   4.265  10.190 -0.2990  0.6839 -0.2312
   33MPD2    C2  504   2.703   4.362  10.240 -0.5380 -0.4739 -0.9118
   33MPD2    C3  505   2.717   4.494  10.200 -0.9356 -0.1815  0.0615
   33MPD2    C4  506   2.830   4.537  10.133 -0.1573 -1.0054 -0.1108
   33MPD2    C5  507   2.919   4.440  10.088 -0.0904 -0.3169 -0.4883
   33MPD2     H  508   2.620   4.326  10.300 -1.4935  2.9292 -0.1791
   33MPD2    H1  509   2.841   4.644  10.119  2.7374 -1.5700 -2.2195
   33MPD2    H2  510   2.960   4.229  10.063  0.6654  0.0210  0.3530
   33MPD2    H3  511   3.003   4.467  10.024 -0.0079 -1.1445 -0.7313
   33MPD2     N  512   2.622   4.597  10.229  1.2107 -0.5714 -0.2257
   33MPD2    H5  513   2.647   4.687  10.190  1.5806 -1.6116 -2.3401
   33MPD2    N1  514   2.779   4.129  10.223 -0.3146 -0.0535 -0.2329
   33MPD2    H7  515   2.862   4.070  10.227 -0.9233 -0.8929  0.0589
   34TCq2    C1  516   2.518   4.589  10.317 -0.4069 -0.4179  0.0296
   34TCq2    O2  517   2.467   4.486  10.363  0.6038  0.4506 -0.2152
   34TCq2    C2  518   2.442   4.718  10.329 -0.4221 -0.2620 -0.0313
   34TCq2    C3  519   2.339   4.714  10.413 -0.1434 -0.1167 -0.7910
   34TCq2    C4  520   2.301   0.109  10.465  0.4679 -0.1023  0.3802
   34TCq2    C5  521   2.363   0.228  10.446  0.0568  0.1149 -1.0030
   34TCq2    C6  522   2.463   0.228  10.349  0.6233 -1.3347  0.2200
   34TCq2    C7  523   2.507   0.113  10.295 -0.0998 -0.1425  0.2952
   34TCq2    C8  524   2.525   0.354  10.301 -0.2022  0.2480 -0.4932
   34TCq2    O4  525   2.641   0.344  10.264 -0.0146 -0.0490  0.4312
   34TCq2    C9  526   2.192   0.113  10.559 -0.3873  0.2509  0.0477
   34TCq2    O5  527   2.144   0.006  10.595 -0.0376 -0.3324  0.0400
   34TCq2    O6  528   2.181   0.222  10.626  0.2202 -0.2266 -0.1721
   34TCq2    H2  529   2.286   4.624  10.442  0.4864  0.4616  2.1222
   34TCq2    H3  530   2.337   0.322  10.494 -0.9305  0.2913 -1.8742
   34TCq2    H4  531   2.592   0.114  10.229  0.2024  0.0300  0.6833
   35MPD2     C  532   3.534   0.894  11.463 -0.1129  0.2585  0.1912
   35MPD2    C1  533   3.470   0.893  11.582  0.8366  0.6621  0.1792
   35MPD2    C2  534   3.344   0.952  11.588 -0.3201  0.3763 -0.1838
   35MPD2    C3  535   3.282   1.000  11.473  0.4777  0.0479 -0.0038
   35MPD2    C4  536   3.342   0.981  11.349  0.4482 -0.0503 -0.3828
   35MPD2    C5  537   3.469   0.922  11.346  0.0858  0.4467  0.6199
   35MPD2     H  538   3.301   0.973  11.685  1.6848  1.1836  0.5321
   35MPD2    H1  539   3.289   1.018  11.262 -0.7992 -0.6388  0.1314
   35MPD2    H2  540   3.639   0.869  11.456 -0.1462  0.7404 -1.8850
   35MPD2    H3  541   3.526   0.910  11.254 -0.3070  2.1761  0.1576
   35MPD2     N  542   3.162   1.074  11.482 -0.0766 -0.6515  0.3246
   35MPD2    H5  543   3.148   1.113  11.575  1.0289  0.9981 -0.1981
   35MPD2    N1  544   3.553   0.859  11.689 -0.0998  0.1957 -0.5815
   35MPD2    H7  545   3.653   0.854  11.673 -0.3689  0.0515 -2.2116
   36TCq2    C1  546   3.081   1.106  11.369 -0.1271 -0.6641  0.2079
   36TCq2    O2  547   3.082   1.069  11.252  0.4114 -0.1892 -0.1097
   36TCq2    C2  548   2.960   1.163  11.418 -0.5250  0.0636 -0.1885
   36TCq2    C3  549   2.847   1.143  11.345 -0.2742  0.2319  0.4425
   36TCq2    C4  550   2.733   1.209  11.384 -0.2323  0.2187 -0.0687
   36TCq2    C5  551   2.721   1.288  11.499 -0.1207  0.0349 -0.6425
   36TCq2    C6  552   2.836   1.296  11.579 -0.5118  0.4776  0.5346
   36TCq2    C7  553   2.957   1.237  11.535 -0.1914  1.1392 -1.0334
   36TCq2    C8  554   2.831   1.408  11.680 -0.3150  0.3370 -0.0688
   36TCq2    O4  555   2.734   1.475  11.652  0.6387 -0.5802 -0.2180
   36TCq2    C9  556   2.623   1.179  11.298  0.2844  0.2081  0.2424
   36TCq2    O5  557   2.638   1.100  11.198 -0.3010 -0.6334 -0.3033
   36TCq2    O6  558   2.521   1.246  11.323  0.1227  0.3102  0.0778
   36TCq2    H2  559   2.859   1.088  11.253 -0.1587 -0.7331  1.0251
   36TCq2    H3  560   2.619   1.315  11.525 -0.2352 -1.5703  0.5836
   36TCq2    H4  561   3.044   1.282  11.580  1.4788 -4.2533  1.1335
   37TMC2    C1  562   0.711   2.329  11.433 -0.0815 -0.7133 -0.1682
   37TMC2    C2  563   0.656   2.424  11.354 -1.2393  0.4214 -0.6627
   37TMC2    C3  564   0.733   2.472  11.251  0.2575 -0.2052  0.0103
   37TMC2    C4  565   0.836   2.276  11.421 -0.2827 -0.1997 -0.6901
   37TMC2    C5  566   0.907   2.325  11.316 -1.0559  0.0665 -0.4221
   37TMC2    C6  567   0.863   2.428  11.236  0.3103 -0.3151 -0.5380
   37TMC2     C  568   0.638   2.300  11.560  0.5373  0.2902  0.0099
   37TMC2     O  569   0.521   2.336  11.569 -0.1904 -0.3786 -0.2234
   37TMC2     H  570   0.560   2.469  11.378 -1.2246  0.7576 -1.2440
   37TMC2    H1  571   0.879   2.197  11.481 -1.0983 -1.3191 -1.5837
   37TMC2    H2  572   0.924   2.472  11.158 -1.9762  0.4697 -1.8921
   37TMC2    C7  573   1.043   2.280  11.317 -1.0463 -0.5208 -0.4086
   37TMC2    C8  574   0.691   2.598  11.193 -0.4222 -0.8214 -0.0220
   37TMC2    O1  575   1.086   2.226  11.415 -0.0207  0.1117  0.1232
   37TMC2    O2  576   0.647   2.692  11.252  0.2487  0.2017  0.2387
   37TMC2    O5  577   0.742   2.597  11.071  0.4075  0.0788  0.3231
   37TMC2    H5  578   0.739   2.510  11.025  0.3166  1.5376 -2.4258
   38MPD2     C  579   0.603   2.058  12.012  0.3038 -0.4784  0.1924
   38MPD2    C1  580   0.719   2.023  11.951  0.1967 -0.4705 -0.2244
   38MPD2    C2  581   0.751   2.078  11.828 -0.2580  0.4158  0.1160
   38MPD2    C3  582   0.664   2.171  11.772  0.2585  0.2031 -0.3126
   38MPD2    C4  583   0.556   2.218  11.840  0.7886  0.2218  0.3694
   38MPD2    C5  584   0.526   2.157  11.957 -0.4060 -0.1648  0.3580
   38MPD2     H  585   0.843   2.064  11.772 -0.1660  2.3386 -0.1962
   38MPD2    H1  586   0.500   2.305  11.806  1.7498  0.7860  0.2372
   38MPD2    H2  587   0.569   2.010  12.103 -0.6626  0.9238  0.5741
   38MPD2    H3  588   0.442   2.187  12.019 -0.1658  4.3650 -1.5606
   38MPD2     N  589   0.708   2.222  11.647  0.0554  0.1761 -0.4017
   38MPD2    H5  590   0.802   2.199  11.616 -0.3545  1.3181 -2.4663
   38MPD2    N1  591   0.797   1.918  11.999  0.5728 -0.3058 -0.3688
   38MPD2    H7  592   0.880   1.906  11.941  0.0474 -0.4005 -1.0976
   39MPD2     C  593   3.313   3.544   1.542 -0.0617  0.0477  0.7543
   39MPD2    C1  594   3.272   3.673   1.529 -0.7684 -0.0446  0.3796
   39MPD2    C2  595   3.148   3.697   1.468 -0.3193  0.5027  0.1559
   39MPD2    C3  596   3.076   3.594   1.413  0.1382  0.2001  0.5629
   39MPD2    C4  597   3.127   3.464   1.413 -0.1604  0.2012  0.5897
   39MPD2    C5  598   3.236   3.436   1.488 -0.2586 -1.1778 -0.1444
   39MPD2     H  599   3.116   3.794   1.432  2.7230  1.2298 -0.6234
   39MPD2    H1  600   3.080   3.372   1.382  1.6410 -0.0668 -1.3202
   39MPD2    H2  601   3.400   3.522   1.603 -0.1476 -0.3820  0.7253
   39MPD2    H3  602   3.269   3.333   1.492  1.8120 -0.5772 -1.6105
   39MPD2     N  603   2.953   3.607   1.342  0.4495  0.1239  0.1979
   39MPD2    H5  604   2.918   3.518   1.309 -0.3903  0.7002 -0.4584
   39MPD2    N1  605   3.361   3.779   1.577  0.0464  0.7204  1.0466
   39MPD2    H7  606   3.451   3.750   1.616  0.3383 -1.7375 -1.4788
   40TCq2    C1  607   3.325   3.907   1.590 -0.0498  0.3062  0.0858
   40TCq2    O2  608   3.210   3.952   1.588  0.0109  0.0072  0.0252
   40TCq2    C2  609   3.434   3.995   1.621  0.0733  0.1103 -0.1844
   40TCq2    C3  610   3.410   4.117   1.686 -0.5300  0.6173  0.0282
   40TCq2    C4  611   3.508   4.183   1.746 -0.7713  0.9097  0.1440
   40TCq2    C5  612   3.637   4.130   1.747 -0.6697  0.0731  0.3350
   40TCq2    C6  613   3.658   4.013   1.688  0.2034 -0.4743  0.9510
   40TCq2    C7  614   3.561   3.938   1.628  0.2340 -0.0424  0.2664
   40TCq2    C8  615   3.794   3.948   1.709 -0.3732 -0.0006  0.5216
   40TCq2    O4  616   3.807   3.828   1.711  0.2409 -0.4606 -0.6593
   40TCq2    C9  617   3.485   4.300   1.818  0.3568 -0.4013  0.1038
   40TCq2    O5  618   3.371   4.357   1.805 -0.0296  0.2878 -0.8986
   40TCq2    O6  619   3.579   4.340   1.899 -0.3292  0.4857  0.0611
   40TCq2    H2  620   3.311   4.159   1.677 -0.4485  1.5194  3.2170
   40TCq2    H3  621   3.713   4.173   1.811 -0.7913 -0.2504  0.6976
   40TCq2    H4  622   3.589   3.841   1.590 -2.6257 -0.4729 -0.7357
   41TMC2    C1  623   2.633   1.520  13.587  0.1694 -0.3559 -0.0621
   41TMC2    C2  624   2.738   1.611  13.605  0.2868  0.3744  0.7260
   41TMC2    C3  625   2.764   1.685  13.494  0.5930 -0.3107  0.1141
   41TMC2    C4  626   2.553   1.512  13.472 -0.2367  0.6956 -0.4271
   41TMC2    C5  627   2.592   1.597  13.367 -0.1827  1.0367  0.2551
   41TMC2    C6  628   2.697   1.686  13.376 -0.0909  0.4570 -0.0204
   41TMC2     C  629   2.634   1.413  13.683 -0.0806 -0.6973 -0.4106
   41TMC2     O  630   2.582   1.308  13.656  0.6284  0.5422  0.3953
   41TMC2     H  631   2.820   1.610  13.675 -0.6527 -1.6716  1.8111
   41TMC2    H1  632   2.469   1.446  13.455  1.3017 -0.8923 -1.8824
   41TMC2    H2  633   2.724   1.757  13.299  1.1587 -0.7485 -0.6988
   41TMC2    C7  634   2.503   1.601  13.254  0.4345 -0.2474  0.1082
   41TMC2    C8  635   2.871   1.786  13.522 -0.4182  0.0490  0.4517
   41TMC2    O1  636   2.388   1.566  13.263  0.0612 -0.1899 -0.0003
   41TMC2    O2  637   2.906   1.846  13.424  0.1016 -0.3045 -0.2142
   41TMC2    O5  638   2.842   1.843  13.637 -0.7933 -0.4520 -0.0577
   41TMC2    H5  639   2.763   1.807  13.682 -1.9427  0.0322 -1.6907
   42MPD2     C  640   2.715   1.229  13.906  0.0176 -0.1134  0.1013
   42MPD2    C1  641   2.713   1.368  13.915 -0.8109 -0.1808  0.2250
   42MPD2    C2  642   2.756   1.430  14.029  0.6648  0.6682 -0.0028
   42MPD2    C3  643   2.797   1.366  14.142  0.5186 -0.6158  0.3327
   42MPD2    C4  644   2.806   1.228  14.136  0.7958 -0.6467  1.0791
   42MPD2    C5  645   2.759   1.166  14.023  0.0014 -0.2853 -0.2685
   42MPD2     H  646   2.750   1.539  14.025 -0.8761  0.6521  1.6627
   42MPD2    H1  647   2.833   1.167  14.221  0.9279 -0.6392  1.0422
   42MPD2    H2  648   2.697   1.176  13.813  1.0707 -0.7505  0.2599
   42MPD2    H3  649   2.747   1.059  14.027  1.6951 -0.3381  2.6288
   42MPD2     N  650   2.839   1.429  14.264 -0.4069 -0.2231 -0.3643
   42MPD2    H5  651   2.900   1.370  14.319  0.9354  1.0941 -0.4387
   42MPD2    N1  652   2.674   1.455  13.806 -0.4793  0.2423  0.0351
   42MPD2    H7  653   2.689   1.555  13.812 -1.2649  0.4800 -1.8574
   43MPD2     C  654   4.462   0.666   0.826 -0.6991 -0.2984 -0.0861
   43MPD2    C1  655   4.394   0.552   0.859  0.3077 -0.1208  0.8125
   43MPD2    C2  656   4.263   0.567   0.908 -0.4635 -0.4855  0.8117
   43MPD2    C3  657   4.202   0.688   0.914 -0.3375 -0.1636  1.1753
   43MPD2    C4  658   4.268   0.801   0.866 -0.8631  0.6451 -0.3721
   43MPD2    C5  659   4.402   0.788   0.834 -0.4587  0.6960  0.1466
   43MPD2     H  660   4.212   0.481   0.950  0.9914 -1.8400 -0.2209
   43MPD2    H1  661   4.221   0.899   0.862 -0.7713  0.7767  1.7642
   43MPD2    H2  662   4.564   0.668   0.791 -0.9425  4.1800 -0.4551
   43MPD2    H3  663   4.463   0.875   0.812 -0.5012 -0.2187 -3.5692
   43MPD2     N  664   4.066   0.711   0.955  0.5662  0.2090  0.2393
   43MPD2    H5  665   4.029   0.805   0.948  1.2165  0.2966 -2.0196
   43MPD2    N1  666   4.454   0.424   0.830  0.0884 -0.1096 -0.0432
   43MPD2    H7  667   4.406   0.340   0.859  2.3693 -1.7970 -1.1247
   44TCq2    C1  668   3.610   0.660   1.306 -0.7232  0.6632 -0.3579
   44TCq2    O2  669   3.702   0.628   1.383 -0.5545  0.2963 -0.6746
   44TCq2    C2  670   3.656   0.664   1.163  0.3037  0.3472  0.1533
   44TCq2    C3  671   3.597   0.758   1.084 -0.1460  0.2078  0.1453
   44TCq2    C4  672   3.667   0.804   0.975 -0.3578 -0.0249 -0.2990
   44TCq2    C5  673   3.799   0.768   0.953 -0.0666  0.4077 -0.6377
   44TCq2    C6  674   3.852   0.674   1.046  0.0617 -0.3821  0.4610
   44TCq2    C7  675   3.782   0.617   1.142 -0.6051 -0.4900  0.4445
   44TCq2    C8  676   3.989   0.615   1.016 -0.0501  0.6554 -0.4805
   44TCq2    O4  677   4.020   0.502   1.050  0.4517  0.1437  0.3651
   44TCq2    C9  678   3.599   0.903   0.897 -0.6012 -0.0260  0.1515
   44TCq2    O5  679   3.481   0.945   0.930  0.3322 -0.0706  0.2265
   44TCq2    O6  680   3.663   0.963   0.803 -0.2371 -0.1546 -0.1002
   44TCq2    H2  681   3.501   0.798   1.112  0.7905  1.2650  1.8485
   44TCq2    H3  682   3.853   0.828   0.880  0.5646  0.9822  0.3007
   44TCq2    H4  683   3.823   0.538   1.204  1.9043  1.2629  1.0535
   45TMC2    C1  684   0.594   1.460  10.138 -0.1724  0.3309  0.2646
   45TMC2    C2  685   0.508   1.430  10.243 -0.2011 -0.0826  0.3202
   45TMC2    C3  686   0.523   1.517  10.349 -0.4736 -0.2543 -0.4720
   45TMC2    C4  687   0.690   1.548  10.144  0.0076  0.4361 -0.3969
   45TMC2    C5  688   0.698   1.633  10.248 -0.3199  0.2600  0.4365
   45TMC2    C6  689   0.615   1.615  10.360  0.2428  0.6976 -0.4485
   45TMC2     C  690   0.588   1.373  10.029 -0.3249  0.3293  0.1631
   45TMC2     O  691   0.512   1.278  10.048 -0.4532  0.0375  0.6615
   45TMC2     H  692   0.437   1.348  10.249  2.9467 -2.8579 -0.1542
   45TMC2    H1  693   0.766   1.550  10.068 -0.7759 -2.1566 -1.2596
   45TMC2    H2  694   0.624   1.670  10.453  0.5983  1.2063 -0.7849
   45TMC2    C7  695   0.808   1.726  10.246  0.0715 -0.0965  0.0860
   45TMC2    C8  696   0.422   1.526  10.449 -0.6069 -0.6617 -0.0063
   45TMC2    O1  697   0.885   1.718  10.152 -0.0496 -0.2888  0.1689
   45TMC2    O2  698   0.414   1.632  10.516  0.4880  0.4786  0.1062
   45TMC2    O5  699   0.425   1.410  10.512  0.1336  0.2678 -0.2837
   45TMC2    H5  700   0.448   1.328  10.463  3.4689  0.4241  1.0070
   46MPD2     C  701   0.661   1.198   9.801  0.0967  0.5698 -0.9943
   46MPD2    C1  702   0.645   1.338   9.793  0.4503  0.6737  0.9499
   46MPD2    C2  703   0.665   1.399   9.672 -0.4747 -0.2567 -0.6583
   46MPD2    C3  704   0.659   1.325   9.554  0.2270 -0.2402 -0.1070
   46MPD2    C4  705   0.670   1.186   9.565  0.9555 -0.5071 -0.4146
   46MPD2    C5  706   0.674   1.125   9.690  0.1694  0.4483 -0.4038
   46MPD2     H  707   0.670   1.505   9.654  1.6746 -0.5097 -1.5369
   46MPD2    H1  708   0.666   1.129   9.472 -0.5285  1.8363 -1.7571
   46MPD2    H2  709   0.650   1.151   9.899 -0.2392 -0.9079 -1.7316
   46MPD2    H3  710   0.678   1.017   9.697 -5.0333  0.3373  0.5672
   46MPD2     N  711   0.654   1.396   9.434 -0.0122  0.1348  0.1499
   46MPD2    H5  712   0.633   1.495   9.441 -0.4863  0.1731 -1.7162
   46MPD2    N1  713   0.636   1.420   9.912 -0.2275  0.2141 -0.7073
   46MPD2    H7  714   0.656   1.519   9.906  0.3503  0.1606  0.3914
   47TMC2    C1  715   2.836   2.533   9.316  0.3301 -0.5024  0.1537
   47TMC2    C2  716   2.789   2.426   9.384 -0.1763 -0.3265  0.0985
   47TMC2    C3  717   2.657   2.425   9.418 -0.1528  0.2043  0.4757
   47TMC2    C4  718   2.755   2.645   9.285  0.8527 -0.1601  0.4240
   47TMC2    C5  719   2.622   2.631   9.313  0.2957 -0.7759 -0.1804
   47TMC2    C6  720   2.570   2.525   9.388  0.3113  0.0339 -0.3122
   47TMC2     C  721   2.970   2.576   9.346  0.0577  0.2045  0.1206
   47TMC2     O  722   2.994   2.697   9.343  0.2374  0.1263 -0.4191
   47TMC2     H  723   2.847   2.335   9.398 -0.5124 -0.6856 -0.8226
   47TMC2    H1  724   2.795   2.744   9.267  0.1449  0.1788  0.6923
   47TMC2    H2  725   2.469   2.526   9.429  1.3828  2.4706  2.2285
   47TMC2    C7  726   2.533   2.733   9.264 -0.1495 -0.1592  0.4563
   47TMC2    C8  727   2.603   2.322   9.503 -0.5594  0.1588 -0.3807
   47TMC2    O1  728   2.566   2.798   9.168  0.4636 -0.1954  0.1952
   47TMC2    O2  729   2.668   2.220   9.513  0.6467  0.0330  0.2008
   47TMC2    O5  730   2.567   2.403   9.607  0.4685  0.0068 -0.0394
   47TMC2    H5  731   2.540   2.497   9.597  3.4321  1.0225  1.6695
   48MPD2     C  732   3.265   2.577   9.407  0.4656  0.5367 -0.3021
   48MPD2    C1  733   3.183   2.469   9.386  0.0741 -0.6615  0.3143
   48MPD2    C2  734   3.238   2.341   9.408 -0.1284  0.2672  0.4551
   48MPD2    C3  735   3.362   2.328   9.466  0.5924 -0.0435  0.1401
   48MPD2    C4  736   3.442   2.438   9.481 -0.2682  0.2264 -0.4601
   48MPD2    C5  737   3.397   2.562   9.445  0.2832 -0.3034 -0.1165
   48MPD2     H  738   3.181   2.250   9.393  0.7700 -0.4600  1.4712
   48MPD2    H1  739   3.546   2.433   9.512 -0.2226 -0.4764 -0.7082
   48MPD2    H2  740   3.232   2.679   9.388 -2.1440  0.0775  1.7647
   48MPD2    H3  741   3.462   2.648   9.453  0.5219 -0.4858 -0.0751
   48MPD2     N  742   3.394   2.201   9.517 -0.5339 -0.4148 -0.3671
   48MPD2    H5  743   3.330   2.126   9.493 -0.9295 -0.0051 -0.5903
   48MPD2    N1  744   3.048   2.470   9.353 -0.2651 -0.4176  0.1739
   48MPD2    H7  745   3.004   2.379   9.353 -0.9986 -0.0625  0.7134
   49MPD2     C  746   0.145   3.683  10.992 -0.2444 -0.1787  0.2524
   49MPD2    C1  747   0.182   3.715  10.859 -0.4187  0.4866  0.0085
   49MPD2    C2  748   0.298   3.799  10.842  0.2314 -0.3247 -0.3890
   49MPD2    C3  749   0.356   3.858  10.957 -0.9749 -0.0864 -1.1375
   49MPD2    C4  750   0.313   3.831  11.081 -0.0264  0.4691  0.0647
   49MPD2    C5  751   0.211   3.747  11.097  0.1404 -0.2338  0.8068
   49MPD2     H  752   0.325   3.833  10.742  1.6731 -1.8674 -0.5234
   49MPD2    H1  753   0.361   3.886  11.161  3.0668 -0.1132 -1.3703
   49MPD2    H2  754   0.057   3.624  11.018  0.3718 -1.3399 -0.2874
   49MPD2    H3  755   0.161   3.743  11.193 -0.0309 -1.4046  0.6654
   49MPD2     N  756   0.452   3.958  10.944 -0.9974 -0.2228  0.6939
   49MPD2    H5  757   0.472   4.015  11.025 -0.4489  0.3893  0.1261
   49MPD2    N1  758   0.115   3.688  10.733  1.1248  0.6139  0.8061
   49MPD2    H7  759   0.144   3.736  10.648  1.1329 -2.1773 -0.7682
   50TCq2    C1  760   0.016   3.594  10.724  0.3131  0.0195 -0.0664
   50TCq2    O2  761   4.715   3.505  10.802 -0.4597 -0.4007 -0.2930
   50TCq2    C2  762   4.662   3.605  10.599 -0.7983 -0.2910  0.4786
   50TCq2    C3  763   4.587   3.499  10.555 -0.2875  0.3678  0.6221
   50TCq2    C4  764   4.507   3.515  10.446 -0.4175 -0.1739 -0.5269
   50TCq2    C5  765   4.505   3.636  10.379  0.4021 -0.1847  0.0971
   50TCq2    C6  766   4.578   3.738  10.427 -0.8122 -0.6301  0.4519
   50TCq2    C7  767   4.655   3.728  10.537 -0.1717  0.7569  0.0069
   50TCq2    C8  768   4.604   3.855  10.348  0.0927 -0.3603  0.6370
   50TCq2    O4  769   4.637   3.951  10.412 -0.5913 -0.2338 -0.1506
   50TCq2    C9  770   4.410   3.417  10.418 -0.5899  0.5570 -0.7236
   50TCq2    O5  771   4.339   3.434  10.313  0.0096  0.3637  0.2701
   50TCq2    O6  772   4.398   3.318  10.494  0.0579 -0.7705  0.2606
   50TCq2    H2  773   4.573   3.412  10.618  2.6612  1.3000  2.5819
   50TCq2    H3  774   4.444   3.655  10.291 -1.8666  1.7815  2.0911
   50TCq2    H4  775   4.698   3.814  10.586 -0.6515  1.7716 -1.3563
   51MPD2     C  776   0.449   3.366   1.023 -0.6478 -0.1519  0.0563
   51MPD2    C1  777   0.410   3.260   1.100  0.6930 -0.3352  0.0817
   51MPD2    C2  778   0.430   3.268   1.236  0.1468 -0.1513  0.7965
   51MPD2    C3  779   0.489   3.377   1.288  0.2274 -0.9055  0.3199
   51MPD2    C4  780   0.528   3.480   1.211 -0.3063  0.5346 -0.5929
   51MPD2    C5  781   0.501   3.479   1.079 -0.7417 -0.0904  0.1963
   51MPD2     H  782   0.396   3.189   1.303 -0.5029  0.3116  1.0011
   51MPD2    H1  783   0.581   3.561   1.259 -1.1697  0.3899  0.5908
   51MPD2    H2  784   0.455   3.354   0.915 -0.7632  1.9064 -0.1813
   51MPD2    H3  785   0.536   3.564   1.021  0.0188 -0.2960  0.3559
   51MPD2     N  786   0.530   3.381   1.425  0.2089  0.9888 -0.2909
   51MPD2    H5  787   0.601   3.451   1.447  0.8903 -0.3525  1.7671
   51MPD2    N1  788   0.392   3.122   1.055 -0.6375  0.6532  0.3024
   51MPD2    H7  789   0.379   3.056   1.131 -2.9653 -1.2545 -1.7439
   52TCq2    C1  790   0.485   3.294   1.523 -0.7091  1.0600  0.3687
   52TCq2    O2  791   0.383   3.225   1.530  0.3367 -0.1886 -0.0688
   52TCq2    C2  792   0.543   3.328   1.651  1.1516 -0.0954  0.2277
   52TCq2    C3  793   0.468   3.313   1.763 -0.2118  0.6579  0.0876
   52TCq2    C4  794   0.535   3.308   1.884 -0.5781  0.0576  0.0703
   52TCq2    C5  795   0.669   3.318   1.896 -0.0493 -0.2292  0.5243
   52TCq2    C6  796   0.741   3.324   1.776  1.0101 -0.3709 -0.5580
   52TCq2    C7  797   0.681   3.327   1.653  0.2025 -0.2249 -0.2497
   52TCq2    C8  798   0.884   3.345   1.775  0.4299 -0.2851 -1.1691
   52TCq2    O4  799   0.918   3.412   1.685  0.7991  0.2797  0.3407
   52TCq2    C9  800   0.450   3.289   1.999  0.1909  0.7370 -0.5582
   52TCq2    O5  801   0.332   3.338   1.994  0.0727 -0.8534  0.4371
   52TCq2    O6  802   0.506   3.249   2.106  0.1274 -0.3566  0.7042
   52TCq2    H2  803   0.361   3.295   1.764 -0.3389  1.4654  0.5264
   52TCq2    H3  804   0.709   3.317   1.996  0.3356 -0.0291  0.3706
   52TCq2    H4  805   0.734   3.332   1.559 -0.5341  1.2532 -0.5796
   53TMC2    C1  806   1.718   2.134  11.505  0.0805 -0.3278  0.6626
   53TMC2    C2  807   1.796   2.018  11.506  0.3048  0.2618 -0.2748
   53TMC2    C3  808   1.804   1.942  11.619  0.5543 -0.2138 -0.1494
   53TMC2    C4  809   1.650   2.172  11.617 -0.2444  0.1411  0.0182
   53TMC2    C5  810   1.674   2.102  11.727  0.1992  1.0148 -0.2742
   53TMC2    C6  811   1.745   1.985  11.736 -0.5817  0.3888 -0.4993
   53TMC2     C  812   1.681   2.187  11.380 -0.1625 -0.1042 -0.1600
   53TMC2     O  813   1.754   2.179  11.286  0.9378 -0.2247  0.0931
   53TMC2     H  814   1.832   1.978  11.411 -2.5874  1.0639 -1.7272
   53TMC2    H1  815   1.589   2.262  11.622 -0.3569  0.0462  0.3273
   53TMC2    H2  816   1.764   1.926  11.825 -4.5586  0.2844  0.2885
   53TMC2    C7  817   1.582   2.127  11.840  0.4263  0.0922 -0.1009
   53TMC2    C8  818   1.931   1.868  11.630 -0.9717 -0.3581  0.0195
   53TMC2    O1  819   1.531   2.237  11.838  0.4550  0.7320 -0.3873
   53TMC2    O2  820   1.992   1.893  11.732  0.0050  0.7491  0.6308
   53TMC2    O5  821   1.970   1.821  11.515 -0.3153 -0.1098  0.2734
   53TMC2    H5  822   1.895   1.802  11.455 -0.3382  1.3085 -0.1404
   54MPD2     C  823   1.524   2.289  11.145 -0.0510 -0.5763 -0.8540
   54MPD2    C1  824   1.475   2.261  11.270 -0.9847  0.4195 -0.1553
   54MPD2    C2  825   1.342   2.272  11.290  0.0200 -0.2388 -0.8452
   54MPD2    C3  826   1.255   2.315  11.191 -0.1662  0.1909 -0.1107
   54MPD2    C4  827   1.303   2.359  11.068 -0.6298  0.6867 -0.2873
   54MPD2    C5  828   1.437   2.343  11.047 -0.0939  0.0978 -0.0882
   54MPD2     H  829   1.310   2.244  11.389 -0.4696  0.9052 -0.6828
   54MPD2    H1  830   1.247   2.399  10.984  1.1344 -1.2671 -2.3903
   54MPD2    H2  831   1.628   2.272  11.118  0.3081 -0.6814  0.6331
   54MPD2    H3  832   1.486   2.362  10.953  1.1150  0.9364  0.7038
   54MPD2     N  833   1.114   2.331  11.209 -0.3641  0.4565  0.7715
   54MPD2    H5  834   1.056   2.351  11.128 -0.5018 -0.4544  0.6379
   54MPD2    N1  835   1.545   2.204  11.381  0.2125 -0.2847 -0.3411
   54MPD2    H7  836   1.490   2.200  11.467  1.8155  0.3999  0.7254
   55MPD2     C  837   1.927   4.194   0.448  0.5187  1.0018  0.4240
   55MPD2    C1  838   1.826   4.144   0.519 -0.0650  0.2464 -0.1767
   55MPD2    C2  839   1.698   4.194   0.508 -0.1181  0.5711 -0.3549
   55MPD2    C3  840   1.674   4.296   0.422 -0.3010 -0.0849  0.3005
   55MPD2    C4  841   1.774   4.363   0.358 -0.5397  0.5270 -0.2100
   55MPD2    C5  842   1.898   4.308   0.373  0.0786  0.9333 -0.1210
   55MPD2     H  843   1.613   4.151   0.561  0.0342 -0.2861 -0.8065
   55MPD2    H1  844   1.765   4.443   0.286  2.0445  0.9001 -0.1011
   55MPD2    H2  845   2.028   4.155   0.450  0.0623 -0.1291  1.6811
   55MPD2    H3  846   1.974   4.368   0.324  0.6004  0.1690 -0.2496
   55MPD2     N  847   1.533   4.342   0.412 -0.6271 -0.4472 -0.2486
   55MPD2    H5  848   1.460   4.303   0.471  1.3442 -1.0041  1.8214
   55MPD2    N1  849   1.855   4.032   0.607 -0.3000 -0.0770 -0.6978
   55MPD2    H7  850   1.954   4.027   0.629 -1.0695 -0.3155  2.6840
   56TCq2    C1  851   1.762   3.948   0.664 -0.7772 -0.5333 -0.0603
   56TCq2    O2  852   1.644   3.933   0.638 -0.5938  0.2784 -0.1668
   56TCq2    C2  853   1.819   3.840   0.742  0.2439  0.3674  0.4437
   56TCq2    C3  854   1.951   3.807   0.730  1.8622  0.6111  0.6424
   56TCq2    C4  855   1.997   3.697   0.789  0.1669 -0.1365 -1.0109
   56TCq2    C5  856   1.913   3.610   0.863 -0.1290 -0.0827 -0.0196
   56TCq2    C6  857   1.781   3.648   0.875 -0.4893 -0.0975  0.6233
   56TCq2    C7  858   1.729   3.757   0.809  0.1831 -0.1651  0.2689
   56TCq2    C8  859   1.696   3.577   0.968  0.0402 -0.5448  0.4950
   56TCq2    O4  860   1.751   3.514   1.058  0.1590  0.0013  0.1155
   56TCq2    C9  861   2.147   3.687   0.775  0.7529  0.2893 -0.0688
   56TCq2    O5  862   2.199   3.584   0.827  0.3467 -0.2016  0.5800
   56TCq2    O6  863   2.211   3.774   0.709  0.5833  0.1460  0.0906
   56TCq2    H2  864   2.021   3.875   0.685 -0.2248 -0.1692 -3.7580
   56TCq2    H3  865   1.973   3.544   0.924 -0.8035 -0.3474  0.3555
   56TCq2    H4  866   1.627   3.788   0.829  0.6409  1.2145  0.4395
   57TMC2    C1  867   1.455   0.843  13.196 -0.3993  0.0804 -0.2228
   57TMC2    C2  868   1.429   0.724  13.257  1.1714  0.0304 -0.0736
   57TMC2    C3  869   1.466   0.612  13.185  0.4688 -1.0028  0.3002
   57TMC2    C4  870   1.519   0.859  13.077 -0.3977 -0.2988 -0.2022
   57TMC2    C5  871   1.581   0.744  13.029  0.3371  0.9294  0.4767
   57TMC2    C6  872   1.552   0.622  13.079 -0.4448 -0.0039  0.3206
   57TMC2     C  873   1.372   0.953  13.250 -0.2599  0.5316  0.3348
   57TMC2     O  874   1.328   0.941  13.363 -0.0494 -1.1433  0.2857
   57TMC2     H  875   1.390   0.711  13.358 -0.3500 -2.3616 -0.9716
   57TMC2    H1  876   1.543   0.953  13.028  2.6466 -0.7957  0.3709
   57TMC2    H2  877   1.580   0.529  13.030 -1.5357  1.7899 -3.6997
   57TMC2    C7  878   1.672   0.748  12.911 -0.3444  0.5020 -0.4147
   57TMC2    C8  879   1.509   0.499  13.263 -0.4696  0.0807 -0.6048
   57TMC2    O1  880   1.674   0.849  12.845 -0.1964 -0.2262  0.0139
   57TMC2    O2  881   1.551   0.518  13.378  0.0722 -0.1806  0.1354
   57TMC2    O5  882   1.395   0.428  13.243  0.6981  0.2536 -0.1548
   57TMC2    H5  883   1.356   0.448  13.156  0.0959  0.2106  0.1047
   58MPD2     C  884   1.099   1.380  13.235 -0.4334 -0.0726  0.2206
   58MPD2    C1  885   1.090   1.269  13.322  0.3616  0.4361  0.2988
   58MPD2    C2  886   1.162   1.156  13.283  0.3087 -0.4364 -0.2913
   58MPD2    C3  887   1.239   1.151  13.176  0.5430 -1.2610 -0.3745
   58MPD2    C4  888   1.238   1.252  13.084 -0.2484 -0.1424 -0.6661
   58MPD2    C5  889   1.170   1.367  13.117 -0.0330  0.0272  0.4587
   58MPD2     H  890   1.151   1.066  13.342 -0.6923 -0.1654 -0.0570
   58MPD2    H1  891   1.281   1.249  12.984 -0.9576 -1.3767 -0.9243
   58MPD2    H2  892   1.030   1.463  13.244 -0.1556  0.4446 -2.4787
   58MPD2    H3  893   1.170   1.439  13.036  0.8962 -1.7061 -1.0874
   58MPD2     N  894   1.326   1.041  13.152 -1.5429 -0.7584  0.5014
   58MPD2    H5  895   1.382   1.040  13.068  0.5007 -1.1971  1.8713
   58MPD2    N1  896   1.001   1.277  13.433  0.0818  0.0441 -0.2161
   58MPD2    H7  897   0.974   1.374  13.449 -0.7312  0.1670 -2.3686
   59MPD2     C  898   3.758   1.581  13.058  0.0143  0.6669  0.3924
   59MPD2    C1  899   3.794   1.492  13.155  0.1551  0.5232 -0.8156
   59MPD2    C2  900   3.871   1.534  13.265 -0.8323  0.2693 -0.2209
   59MPD2    C3  901   3.909   1.663  13.269 -0.0276 -0.0335 -0.2070
   59MPD2    C4  902   3.862   1.759  13.181  0.8916 -0.0969 -0.2274
   59MPD2    C5  903   3.781   1.715  13.080  0.2546 -0.1352 -0.3382
   59MPD2     H  904   3.891   1.469  13.349 -0.0866 -1.6461 -1.8729
   59MPD2    H1  905   3.893   1.862  13.167 -1.1809  0.4925 -0.3771
   59MPD2    H2  906   3.688   1.552  12.980 -0.3100  0.9274  0.5870
   59MPD2    H3  907   3.754   1.784  13.000 -1.5830  0.8408  1.1242
   59MPD2     N  908   4.009   1.717  13.357  0.7407 -0.3497  0.3194
   59MPD2    H5  909   4.046   1.809  13.340 -2.1683  1.1474  2.1678
   59MPD2    N1  910   3.772   1.352  13.137 -1.0029 -0.7893  0.2505
   59MPD2    H7  911   3.810   1.286  13.205 -1.3077 -0.2006  1.0023
   60TCq2    C1  912   3.700   1.288  13.038 -0.1050 -0.1525 -0.3853
   60TCq2    O2  913   3.664   1.335  12.933 -0.0086 -0.1469 -0.0698
   60TCq2    C2  914   3.657   1.156  13.076  0.0827 -0.0438 -0.2505
   60TCq2    C3  915   3.668   1.115  13.205 -0.8026  0.3631  0.4199
   60TCq2    C4  916   3.600   0.998  13.243 -0.5352  0.6024 -1.0432
   60TCq2    C5  917   3.528   0.927  13.153 -0.2959 -0.3976  0.4201
   60TCq2    C6  918   3.521   0.973  13.025  0.6796  0.0291  0.4856
   60TCq2    C7  919   3.583   1.090  12.987 -0.4509 -0.1904  0.1568
   60TCq2    C8  920   3.452   0.887  12.930  0.3082 -0.0907  0.3286
   60TCq2    O4  921   3.368   0.808  12.978  0.0951  0.4529  0.0171
   60TCq2    C9  922   3.605   0.961  13.381  0.5472 -0.1318 -0.2546
   60TCq2    O5  923   3.568   0.842  13.408  0.4594  0.4948 -0.0327
   60TCq2    O6  924   3.645   1.047  13.463 -0.2901 -0.0757 -0.6094
   60TCq2    H2  925   3.712   1.176  13.282 -0.1462  0.9013 -0.3707
   60TCq2    H3  926   3.490   0.831  13.186 -3.2460  0.6165 -0.0515
   60TCq2    H4  927   3.566   1.130  12.888 -1.5654  1.9982  1.2224
   61MPD2     C  928   3.359   2.195  15.720 -0.0078  0.5329 -0.3719
   61MPD2    C1  929   3.381   2.327  15.695  0.8651 -0.1648 -0.0228
   61MPD2    C2  930   3.419   2.371  15.566 -0.2219  0.1615 -0.5852
   61MPD2    C3  931   3.432   2.282  15.464 -0.4413 -0.0788  0.3935
   61MPD2    C4  932   3.394   2.156  15.486 -0.3017 -0.8290  0.3189
   61MPD2    C5  933   3.366   2.110  15.610 -0.1138  0.5316  0.3850
   61MPD2     H  934   3.442   2.475  15.544  2.4405 -0.2798  0.0798
   61MPD2    H1  935   3.404   2.078  15.411 -0.5989 -2.2797  1.7667
   61MPD2    H2  936   3.323   2.148  15.811  1.3888  0.4561  0.1298
   61MPD2    H3  937   3.349   2.004  15.628 -2.2540  0.9523  0.9126
   61MPD2     N  938   3.487   2.324  15.340 -0.7253 -0.0537  0.4507
   61MPD2    H5  939   3.507   2.423  15.326 -2.2662  0.6085  2.7836
   61MPD2    N1  940   3.387   2.429  15.788 -0.2996 -0.1413 -0.1113
   61MPD2    H7  941   3.410   2.520  15.748 -0.2126 -0.5188 -0.9169
   62TCq2    C1  942   3.348   2.415  15.920 -0.5752  0.5106  0.5740
   62TCq2    O2  943   3.320   2.309  15.976 -0.4173  0.1389  0.1428
   62TCq2    C2  944   3.314   2.546  15.980  0.2546  0.2704  0.0313
   62TCq2    C3  945   3.261   2.532  16.106 -0.5497  0.0155  0.1153
   62TCq2    C4  946   3.168   2.626  16.149 -0.3564  0.5244  0.2104
   62TCq2    C5  947   3.130   2.734  16.069  0.8157 -0.0746 -0.0574
   62TCq2    C6  948   3.182   2.738  15.939 -0.3991 -0.9690 -0.2595
   62TCq2    C7  949   3.272   2.646  15.895  0.5970 -0.1806  0.3195
   62TCq2    C8  950   3.149   2.848  15.856  0.5437 -0.0426  0.4095
   62TCq2    O4  951   3.240   2.905  15.803 -0.1938 -0.0219  0.3180
   62TCq2    C9  952   3.098   2.596  16.275  0.3223  0.4576  0.3397
   62TCq2    O5  953   3.007   2.676  16.318  0.0584  0.1568 -0.0201
   62TCq2    O6  954   3.117   2.478  16.325 -0.3362  0.0818  0.1510
   62TCq2    H2  955   3.279   2.440  16.159  0.7959  1.2194  1.7496
   62TCq2    H3  956   3.067   2.807  16.118  0.6293  0.0684 -0.5040
   62TCq2    H4  957   3.308   2.667  15.794 -2.7904 -1.8022 -1.2083
   63TMC2    C1  958   2.826   2.287  10.673 -0.5974 -0.3162  0.6313
   63TMC2    C2  959   2.810   2.372  10.777  0.5571 -0.1925 -0.3146
   63TMC2    C3  960   2.931   2.407  10.828 -0.1913 -0.2772  0.2582
   63TMC2    C4  961   2.950   2.253  10.620 -0.0335  0.1847 -0.1100
   63TMC2    C5  962   3.064   2.286  10.683  0.2719  0.6232 -0.0122
   63TMC2    C6  963   3.059   2.372  10.791 -0.6450 -0.0934  0.7598
   63TMC2     C  964   2.708   2.244  10.606 -0.3920 -0.2084  0.1180
   63TMC2     O  965   2.612   2.319  10.603  0.0064 -0.4748  0.3848
   63TMC2     H  966   2.713   2.399  10.817  1.2506  0.9710  0.5866
   63TMC2    H1  967   2.954   2.193  10.530  0.5973  3.1778 -2.0577
   63TMC2    H2  968   3.149   2.412  10.836 -0.4064 -2.4814  2.4341
   63TMC2    C7  969   3.179   2.311  10.591  0.0244 -0.0671 -0.0357
   63TMC2    C8  970   2.918   2.487  10.949 -0.7446 -0.1753  0.5313
   63TMC2    O1  971   3.203   2.231  10.504  0.3549  0.3292  0.4118
   63TMC2    O2  972   2.839   2.573  10.960 -0.3038 -0.6652 -0.0651
   63TMC2    O5  973   2.994   2.437  11.052 -0.5074 -0.1096  0.2078
   63TMC2    H5  974   3.013   2.342  11.041 -1.1485 -0.3231  0.9260
   64MPD2     C  975   2.411   1.926  10.331  0.3891 -0.5761 -0.2957
   64MPD2    C1  976   2.544   1.885  10.323 -0.0913  0.7052  0.0054
   64MPD2    C2  977   2.649   1.952  10.380 -0.7836  0.2999 -0.1375
   64MPD2    C3  978   2.619   2.064  10.446 -0.1223  1.1025  0.4740
   64MPD2    C4  979   2.490   2.114  10.448 -0.3121  0.3039 -0.0228
   64MPD2    C5  980   2.389   2.043  10.395  0.0625 -0.0015 -0.2503
   64MPD2     H  981   2.753   1.925  10.368 -0.4084  1.9730 -0.6321
   64MPD2    H1  982   2.455   2.212  10.481 -0.3378  1.1062 -2.4105
   64MPD2    H2  983   2.320   1.873  10.306  0.6927 -1.3591  0.2539
   64MPD2    H3  984   2.284   2.070  10.399 -0.2085 -1.3041  1.3723
   64MPD2     N  985   2.723   2.123  10.525 -0.2061 -0.6566 -0.3285
   64MPD2    H5  986   2.813   2.078  10.526 -0.7771 -1.7941  0.6406
   64MPD2    N1  987   2.571   1.765  10.253 -0.1861  0.1023 -0.0379
   64MPD2    H7  988   2.667   1.751  10.223  0.4887  1.0956  1.6424
   65MPD2     C  989   3.671   1.806  16.089  0.3910 -0.3662 -0.2245
   65MPD2    C1  990   3.667   1.760  15.954  0.0970  0.0704 -0.6344
   65MPD2    C2  991   3.660   1.620  15.931  0.1280  0.3031  0.1672
   65MPD2    C3  992   3.656   1.532  16.041  0.3314  0.6191 -0.2925
   65MPD2    C4  993   3.653   1.578  16.167 -0.1912  0.0238  0.3225
   65MPD2    C5  994   3.657   1.710  16.191 -0.2038  0.6787 -0.1189
   65MPD2     H  995   3.665   1.594  15.826 -0.9888  0.2762  0.1173
   65MPD2    H1  996   3.643   1.509  16.250 -2.3191  0.0581  0.0900
   65MPD2    H2  997   3.677   1.912  16.113  0.1076 -0.3585 -0.1933
   65MPD2    H3  998   3.659   1.744  16.294  1.7891 -0.0794  0.0901
   65MPD2     N  999   3.626   1.397  16.025 -0.1302 -0.7378 -0.3590
   65MPD2    H5 1000   3.608   1.349  16.112 -0.1752 -0.1908 -0.0644
   65MPD2    N1 1001   3.680   1.845  15.847 -0.5535 -0.6911 -0.2811
   65MPD2    H7 1002   3.667   1.796  15.759  0.6039 -1.6740  0.0861
   66TCq2    C1 1003   3.715   1.980  15.848  0.4835 -0.0912  0.6865
   66TCq2    O2 1004   3.709   2.056  15.941  0.2624 -0.1387 -0.4920
   66TCq2    C2 1005   3.713   2.044  15.725  0.1263  0.5291  0.0972
   66TCq2    C3 1006   3.701   1.979  15.602  0.5895 -0.2286  0.7818
   66TCq2    C4 1007   3.725   2.040  15.480  0.0468  0.0245  0.0349
   66TCq2    C5 1008   3.752   2.171  15.481 -0.2083  0.3627  0.6836
   66TCq2    C6 1009   3.767   2.237  15.604  0.1357 -0.3480  0.1000
   66TCq2    C7 1010   3.745   2.180  15.728 -0.0734 -0.2414  0.6276
   66TCq2    C8 1011   3.777   2.380  15.599  0.0391  0.8531  0.1213
   66TCq2    O4 1012   3.808   2.421  15.489  0.3889 -0.1336  0.2748
   66TCq2    C9 1013   3.736   1.961  15.356 -0.5807  0.4049 -0.4807
   66TCq2    O5 1014   3.699   1.839  15.361 -0.2897  0.2888  0.0394
   66TCq2    O6 1015   3.836   2.001  15.286 -0.1800 -0.3122 -0.5306
   66TCq2    H2 1016   3.699   1.871  15.601  1.1939 -0.2257 -0.6790
   66TCq2    H3 1017   3.773   2.214  15.384  1.2231 -1.7345  0.0626
   66TCq2    H4 1018   3.772   2.228  15.821 -1.4292 -2.5662  2.1784
   67MPD2     C 1019   3.623   0.831  14.276  0.0529 -0.0594  0.1452
   67MPD2    C1 1020   3.531   0.923  14.305 -0.2946 -0.5829  0.9331
   67MPD2    C2 1021   3.432   0.960  14.211  0.1643 -0.0222 -1.1141
   67MPD2    C3 1022   3.430   0.891  14.090  0.0431  0.3569  0.3569
   67MPD2    C4 1023   3.535   0.804  14.055  0.1152  0.5016 -0.3465
   67MPD2    C5 1024   3.626   0.776  14.151 -0.4011  1.2592 -0.0694
   67MPD2     H 1025   3.361   1.037  14.239  1.2489 -0.5150  3.0454
   67MPD2    H1 1026   3.554   0.750  13.963  2.8928 -1.6929  1.5203
   67MPD2    H2 1027   3.688   0.798  14.356 -1.1444  0.8173  1.4653
   67MPD2    H3 1028   3.707   0.708  14.128 -0.9595  0.4102  0.4381
   67MPD2     N 1029   3.328   0.907  13.993 -0.4736 -0.1045 -0.1385
   67MPD2    H5 1030   3.349   0.874  13.900  1.7334  2.7845 -0.6995
   67MPD2    N1 1031   3.539   0.991  14.426 -0.6295  0.1316 -0.6448
   67MPD2    H7 1032   3.464   1.055  14.451 -0.5101  0.0762 -0.1382
   68TCq2    C1 1033   3.662   1.001  14.486 -0.3979  0.0832  0.3310
   68TCq2    O2 1034   3.774   0.979  14.450  0.0275 -0.6325 -0.7017
   68TCq2    C2 1035   3.656   1.096  14.599  0.2030 -0.1807 -0.4203
   68TCq2    C3 1036   3.540   1.099  14.672  0.2986  0.1942 -0.2353
   68TCq2    C4 1037   3.535   1.171  14.789  0.2710 -0.5363 -0.1474
   68TCq2    C5 1038   3.643   1.235  14.835  0.5053 -0.0566  0.4194
   68TCq2    C6 1039   3.761   1.229  14.758  0.1167  0.5370 -0.1368
   68TCq2    C7 1040   3.771   1.161  14.640 -0.7554  0.2030  0.0305
   68TCq2    C8 1041   3.891   1.276  14.820 -0.9485  0.0429 -0.1719
   68TCq2    O4 1042   3.997   1.278  14.759 -0.1201  0.2020  0.4731
   68TCq2    C9 1043   3.410   1.182  14.866  0.3501 -0.3344  0.5039
   68TCq2    O5 1044   3.315   1.128  14.805  0.0849  0.1592  0.0182
   68TCq2    O6 1045   3.400   1.287  14.939 -0.5038  0.7180 -0.1269
   68TCq2    H2 1046   3.448   1.044  14.653 -0.5933  2.7365 -3.3309
   68TCq2    H3 1047   3.638   1.282  14.932  1.0135 -3.1000  1.9246
   68TCq2    H4 1048   3.859   1.162  14.577 -1.4096 -2.0562 -0.9446
   69TMC2    C1 1049   1.028   2.833  12.152  0.0470  0.4241  0.0609
   69TMC2    C2 1050   0.977   2.942  12.093  0.0730  0.8070  0.6195
   69TMC2    C3 1051   1.037   2.989  11.976 -0.1689  0.0459 -0.1295
   69TMC2    C4 1052   1.130   2.763  12.100 -0.2301  0.4334  0.6428
   69TMC2    C5 1053   1.178   2.808  11.979 -0.2499  0.0426 -0.0113
   69TMC2    C6 1054   1.136   2.922  11.910  0.3491 -0.1505 -0.6426
   69TMC2     C 1055   1.006   2.824  12.294 -0.2474  0.7018 -0.8233
   69TMC2     O 1056   0.889   2.832  12.329  0.4408  0.1979 -0.0401
   69TMC2     H 1057   0.910   3.001  12.154 -0.1275  1.6705 -0.4378
   69TMC2    H1 1058   1.157   2.665  12.139 -2.0675 -1.2469 -2.2307
   69TMC2    H2 1059   1.209   2.961  11.840  0.9263 -1.0691 -0.5609
   69TMC2    C7 1060   1.293   2.734  11.935  0.4931 -0.5107  0.4491
   69TMC2    C8 1061   1.057   3.132  11.977 -0.2732  0.8799 -0.9157
   69TMC2    O1 1062   1.346   2.659  12.023 -0.1872  0.1764 -0.0211
   69TMC2    O2 1063   1.069   3.199  12.080  0.2533 -0.3213 -0.7722
   69TMC2    O5 1064   0.950   3.173  11.903 -0.4986  0.0181  0.0640
   69TMC2    H5 1065   0.940   3.118  11.823  1.9120 -1.0326  0.4911
   70MPD2     C 1066   1.267   2.737  12.530 -0.3220 -0.2019 -0.5752
   70MPD2    C1 1067   1.141   2.731  12.476 -0.5569  0.0634  1.0554
   70MPD2    C2 1068   1.043   2.655  12.539  0.4826  0.1900 -0.7098
   70MPD2    C3 1069   1.069   2.564  12.633 -0.5726  0.0822 -0.0949
   70MPD2    C4 1070   1.197   2.565  12.674 -0.5706  1.0836 -0.1856
   70MPD2    C5 1071   1.298   2.649  12.633  0.4124 -0.1888  0.0902
   70MPD2     H 1072   0.946   2.639  12.493 -1.0662 -1.6445  3.2118
   70MPD2    H1 1073   1.218   2.497  12.756  2.6532  2.3600  0.0101
   70MPD2    H2 1074   1.345   2.804  12.496  1.2100 -0.9027  1.5030
   70MPD2    H3 1075   1.396   2.651  12.678  0.6431  1.8453 -0.5147
   70MPD2     N 1076   0.993   2.454  12.675  0.2094  0.0111  0.2518
   70MPD2    H5 1077   1.032   2.378  12.729  1.6642 -1.5417 -2.9569
   70MPD2    N1 1078   1.120   2.802  12.359 -0.2307 -0.1947 -0.5366
   70MPD2    H7 1079   1.206   2.828  12.311  1.0104  1.2945  2.4863
   71TMC2    C1 1080   3.108   2.002   1.719  0.7614  0.0693  0.3917
   71TMC2    C2 1081   3.177   1.908   1.788  0.6557 -0.0085 -1.0294
   71TMC2    C3 1082   3.103   1.826   1.869 -0.4097 -0.7084  0.2854
   71TMC2    C4 1083   2.972   2.015   1.728 -0.1544  0.2270  0.1340
   71TMC2    C5 1084   2.903   1.941   1.828 -0.2629 -0.8642  0.4067
   71TMC2    C6 1085   2.973   1.845   1.898 -0.8058  0.1290 -0.2966
   71TMC2     C 1086   3.179   2.113   1.654 -0.4894  0.3474  0.8747
   71TMC2     O 1087   3.104   2.176   1.584  0.6388 -0.1362 -0.1471
   71TMC2     H 1088   3.282   1.891   1.770  0.5911  0.2372 -1.6299
   71TMC2    H1 1089   2.921   2.100   1.683 -1.2267 -1.0868 -1.0983
   71TMC2    H2 1090   2.934   1.779   1.975  2.9221 -0.7338  0.8466
   71TMC2    C7 1091   2.760   1.923   1.825  0.6558 -0.5406  0.0503
   71TMC2    C8 1092   3.180   1.749   1.959 -0.1706 -0.1914 -0.8948
   71TMC2    O1 1093   2.711   1.864   1.923  0.4256 -0.8189  0.4537
   71TMC2    O2 1094   3.290   1.775   2.003 -0.1003  0.7314 -0.5339
   71TMC2    O5 1095   3.134   1.627   1.946  0.0017  0.2046 -0.3960
   71TMC2    H5 1096   3.057   1.631   1.885 -1.3452 -0.3718  1.2728
   72MPD2     C 1097   3.547   2.431   1.530  0.2412 -0.3509 -0.2472
   72MPD2    C1 1098   3.423   2.422   1.486  0.4682  0.0693  0.3047
   72MPD2    C2 1099   3.347   2.325   1.542  0.7301  0.1554  0.0279
   72MPD2    C3 1100   3.390   2.236   1.640  0.0975  0.7533  0.3668
   72MPD2    C4 1101   3.518   2.241   1.680 -0.9374 -0.4822  0.1276
   72MPD2    C5 1102   3.597   2.348   1.629 -0.6066 -0.0519  0.2473
   72MPD2     H 1103   3.245   2.319   1.504  1.2541  1.2138 -1.5661
   72MPD2    H1 1104   3.555   2.171   1.753 -1.1135  0.5119  1.1685
   72MPD2    H2 1105   3.621   2.498   1.488 -0.2399  0.7095  0.5972
   72MPD2    H3 1106   3.696   2.353   1.673 -0.0040  2.5402 -1.4153
   72MPD2     N 1107   3.304   2.131   1.694  0.1244 -0.4289 -0.2437
   72MPD2    H5 1108   3.345   2.077   1.770  0.5383 -0.1844 -0.2909
   72MPD2    N1 1109   3.367   2.505   1.383  0.6631  0.5619 -0.0717
   72MPD2    H7 1110   3.274   2.489   1.347  0.4790  1.1009  0.1658
   73TMC2    C1 1111   2.794   4.564  13.976  0.3506  0.7204 -0.1016
   73TMC2    C2 1112   2.726   4.681  14.010 -0.0077 -0.2184  0.7064
   73TMC2    C3 1113   2.778   0.030  14.122  0.7812 -0.3773 -1.1217
   73TMC2    C4 1114   2.901   4.527  14.053  0.4156 -0.5084  0.4032
   73TMC2    C5 1115   2.959   4.605  14.149  0.6487 -0.2092 -0.4109
   73TMC2    C6 1116   2.884   4.714  14.197 -0.2232  0.2852 -0.1838
   73TMC2     C 1117   2.832   4.547  13.838  0.1227  0.1770  0.1772
   73TMC2     O 1118   2.929   4.480  13.816 -0.9873 -0.2728 -0.2780
   73TMC2     H 1119   2.640   4.720  13.957  0.5987  0.1903  0.0254
   73TMC2    H1 1120   2.947   4.432  14.030 -0.0156 -0.6669  0.1974
   73TMC2    H2 1121   2.912   0.055  14.280 -0.6782 -0.2145  0.3486
   73TMC2    C7 1122   3.110   4.609  14.150 -0.5683  0.5446 -0.6987
   73TMC2    C8 1123   2.682   0.118  14.197  1.1085 -0.4757 -0.1757
   73TMC2    O1 1124   3.166   4.624  14.260 -0.7974  0.1840  0.0224
   73TMC2    O2 1125   2.717   0.214  14.266  0.0402 -0.5005 -0.7139
   73TMC2    O5 1126   2.560   0.087  14.152  0.5248  0.3715  0.8448
   73TMC2    H5 1127   2.552   0.005  14.098 -1.3032 -0.6823  2.7014
   74MPD2     C 1128   2.875   0.055  13.377 -0.3447  0.4626 -0.3803
   74MPD2    C1 1129   2.966   4.710  13.456 -0.4998 -0.3300 -0.0747
   74MPD2    C2 1130   2.923   4.661  13.583 -0.2748  0.2268  0.7283
   74MPD2    C3 1131   2.794   4.662  13.622  0.0915 -0.8968 -0.0406
   74MPD2    C4 1132   2.706   0.009  13.540 -0.2501  0.9199 -0.7074
   74MPD2    C5 1133   2.743   0.060  13.412 -0.0160 -0.4140  0.5426
   74MPD2     H 1134   2.997   4.618  13.650  0.7802  1.3436  0.2898
   74MPD2    H1 1135   2.607   0.028  13.579  0.4460 -0.7663  1.8757
   74MPD2    H2 1136   2.902   0.101  13.283 -0.1441 -0.2530 -0.6644
   74MPD2    H3 1137   2.669   0.109  13.350  2.2119 -1.9344 -3.2893
   74MPD2     N 1138   2.759   4.629  13.751 -0.3449  0.2971 -0.0753
   74MPD2    H5 1139   2.670   4.665  13.784 -1.1205  0.9601 -2.9381
   74MPD2    N1 1140   3.099   4.696  13.418  0.0388  0.1403 -0.0305
   74MPD2    H7 1141   3.130   0.029  13.338  0.3658  1.8098  1.2724
   75TCq2    C1 1142   3.202   0.954  14.013 -0.7298  0.1970  0.5136
   75TCq2    O2 1143   3.132   0.988  14.107 -0.1638  0.2762  0.5021
   75TCq2    C2 1144   3.121   0.942  13.888 -0.2837 -0.5312 -0.4429
   75TCq2    C3 1145   3.032   0.840  13.903 -0.7789 -0.5940  0.3145
   75TCq2    C4 1146   2.916   0.846  13.831  0.5525  0.3528  0.3671
   75TCq2    C5 1147   2.886   0.950  13.752 -0.1286  0.0567 -0.2052
   75TCq2    C6 1148   2.977   1.057  13.746 -0.1471 -0.6004  0.2031
   75TCq2    C7 1149   3.096   1.058  13.821 -0.5343  0.1382 -0.5984
   75TCq2    C8 1150   2.947   1.161  13.648  0.0853 -0.2533 -0.5942
   75TCq2    O4 1151   2.887   1.115  13.550 -0.6075  0.1129  0.1936
   75TCq2    C9 1152   2.840   0.728  13.824 -0.2441  0.2761  0.3945
   75TCq2    O5 1153   2.894   0.627  13.878 -0.0685 -0.1974  0.1423
   75TCq2    O6 1154   2.727   0.728  13.770  0.5344  0.0785 -0.0967
   75TCq2    H2 1155   3.058   0.764  13.976 -0.4832 -0.1020  0.7247
   75TCq2    H3 1156   2.796   0.957  13.692 -0.4574 -1.0304  0.1528
   75TCq2    H4 1157   3.160   1.146  13.825  0.9591 -1.0819  2.0726
   76MPD2     C 1158   1.869   1.807  12.190  0.0157 -0.0095  0.5733
   76MPD2    C1 1159   1.930   1.831  12.064  0.6921  0.5565 -0.1486
   76MPD2    C2 1160   1.999   1.729  11.998  0.1310 -0.6674  0.0052
   76MPD2    C3 1161   2.005   1.604  12.052  0.3502 -0.2102  0.0185
   76MPD2    C4 1162   1.958   1.584  12.179  0.4662  0.2977 -0.5188
   76MPD2    C5 1163   1.892   1.682  12.249  0.2629 -0.0910 -0.2829
   76MPD2     H 1164   2.061   1.746  11.911 -2.9358  0.3486 -1.9960
   76MPD2    H1 1165   1.958   1.482  12.216  1.1521  0.2410 -0.6749
   76MPD2    H2 1166   1.818   1.886  12.243 -0.1157  0.2392  0.0835
   76MPD2    H3 1167   1.845   1.655  12.343 -0.4170  3.6289  0.4105
   76MPD2     N 1168   2.080   1.501  11.984 -0.8774 -0.1054  0.7370
   76MPD2    H5 1169   2.101   1.419  12.041 -2.2073 -1.1385 -0.2452
   76MPD2    N1 1170   1.943   1.957  12.002  0.2046  0.2539 -0.7055
   76MPD2    H7 1171   1.971   1.951  11.904  1.2425 -1.3080 -0.3094
   77TCq2    C1 1172   2.120   1.509  11.851  0.3831 -0.2576  0.1066
   77TCq2    O2 1173   2.075   1.577  11.758 -0.1131 -0.2122  0.1866
   77TCq2    C2 1174   2.230   1.419  11.825 -0.2101 -0.1768  0.2847
   77TCq2    C3 1175   2.223   1.341  11.713 -0.5912 -0.3134  0.1816
   77TCq2    C4 1176   2.322   1.264  11.677 -0.0553 -0.2609 -0.0386
   77TCq2    C5 1177   2.433   1.252  11.758  0.0112  0.4017 -0.1871
   77TCq2    C6 1178   2.440   1.332  11.868 -0.4173  0.0034  0.2475
   77TCq2    C7 1179   2.339   1.410  11.906  0.4545 -0.4280 -0.2303
   77TCq2    C8 1180   2.542   1.326  11.975  0.0820  0.6991  0.1415
   77TCq2    O4 1181   2.551   1.423  12.049  0.1127 -0.6654 -0.7868
   77TCq2    C9 1182   2.314   1.202  11.546 -0.3391  0.6362  0.5948
   77TCq2    O5 1183   2.368   1.092  11.534 -0.7816  0.1221  0.3675
   77TCq2    O6 1184   2.239   1.259  11.460  0.1915  0.2645  0.4440
   77TCq2    H2 1185   2.145   1.358  11.640  0.0474  0.3860 -0.3338
   77TCq2    H3 1186   2.504   1.176  11.726 -0.0093  0.2743  0.0699
   77TCq2    H4 1187   2.340   1.467  11.998  0.3823 -1.9014  0.6682
   78MPD1     C 1188   2.089   1.681   1.195 -0.3291  0.0621 -0.0404
   78MPD1    C1 1189   2.188   1.770   1.151  0.2215 -0.4642 -0.4641
   78MPD1    C2 1190   2.314   1.764   1.216  0.5235  0.6147 -0.1534
   78MPD1    C3 1191   2.340   1.657   1.298 -0.5327 -0.9646 -0.7040
   78MPD1    C4 1192   2.243   1.560   1.328  0.6601  0.5768  0.1494
   78MPD1    C5 1193   2.116   1.573   1.279  0.1712 -0.3739  0.1621
   78MPD1     H 1194   2.384   1.844   1.196  2.9068 -0.5863  3.2167
   78MPD1    H1 1195   2.261   1.477   1.396  0.9206  0.3432 -0.2053
   78MPD1    H2 1196   1.990   1.685   1.152 -0.5672  0.2578  0.5269
   78MPD1    H3 1197   2.044   1.494   1.294 -0.0815 -0.1443  0.1697
   78MPD1     N 1198   2.470   1.643   1.360 -0.6035  0.3774  0.5375
   78MPD1    H5 1199   2.486   1.575   1.433  1.2842 -1.0513 -1.1799
   78MPD1    N1 1200   2.156   1.889   1.087  0.1524 -0.0034  0.1033
   78MPD1    H6 1201   2.236   1.920   1.033  2.7447 -2.7973  2.3633
   78MPD1    H7 1202   2.078   1.892   1.022 -1.1407  2.1209  1.7626
   79TCq2    C1 1203   2.580   1.718   1.326 -0.9204 -0.0176 -0.4299
   79TCq2    O2 1204   2.599   1.778   1.223  0.3272 -0.1974  0.3928
   79TCq2    C2 1205   2.700   1.696   1.405 -0.1715  0.6009 -0.1658
   79TCq2    C3 1206   2.695   1.659   1.540 -0.1277  0.6314  0.2248
   79TCq2    C4 1207   2.818   1.645   1.612 -0.0019 -0.2082  0.6968
   79TCq2    C5 1208   2.934   1.676   1.556 -0.4896  0.2060  0.8724
   79TCq2    C6 1209   2.933   1.709   1.423  0.2770 -0.4868 -0.1328
   79TCq2    C7 1210   2.821   1.717   1.345  0.4179  0.2701 -0.0676
   79TCq2    C8 1211   3.055   1.781   1.371 -0.4012  0.2816 -0.0841
   79TCq2    O4 1212   3.167   1.739   1.405  0.2808  0.4091  0.4452
   79TCq2    C9 1213   2.818   1.583   1.745  0.2195  0.0903  0.0240
   79TCq2    O5 1214   2.934   1.565   1.794 -0.4281 -0.4268 -0.1170
   79TCq2    O6 1215   2.722   1.506   1.766 -0.3741 -0.1550  0.4012
   79TCq2    H2 1216   2.604   1.624   1.588 -1.0050  1.3027 -0.9665
   79TCq2    H3 1217   3.025   1.648   1.607 -0.4798 -0.7462  0.3379
   79TCq2    H4 1218   2.819   1.752   1.243 -0.8506 -0.6232 -0.3488
   80MPD2     C 1219   1.638   1.411  11.984  0.3633  0.0611 -0.6298
   80MPD2    C1 1220   1.532   1.399  11.895 -0.5422 -0.4059 -0.0169
   80MPD2    C2 1221   1.422   1.479  11.924 -0.5080 -0.7157  0.6958
   80MPD2    C3 1222   1.414   1.540  12.045 -0.4260  0.0725  0.2091
   80MPD2    C4 1223   1.516   1.522  12.142  0.0921 -0.2660  0.2894
   80MPD2    C5 1224   1.632   1.463  12.103  0.4500  0.1030  0.0910
   80MPD2     H 1225   1.336   1.475  11.858  1.6389 -1.6494 -2.0313
   80MPD2    H1 1226   1.514   1.553  12.246 -2.3907 -0.2149  0.2273
   80MPD2    H2 1227   1.728   1.351  11.971  0.7480  0.2937  0.9937
   80MPD2    H3 1228   1.708   1.443  12.178 -0.9076  3.0221  2.2334
   80MPD2     N 1229   1.299   1.615  12.085  0.1744 -0.4980  0.3725
   80MPD2    H5 1230   1.288   1.618  12.186  0.6253 -3.1988  0.5019
   80MPD2    N1 1231   1.549   1.319  11.781 -0.1358  0.1334  0.3209
   80MPD2    H7 1232   1.643   1.284  11.768  0.1629  1.3477 -0.8067
   81TCq2    C1 1233   1.447   1.260  11.704 -0.4495 -0.8971 -0.2830
   81TCq2    O2 1234   1.328   1.278  11.715  0.2253  0.3651  0.1299
   81TCq2    C2 1235   1.495   1.164  11.608 -0.1188  0.8314  0.5739
   81TCq2    C3 1236   1.617   1.183  11.548  0.0211 -0.2345 -0.1648
   81TCq2    C4 1237   1.661   1.087  11.458  0.5306  0.2074  0.4597
   81TCq2    C5 1238   1.583   0.987  11.408 -0.1546 -0.1125 -0.4057
   81TCq2    C6 1239   1.459   0.982  11.464 -0.5926 -0.6093 -0.1537
   81TCq2    C7 1240   1.414   1.065  11.561  0.5148 -0.1810 -0.3971
   81TCq2    C8 1241   1.395   0.855  11.445  0.8026  0.0345 -0.2026
   81TCq2    O4 1242   1.456   0.781  11.368  0.6878  0.8715 -0.3305
   81TCq2    C9 1243   1.798   1.092  11.405  0.1610 -0.4171  0.0578
   81TCq2    O5 1244   1.885   1.155  11.471  0.5331  0.1035  0.1881
   81TCq2    O6 1245   1.833   1.000  11.326  0.1893 -0.2158 -0.0579
   81TCq2    H2 1246   1.694   1.251  11.582 -0.4878 -0.6407  1.7925
   81TCq2    H3 1247   1.625   0.921  11.333  0.8234  0.1850 -0.1282
   81TCq2    H4 1248   1.312   1.064  11.599  0.9807 -1.9215  0.8210
   82MPD2     C 1249   0.095   1.199  10.578  0.3238  1.0253 -0.3658
   82MPD2    C1 1250   0.001   1.109  10.600 -0.5516 -0.3818  0.2406
   82MPD2    C2 1251   4.709   1.059  10.729 -0.4078 -0.0382  0.2296
   82MPD2    C3 1252   0.059   1.107  10.836  0.2024  0.3070  0.7542
   82MPD2    C4 1253   0.145   1.206  10.813  0.3784 -0.8297  0.1209
   82MPD2    C5 1254   0.162   1.255  10.687 -1.0706  0.3783 -0.4030
   82MPD2     H 1255   4.628   0.989  10.741 -1.2131  0.4237 -2.3266
   82MPD2    H1 1256   0.208   1.239  10.895 -1.0771 -1.0107  1.3141
   82MPD2    H2 1257   0.123   1.244  10.483 -1.1798  1.4519 -0.6015
   82MPD2    H3 1258   0.227   1.339  10.668 -2.2779  1.3965 -0.0911
   82MPD2     N 1259   0.039   1.046  10.962 -0.0019 -0.3937 -0.1952
   82MPD2    H5 1260   0.106   1.082  11.028  1.0630 -3.1108  0.2168
   82MPD2    N1 1261   4.657   1.061  10.478 -0.5583  0.6505  0.0134
   82MPD2    H7 1262   4.696   1.103  10.394  2.7511  2.3551  2.3739
   83TCq2    C1 1263   4.685   0.938  10.995  0.6264 -0.5680  0.4344
   83TCq2    O2 1264   4.645   0.856  10.916  0.4482  0.4376 -0.4348
   83TCq2    C2 1265   4.691   0.902  11.132  0.3978  0.1140  0.9109
   83TCq2    C3 1266   0.087   0.926  11.203  0.0690 -0.3574  0.4332
   83TCq2    C4 1267   0.108   0.859  11.317  0.1521  1.1818  0.0640
   83TCq2    C5 1268   0.036   0.757  11.350  0.1944 -0.7372 -0.3021
   83TCq2    C6 1269   4.647   0.718  11.277 -0.0001  0.2744  0.0055
   83TCq2    C7 1270   4.610   0.795  11.169 -0.1935 -0.2762 -0.3238
   83TCq2    C8 1271   4.539   0.636  11.338 -0.7336  0.8301  0.7774
   83TCq2    O4 1272   4.531   0.634  11.460  0.2688 -0.0737 -0.3498
   83TCq2    C9 1273   0.217   0.891  11.395  0.4687 -0.2767  1.0293
   83TCq2    O5 1274   0.263   1.002  11.376 -0.5156  0.4847 -0.5601
   83TCq2    O6 1275   0.267   0.794  11.456  0.2052 -0.2244  0.0124
   83TCq2    H2 1276   0.156   0.998  11.161 -0.4226  0.6719  1.4276
   83TCq2    H3 1277   0.060   0.699  11.438 -1.9232 -1.5825 -0.2766
   83TCq2    H4 1278   4.519   0.764  11.118 -1.2360  3.0572 -0.5000
   84TCq2    C1 1279   0.533   3.983  10.839 -0.1526 -0.1239 -0.2878
   84TCq2    O2 1280   0.569   3.900  10.755  0.5354 -0.4446  0.0058
   84TCq2    C2 1281   0.599   4.108  10.852  0.6480  0.5562  0.1472
   84TCq2    C3 1282   0.730   4.110  10.819 -0.4806 -0.6433 -0.1484
   84TCq2    C4 1283   0.799   4.229  10.830  0.3528 -0.3253  0.1800
   84TCq2    C5 1284   0.736   4.335  10.879 -0.7232 -0.1170  0.4034
   84TCq2    C6 1285   0.599   4.332  10.923  0.2975  0.5368 -0.4389
   84TCq2    C7 1286   0.530   4.213  10.909 -0.2368 -0.0019 -0.2247
   84TCq2    C8 1287   0.542   4.456  10.974 -0.4278 -0.0394 -0.2653
   84TCq2    O4 1288   0.606   4.559  10.970 -0.0684 -0.2362 -0.1519
   84TCq2    C9 1289   0.940   4.227  10.788  0.4707 -0.1293  0.1526
   84TCq2    O5 1290   0.991   4.119  10.749 -0.1000 -0.3618 -0.0120
   84TCq2    O6 1291   1.008   4.334  10.797 -0.3002 -0.1785  0.2333
   84TCq2    H2 1292   0.778   4.023  10.778 -0.0010 -1.2499  1.6811
   84TCq2    H3 1293   0.790   4.429  10.885 -0.6202 -0.0047 -2.3669
   84TCq2    H4 1294   0.422   4.207  10.922  0.1360 -2.4318  1.8277
   85MPD2     C 1295   1.116   2.756  16.642 -0.3224 -0.4366  0.1172
   85MPD2    C1 1296   1.035   2.792  16.536  0.0264 -0.3819 -0.7785
   85MPD2    C2 1297   1.081   2.898  16.459  0.4958  0.1562  0.5376
   85MPD2    C3 1298   1.190   2.974  16.498  0.2223 -0.2136 -0.2393
   85MPD2    C4 1299   1.259   2.942  16.616  1.0815 -0.6588 -0.2609
   85MPD2    C5 1300   1.225   2.827  16.678 -0.2148 -0.2507 -0.0331
   85MPD2     H 1301   1.031   2.924  16.366  0.1522  0.4468  0.8066
   85MPD2    H1 1302   1.355   2.983  16.644  1.6060 -1.7188 -0.4934
   85MPD2    H2 1303   1.110   2.659  16.690 -5.3207 -0.4072 -0.3444
   85MPD2    H3 1304   1.297   2.786  16.748  0.4085  0.0094 -0.5188
   85MPD2     N 1305   1.227   3.086  16.419  0.4240  0.4086 -0.2554
   85MPD2    H5 1306   1.161   3.116  16.347  0.2028  1.5251  0.4114
   85MPD2    N1 1307   0.933   2.711  16.474 -0.2226 -0.7321  1.1346
   85MPD2    H7 1308   0.886   2.757  16.397 -1.1879 -2.8736  0.4409
   86TCq2    C1 1309   1.337   3.163  16.430 -0.0015  0.2724  0.0849
   86TCq2    O2 1310   1.426   3.169  16.515  0.3116  0.2854 -0.3501
   86TCq2    C2 1311   1.348   3.263  16.316 -0.5175  0.4990 -0.0539
   86TCq2    C3 1312   1.235   3.308  16.262 -0.0344 -0.5637 -0.2969
   86TCq2    C4 1313   1.251   3.393  16.157 -0.5230 -0.1611 -0.5184
   86TCq2    C5 1314   1.376   3.443  16.122  0.1624  0.1796  0.2630
   86TCq2    C6 1315   1.487   3.404  16.197 -0.1319 -0.6175  0.4328
   86TCq2    C7 1316   1.475   3.309  16.292  0.5503 -0.4313  0.1249
   86TCq2    C8 1317   1.621   3.444  16.167 -0.1024 -0.6162 -0.0886
   86TCq2    O4 1318   1.708   3.366  16.202  0.4349  0.2304  0.0481
   86TCq2    C9 1319   1.135   3.439  16.082  0.2506  0.1076  0.6766
   86TCq2    O5 1320   1.154   3.522  15.991 -0.4563 -0.3189 -0.7665
   86TCq2    O6 1321   1.027   3.383  16.100 -0.3405 -0.3296  0.0409
   86TCq2    H2 1322   1.137   3.276  16.295 -0.3415  0.3848 -0.2779
   86TCq2    H3 1323   1.383   3.505  16.033 -0.6433 -1.2201 -0.7619
   86TCq2    H4 1324   1.563   3.258  16.331  1.1443  1.0018  0.6793
   87MPD2     C 1325   3.690   1.360   1.688 -0.2604 -0.1789  0.1337
   87MPD2    C1 1326   3.730   1.367   1.552  0.3932 -0.0076  0.0072
   87MPD2    C2 1327   3.637   1.379   1.450  0.1386 -0.3519  0.5550
   87MPD2    C3 1328   3.506   1.389   1.474 -0.6723  0.1686  0.2534
   87MPD2    C4 1329   3.463   1.369   1.607 -0.1094  0.1861 -1.0949
   87MPD2    C5 1330   3.555   1.357   1.710  0.0341 -0.4467  0.0492
   87MPD2     H 1331   3.679   1.410   1.355  2.3734 -4.3388  0.2435
   87MPD2    H1 1332   3.357   1.351   1.621 -0.0245  0.5006 -0.0311
   87MPD2    H2 1333   3.748   1.367   1.779 -2.9363 -1.8748  1.9842
   87MPD2    H3 1334   3.510   1.352   1.809  1.1986  1.6422  0.6881
   87MPD2     N 1335   3.408   1.397   1.380 -0.2053 -0.6031  0.5511
   87MPD2    H5 1336   3.311   1.399   1.411 -0.4239 -1.7029 -0.0852
   87MPD2    N1 1337   3.869   1.360   1.533 -0.7007  0.0864  0.1401
   87MPD2    H7 1338   3.925   1.382   1.615  0.2609  2.2476 -1.1155
   88TCq2    C1 1339   3.932   1.347   1.412  0.0147 -0.0210  0.2049
   88TCq2    O2 1340   3.880   1.313   1.308 -0.1063  0.0371 -0.2644
   88TCq2    C2 1341   4.082   1.366   1.418  0.0042  0.3557  0.3756
   88TCq2    C3 1342   4.146   1.390   1.539  0.4320  0.4163  0.2951
   88TCq2    C4 1343   4.266   1.450   1.539  0.3088  0.2262  0.2422
   88TCq2    C5 1344   4.334   1.476   1.424  0.5735 -0.1411  0.3169
   88TCq2    C6 1345   4.268   1.444   1.304  0.0657 -0.0908  0.5684
   88TCq2    C7 1346   4.148   1.386   1.300  0.1302  0.9699  0.9476
   88TCq2    C8 1347   4.342   1.458   1.183 -0.3646  0.7563  0.0057
   88TCq2    O4 1348   4.462   1.476   1.199 -0.6160 -0.1899  0.4525
   88TCq2    C9 1349   4.333   1.478   1.666  0.5484  0.5435 -0.4408
   88TCq2    O5 1350   4.291   1.425   1.772  0.2468  0.3844 -0.2668
   88TCq2    O6 1351   4.439   1.549   1.670  0.2281  0.2333 -0.1690
   88TCq2    H2 1352   4.108   1.373   1.639  0.5220 -1.6274 -0.0177
   88TCq2    H3 1353   4.435   1.515   1.429  0.3200  0.5661 -0.0613
   88TCq2    H4 1354   4.105   1.353   1.206  1.0583  0.9641  0.5243
   89MPD2     C 1355   4.101   3.922   1.767 -0.1874  0.9649  0.0735
   89MPD2    C1 1356   4.032   4.039   1.724  0.3371  0.0631  0.0326
   89MPD2    C2 1357   4.107   4.154   1.716 -0.5558 -0.7294  0.7287
   89MPD2    C3 1358   4.249   4.152   1.726  0.2054  0.4449  0.4927
   89MPD2    C4 1359   4.307   4.033   1.762 -0.2624  0.1522  0.0691
   89MPD2    C5 1360   4.235   3.923   1.795  0.4410  0.2247 -0.3934
   89MPD2     H 1361   4.055   4.248   1.700  0.4086 -0.3467 -0.1386
   89MPD2    H1 1362   4.410   4.028   1.795  0.0509  0.4628 -0.8594
   89MPD2    H2 1363   4.053   3.826   1.784 -0.0729  0.9492  0.3143
   89MPD2    H3 1364   4.289   3.838   1.835  0.1273  0.4350  0.4849
   89MPD2     N 1365   4.324   4.272   1.707  0.0744  0.5262  0.0854
   89MPD2    H5 1366   4.287   4.365   1.723 -3.1971 -0.8589  0.4184
   89MPD2    N1 1367   3.891   4.050   1.707  0.9258 -0.2562  0.2912
   89MPD2    H7 1368   3.860   4.145   1.691 -2.0490 -1.2812  0.0969
   90TCq2    C1 1369   4.451   4.259   1.658  0.1317 -0.4246  0.1781
   90TCq2    O2 1370   4.514   4.155   1.626  0.4680 -0.3664  0.2508
   90TCq2    C2 1371   4.530   4.383   1.646  0.6422 -1.3653  0.4685
   90TCq2    C3 1372   4.662   4.356   1.643 -0.9360 -0.0371  0.0289
   90TCq2    C4 1373   0.028   4.454   1.600 -0.0242 -0.5353 -0.3744
   90TCq2    C5 1374   4.707   4.579   1.564  0.3022 -0.2961  0.5340
   90TCq2    C6 1375   4.571   4.601   1.560  0.9696  0.2084 -0.0290
   90TCq2    C7 1376   4.482   4.509   1.613  0.2826 -0.1168  0.5618
   90TCq2    C8 1377   4.522   4.709   1.480  0.3694  0.2274  0.1149
   90TCq2    O4 1378   4.406   0.022   1.497  0.1244 -0.2805  0.7757
   90TCq2    C9 1379   0.174   4.427   1.596  0.7635  0.2290 -0.3900
   90TCq2    O5 1380   0.208   4.311   1.637  0.2681 -0.4877 -0.9113
   90TCq2    O6 1381   0.246   4.519   1.546  0.2543 -0.2407 -0.3409
   90TCq2    H2 1382   4.702   4.260   1.673 -1.0699  0.1748  0.8640
   90TCq2    H3 1383   0.058   4.653   1.534 -0.6850  1.3440  2.1523
   90TCq2    H4 1384   4.386   4.507   1.562 -0.1534  2.4931  1.2777
   91TMC2    C1 1385   1.383   3.928  16.651  0.2868 -0.4420 -0.4535
   91TMC2    C2 1386   1.453   4.025  16.727 -0.6412  0.0021  0.9877
   91TMC2    C3 1387   1.385   4.090  16.821  0.5103 -0.0700 -0.6629
   91TMC2    C4 1388   1.250   3.895  16.675  0.0293 -0.1091  0.6819
   91TMC2    C5 1389   1.186   3.965  16.775  0.9888 -0.3241 -0.0929
   91TMC2    C6 1390   1.246   4.076  16.841 -0.0229  0.0586  0.1850
   91TMC2     C 1391   1.460   3.849  16.554  0.6352 -0.4477  0.7258
   91TMC2     O 1392   1.405   3.755  16.504  0.1185  0.0032 -0.0750
   91TMC2     H 1393   1.560   4.040  16.732 -0.3787 -2.1883  1.7941
   91TMC2    H1 1394   1.206   3.819  16.612 -1.9038  0.3832  1.4412
   91TMC2    H2 1395   1.195   4.138  16.914 -2.4516 -0.5422 -0.9787
   91TMC2    C7 1396   1.057   3.924  16.822  0.7795  0.0293 -0.6387
   91TMC2    C8 1397   1.447   4.203  16.878  0.0765  0.5294  0.2592
   91TMC2    O1 1398   1.019   3.941  16.941  0.1041  0.1513  0.4288
   91TMC2    O2 1399   1.541   4.252  16.820 -0.0636 -0.2750 -0.2463
   91TMC2    O5 1400   1.387   4.251  16.993 -0.4352  0.3937  0.2661
   91TMC2    H5 1401   1.348   4.175  17.041 -1.5517  0.5028 -0.4774
   92MPD2     C 1402   1.686   3.666  16.467  0.2994 -0.1270 -0.8476
   92MPD2    C1 1403   1.690   3.805  16.471  0.0381 -0.1556 -0.0578
   92MPD2    C2 1404   1.794   3.877  16.422  0.1344 -0.3051  0.0407
   92MPD2    C3 1405   1.890   3.814  16.353  0.7968 -0.4037 -0.2383
   92MPD2    C4 1406   1.889   3.673  16.344  0.1400 -0.3115  0.1591
   92MPD2    C5 1407   1.792   3.603  16.404 -0.4173 -0.2469 -0.0173
   92MPD2     H 1408   1.791   3.986  16.424 -1.9701 -0.3666 -0.2549
   92MPD2    H1 1409   1.970   3.614  16.301 -0.7833  0.1474 -2.1923
   92MPD2    H2 1410   1.611   3.598  16.506 -0.1717  1.7177  1.4323
   92MPD2    H3 1411   1.783   3.495  16.410 -1.4691 -0.0826  1.3694
   92MPD2     N 1412   1.990   3.897  16.291  0.4533 -0.1641  0.0204
   92MPD2    H5 1413   1.981   3.998  16.298  0.5151 -0.1935  0.5515
   92MPD2    N1 1414   1.596   3.876  16.545  0.2043 -0.3605 -0.0388
   92MPD2    H7 1415   1.623   3.969  16.573 -0.0812  0.2384 -1.7383
   93MPD2     C 1416   2.749   3.650  13.880 -0.2239  0.4171 -0.4015
   93MPD2    C1 1417   2.685   3.755  13.938  0.5311  0.1115 -0.1918
   93MPD2    C2 1418   2.551   3.746  13.967 -0.3458 -0.3366 -0.5103
   93MPD2    C3 1419   2.473   3.635  13.926  0.7490 -0.5202 -0.1507
   93MPD2    C4 1420   2.535   3.529  13.872  0.7645  0.1671  0.5209
   93MPD2    C5 1421   2.673   3.536  13.853 -0.8044 -0.3933 -0.2242
   93MPD2     H 1422   2.510   3.833  14.018  2.4453  1.5931 -1.5407
   93MPD2    H1 1423   2.477   3.439  13.852  1.5554 -0.1470 -0.3425
   93MPD2    H2 1424   2.851   3.648  13.845 -0.2357  1.0118 -0.4658
   93MPD2    H3 1425   2.724   3.442  13.836  2.1154  0.7603  2.1924
   93MPD2     N 1426   2.336   3.642  13.901 -0.4934 -0.2757 -0.2211
   93MPD2    H5 1427   2.286   3.565  13.857 -1.8559  2.1780 -2.9371
   93MPD2    N1 1428   2.750   3.882  13.965 -0.0903  0.2575  0.2284
   93MPD2    H7 1429   2.688   3.948  14.008 -0.9107 -1.1090  1.1427
   94TCq2    C1 1430   2.882   3.908  13.936  0.1278  0.3526  0.4565
   94TCq2    O2 1431   2.954   3.854  13.856  0.1109  0.1411  0.5391
   94TCq2    C2 1432   2.947   4.031  13.992  0.6088 -0.4809  0.1492
   94TCq2    C3 1433   2.898   4.089  14.104  0.3206  0.1766 -0.2782
   94TCq2    C4 1434   2.972   4.185  14.163  0.1711 -0.3267 -0.0373
   94TCq2    C5 1435   3.092   4.228  14.111  0.7027 -0.0458  0.5572
   94TCq2    C6 1436   3.143   4.167  13.999 -0.3462  0.1112  0.7348
   94TCq2    C7 1437   3.068   4.062  13.940 -0.2435 -0.5281  0.1791
   94TCq2    C8 1438   3.284   4.176  13.978  0.0514 -0.4165 -0.1508
   94TCq2    O4 1439   3.358   4.164  14.073  0.5193 -0.4854  0.3084
   94TCq2    C9 1440   2.928   4.250  14.282  0.0571  0.5019 -0.2468
   94TCq2    O5 1441   3.007   4.317  14.354  0.5806  0.0159 -0.1496
   94TCq2    O6 1442   2.810   4.226  14.319  0.4319 -0.8071 -0.3895
   94TCq2    H2 1443   2.803   4.062  14.147 -0.8925  0.4590 -2.7866
   94TCq2    H3 1444   3.141   4.313  14.158  0.7756  1.4332 -2.1784
   94TCq2    H4 1445   3.109   4.008  13.856  0.3497  0.4422 -0.1658
   95TMC2    C1 1446   2.977   1.059  16.679  0.4339  0.5865  0.2000
   95TMC2    C2 1447   2.974   0.966  16.777  0.2680 -0.4408  0.1820
   95TMC2    C3 1448   2.956   1.025  16.907  0.5335 -0.5039 -0.6239
   95TMC2    C4 1449   2.946   1.191  16.699 -0.2357 -0.2030 -0.0632
   95TMC2    C5 1450   2.924   1.242  16.821  0.5084  0.1649  0.0046
   95TMC2    C6 1451   2.934   1.157  16.928 -0.1292  0.3336 -0.2012
   95TMC2     C 1452   3.011   1.021  16.542  0.0466 -0.7533 -0.5606
   95TMC2     O 1453   3.030   1.109  16.457 -0.4563 -0.3056  0.0655
   95TMC2     H 1454   3.028   0.872  16.774  0.1861 -0.5030  0.5676
   95TMC2    H1 1455   2.960   1.262  16.618 -1.5941  2.2543  1.8567
   95TMC2    H2 1456   2.903   1.192  17.026  0.8136 -0.8375  0.5024
   95TMC2    C7 1457   2.888   1.384  16.837  0.0584 -0.7997 -0.4370
   95TMC2    C8 1458   2.941   0.937  17.022  0.3401  0.3195 -0.1716
   95TMC2    O1 1459   2.873   1.424  16.950 -0.1098  0.0234  0.3759
   95TMC2    O2 1460   2.940   0.990  17.131 -0.0295  0.4228  0.7310
   95TMC2    O5 1461   2.868   0.829  16.983 -0.2952 -0.6749 -0.6288
   95TMC2    H5 1462   2.874   0.817  16.886  0.0673  0.6806 -0.7710
   96MPD2     C 1463   3.199   0.685  16.200 -0.0740 -0.1045  0.2607
   96MPD2    C1 1464   3.207   0.823  16.203 -0.2221  0.3942  0.1972
   96MPD2    C2 1465   3.147   0.891  16.303  0.8828  0.2411  1.3158
   96MPD2    C3 1466   3.084   0.827  16.411 -0.1013 -0.2024 -0.2676
   96MPD2    C4 1467   3.085   0.686  16.410  0.7396  0.1508  0.2575
   96MPD2    C5 1468   3.152   0.619  16.307 -0.9456  0.0810 -0.4765
   96MPD2     H 1469   3.152   0.999  16.307  3.0900  0.1465  1.2683
   96MPD2    H1 1470   3.043   0.635  16.495  1.5955  0.1904  0.7027
   96MPD2    H2 1471   3.250   0.639  16.116 -0.6148  0.3315 -0.2995
   96MPD2    H3 1472   3.163   0.511  16.307 -0.7243  0.0985  1.7793
   96MPD2     N 1473   3.033   0.888  16.527 -0.5699  0.2731 -0.0150
   96MPD2    H5 1474   3.006   0.828  16.604 -1.8121  1.4905  0.4828
   96MPD2    N1 1475   3.295   0.882  16.105 -0.1611  0.2606 -0.2505
   96MPD2    H7 1476   3.339   0.822  16.037  0.5177 -0.7995  1.1250
   97MPD2     C 1477   4.336   2.645   1.063  0.0898 -0.3902  0.1854
   97MPD2    C1 1478   4.427   2.739   1.056  0.1748 -0.6546  0.0565
   97MPD2    C2 1479   4.513   2.749   0.950  0.0235  0.6272 -0.2456
   97MPD2    C3 1480   4.502   2.650   0.853  0.6899  0.6150  0.1848
   97MPD2    C4 1481   4.399   2.563   0.854  0.5348  0.5694  0.3938
   97MPD2    C5 1482   4.312   2.556   0.960 -0.3253  0.0559 -0.3565
   97MPD2     H 1483   4.587   2.828   0.941 -0.0386  0.7536  0.3878
   97MPD2    H1 1484   4.378   2.494   0.774 -0.5515  2.5029 -1.0029
   97MPD2    H2 1485   4.265   2.640   1.144 -0.7728  0.5199 -0.5184
   97MPD2    H3 1486   4.228   2.488   0.969  0.7488 -1.3992 -1.4445
   97MPD2     N 1487   4.594   2.639   0.743  0.2105  0.5051 -0.0409
   97MPD2    H5 1488   4.552   2.587   0.666  1.8043  1.4720 -1.5530
   97MPD2    N1 1489   4.417   2.836   1.159  0.1525  0.2190 -0.0532
   97MPD2    H7 1490   4.354   2.802   1.231  2.4991  1.0191  2.3857
   98TCq2    C1 1491   4.705   2.711   0.710 -0.8799  0.4913 -0.1921
   98TCq2    O2 1492   0.035   2.801   0.772  0.7056 -0.0618  0.2827
   98TCq2    C2 1493   0.025   2.674   0.579 -0.4272  0.8540 -0.0941
   98TCq2    C3 1494   4.697   2.567   0.512 -0.8063  0.5176  0.3753
   98TCq2    C4 1495   4.719   2.560   0.376  0.0682  0.1338 -0.0127
   98TCq2    C5 1496   0.087   2.649   0.311 -0.9655 -0.2283 -0.6792
   98TCq2    C6 1497   0.138   2.753   0.391  0.0161 -0.3887 -1.0839
   98TCq2    C7 1498   0.100   2.769   0.516  0.1832  0.3193  0.1907
   98TCq2    C8 1499   0.204   2.870   0.332  0.1070  0.4195  0.1210
   98TCq2    O4 1500   0.252   2.952   0.411 -0.2585 -0.1044  0.1030
   98TCq2    C9 1501   4.681   2.434   0.302 -0.1742  0.3717  0.2989
   98TCq2    O5 1502   4.594   2.364   0.362 -1.0508 -0.0413  0.5440
   98TCq2    O6 1503   0.005   2.417   0.184  1.4068  0.0339 -0.8865
   98TCq2    H2 1504   4.651   2.482   0.562 -0.6210  0.4888  0.4931
   98TCq2    H3 1505   0.124   2.631   0.211  2.1203 -0.2177  0.4633
   98TCq2    H4 1506   0.136   2.856   0.571 -1.9153  1.2524  0.1044
   99MPD2     C 1507   3.296   0.616   1.714  0.4020 -0.3879 -0.3978
   99MPD2    C1 1508   3.240   0.700   1.620  0.7941 -0.6098 -0.5837
   99MPD2    C2 1509   3.303   0.728   1.494 -0.2638 -0.2804 -0.3985
   99MPD2    C3 1510   3.426   0.676   1.468  0.1021  0.6102  0.8661
   99MPD2    C4 1511   3.490   0.609   1.568 -0.3517 -0.3039 -0.9920
   99MPD2    C5 1512   3.421   0.572   1.685  0.4146 -0.2160  0.0056
   99MPD2     H 1513   3.259   0.793   1.421 -0.6935  0.6609  0.7040
   99MPD2    H1 1514   3.589   0.567   1.556  0.3054  0.9884 -0.1193
   99MPD2    H2 1515   3.244   0.572   1.798  1.5554 -0.5580  0.2370
   99MPD2    H3 1516   3.472   0.510   1.758  0.8966  1.4368  1.0883
   99MPD2     N 1517   3.482   0.697   1.335  0.3139 -0.4154  0.3789
   99MPD2    H5 1518   3.416   0.735   1.267  2.9677 -1.1864 -2.6569
   99MPD2    N1 1519   3.114   0.763   1.642 -0.7554  0.0715  0.0248
   99MPD2    H7 1520   3.078   0.833   1.577  0.7364 -0.1740 -1.0781
  100TCq2    C1 1521   3.041   0.761   1.759 -0.3956  0.7582  0.0411
  100TCq2    O2 1522   3.074   0.706   1.863  0.7486  0.0102  0.3477
  100TCq2    C2 1523   2.956   0.880   1.771  0.0379 -0.0606 -0.7668
  100TCq2    C3 1524   2.969   0.947   1.892 -0.4136  0.1892 -1.3636
  100TCq2    C4 1525   2.869   1.033   1.928  0.3928 -0.4507 -0.3921
  100TCq2    C5 1526   2.772   1.066   1.839 -0.2766  0.1659 -0.1143
  100TCq2    C6 1527   2.763   1.002   1.718 -0.4045 -0.2202  0.1255
  100TCq2    C7 1528   2.851   0.900   1.684 -0.0739 -0.7140  0.0090
  100TCq2    C8 1529   2.656   1.047   1.640  0.9838 -0.4964 -0.4617
  100TCq2    O4 1530   2.602   1.151   1.675  0.2535 -0.6634 -0.0509
  100TCq2    C9 1531   2.889   1.114   2.044 -0.2021 -0.3985  0.8738
  100TCq2    O5 1532   2.830   1.225   2.052 -0.0506 -0.1876  0.3560
  100TCq2    O6 1533   2.981   1.078   2.120 -0.7720 -0.3655  0.0997
  100TCq2    H2 1534   3.057   0.928   1.952 -1.7189 -1.1359  0.0953
  100TCq2    H3 1535   2.711   1.151   1.867  0.1849  1.4568 -2.9835
  100TCq2    H4 1536   2.839   0.836   1.598  1.5973  2.1719 -2.3522
  101MPD2     C 1537   0.064   1.855  12.994 -0.5775 -0.0727 -0.4745
  101MPD2    C1 1538   4.680   1.949  12.997  0.2690 -0.2069  1.0939
  101MPD2    C2 1539   4.579   1.947  13.094 -0.1721  0.0163 -0.0261
  101MPD2    C3 1540   4.599   1.870  13.208 -0.3609  0.3225  0.1854
  101MPD2    C4 1541   4.706   1.782  13.207 -0.4690 -0.0986  0.4411
  101MPD2    C5 1542   0.069   1.773  13.103 -1.0310 -0.9646 -0.5153
  101MPD2     H 1543   4.497   2.018  13.084 -0.8226 -0.9692 -1.6483
  101MPD2    H1 1544   0.014   1.719  13.290  3.0621  0.8630 -0.0988
  101MPD2    H2 1545   0.147   1.843  12.926  0.6851  3.1207  0.5101
  101MPD2    H3 1546   0.157   1.710  13.108 -0.5254 -0.2361 -0.2902
  101MPD2     N 1547   4.506   1.868  13.309  0.2144  0.4239  0.3633
  101MPD2    H5 1548   4.424   1.927  13.300 -0.7134 -0.8818  0.1832
  101MPD2    N1 1549   4.677   2.034  12.881  0.6963 -0.0827  0.4056
  101MPD2    H7 1550   0.032   2.030  12.814  0.4993  3.0122 -0.0238
  102TCq2    C1 1551   0.146   2.274  12.474  0.6524 -0.4870  0.9421
  102TCq2    O2 1552   0.256   2.248  12.525  0.0357  0.0523 -0.0773
  102TCq2    C2 1553   0.019   2.287  12.552  0.4292 -0.2449  0.5929
  102TCq2    C3 1554   4.635   2.364  12.502  0.3563 -0.1099  0.3755
  102TCq2    C4 1555   4.520   2.372  12.578  0.6184  0.2074  0.1389
  102TCq2    C5 1556   4.505   2.290  12.688  0.6710  0.7405 -0.0153
  102TCq2    C6 1557   4.612   2.222  12.737 -0.4018 -0.4345  0.4760
  102TCq2    C7 1558   0.008   2.218  12.671 -0.3196  0.1723 -0.2333
  102TCq2    C8 1559   4.589   2.140  12.859  0.3655 -0.1746 -0.3444
  102TCq2    O4 1560   4.483   2.167  12.916 -0.8223 -0.6824  0.1638
  102TCq2    C9 1561   4.410   2.456  12.543  0.7645  0.5226 -0.4920
  102TCq2    O5 1562   4.306   2.460  12.615 -0.2734  0.2752  0.6028
  102TCq2    O6 1563   4.417   2.510  12.429  0.2620 -0.5664  0.4307
  102TCq2    H2 1564   4.643   2.436  12.422  1.8275  1.2099  1.7146
  102TCq2    H3 1565   4.407   2.301  12.733  1.5202 -0.6973  2.1863
  102TCq2    H4 1566   0.094   2.165  12.709  0.1459  1.1458  0.0507
  103TMC2    C1 1567   2.977   1.532  12.431 -0.9809  0.1928  0.0582
  103TMC2    C2 1568   3.111   1.548  12.440 -0.3319 -0.0276  0.4382
  103TMC2    C3 1569   3.162   1.631  12.542  0.1099 -0.2109  0.9825
  103TMC2    C4 1570   2.886   1.589  12.509 -0.3033  0.7772 -0.2379
  103TMC2    C5 1571   2.934   1.677  12.599 -0.2468 -0.0520 -0.1172
  103TMC2    C6 1572   3.071   1.694  12.625  0.2582 -0.0495  0.1299
  103TMC2     C 1573   2.924   1.473  12.319  1.2623 -0.1047  0.0518
  103TMC2     O 1574   2.871   1.552  12.243  0.5394  0.1480  0.1357
  103TMC2     H 1575   3.189   1.494  12.388  1.1586  2.4095  0.1457
  103TMC2    H1 1576   2.788   1.547  12.490  1.0002 -2.7891  0.8148
  103TMC2    H2 1577   3.103   1.741  12.717 -0.7861  0.4490  0.2414
  103TMC2    C7 1578   2.845   1.702  12.719 -0.2417 -0.3157  0.5122
  103TMC2    C8 1579   3.303   1.646  12.558  0.3548 -0.1553  0.3670
  103TMC2    O1 1580   2.910   1.703  12.823 -0.1127 -0.3971  0.2928
  103TMC2    O2 1581   3.381   1.574  12.496  0.2862  0.3464 -0.4068
  103TMC2    O5 1582   3.334   1.746  12.642  0.5366  0.6490  0.4267
  103TMC2    H5 1583   3.263   1.813  12.644 -0.5889 -0.5740  2.0679
  104MPD2     C 1584   2.929   1.106  12.236  0.0925  0.1911  0.5054
  104MPD2    C1 1585   2.886   1.241  12.225  0.3165 -0.1200  0.0736
  104MPD2    C2 1586   2.787   1.280  12.138  0.4648 -0.2842 -0.1665
  104MPD2    C3 1587   2.729   1.187  12.059 -0.0395 -0.6328  0.5838
  104MPD2    C4 1588   2.768   1.057  12.070  0.7383  0.2199 -0.3417
  104MPD2    C5 1589   2.871   1.010  12.153 -0.5907  0.0396 -0.8213
  104MPD2     H 1590   2.769   1.386  12.132 -0.4713 -0.5053 -1.3029
  104MPD2    H1 1591   2.714   0.988  12.006 -1.7659  0.1291  1.8461
  104MPD2    H2 1592   3.000   1.073  12.312 -0.1812  0.4688  0.8829
  104MPD2    H3 1593   2.899   0.906  12.165  1.3728  0.9279  2.2321
  104MPD2     N 1594   2.626   1.220  11.968  0.1230  0.3279 -0.0448
  104MPD2    H5 1595   2.616   1.146  11.899 -1.1445  0.5262 -0.0740
  104MPD2    N1 1596   2.946   1.336  12.316  0.6224 -0.6739 -0.3001
  104MPD2    H7 1597   3.002   1.299  12.392  0.5693 -3.8243 -1.7564
  105MPD2     C 1598   4.630   1.082  17.594  0.7022  0.3518 -0.0714
  105MPD2    C1 1599   4.528   1.173  17.602  0.3429  0.0017  0.1705
  105MPD2    C2 1600   4.546   1.298  17.659  0.2212 -0.0958  0.0460
  105MPD2    C3 1601   4.676   1.330   0.021  0.4990 -0.3927 -0.6842
  105MPD2    C4 1602   0.054   1.232   0.011  0.4970  0.3634  0.0690
  105MPD2    C5 1603   0.030   1.111  17.640 -0.2592  0.1543 -0.3311
  105MPD2     H 1604   4.457   1.359  17.657 -1.3092 -2.3914 -2.0377
  105MPD2    H1 1605   0.154   1.239   0.052  1.1857  1.7047 -1.8456
  105MPD2    H2 1606   4.618   0.975  17.578  0.2995  0.5605 -1.1548
  105MPD2    H3 1607   0.098   1.028  17.652 -1.0396 -0.4292  0.1056
  105MPD2     N 1608   4.692   1.435   0.117  0.2304 -0.7619  0.0898
  105MPD2    H5 1609   0.063   1.444   0.158  0.0207 -0.5390  0.5178
  105MPD2    N1 1610   4.408   1.145  17.540 -0.4203  0.0313  0.4131
  105MPD2    H7 1611   4.340   1.221  17.546  0.7505  1.2678 -1.9330
  106TCq2    C1 1612   4.613   1.539   0.139 -0.1163 -0.4317 -0.5512
  106TCq2    O2 1613   4.509   1.566   0.071 -0.0819 -0.1433 -0.3906
  106TCq2    C2 1614   4.635   1.613   0.262 -0.4597 -0.5437 -0.3775
  106TCq2    C3 1615   4.554   1.726   0.269  0.0196  0.3013 -0.7487
  106TCq2    C4 1616   4.520   1.779   0.395  0.2120  0.1309 -0.5701
  106TCq2    C5 1617   4.560   1.716   0.510  0.7369 -0.4387  0.3041
  106TCq2    C6 1618   4.631   1.604   0.492  0.4199  0.0688  0.0894
  106TCq2    C7 1619   4.684   1.554   0.374 -0.5165 -0.7385 -0.1927
  106TCq2    C8 1620   4.687   1.544   0.612  0.1473  0.3366  0.0830
  106TCq2    O4 1621   0.086   1.530   0.608 -0.1599 -0.2162 -0.7043
  106TCq2    C9 1622   4.427   1.889   0.395 -0.4923 -0.5500  0.3130
  106TCq2    O5 1623   4.369   1.917   0.285  0.0639  0.2910  0.9709
  106TCq2    O6 1624   4.416   1.964   0.492  0.4117  0.0796  0.1128
  106TCq2    H2 1625   4.521   1.768   0.175 -0.1901  1.5964 -0.1033
  106TCq2    H3 1626   4.538   1.753   0.610  0.1105  0.5446 -0.1987
  106TCq2    H4 1627   0.029   1.470   0.374 -2.2356 -2.1078 -0.3184
  107TMC2    C1 1628   0.301   0.464  11.553  0.2646 -0.2510  0.4647
  107TMC2    C2 1629   0.393   0.540  11.490  0.9146  0.0598  0.0947
  107TMC2    C3 1630   0.434   0.492  11.368  0.7079  0.0112 -0.8317
  107TMC2    C4 1631   0.251   0.351  11.498 -0.0335 -1.2615 -0.0836
  107TMC2    C5 1632   0.297   0.311  11.374  0.3721  0.2318  0.4116
  107TMC2    C6 1633   0.404   0.376  11.309 -0.4562  0.1634  0.0242
  107TMC2     C 1634   0.244   0.513  11.681 -0.3678  0.6715 -0.1902
  107TMC2     O 1635   0.196   0.431  11.756 -0.3884  0.5644  0.2087
  107TMC2     H 1636   0.431   0.631  11.536  1.8434 -0.8851  1.1938
  107TMC2    H1 1637   0.172   0.299  11.551 -0.0257 -1.8640 -0.6609
  107TMC2    H2 1638   0.433   0.353  11.207  1.7595  1.3594  0.3685
  107TMC2    C7 1639   0.222   0.205  11.303  0.4109  0.3319  0.1720
  107TMC2    C8 1640   0.511   0.584  11.282  0.9025  0.4180 -0.9222
  107TMC2    O1 1641   0.104   0.192  11.337  0.0484  0.1578 -0.5244
  107TMC2    O2 1642   0.598   0.539  11.209 -0.0808 -0.0491  0.2260
  107TMC2    O5 1643   0.500   0.713  11.316  0.1160 -0.1468  0.0505
  107TMC2    H5 1644   0.417   0.728  11.366  0.4421  0.4727  0.4129
  108MPD2     C 1645   0.147   0.859  11.770  0.0964  0.0735 -0.1177
  108MPD2    C1 1646   0.188   0.731  11.797  0.4250 -0.0053 -0.0972
  108MPD2    C2 1647   0.185   0.688  11.929 -0.7856 -0.0330  0.9439
  108MPD2    C3 1648   0.145   0.775  12.032  0.2734  0.2080  0.0841
  108MPD2    C4 1649   0.106   0.899  11.997  0.8586 -0.1285  0.0808
  108MPD2    C5 1650   0.101   0.944  11.866 -0.3504  0.3868 -0.5805
  108MPD2     H 1651   0.216   0.588  11.957 -1.6520 -0.9759 -1.4778
  108MPD2    H1 1652   0.054   0.958  12.071 -3.0734  0.4987 -3.1335
  108MPD2    H2 1653   0.148   0.900  11.670 -0.2091  2.0377  0.6810
  108MPD2    H3 1654   0.064   1.044  11.844 -1.5779 -0.2410 -1.3677
  108MPD2     N 1655   0.145   0.744  12.169 -0.0764  0.6113  0.1487
  108MPD2    H5 1656   0.115   0.815  12.234 -0.4552  0.6028 -0.0157
  108MPD2    N1 1657   0.230   0.650  11.684  0.0538  0.2352  0.0049
  108MPD2    H7 1658   0.252   0.703  11.600  0.0896 -1.0675 -0.8035
  109MPD2     C 1659   3.832   1.966   1.932  0.0301  0.3727 -0.1439
  109MPD2    C1 1660   3.911   2.043   1.848 -0.3890  0.6470 -0.1003
  109MPD2    C2 1661   4.023   2.109   1.896 -0.3650  0.6133 -0.6965
  109MPD2    C3 1662   4.054   2.100   2.029 -0.4837  0.6080  0.1590
  109MPD2    C4 1663   3.986   2.012   2.107 -0.8382  0.0047 -0.8101
  109MPD2    C5 1664   3.875   1.946   2.061  0.2694  0.3020  0.0560
  109MPD2     H 1665   4.073   2.182   1.834  0.4590  0.4968 -0.1650
  109MPD2    H1 1666   4.017   1.979   2.205 -1.3733  0.2394 -0.5630
  109MPD2    H2 1667   3.746   1.913   1.892 -3.0621  3.8425  1.9742
  109MPD2    H3 1668   3.818   1.891   2.135  0.0759  1.3270  0.6710
  109MPD2     N 1669   4.144   2.191   2.085 -0.3389  0.2493  0.0394
  109MPD2    H5 1670   4.195   2.256   2.025  0.1634 -0.6300 -0.4824
  109MPD2    N1 1671   3.860   2.048   1.714 -0.0404 -0.1299  0.5175
  109MPD2    H7 1672   3.787   1.988   1.678 -0.6162  1.2902 -0.7059
  110TCq2    C1 1673   4.175   2.210   2.216 -0.4958  0.0884 -0.3579
  110TCq2    O2 1674   4.137   2.154   2.317  0.0228 -0.0819  0.0462
  110TCq2    C2 1675   4.275   2.315   2.237 -0.6188 -0.3641 -0.0417
  110TCq2    C3 1676   4.326   2.335   2.368  0.5118  0.4318  0.3386
  110TCq2    C4 1677   4.396   2.451   2.400  0.3502  0.9902  0.1318
  110TCq2    C5 1678   4.428   2.543   2.302 -0.4356  0.5191  0.2032
  110TCq2    C6 1679   4.375   2.529   2.179 -0.2145 -0.4990  0.0938
  110TCq2    C7 1680   4.306   2.415   2.141  0.1538  0.4061  0.2197
  110TCq2    C8 1681   4.374   2.639   2.085 -0.4489 -0.2782 -0.4659
  110TCq2    O4 1682   4.328   2.612   1.976  0.5450 -0.2898 -0.0797
  110TCq2    C9 1683   4.447   2.474   2.534  0.2954  0.6839  0.2522
  110TCq2    O5 1684   4.424   2.387   2.621  0.1574 -0.3898 -0.0173
  110TCq2    O6 1685   4.483   2.591   2.564 -0.4095  0.0754 -0.5089
  110TCq2    H2 1686   4.313   2.263   2.448 -2.0699  0.7494  0.2056
  110TCq2    H3 1687   4.476   2.628   2.348 -0.1896  0.1979  0.5482
  110TCq2    H4 1688   4.266   2.398   2.042 -3.7334  0.7099  1.7415
  111TMC2    C1 1689   0.359   2.794  11.346  0.2788  0.0323 -0.9749
  111TMC2    C2 1690   0.273   2.710  11.421 -0.0114 -1.0242  0.2873
  111TMC2    C3 1691   0.288   2.710  11.557 -0.9388 -0.1673 -0.2841
  111TMC2    C4 1692   0.457   2.872  11.406  1.0640  0.0240 -0.1252
  111TMC2    C5 1693   0.476   2.867  11.540 -0.3264 -0.8489 -0.4589
  111TMC2    C6 1694   0.389   2.795  11.613  0.9999 -0.4942 -0.1142
  111TMC2     C 1695   0.297   2.849  11.231 -0.2781  0.3353  0.1047
  111TMC2     O 1696   0.230   2.773  11.157  0.2932 -0.3308  0.2681
  111TMC2     H 1697   0.189   2.660  11.374 -1.4433  0.5783  1.1352
  111TMC2    H1 1698   0.517   2.928  11.335  1.4020 -1.8300 -1.3310
  111TMC2    H2 1699   0.398   2.793  11.721  1.4905  1.5194 -0.1214
  111TMC2    C7 1700   0.613   2.850  11.589 -0.5078 -0.4545 -0.3327
  111TMC2    C8 1701   0.194   2.636  11.640 -0.6560 -0.5620 -0.1562
  111TMC2    O1 1702   0.636   2.881  11.705 -0.3151  0.2084 -0.1390
  111TMC2    O2 1703   0.078   2.609  11.605 -0.8155 -0.0164 -0.3213
  111TMC2    O5 1704   0.261   2.575  11.747 -0.1460  0.0297 -0.6205
  111TMC2    H5 1705   0.358   2.580  11.758  0.1063 -0.8618 -2.6317
  112MPD2     C 1706   0.083   3.229  10.977 -0.0690  0.1565 -0.0263
  112MPD2    C1 1707   0.101   3.097  10.933  0.2521 -0.4875 -0.3567
  112MPD2    C2 1708   0.183   3.028  11.017  0.1729  0.3039  0.2884
  112MPD2    C3 1709   0.245   3.075  11.134 -0.2939  0.1614  0.9515
  112MPD2    C4 1710   0.237   3.213  11.167 -0.0012  0.1029  0.0927
  112MPD2    C5 1711   0.152   3.283  11.087 -0.2517 -0.1130 -0.5729
  112MPD2     H 1712   0.197   2.924  10.989  2.9636  0.0855  2.5400
  112MPD2    H1 1713   0.289   3.266  11.245  0.6764 -1.0423  0.4196
  112MPD2    H2 1714   0.016   3.296  10.924  1.5788  0.6825 -1.4594
  112MPD2    H3 1715   0.139   3.390  11.098  2.2649  0.1803 -0.4394
  112MPD2     N 1716   0.308   2.989  11.228 -1.1871 -0.7264 -1.0628
  112MPD2    H5 1717   0.367   3.028  11.300  0.4079 -3.7722 -0.6942
  112MPD2    N1 1718   0.050   3.039  10.812 -0.0895  0.1750  0.1791
  112MPD2    H7 1719   0.074   2.943  10.788 -0.0519 -0.1315  1.4004
  113MPD2     C 1720   2.534   0.608   0.765 -0.3841  0.1158 -0.2047
  113MPD2    C1 1721   2.472   0.729   0.793  0.2593  0.3629 -0.3961
  113MPD2    C2 1722   2.346   0.753   0.738  0.2086  0.2262 -0.0862
  113MPD2    C3 1723   2.279   0.661   0.660 -0.3192 -0.3923  0.5185
  113MPD2    C4 1724   2.342   0.544   0.639  0.0464  0.5386 -0.0024
  113MPD2    C5 1725   2.468   0.524   0.681  0.3388  0.4062  0.0300
  113MPD2     H 1726   2.307   0.852   0.759  0.4236  0.5660 -1.2367
  113MPD2    H1 1727   2.296   0.458   0.592 -1.3351  1.3927 -0.1917
  113MPD2    H2 1728   2.640   0.595   0.787 -0.3762  0.8105  0.1836
  113MPD2    H3 1729   2.520   0.431   0.663  0.1368  0.0673  1.1673
  113MPD2     N 1730   2.150   0.672   0.615 -0.3413  0.2004 -0.7852
  113MPD2    H5 1731   2.118   0.592   0.560 -0.8691  2.5826 -3.9323
  113MPD2    N1 1732   2.529   0.823   0.882 -0.1766 -0.7125  0.0574
  113MPD2    H7 1733   2.477   0.911   0.884  1.0891 -0.0045  2.6312
  114TCq2    C1 1734   2.062   0.775   0.640  0.2615  0.4317 -0.5437
  114TCq2    O2 1735   2.072   0.864   0.724  0.0231  0.0770  0.4714
  114TCq2    C2 1736   1.930   0.746   0.588  0.0851 -0.3828 -0.0092
  114TCq2    C3 1737   1.832   0.837   0.612 -0.4049 -0.0950  0.5047
  114TCq2    C4 1738   1.709   0.816   0.559  0.3001 -0.4599  0.4497
  114TCq2    C5 1739   1.686   0.705   0.490  0.0544 -0.0684 -0.7058
  114TCq2    C6 1740   1.786   0.614   0.461  0.4426  0.2159  0.2729
  114TCq2    C7 1741   1.915   0.628   0.508 -0.2713 -0.2492  0.1102
  114TCq2    C8 1742   1.741   0.495   0.392  0.9278 -0.3699 -0.4471
  114TCq2    O4 1743   1.647   0.509   0.311 -0.0134 -0.1849 -0.6540
  114TCq2    C9 1744   1.592   0.903   0.584  1.0694  0.8508 -0.0735
  114TCq2    O5 1745   1.604   0.989   0.675  0.0978  0.2911 -0.0099
  114TCq2    O6 1746   1.478   0.859   0.539  0.2551  0.0826 -0.6168
  114TCq2    H2 1747   1.852   0.932   0.659  0.6444  0.9405 -2.0290
  114TCq2    H3 1748   1.584   0.686   0.459 -0.0524 -1.4139  0.4965
  114TCq2    H4 1749   1.985   0.552   0.478  0.4616  0.8950 -1.0649
  115TMC2    C1 1750   3.613   3.080   0.437 -0.4485 -0.4962 -0.8380
  115TMC2    C2 1751   3.736   3.029   0.436 -0.6299 -0.6819  0.1012
  115TMC2    C3 1752   3.830   3.092   0.509 -0.2664 -0.5193 -0.1815
  115TMC2    C4 1753   3.580   3.202   0.491 -0.0479  0.5827  0.2968
  115TMC2    C5 1754   3.682   3.278   0.539 -0.4513 -0.0512 -0.2936
  115TMC2    C6 1755   3.806   3.222   0.560  0.1530 -1.1095  0.1921
  115TMC2     C 1756   3.503   2.993   0.395  0.3905  0.0460 -0.0642
  115TMC2     O 1757   3.539   2.901   0.322 -0.1450  0.3334  0.4112
  115TMC2     H 1758   3.754   2.933   0.390 -0.6395  0.3422 -2.0632
  115TMC2    H1 1759   3.481   3.245   0.482 -0.8060 -1.4882 -1.0449
  115TMC2    H2 1760   3.892   3.269   0.606 -0.9049  0.4736  0.5717
  115TMC2    C7 1761   3.666   3.417   0.529 -0.6103 -0.0039  0.3506
  115TMC2    C8 1762   3.966   3.057   0.481 -0.0905 -0.2214  0.2315
  115TMC2    O1 1763   3.550   3.459   0.537  0.9809  0.0355  0.0547
  115TMC2    O2 1764   4.056   3.139   0.487  0.5765  0.1821 -0.3887
  115TMC2    O5 1765   3.970   2.923   0.495  0.9166  0.4446  0.9195
  115TMC2    H5 1766   3.891   2.884   0.538  0.4997  0.5153  0.2348
  116MPD2     C 1767   3.005   2.898   0.352  0.4802 -0.1367  0.4373
  116MPD2    C1 1768   3.105   2.816   0.316  0.8468 -0.2001 -0.3435
  116MPD2    C2 1769   3.237   2.857   0.330 -0.0854  0.3699  0.2672
  116MPD2    C3 1770   3.257   2.975   0.399  0.2842 -0.5746 -0.0793
  116MPD2    C4 1771   3.147   3.044   0.452  0.3785 -0.5948  0.1805
  116MPD2    C5 1772   3.021   3.011   0.424 -1.1357 -0.3971  0.4802
  116MPD2     H 1773   3.323   2.801   0.296 -2.0710 -2.2611 -0.3706
  116MPD2    H1 1774   3.164   3.128   0.518 -1.3679  0.4167 -0.6469
  116MPD2    H2 1775   2.903   2.874   0.325  0.5517 -0.5920  0.5758
  116MPD2    H3 1776   2.940   3.066   0.470 -0.5187 -0.1732  1.3003
  116MPD2     N 1777   3.379   3.028   0.442 -0.6190  0.0256  1.1210
  116MPD2    H5 1778   3.379   3.110   0.501 -0.1255 -0.8565  2.3416
  116MPD2    N1 1779   3.061   2.703   0.243  0.2174  0.4918  0.2515
  116MPD2    H7 1780   2.962   2.684   0.241  0.8906 -2.4918 -4.4627
  117TMC2    C1 1781   2.191   4.246  14.004 -0.1749  0.3695 -0.1566
  117TMC2    C2 1782   2.303   4.178  14.043 -0.1747  0.2223  0.0302
  117TMC2    C3 1783   2.406   4.246  14.092  0.9415  0.0256 -0.3122
  117TMC2    C4 1784   2.179   4.376  14.039  0.1789  0.6550 -0.7122
  117TMC2    C5 1785   2.291   4.448  14.082  0.1830  0.0640 -0.0415
  117TMC2    C6 1786   2.412   4.384  14.110  0.2148 -0.1300  0.7209
  117TMC2     C 1787   2.184   4.240  13.858 -0.5196  0.3444 -0.0750
  117TMC2     O 1788   2.236   4.143  13.805  0.1761 -0.2980 -0.0024
  117TMC2     H 1789   2.328   4.077  14.015  0.9103  0.6442 -0.5583
  117TMC2    H1 1790   2.082   4.422  14.027 -0.1185  0.6973  1.7291
  117TMC2    H2 1791   2.495   4.445  14.141  0.0428  0.4762 -0.0069
  117TMC2    C7 1792   2.310   4.583  14.035 -0.0970 -0.0579  0.1368
  117TMC2    C8 1793   2.524   4.165  14.115 -0.1698 -0.7085  0.1182
  117TMC2    O1 1794   2.426   4.614  14.014 -0.3052 -0.4253  0.7775
  117TMC2    O2 1795   2.524   4.044  14.117  0.0524 -0.0922  0.0552
  117TMC2    O5 1796   2.599   4.247  14.191 -0.1219 -0.0072 -0.6931
  117TMC2    H5 1797   2.680   4.209  14.232 -1.8467 -2.1622  0.7872
  118MPD2     C 1798   2.080   0.147  13.984 -0.1697  0.1986 -0.2448
  118MPD2    C1 1799   2.190   0.067  13.954 -0.3623 -0.6901 -0.5751
  118MPD2    C2 1800   2.296   0.126  13.881 -0.1700  0.2982 -0.1862
  118MPD2    C3 1801   2.280   0.260  13.844  0.5855  0.2461 -0.6331
  118MPD2    C4 1802   2.166   0.325  13.861 -0.1852  1.2028 -0.0462
  118MPD2    C5 1803   2.064   0.272  13.935 -0.1480 -0.2753  0.5595
  118MPD2     H 1804   2.388   0.072  13.862 -0.2505 -1.3340  4.0464
  118MPD2    H1 1805   2.158   0.426  13.821  0.7941  0.2470 -2.6311
  118MPD2    H2 1806   1.992   0.110  14.036  1.0236 -1.6803  0.4597
  118MPD2    H3 1807   1.970   0.324  13.947 -0.9102 -0.8990 -2.6176
  118MPD2     N 1808   2.377   0.321  13.761 -0.0009  0.1840 -0.2311
  118MPD2    H5 1809   2.360   0.413  13.722  0.2914  0.7840  1.0888
  118MPD2    N1 1810   2.194   4.655  14.015  0.5556  0.2928  0.3168
  118MPD2    H7 1811   2.116   4.627  14.072  0.0326 -3.9854 -2.4519
  119MPD2     C 1812   1.048   1.712  13.451  0.2052 -0.1344 -0.1292
  119MPD2    C1 1813   0.930   1.645  13.482  0.2878  0.3872  0.0273
  119MPD2    C2 1814   0.835   1.650  13.387 -0.5715  0.0277 -0.2038
  119MPD2    C3 1815   0.851   1.713  13.260 -0.1353  0.6087 -0.2532
  119MPD2    C4 1816   0.970   1.776  13.230  0.6809  0.1407  0.0878
  119MPD2    C5 1817   1.064   1.781  13.326 -0.0503  0.5405  0.5129
  119MPD2     H 1818   0.744   1.595  13.410  1.2447 -3.4631 -1.2823
  119MPD2    H1 1819   0.982   1.825  13.134 -1.1494 -1.1465 -0.7877
  119MPD2    H2 1820   1.130   1.714  13.522 -0.6576 -1.1043  0.8876
  119MPD2    H3 1821   1.153   1.840  13.306  0.6294 -1.5436 -2.6357
  119MPD2     N 1822   0.749   1.719  13.159 -0.0746 -0.4102  0.7838
  119MPD2    H5 1823   0.768   1.791  13.090 -1.4940  0.1770  0.9925
  119MPD2    N1 1824   0.912   1.573  13.601 -0.2081  0.1447  0.9522
  119MPD2    H7 1825   0.992   1.559  13.661  1.1454  0.5050 -0.7721
  120TCq2    C1 1826   0.620   1.668  13.170 -0.1155  0.1504  0.1122
  120TCq2    O2 1827   0.572   1.594  13.252 -0.3422 -0.3407 -0.7072
  120TCq2    C2 1828   0.542   1.682  13.052 -0.0370  0.1181  0.1722
  120TCq2    C3 1829   0.587   1.732  12.931 -0.2473 -0.1566 -0.4398
  120TCq2    C4 1830   0.505   1.735  12.827  0.6273 -0.1551  0.0212
  120TCq2    C5 1831   0.375   1.689  12.831  0.5548 -0.5895 -0.2735
  120TCq2    C6 1832   0.340   1.625  12.950  0.5698  0.5013 -0.8583
  120TCq2    C7 1833   0.418   1.616  13.060 -0.0510  0.8434  0.5991
  120TCq2    C8 1834   0.230   1.523  12.930 -0.2376 -0.0834 -0.4934
  120TCq2    O4 1835   0.148   1.530  12.840  0.4212 -0.4597 -0.0785
  120TCq2    C9 1836   0.541   1.800  12.705 -0.1369 -0.0452 -0.3204
  120TCq2    O5 1837   0.457   1.808  12.616  0.2878  0.7750  0.4614
  120TCq2    O6 1838   0.663   1.823  12.683 -0.5549  0.1218 -0.0996
  120TCq2    H2 1839   0.680   1.787  12.917  0.0654 -0.5413  0.1116
  120TCq2    H3 1840   0.306   1.699  12.748  0.0057  2.8726  0.6420
  120TCq2    H4 1841   0.382   1.570  13.151  0.2532  0.0423  0.3215
  121TMC2    C1 1842   1.885   2.758  14.146 -0.2199  0.1567 -0.0075
  121TMC2    C2 1843   1.944   2.686  14.238 -0.0503  0.6927  0.2052
  121TMC2    C3 1844   1.901   2.555  14.250  0.0723  0.2539  0.0339
  121TMC2    C4 1845   1.766   2.728  14.084  0.4575  0.7559 -0.0975
  121TMC2    C5 1846   1.726   2.598  14.092 -0.1385  0.5984 -0.2051
  121TMC2    C6 1847   1.796   2.510  14.176 -0.1765 -0.0968  0.5188
  121TMC2     C 1848   1.946   2.877  14.104 -0.7950 -0.7269 -0.1564
  121TMC2     O 1849   1.875   2.973  14.072  0.1867 -0.2405  0.1207
  121TMC2     H 1850   2.032   2.721  14.291  0.6669 -1.5345  0.5202
  121TMC2    H1 1851   1.709   2.799  14.025  0.7792  1.1389  0.0514
  121TMC2    H2 1852   1.760   2.408  14.178  0.9669 -0.4700  1.5655
  121TMC2    C7 1853   1.614   2.547  14.020  0.4330 -0.0693 -0.4010
  121TMC2    C8 1854   1.970   2.465  14.340  0.2266  0.6003  0.3041
  121TMC2    O1 1855   1.580   2.430  14.024 -0.7216  0.0501 -0.0346
  121TMC2    O2 1856   2.090   2.489  14.365 -0.5148 -0.3180  0.3535
  121TMC2    O5 1857   1.884   2.410  14.423  0.1462 -0.4641 -0.2504
  121TMC2    H5 1858   1.791   2.403  14.392  0.8904 -0.1996 -2.5650
  122MPD2     C 1859   2.130   3.110  14.087  0.5717 -0.1776  0.2014
  122MPD2    C1 1860   2.168   2.979  14.088  0.4402 -0.2906  0.8410
  122MPD2    C2 1861   2.302   2.942  14.068 -0.2980 -0.0623 -0.1236
  122MPD2    C3 1862   2.394   3.044  14.061 -0.2846  0.6610 -0.5729
  122MPD2    C4 1863   2.354   3.175  14.079  0.6020  0.3639  0.5671
  122MPD2    C5 1864   2.222   3.213  14.090  0.2964  0.1642  0.2395
  122MPD2     H 1865   2.330   2.837  14.060  2.1968  0.4173  1.8907
  122MPD2    H1 1866   2.417   3.262  14.066  2.2629 -0.9118  0.1136
  122MPD2    H2 1867   2.026   3.141  14.091  1.1899  1.9722 -0.2588
  122MPD2    H3 1868   2.195   3.318  14.095 -2.0723 -0.3582 -1.8687
  122MPD2     N 1869   2.525   3.020  14.011  0.6572  0.2412  0.6506
  122MPD2    H5 1870   2.577   3.105  13.988  1.4434 -0.3232  0.3374
  122MPD2    N1 1871   2.087   2.871  14.102 -0.1353 -0.2479 -0.6373
  122MPD2    H7 1872   2.128   2.781  14.121  0.2557  0.2152  0.7067
  123MPD2     C 1873   0.804   0.751  10.883  0.1724  0.9539  0.4885
  123MPD2    C1 1874   0.822   0.698  10.760  0.0594  0.6402 -0.0024
  123MPD2    C2 1875   0.877   0.778  10.661  0.0717 -0.0818 -0.8440
  123MPD2    C3 1876   0.920   0.904  10.688  0.4005  0.3681 -0.5672
  123MPD2    C4 1877   0.907   0.952  10.817  0.1755 -0.3792  0.3570
  123MPD2    C5 1878   0.836   0.878  10.908 -0.4867  0.4910 -0.4518
  123MPD2     H 1879   0.883   0.749  10.556 -1.4467 -1.3368 -0.5854
  123MPD2    H1 1880   0.945   1.051  10.836 -1.1908  0.5173 -1.6248
  123MPD2    H2 1881   0.758   0.688  10.959 -1.6965 -1.1463 -2.3751
  123MPD2    H3 1882   0.805   0.911  11.006  0.2781 -1.5513  0.4705
  123MPD2     N 1883   0.981   0.965  10.582 -0.1059 -0.5541  0.0886
  123MPD2    H5 1884   0.971   0.918  10.492  0.0923  2.4269 -1.4817
  123MPD2    N1 1885   0.785   0.565  10.732 -0.1361  0.0705  0.4836
  123MPD2    H7 1886   0.737   0.516  10.806 -1.3567 -1.0594 -1.0354
  124TCq2    C1 1887   1.064   1.078  10.586  0.3498 -0.6140  0.0199
  124TCq2    O2 1888   1.088   1.158  10.676 -0.9121  0.0566  0.4190
  124TCq2    C2 1889   1.134   1.075  10.459  0.2875 -0.3298 -0.6496
  124TCq2    C3 1890   1.173   1.193  10.410  0.5118 -0.0157  0.2076
  124TCq2    C4 1891   1.231   1.203  10.286 -0.2292 -0.2757  0.0988
  124TCq2    C5 1892   1.256   1.090  10.205 -0.4098 -0.1819  0.2731
  124TCq2    C6 1893   1.199   0.975  10.258  0.9206 -0.4481 -0.0590
  124TCq2    C7 1894   1.144   0.960  10.382 -0.0721 -0.7998 -0.3834
  124TCq2    C8 1895   1.188   0.851  10.175  0.7991 -0.4613 -0.0996
  124TCq2    O4 1896   1.161   0.749  10.238 -0.4113  0.2486  0.1820
  124TCq2    C9 1897   1.269   1.331  10.225  0.1563 -0.0463 -0.1621
  124TCq2    O5 1898   1.330   1.324  10.113  0.1807  0.0445  0.1110
  124TCq2    O6 1899   1.238   1.433  10.290 -0.1148  0.3570 -0.7003
  124TCq2    H2 1900   1.134   1.287  10.448  0.4167  0.2328 -0.4979
  124TCq2    H3 1901   1.320   1.097  10.118 -1.0148  2.7063  0.0601
  124TCq2    H4 1902   1.123   0.862  10.422 -1.1320 -1.9216 -3.6871
  125TMC2    C1 1903   2.378   3.486   8.971  0.1062  0.0351 -0.3111
  125TMC2    C2 1904   2.292   3.584   8.933 -0.8107 -0.0594 -0.8520
  125TMC2    C3 1905   2.156   3.566   8.967 -0.4490 -0.5177 -0.3901
  125TMC2    C4 1906   2.338   3.391   9.069 -0.0719  0.0947  0.2394
  125TMC2    C5 1907   2.207   3.386   9.108  0.8356  0.3629  0.4981
  125TMC2    C6 1908   2.113   3.475   9.063 -0.9195  0.3467 -0.0178
  125TMC2     C 1909   2.517   3.499   8.931  0.0756 -0.2929 -0.1868
  125TMC2     O 1910   2.574   3.610   8.920 -0.1229  0.0499 -0.4464
  125TMC2     H 1911   2.314   3.645   8.846  0.7660 -0.1777 -0.5332
  125TMC2    H1 1912   2.411   3.315   9.095  1.0036  1.0212 -0.0330
  125TMC2    H2 1913   2.010   3.445   9.080 -0.6112  1.2621  3.4150
  125TMC2    C7 1914   2.155   3.275   9.185 -0.2049 -0.0068  0.0820
  125TMC2    C8 1915   2.063   3.661   8.914 -0.4337 -0.0909 -0.1745
  125TMC2    O1 1916   2.047   3.291   9.242 -0.1100 -0.1237 -0.1019
  125TMC2    O2 1917   2.088   3.744   8.825 -0.3208  0.0520 -0.5806
  125TMC2    O5 1918   1.959   3.663   9.004  0.0383 -0.7559  0.0193
  125TMC2    H5 1919   1.985   3.642   9.096  1.9844  3.0708  0.3381
  126MPD1     C 1920   2.921   3.270   8.730 -0.3806 -0.4337 -0.8742
  126MPD1    C1 1921   2.849   3.180   8.803  0.6110 -0.2402  0.3699
  126MPD1    C2 1922   2.736   3.224   8.857 -0.1348  0.2787 -0.3249
  126MPD1    C3 1923   2.697   3.357   8.852 -0.3243 -0.3936  0.0118
  126MPD1    C4 1924   2.774   3.448   8.783  0.0351 -0.0414  0.2333
  126MPD1    C5 1925   2.881   3.397   8.721  0.3111  0.4595 -0.1824
  126MPD1     H 1926   2.664   3.155   8.900  0.5932  0.6374  1.4665
  126MPD1    H1 1927   2.758   3.555   8.784 -0.3869 -0.1128  1.1219
  126MPD1    H2 1928   3.014   3.235   8.686 -0.0517  1.6648 -1.8688
  126MPD1    H3 1929   2.951   3.465   8.673 -1.6135  1.7263 -1.1760
  126MPD1     N 1930   2.577   3.377   8.923 -0.4962  0.2194 -0.1864
  126MPD1    H5 1931   2.526   3.291   8.939 -1.6159  1.2075  1.5312
  126MPD1    N1 1932   2.864   3.043   8.796 -0.7734 -0.0075 -0.5261
  126MPD1    H6 1933   2.956   3.006   8.777  0.3248  1.0439  2.6403
  126MPD1    H7 1934   2.830   2.995   8.880  0.3441 -2.2810 -1.3942
  127MPD2     C 1935   2.989   1.344   9.642  0.4861 -0.3481  0.6008
  127MPD2    C1 1936   3.080   1.323   9.743  0.1780  0.1128  0.4962
  127MPD2    C2 1937   3.175   1.419   9.766 -0.0779 -0.2445  0.6010
  127MPD2    C3 1938   3.175   1.537   9.695  0.2995  0.3256  0.2646
  127MPD2    C4 1939   3.083   1.556   9.596  0.1129  0.5736 -0.1363
  127MPD2    C5 1940   2.993   1.455   9.568  0.0118  0.1440  0.1209
  127MPD2     H 1941   3.255   1.402   9.838 -0.1950  0.3534  0.8751
  127MPD2    H1 1942   3.088   1.641   9.529 -1.0531  1.1918  0.5573
  127MPD2    H2 1943   2.910   1.270   9.638 -0.3929  0.6033  0.3748
  127MPD2    H3 1944   2.916   1.476   9.494 -0.1054 -1.5761 -0.2439
  127MPD2     N 1945   3.271   1.639   9.713  0.2348  0.3338 -0.7430
  127MPD2    H5 1946   3.355   1.612   9.763 -0.6152 -2.3314 -0.7434
  127MPD2    N1 1947   3.059   1.219   9.829 -0.9199  0.8638  0.7510
  127MPD2    H7 1948   2.979   1.156   9.831  0.1634 -0.5353  0.2500
  128TCq2    C1 1949   3.161   1.173   9.918 -0.0109 -0.0473  0.3832
  128TCq2    O2 1950   3.279   1.202   9.915  0.1257  0.4751  0.4314
  128TCq2    C2 1951   3.119   1.061   9.996 -0.3611  0.3185 -0.1685
  128TCq2    C3 1952   3.216   0.983  10.050 -0.3415  0.0783  0.6079
  128TCq2    C4 1953   3.180   0.882  10.134  0.2292  0.6968 -0.0687
  128TCq2    C5 1954   3.046   0.849  10.150  0.2372 -0.1824 -0.8682
  128TCq2    C6 1955   2.949   0.942  10.107  0.0048  0.1645 -0.5663
  128TCq2    C7 1956   2.983   1.048  10.029 -0.0265  0.0935 -0.3516
  128TCq2    C8 1957   2.802   0.917  10.086  0.1445  0.0847 -0.1767
  128TCq2    O4 1958   2.734   0.998  10.023 -0.5821 -0.5277  0.0744
  128TCq2    C9 1959   3.275   0.788  10.180 -0.2440  0.2599  0.0728
  128TCq2    O5 1960   3.233   0.672  10.206  0.1639  0.3637  0.7594
  128TCq2    O6 1961   3.396   0.824  10.164  0.0876 -0.0574  0.1525
  128TCq2    H2 1962   3.321   0.982  10.022 -0.1342  0.4064  1.3604
  128TCq2    H3 1963   3.018   0.765  10.213  1.3745 -1.0102 -1.4698
  128TCq2    H4 1964   2.905   1.116   9.996 -0.4801 -0.7284 -0.9668
  129MPD2     C 1965   4.646   2.528   1.397  0.6081  0.4647 -0.9266
  129MPD2    C1 1966   0.006   2.625   1.447 -0.7367  0.0641  0.9663
  129MPD2    C2 1967   0.090   2.694   1.361 -0.6423  0.1470 -0.8258
  129MPD2    C3 1968   0.098   2.652   1.229  0.0446 -0.1158  0.2420
  129MPD2    C4 1969   0.015   2.551   1.184  0.3819 -0.1791 -1.0800
  129MPD2    C5 1970   4.645   2.492   1.265 -0.3063 -0.8152 -0.1857
  129MPD2     H 1971   0.169   2.758   1.400  1.7679 -1.2200 -3.4903
  129MPD2    H1 1972   0.005   2.527   1.079  0.0894 -0.0115 -1.0872
  129MPD2    H2 1973   4.586   2.472   1.468  0.2674  0.1390 -1.4699
  129MPD2    H3 1974   4.579   2.410   1.237 -0.7086 -0.3599 -0.5814
  129MPD2     N 1975   0.196   2.716   1.150 -0.3025  0.5260  0.1173
  129MPD2    H5 1976   0.232   2.803   1.189  0.7268 -0.4245  1.2522
  129MPD2    N1 1977   0.011   2.650   1.586  0.2718 -0.1494  0.1794
  129MPD2    H7 1978   4.663   2.599   1.640 -1.3900  1.3587 -0.5582
  130TCq2    C1 1979   0.100   2.729   1.651 -0.5597 -0.2901 -0.3428
  130TCq2    O2 1980   0.175   2.817   1.612 -0.1583 -0.0326 -0.0008
  130TCq2    C2 1981   0.093   2.700   1.794 -0.0723 -0.1512  0.6611
  130TCq2    C3 1982   0.117   2.798   1.880 -0.2425  0.0294 -0.2340
  130TCq2    C4 1983   0.097   2.777   2.015  0.0584  0.0216  0.6852
  130TCq2    C5 1984   0.051   2.662   2.062 -0.4148  0.1328 -0.1663
  130TCq2    C6 1985   0.030   2.560   1.969  0.0928  0.2040 -0.5278
  130TCq2    C7 1986   0.056   2.576   1.835 -0.1465 -0.1007 -0.4669
  130TCq2    C8 1987   4.699   2.426   2.005 -0.5532  0.4073 -0.1487
  130TCq2    O4 1988   4.661   2.353   1.917  0.1804 -0.4761 -0.0354
  130TCq2    C9 1989   0.126   2.885   2.103 -0.4746  0.5573  0.2253
  130TCq2    O5 1990   0.138   2.857   2.224 -0.5004  0.2328  0.1691
  130TCq2    O6 1991   0.166   2.992   2.055 -0.1908  0.3258 -0.1800
  130TCq2    H2 1992   0.126   2.902   1.852 -0.4655  0.3496  0.8861
  130TCq2    H3 1993   0.016   2.671   2.164 -0.5486  1.7084 -0.3553
  130TCq2    H4 1994   0.040   2.491   1.770 -0.9182  0.9088 -1.5920
  131MPD2     C 1995   0.720   0.450   9.747  0.8020  0.2734 -0.1848
  131MPD2    C1 1996   0.780   0.540   9.830  0.8074  0.4616 -0.0149
  131MPD2    C2 1997   0.781   0.517   9.965  0.4196  0.5098  0.2910
  131MPD2    C3 1998   0.721   0.406  10.024 -0.2481  0.3929 -0.3085
  131MPD2    C4 1999   0.674   0.310   9.939  0.2810 -0.7776  0.2132
  131MPD2    C5 2000   0.668   0.337   9.802 -0.1474  0.4357  0.4087
  131MPD2     H 2001   0.840   0.582  10.027  2.9929 -0.0047 -1.6321
  131MPD2    H1 2002   0.629   0.218   9.975 -2.5093  0.4329 -0.1193
  131MPD2    H2 2003   0.698   0.482   9.646 -0.5174 -0.5876 -0.1622
  131MPD2    H3 2004   0.618   0.266   9.737  0.3834  2.5018 -2.2875
  131MPD2     N 2005   0.727   0.390  10.163  0.1129  0.4632  0.1483
  131MPD2    H5 2006   0.785   0.460  10.209  0.9245 -0.3281  0.3407
  131MPD2    N1 2007   0.843   0.656   9.764 -0.8462 -0.9313 -0.3326
  131MPD2    H7 2008   0.837   0.659   9.663 -0.5973 -0.5379 -0.3354
  132TCq2    C1 2009   0.972   0.951   9.381 -0.1926 -0.0991 -0.6308
  132TCq2    O2 2010   0.960   0.844   9.327 -0.3672  0.0185  0.1613
  132TCq2    C2 2011   0.990   0.955   9.527  0.3430 -0.6636 -0.9181
  132TCq2    C3 2012   1.069   1.061   9.581 -0.3768 -0.4629 -0.3089
  132TCq2    C4 2013   1.108   1.049   9.713  0.0078 -0.0425 -0.9229
  132TCq2    C5 2014   1.039   0.958   9.789 -0.6895  0.4628  0.1760
  132TCq2    C6 2015   0.948   0.870   9.740 -0.1673  0.6965 -0.0697
  132TCq2    C7 2016   0.920   0.866   9.605 -0.4838 -0.3582  0.0926
  132TCq2    C8 2017   0.898   0.762   9.827  0.5938  0.0779  0.1184
  132TCq2    O4 2018   0.901   0.788   9.951 -0.1227  0.1992  0.2025
  132TCq2    C9 2019   1.205   1.136   9.774 -0.3966  0.3851  0.0941
  132TCq2    O5 2020   1.244   1.099   9.889  0.4546  1.0809 -0.1634
  132TCq2    O6 2021   1.258   1.229   9.709  1.1016  0.4310 -0.4080
  132TCq2    H2 2022   1.122   1.136   9.524  1.0101 -0.9773  0.3054
  132TCq2    H3 2023   1.070   0.941   9.891  0.2644  1.1845  0.0031
  132TCq2    H4 2024   0.859   0.791   9.557 -1.2327  0.9638 -0.9933
  133MPD2     C 2025   1.093   1.377   8.550 -0.7387 -0.6749 -0.1352
  133MPD2    C1 2026   1.028   1.495   8.562  0.3273 -0.5138 -0.0236
  133MPD2    C2 2027   0.932   1.503   8.651  0.6450 -0.1518 -0.3537
  133MPD2    C3 2028   0.885   1.395   8.721  0.2358  0.1560 -0.2385
  133MPD2    C4 2029   0.944   1.274   8.698 -0.5265 -0.1361  0.0527
  133MPD2    C5 2030   1.050   1.265   8.616 -0.1413 -0.2058 -0.3328
  133MPD2     H 2031   0.897   1.599   8.688  0.1780 -0.5299  0.1873
  133MPD2    H1 2032   0.918   1.188   8.758 -2.7459  1.6096  1.5872
  133MPD2    H2 2033   1.177   1.370   8.481 -2.0845  0.7424 -1.8867
  133MPD2    H3 2034   1.091   1.168   8.590 -0.9614  0.0458 -2.5675
  133MPD2     N 2035   0.785   1.406   8.819 -0.3135  0.0781  0.2292
  133MPD2    H5 2036   0.774   1.320   8.872 -0.6234  2.3662  3.8453
  133MPD2    N1 2037   1.082   1.616   8.500 -0.0244  0.1839  0.3047
  133MPD2    H7 2038   1.164   1.596   8.442  0.3612 -1.1322  1.3055
  134TCq2    C1 2039   1.042   1.745   8.520 -0.0600 -0.0511 -0.3106
  134TCq2    O2 2040   0.940   1.786   8.584  0.3310  0.1291  0.3084
  134TCq2    C2 2041   1.122   1.851   8.445 -0.3988  0.5063  0.5446
  134TCq2    C3 2042   1.056   1.964   8.405  1.0100 -0.8789  0.1242
  134TCq2    C4 2043   1.116   2.040   8.310  0.1980 -0.4724  0.1555
  134TCq2    C5 2044   1.251   2.018   8.278  0.5632 -0.6423 -0.3476
  134TCq2    C6 2045   1.315   1.902   8.319 -0.0996  0.7224  0.7975
  134TCq2    C7 2046   1.248   1.812   8.409 -0.8183 -1.8516  0.4233
  134TCq2    C8 2047   1.449   1.876   8.266 -0.6821  0.3531 -0.0673
  134TCq2    O4 2048   1.491   1.950   8.180 -0.2122  0.2265  0.3508
  134TCq2    C9 2049   1.051   2.157   8.262  0.5467  0.8124 -0.7261
  134TCq2    O5 2050   1.101   2.215   8.162  0.0499  0.3041 -0.3280
  134TCq2    O6 2051   0.966   2.217   8.337  0.7060  0.0770  0.2531
  134TCq2    H2 2052   0.955   1.987   8.435  1.3308  0.2256  0.3532
  134TCq2    H3 2053   1.298   2.089   8.210  0.5299 -2.7506 -2.5642
  134TCq2    H4 2054   1.302   1.732   8.458  1.8727  0.2736  0.9716
  135MPD2     C 2055   2.610   3.316   9.296  0.4912 -0.3034 -0.1668
  135MPD2    C1 2056   2.642   3.186   9.319 -0.5582  0.4444  0.5009
  135MPD2    C2 2057   2.762   3.141   9.263 -0.6742  0.1786  0.2001
  135MPD2    C3 2058   2.850   3.215   9.183  0.2873 -0.3550  0.7252
  135MPD2    C4 2059   2.816   3.348   9.162  0.1586 -0.6789  0.4116
  135MPD2    C5 2060   2.702   3.397   9.227 -0.4307 -0.1049  1.1714
  135MPD2     H 2061   2.779   3.035   9.278 -0.7605  0.1084 -0.1873
  135MPD2    H1 2062   2.879   3.415   9.106  1.6589 -1.9020  0.6236
  135MPD2    H2 2063   2.521   3.362   9.338  0.3698  0.0832 -0.8569
  135MPD2    H3 2064   2.674   3.498   9.198  0.7464 -0.1563 -0.1382
  135MPD2     N 2065   2.967   3.159   9.131  1.1247  0.9085  0.4005
  135MPD2    H5 2066   3.032   3.216   9.078  0.7702  2.0171  1.1432
  135MPD2    N1 2067   2.580   3.096   9.415 -0.4123 -0.3448  0.3185
  135MPD2    H7 2068   2.624   3.006   9.429 -1.1199 -0.6942  0.2962
  136TCq2    C1 2069   2.461   3.133   9.482 -0.2762 -0.4677 -0.6053
  136TCq2    O2 2070   2.400   3.239   9.489  0.1635 -0.3305  0.2932
  136TCq2    C2 2071   2.408   3.037   9.581  0.0967  0.1408 -0.2295
  136TCq2    C3 2072   2.448   2.905   9.603 -0.7708  0.2159 -1.3916
  136TCq2    C4 2073   2.369   2.823   9.679 -0.0519 -0.2710 -0.2325
  136TCq2    C5 2074   2.259   2.866   9.745 -0.5455  0.3875  0.2129
  136TCq2    C6 2075   2.223   2.999   9.728 -0.7167 -0.3541  0.2960
  136TCq2    C7 2076   2.299   3.085   9.660  0.4119  0.4913  0.8626
  136TCq2    C8 2077   2.088   3.032   9.772 -0.2995 -0.4280  0.0628
  136TCq2    O4 2078   2.049   3.149   9.767  0.4139 -0.0715  0.6579
  136TCq2    C9 2079   2.399   2.684   9.689  0.0527  0.2988  0.1058
  136TCq2    O5 2080   2.507   2.651   9.629  0.8333  0.3946  0.0393
  136TCq2    O6 2081   2.334   2.606   9.758  0.2734  0.0603  0.2120
  136TCq2    H2 2082   2.517   2.858   9.534 -2.0946 -1.8174 -1.3470
  136TCq2    H3 2083   2.198   2.789   9.791  0.5560 -0.2855  0.5581
  136TCq2    H4 2084   2.275   3.191   9.663 -0.5583  0.2372  2.2531
  137MPD2     C 2085   2.464   1.720   8.835 -0.6169  0.5467 -0.3383
  137MPD2    C1 2086   2.344   1.778   8.866  0.4150  0.1954 -0.2598
  137MPD2    C2 2087   2.322   1.836   8.988  0.0712  0.9165  0.2178
  137MPD2    C3 2088   2.420   1.824   9.085 -0.0613 -0.9515  0.3120
  137MPD2    C4 2089   2.543   1.761   9.052  0.1498  0.1604  0.2763
  137MPD2    C5 2090   2.562   1.701   8.927 -0.2497 -0.0997 -0.0366
  137MPD2     H 2091   2.225   1.881   9.010  0.2476  1.0896  0.6423
  137MPD2    H1 2092   2.623   1.759   9.125  0.2911  1.3782  0.1623
  137MPD2    H2 2093   2.471   1.680   8.734  2.0221  3.1865 -1.1948
  137MPD2    H3 2094   2.656   1.652   8.909  0.1731  0.4416  0.7149
  137MPD2     N 2095   2.390   1.887   9.208 -0.0743 -0.2104 -0.5452
  137MPD2    H5 2096   2.299   1.927   9.230 -1.0380 -1.9175 -1.4180
  137MPD2    N1 2097   2.259   1.772   8.757 -0.2534  0.3020  0.4492
  137MPD2    H7 2098   2.295   1.715   8.681 -2.4750  0.4629 -0.7301
  138TCq2    C1 2099   2.129   1.810   8.752  0.0744  0.3026 -0.0989
  138TCq2    O2 2100   2.057   1.847   8.845 -0.0437  0.3444 -0.1956
  138TCq2    C2 2101   2.083   1.842   8.618  0.1794  0.0670 -0.0050
  138TCq2    C3 2102   2.160   1.810   8.511  0.0377  0.3034  0.6142
  138TCq2    C4 2103   2.132   1.880   8.399  0.3126 -0.1515  0.0144
  138TCq2    C5 2104   2.017   1.946   8.380  0.2790  0.0426 -0.7656
  138TCq2    C6 2105   1.931   1.958   8.486 -0.2143 -0.0905  0.2264
  138TCq2    C7 2106   1.959   1.907   8.607 -0.5621  0.3647  0.2317
  138TCq2    C8 2107   1.809   2.037   8.467 -0.9295 -0.6813 -0.6068
  138TCq2    O4 2108   1.819   2.147   8.404  0.0713  0.2771 -0.0537
  138TCq2    C9 2109   2.227   1.888   8.296 -0.3548  0.5707  0.3952
  138TCq2    O5 2110   2.329   1.813   8.302 -0.3224 -0.0587 -0.0435
  138TCq2    O6 2111   2.208   1.968   8.204  0.6323 -0.1276 -0.2675
  138TCq2    H2 2112   2.259   1.766   8.514  0.3381  0.9275 -0.0600
  138TCq2    H3 2113   1.995   1.992   8.284 -0.4093  0.2465 -0.5079
  138TCq2    H4 2114   1.897   1.934   8.692  0.0670 -0.7179  1.0428
  139TMC2    C1 2115   2.238   0.587  12.979 -0.0005  0.8496 -0.0723
  139TMC2    C2 2116   2.296   0.647  12.872  0.5314 -0.1021  0.0008
  139TMC2    C3 2117   2.241   0.762  12.831 -0.5721 -0.4354 -0.3256
  139TMC2    C4 2118   2.122   0.633  13.045 -0.1051 -0.0787  0.0428
  139TMC2    C5 2119   2.069   0.748  12.996 -0.0471 -0.0622 -0.2740
  139TMC2    C6 2120   2.130   0.813  12.894 -0.1011 -0.0369  0.2871
  139TMC2     C 2121   2.299   0.458  13.018  0.2697  0.1145 -0.2051
  139TMC2     O 2122   2.370   0.398  12.937 -0.2244  0.2353 -0.3570
  139TMC2     H 2123   2.388   0.610  12.829 -0.6969 -1.7997 -1.1620
  139TMC2    H1 2124   2.068   0.574  13.118 -2.2734 -1.5269 -2.7436
  139TMC2    H2 2125   2.073   0.893  12.849  1.7435 -0.0778 -2.0885
  139TMC2    C7 2126   1.993   0.831  13.082 -0.7794 -0.1970  0.1580
  139TMC2    C8 2127   2.331   0.868  12.789 -0.0028  0.0191 -0.3486
  139TMC2    O1 2128   1.979   0.944  13.038 -0.0854 -0.5450  0.4555
  139TMC2    O2 2129   2.335   0.968  12.857 -0.1792  0.5025  0.0121
  139TMC2    O5 2130   2.437   0.804  12.737  0.4785 -0.6159 -0.2836
  139TMC2    H5 2131   2.410   0.726  12.684 -1.3275 -0.6696  0.7076
  140MPD2     C 2132   2.288   0.287  13.345 -1.2193 -0.3011  0.1909
  140MPD2    C1 2133   2.312   0.300  13.205  0.5484  0.0004 -0.0613
  140MPD2    C2 2134   2.380   0.191  13.145  0.0463  0.0504 -1.6517
  140MPD2    C3 2135   2.422   0.078  13.217  0.5290  0.0581  0.2225
  140MPD2    C4 2136   2.399   0.076  13.351 -0.1461  0.8214 -0.0182
  140MPD2    C5 2137   2.333   0.179  13.415  0.0586  0.3097 -0.4313
  140MPD2     H 2138   2.400   0.191  13.038  1.2966 -3.0470 -1.4331
  140MPD2    H1 2139   2.426   4.713  13.414  0.9126  0.8082 -0.4906
  140MPD2    H2 2140   2.232   0.370  13.388  0.5146  1.6257 -1.2489
  140MPD2    H3 2141   2.322   0.174  13.523 -0.9910 -1.2048 -0.6163
  140MPD2     N 2142   2.493   4.698  13.156  0.1440  0.3126 -0.3502
  140MPD2    H5 2143   2.519   4.712  13.059  0.6061  1.1302 -0.1041
  140MPD2    N1 2144   2.264   0.414  13.144  0.6560 -0.3135 -0.3878
  140MPD2    H7 2145   2.208   0.480  13.197  0.5290 -0.3877 -0.4281
  141TCq2    C1 2146   2.854   1.569  14.287 -0.7614 -0.6752  0.4971
  141TCq2    O2 2147   2.806   1.656  14.217 -0.0881 -0.0049 -0.4507
  141TCq2    C2 2148   2.947   1.597  14.392 -0.8022 -0.3561  0.3837
  141TCq2    C3 2149   2.979   1.521  14.497  0.1949  0.1066 -0.4701
  141TCq2    C4 2150   3.067   1.576  14.591 -0.5648  0.4341  0.1177
  141TCq2    C5 2151   3.131   1.694  14.573  0.2145  0.2601 -0.1720
  141TCq2    C6 2152   3.096   1.764  14.461  0.0480 -0.4485 -0.2300
  141TCq2    C7 2153   3.009   1.717  14.375 -0.5083 -0.2606 -0.1167
  141TCq2    C8 2154   3.155   1.893  14.431 -0.3775  0.3867  0.2864
  141TCq2    O4 2155   3.131   1.947  14.324  0.0427  0.3258 -0.0936
  141TCq2    C9 2156   3.099   1.503  14.710  0.5532 -0.2712  0.2688
  141TCq2    O5 2157   3.188   1.547  14.787  0.0886 -0.1698  0.1738
  141TCq2    O6 2158   3.041   1.389  14.709 -0.7438  0.4606  0.9368
  141TCq2    H2 2159   2.923   1.432  14.523 -0.1954  0.0247 -1.6086
  141TCq2    H3 2160   3.191   1.735  14.653  1.8640 -0.4899 -1.0333
  141TCq2    H4 2161   2.982   1.780  14.291 -1.1581 -0.1190  0.1992
  142MPD2     C 2162   0.675   4.586  10.612 -0.5566  0.5659 -0.5214
  142MPD2    C1 2163   0.618   4.557  10.489 -0.0654  0.4764  0.2055
  142MPD2    C2 2164   0.674   4.598  10.366  0.1696 -0.0081 -0.7995
  142MPD2    C3 2165   0.789   4.676  10.374 -0.0934 -0.0301  0.3769
  142MPD2    C4 2166   0.840   4.708  10.501 -0.2634  0.1982  0.3164
  142MPD2    C5 2167   0.784   4.669  10.630 -0.5653 -0.6352  0.1045
  142MPD2     H 2168   0.646   4.557  10.269  0.0849  0.1412 -0.8374
  142MPD2    H1 2169   0.925   0.053  10.498  0.6995 -1.0637 -0.3771
  142MPD2    H2 2170   0.623   4.546  10.699  2.6874 -0.9893  0.7021
  142MPD2    H3 2171   0.816   4.705  10.727 -1.4092  1.4243 -0.3664
  142MPD2     N 2172   0.858   4.719  10.258 -0.3326  0.4352 -0.5915
  142MPD2    H5 2173   0.956   0.017  10.276  0.1753 -2.0281 -0.5300
  142MPD2    N1 2174   0.499   4.479  10.484 -0.2115  0.5144 -0.2430
  142MPD2    H7 2175   0.479   4.414  10.560  1.8010 -0.3995 -0.4826
  143TCq2    C1 2176   0.807   4.714  10.134 -0.1017 -0.8191 -0.0244
  143TCq2    O2 2177   0.708   4.670  10.080  0.0259  0.5234 -0.7230
  143TCq2    C2 2178   0.913   0.032  10.043  0.5321 -0.0870 -0.1391
  143TCq2    C3 2179   0.888   4.716   9.913 -0.2574  0.3686 -0.0237
  143TCq2    C4 2180   0.926   0.068   9.809 -0.0581  0.5348 -0.7156
  143TCq2    C5 2181   1.001   0.180   9.833 -0.1437 -0.2289 -0.2418
  143TCq2    C6 2182   1.022   0.228   9.960  0.3475  0.2966 -0.2363
  143TCq2    C7 2183   0.972   0.154  10.067  0.2189 -0.1905  0.2731
  143TCq2    C8 2184   1.084   0.358   9.991  0.1958 -0.2303 -0.2186
  143TCq2    O4 2185   1.093   0.392  10.110  0.0616 -0.4072  0.2810
  143TCq2    C9 2186   0.891   0.033   9.676 -0.4189  0.5855  0.3758
  143TCq2    O5 2187   0.803   4.663   9.659  0.1131 -0.3390  0.2783
  143TCq2    O6 2188   0.920   0.115   9.590 -0.3240 -0.1447  0.1057
  143TCq2    H2 2189   0.835   4.623   9.897 -1.2339  0.9082  0.0947
  143TCq2    H3 2190   1.033   0.239   9.748 -2.5868 -0.2963 -1.2297
  143TCq2    H4 2191   0.962   0.199  10.165  1.7285 -0.7703  0.6978
  144MPD2     C 2192   2.252   4.444   0.269  0.2387  0.3004 -0.0147
  144MPD2    C1 2193   2.320   4.326   0.252  0.9413 -0.7148  0.1238
  144MPD2    C2 2194   2.436   4.300   0.321  0.2641  0.1061 -0.0744
  144MPD2    C3 2195   2.492   4.409   0.396 -0.2219  0.3674 -0.2150
  144MPD2    C4 2196   2.435   4.541   0.404  0.4583 -0.0596  0.2326
  144MPD2    C5 2197   2.311   4.552   0.343  0.1777 -0.1434  0.0639
  144MPD2     H 2198   2.483   4.202   0.323  0.3795  0.1617 -0.0614
  144MPD2    H1 2199   2.473   4.624   0.462 -1.2259 -0.7496  2.3295
  144MPD2    H2 2200   2.158   4.465   0.219 -0.4535 -0.9957  0.7165
  144MPD2    H3 2201   2.255   4.643   0.364  1.1930  0.6474 -0.6932
  144MPD2     N 2202   2.623   4.400   0.456  0.4216  0.3306  0.1657
  144MPD2    H5 2203   2.664   4.482   0.499 -0.3802  0.6025  0.4099
  144MPD2    N1 2204   2.258   4.218   0.184  0.7863 -0.5123 -0.9487
  144MPD2    H7 2205   2.289   4.122   0.198  1.7931  0.0707  0.8127
  145TCq2    C1 2206   2.704   4.290   0.472  0.2486 -0.4665 -0.4761
  145TCq2    O2 2207   2.697   4.185   0.410  0.2268 -0.2275 -0.2419
  145TCq2    C2 2208   2.832   4.332   0.517  0.4924  0.0335 -0.0785
  145TCq2    C3 2209   2.943   4.281   0.460  0.4599 -0.0392 -0.3304
  145TCq2    C4 2210   3.068   4.311   0.519 -1.4222  0.5454 -0.2514
  145TCq2    C5 2211   3.072   4.390   0.626  0.6509 -0.4063 -0.0726
  145TCq2    C6 2212   2.958   4.433   0.684  0.5758  0.5046 -0.9828
  145TCq2    C7 2213   2.836   4.405   0.626  0.1597 -0.4592 -0.3180
  145TCq2    C8 2214   2.971   4.512   0.811 -0.1665  0.2033  0.3830
  145TCq2    O4 2215   3.080   4.498   0.864  0.1542 -0.4045  0.0269
  145TCq2    C9 2216   3.183   4.239   0.458  0.1267 -0.0229  0.4109
  145TCq2    O5 2217   3.157   4.134   0.388 -0.2905 -0.3106 -0.5791
  145TCq2    O6 2218   3.295   4.297   0.466 -0.4642 -0.1400 -0.1360
  145TCq2    H2 2219   2.942   4.214   0.375  0.7166 -0.6590  0.1627
  145TCq2    H3 2220   3.171   4.418   0.660 -0.4471  2.0384  1.1150
  145TCq2    H4 2221   2.744   4.402   0.683  0.3002 -1.1110 -0.1264
  146TMC2    C1 2222   4.573   3.039  12.168  0.4333  0.2828  0.3673
  146TMC2    C2 2223   4.485   3.026  12.067 -0.0083  0.5080  0.1860
  146TMC2    C3 2224   4.523   2.949  11.960 -0.2028  0.2748  0.3657
  146TMC2    C4 2225   4.689   2.967  12.167 -0.7774  0.2080  0.4944
  146TMC2    C5 2226   4.716   2.892  12.048 -0.2914  0.8340 -0.1460
  146TMC2    C6 2227   4.635   2.880  11.949  0.0723 -0.7175  0.1001
  146TMC2     C 2228   4.521   3.094  12.298  0.2397  1.1817  0.2082
  146TMC2     O 2229   4.410   3.141  12.281  0.4081  0.0358 -0.7218
  146TMC2     H 2230   4.393   3.084  12.069  0.8938  1.8950  0.6591
  146TMC2    H1 2231   0.040   2.980  12.247  0.8634 -1.1744 -0.7740
  146TMC2    H2 2232   4.654   2.830  11.855 -0.5040  0.5738 -0.6971
  146TMC2    C7 2233   0.126   2.839  12.026  0.1995 -0.0120  0.7043
  146TMC2    C8 2234   4.450   2.956  11.840  0.6762  0.1504 -0.0290
  146TMC2    O1 2235   0.163   2.828  11.908 -0.0158  0.5179  0.4307
  146TMC2    O2 2236   4.491   2.958  11.728  0.1823 -0.1524  0.2068
  146TMC2    O5 2237   4.317   2.960  11.875  0.0083  0.0307  0.2401
  146TMC2    H5 2238   4.306   2.932  11.968 -1.9349  0.6764  0.1933
  147MPD2     C 2239   0.613   2.825  12.172 -0.4072  0.9296 -0.2734
  147MPD2    C1 2240   0.533   2.824  12.286  0.1068 -0.3656 -0.5539
  147MPD2    C2 2241   0.393   2.817  12.269 -0.4617  0.5686 -0.1596
  147MPD2    C3 2242   0.335   2.819  12.147  0.0601  0.7284  0.7917
  147MPD2    C4 2243   0.418   2.819  12.035  0.1049  0.2647  0.3005
  147MPD2    C5 2244   0.551   2.815  12.045  0.1406  0.3432 -0.0884
  147MPD2     H 2245   0.330   2.815  12.357 -0.1932 -2.3733 -0.0300
  147MPD2    H1 2246   0.391   2.812  11.931  2.3496  2.9994 -0.4897
  147MPD2    H2 2247   0.721   2.825  12.170 -0.3450 -1.4146  2.6270
  147MPD2    H3 2248   0.613   2.812  11.957  0.9067  2.8597  0.3613
  147MPD2     N 2249   0.195   2.825  12.146  0.1153  0.5082  0.2764
  147MPD2    H5 2250   0.145   2.811  12.233  0.0872 -0.3259  0.1179
  147MPD2    N1 2251   0.599   2.831  12.410  0.3237 -0.4858 -0.2159
  147MPD2    H7 2252   0.699   2.832  12.396 -0.0071 -0.9892 -2.6560
  148MPD2     C 2253   0.525   1.076  11.059  0.5459 -0.9357  0.2438
  148MPD2    C1 2254   0.543   1.112  10.922 -0.2361 -0.8750 -0.1168
  148MPD2    C2 2255   0.481   1.039  10.819 -0.0900 -0.8660  0.3827
  148MPD2    C3 2256   0.387   0.949  10.852 -0.5217 -0.3238 -0.2085
  148MPD2    C4 2257   0.359   0.923  10.982  0.3578  0.1115 -0.2570
  148MPD2    C5 2258   0.431   0.973  11.080 -0.1507 -0.4913  0.1331
  148MPD2     H 2259   0.516   1.064  10.719  1.9872 -1.9350  0.8381
  148MPD2    H1 2260   0.282   0.847  10.992  1.1286 -0.5277  0.7918
  148MPD2    H2 2261   0.578   1.124  11.141  2.6079 -0.4844 -1.3569
  148MPD2    H3 2262   0.414   0.938  11.181  1.9898 -1.4773  0.1454
  148MPD2     N 2263   0.302   0.897  10.753  0.3080 -0.4376 -0.3724
  148MPD2    H5 2264   0.228   0.833  10.782  0.0342 -0.2541 -0.6602
  148MPD2    N1 2265   0.647   1.199  10.887  0.9003 -0.4120  0.8536
  148MPD2    H7 2266   0.657   1.206  10.786 -0.1569 -0.7103  0.7222
  149TCq2    C1 2267   0.709   1.300  10.966 -0.5572 -0.3658 -0.5434
  149TCq2    O2 2268   0.700   1.333  11.082 -0.1202  0.5439  0.2362
  149TCq2    C2 2269   0.799   1.374  10.886  0.8036 -0.7332  0.8086
  149TCq2    C3 2270   0.769   1.508  10.881 -0.3258 -0.1328  1.6059
  149TCq2    C4 2271   0.805   1.584  10.769  0.5606 -0.2687  0.1118
  149TCq2    C5 2272   0.825   1.522  10.648 -0.4530  0.0127  1.1601
  149TCq2    C6 2273   0.839   1.386  10.654  0.3612 -0.2580 -0.4857
  149TCq2    C7 2274   0.838   1.316  10.773  0.1488  0.7206 -0.2856
  149TCq2    C8 2275   0.799   1.300  10.543  0.1695 -0.4143  0.1074
  149TCq2    O4 2276   0.731   1.202  10.575  0.0059 -0.1480  0.4692
  149TCq2    C9 2277   0.732   1.706  10.761  0.5023  0.1141  0.0056
  149TCq2    O5 2278   0.721   1.765  10.870 -0.6642 -0.2430  0.1645
  149TCq2    O6 2279   0.742   1.765  10.652  0.3186  0.5574 -0.1338
  149TCq2    H2 2280   0.717   1.557  10.962 -2.3999 -0.4024  0.4537
  149TCq2    H3 2281   0.813   1.568  10.551  1.6019 -0.7540  0.5515
  149TCq2    H4 2282   0.860   1.211  10.762 -1.3197  0.4161 -0.2615
  150MPD2     C 2283   1.620   1.044  12.050  0.2814  0.0335  0.6911
  150MPD2    C1 2284   1.676   0.979  11.942 -0.3876  0.0216 -0.6739
  150MPD2    C2 2285   1.811   0.997  11.920  0.1839 -0.5333 -0.0069
  150MPD2    C3 2286   1.887   1.081  11.998 -0.1447 -0.4239 -0.5752
  150MPD2    C4 2287   1.834   1.144  12.110 -0.3162 -0.2771  0.8347
  150MPD2    C5 2288   1.700   1.125  12.134  0.4077  0.1792  0.0806
  150MPD2     H 2289   1.863   0.944  11.842 -1.2444 -1.5140 -0.2874
  150MPD2    H1 2290   1.888   1.207  12.180  0.7621  0.9485 -1.1000
  150MPD2    H2 2291   1.516   1.024  12.070  0.1297  1.5088  1.3403
  150MPD2    H3 2292   1.646   1.177  12.212 -0.9375  1.0932 -1.4290
  150MPD2     N 2293   2.030   1.077  11.978 -0.0371  0.4349  0.1750
  150MPD2    H5 2294   2.068   1.006  11.916  0.4128  1.5884 -0.8623
  150MPD2    N1 2295   1.602   0.889  11.869 -0.6490  0.0133  0.3720
  150MPD2    H7 2296   1.510   0.863  11.903 -0.8651 -1.7477 -1.5509
  151TCq2    C1 2297   2.123   1.146  12.048  0.2657  0.2676 -0.3177
  151TCq2    O2 2298   2.103   1.237  12.126  0.4500  0.3931 -0.3413
  151TCq2    C2 2299   2.249   1.083  12.034 -0.2558  0.9330 -0.1241
  151TCq2    C3 2300   2.272   0.980  11.945  0.5948  0.1540 -0.5381
  151TCq2    C4 2301   2.378   0.898  11.970  0.2011 -0.3894  0.1141
  151TCq2    C5 2302   2.456   0.901  12.084  0.6918 -0.2844  0.1976
  151TCq2    C6 2303   2.424   1.003  12.168 -0.4722  0.3758  0.2113
  151TCq2    C7 2304   2.329   1.101  12.144  0.1457 -0.0253 -0.3303
  151TCq2    C8 2305   2.503   1.021  12.290  0.2865 -0.0383  0.2651
  151TCq2    O4 2306   2.501   1.127  12.345  0.4092 -0.1415  0.2859
  151TCq2    C9 2307   2.402   0.785  11.887 -0.4805  0.1011  0.7141
  151TCq2    O5 2308   2.471   0.694  11.936 -0.0256  0.3834  0.0713
  151TCq2    O6 2309   2.380   0.793  11.764 -0.4886  0.2711 -0.4448
  151TCq2    H2 2310   2.227   0.966  11.848 -1.8081  1.8226  0.3448
  151TCq2    H3 2311   2.548   0.844  12.088  0.1875 -1.2061 -1.6336
  151TCq2    H4 2312   2.311   1.183  12.212 -0.9420 -0.5932  0.0749
  152MPD2     C 2313   1.695   0.435  12.448  0.7020 -0.1400  0.0531
  152MPD2    C1 2314   1.673   0.535  12.362 -0.5440 -0.5181 -0.5321
  152MPD2    C2 2315   1.549   0.546  12.313  0.6237  0.2093 -0.2656
  152MPD2    C3 2316   1.441   0.468  12.353  0.3443 -0.2764  0.1551
  152MPD2    C4 2317   1.460   0.373  12.452 -0.4269  0.2237 -0.4677
  152MPD2    C5 2318   1.590   0.359  12.494 -0.0353  0.3425 -0.4927
  152MPD2     H 2319   1.532   0.620  12.235 -1.0601 -1.1003 -1.1253
  152MPD2    H1 2320   1.384   0.302  12.484  1.0230 -1.1285 -0.0827
  152MPD2    H2 2321   1.795   0.416  12.486  1.3883  1.7935 -0.7620
  152MPD2    H3 2322   1.602   0.284  12.571 -0.3850 -0.2750 -1.0336
  152MPD2     N 2323   1.312   0.507  12.304 -0.1698 -0.8403  0.4936
  152MPD2    H5 2324   1.314   0.562  12.219 -1.6307  1.5070  1.9869
  152MPD2    N1 2325   1.786   0.620  12.320 -0.0031 -0.6616 -0.5295
  152MPD2    H7 2326   1.875   0.571  12.328  0.4175  0.1542 -0.1813
  153TCq2    C1 2327   1.769   0.758  12.293 -0.1980 -0.3195  0.0406
  153TCq2    O2 2328   1.669   0.829  12.289  0.1973  0.8176 -0.2082
  153TCq2    C2 2329   1.894   0.828  12.279  0.1221 -0.1764  0.1328
  153TCq2    C3 2330   1.990   0.739  12.241  0.3899  0.4913 -0.5483
  153TCq2    C4 2331   2.117   0.769  12.281  0.1001 -0.5122 -0.1436
  153TCq2    C5 2332   2.151   0.884  12.352  0.8754  0.3288  0.1563
  153TCq2    C6 2333   2.040   0.972  12.375  0.2213 -0.0601 -0.5810
  153TCq2    C7 2334   1.911   0.933  12.361 -0.4331  0.1488  0.3607
  153TCq2    C8 2335   2.059   1.081  12.466 -0.8113 -0.5879 -0.1187
  153TCq2    O4 2336   1.963   1.154  12.494  0.2952  0.0029  0.5245
  153TCq2    C9 2337   2.223   0.673  12.260  0.1430  0.0793 -0.3993
  153TCq2    O5 2338   2.195   0.558  12.224  0.0521  0.5895  0.5378
  153TCq2    O6 2339   2.333   0.701  12.308 -0.3270 -0.0602  0.2399
  153TCq2    H2 2340   1.966   0.661  12.169 -1.2730 -0.2641  0.8272
  153TCq2    H3 2341   2.255   0.908  12.373  0.7003  0.1342  1.2464
  153TCq2    H4 2342   1.830   0.998  12.392  0.6511  0.8830  1.6529
  154MPD2     C 2343   2.170   0.918   0.287  0.5542  0.0548  0.0394
  154MPD2    C1 2344   2.283   0.979   0.325 -0.5797  0.0227  1.0827
  154MPD2    C2 2345   2.279   1.099   0.387 -0.7731 -0.0049  0.2221
  154MPD2    C3 2346   2.163   1.145   0.428  0.5446 -0.2204  0.1874
  154MPD2    C4 2347   2.045   1.079   0.412  0.0423  0.5082  0.2224
  154MPD2    C5 2348   2.050   0.973   0.331 -0.0296  0.0487 -0.4562
  154MPD2     H 2349   2.370   1.153   0.410  1.2507 -2.9129 -0.8654
  154MPD2    H1 2350   1.944   1.101   0.443 -1.1260  0.3497 -3.3882
  154MPD2    H2 2351   2.173   0.819   0.244  0.0868 -0.2188  0.6318
  154MPD2    H3 2352   1.963   0.912   0.305  0.6633 -0.8417 -0.6927
  154MPD2     N 2353   2.169   1.269   0.495 -0.3993  0.3552  0.2637
  154MPD2    H5 2354   2.251   1.328   0.487  0.1678 -0.5810 -0.7236
  154MPD2    N1 2355   2.398   0.908   0.292  0.2811  0.0661 -0.4757
  154MPD2    H7 2356   2.387   0.833   0.224  0.9169 -0.5930  0.1469
  155TCq2    C1 2357   2.520   0.926   0.357 -0.0679  0.0806  0.1745
  155TCq2    O2 2358   2.544   0.978   0.464 -0.4297  0.1656 -0.0433
  155TCq2    C2 2359   2.613   0.827   0.315 -0.1798 -0.6103  0.4304
  155TCq2    C3 2360   2.684   0.769   0.421 -0.4739 -0.5221  0.7096
  155TCq2    C4 2361   2.728   0.640   0.400  0.4843 -0.4413  0.4565
  155TCq2    C5 2362   2.716   0.578   0.276  0.5960  0.7206  0.3990
  155TCq2    C6 2363   2.656   0.642   0.169 -0.0692  0.6575 -0.3644
  155TCq2    C7 2364   2.599   0.761   0.199  0.4194  0.6024 -0.4318
  155TCq2    C8 2365   2.653   0.586   0.036 -0.9714 -0.2338 -0.0764
  155TCq2    O4 2366   2.626   0.658  17.634 -0.1153  0.0301  0.1441
  155TCq2    C9 2367   2.792   0.572   0.507  1.2658 -0.1582 -0.0957
  155TCq2    O5 2368   2.870   0.637   0.578 -0.1542 -0.2388  0.3253
  155TCq2    O6 2369   2.781   0.447   0.510 -0.4891 -0.1776 -0.0722
  155TCq2    H2 2370   2.709   0.811   0.518  0.3520 -0.7602  0.5962
  155TCq2    H3 2371   2.769   0.484   0.268  0.6799  0.6912  1.3174
  155TCq2    H4 2372   2.568   0.820   0.113  0.0396  0.2936 -0.5071
  156MPD2     C 2373   2.390   2.375  11.448  0.0726  0.5747 -0.0632
  156MPD2    C1 2374   2.307   2.482  11.445 -1.1347  0.7257  0.3554
  156MPD2    C2 2375   2.295   2.554  11.561 -0.3413  0.5275  0.4488
  156MPD2    C3 2376   2.384   2.542  11.666  0.7990  0.7143 -0.2232
  156MPD2    C4 2377   2.482   2.453  11.657  1.0766 -0.3894  0.5855
  156MPD2    C5 2378   2.473   2.356  11.553 -0.1462  0.3193 -0.2997
  156MPD2     H 2379   2.221   2.632  11.575 -1.1788 -0.2373  0.2710
  156MPD2    H1 2380   2.560   2.446  11.731  1.4230  0.3953  0.2993
  156MPD2    H2 2381   2.409   2.302  11.370 -2.2648 -1.3093  1.1558
  156MPD2    H3 2382   2.546   2.276  11.544 -0.8480 -0.5126  1.4883
  156MPD2     N 2383   2.372   2.643  11.763  0.1701 -0.1535  0.0296
  156MPD2    H5 2384   2.283   2.691  11.770 -1.0385 -2.1890 -1.6687
  156MPD2    N1 2385   2.236   2.505  11.326 -0.4478  0.0300  0.0576
  156MPD2    H7 2386   2.236   2.431  11.257  0.0530  0.8101 -0.7787
  157TCq2    C1 2387   2.158   2.619  11.306 -0.0224 -0.4083 -0.5216
  157TCq2    O2 2388   2.156   2.721  11.375 -0.3515  0.1561 -0.1777
  157TCq2    C2 2389   2.102   2.638  11.173  0.6232 -0.9283  0.0901
  157TCq2    C3 2390   2.134   2.540  11.075  0.1405 -0.3196 -0.4324
  157TCq2    C4 2391   2.104   2.574  10.941 -0.7163  0.4832  0.6921
  157TCq2    C5 2392   2.052   2.691  10.915  0.4459 -0.0188 -0.6226
  157TCq2    C6 2393   2.041   2.789  11.009 -0.1376  0.5663 -0.4328
  157TCq2    C7 2394   2.059   2.763  11.140 -0.4755  0.0733  0.3339
  157TCq2    C8 2395   1.974   2.914  10.975 -0.2063 -0.4791 -0.1501
  157TCq2    O4 2396   1.898   2.931  10.886 -0.2796 -0.6607 -0.0989
  157TCq2    C9 2397   2.139   2.488  10.826  0.0881  0.0009  0.9039
  157TCq2    O5 2398   2.105   2.519  10.710  0.4049  0.0480 -0.2905
  157TCq2    O6 2399   2.200   2.384  10.857 -0.0907  0.0010 -0.1402
  157TCq2    H2 2400   2.183   2.446  11.096  1.5920  0.5739  0.1665
  157TCq2    H3 2401   2.041   2.730  10.815 -0.5359 -1.3313 -1.0223
  157TCq2    H4 2402   2.046   2.839  11.217 -2.4062 -1.7535  1.8097
  158TMC2    C1 2403   2.407   1.975  13.126 -0.1424 -0.7280  0.0008
  158TMC2    C2 2404   2.510   1.986  13.033  0.1188  0.0658  0.2768
  158TMC2    C3 2405   2.478   1.988  12.903 -0.5436  0.6467  0.1271
  158TMC2    C4 2406   2.277   1.947  13.089 -0.4804  0.3022 -0.2572
  158TMC2    C5 2407   2.244   1.955  12.957  0.4075  0.4374  0.2468
  158TMC2    C6 2408   2.341   1.976  12.862 -0.0855 -1.1408 -0.5299
  158TMC2     C 2409   2.441   1.947  13.266 -0.7881  0.5452  0.6589
  158TMC2     O 2410   2.553   1.915  13.289  0.2148 -0.2102  0.2533
  158TMC2     H 2411   2.616   1.993  13.052  0.2867  0.7345 -0.9316
  158TMC2    H1 2412   2.203   1.924  13.163  1.7583  0.0976  1.9216
  158TMC2    H2 2413   2.318   1.987  12.757  0.5928 -0.5109 -0.6125
  158TMC2    C7 2414   2.111   1.965  12.922 -0.0256 -0.4061  0.3722
  158TMC2    C8 2415   2.575   2.057  12.815  0.6759  0.5167  0.5202
  158TMC2    O1 2416   2.088   2.039  12.830  0.6029 -0.2118  0.2155
  158TMC2    O2 2417   2.612   2.005  12.706  0.1610  0.7314 -0.3323
  158TMC2    O5 2418   2.621   2.165  12.880  0.0384  0.2436 -0.1848
  158TMC2    H5 2419   2.573   2.192  12.961 -0.7942  0.3744 -0.7136
  159MPD2     C 2420   2.361   2.022  13.770 -0.2350 -0.4264 -0.0174
  159MPD2    C1 2421   2.239   2.049  13.709  0.4250 -0.4598 -0.4138
  159MPD2    C2 2422   2.238   2.033  13.570 -0.4016 -0.2695  0.3234
  159MPD2    C3 2423   2.354   2.002  13.500 -0.2208 -0.2191  0.0541
  159MPD2    C4 2424   2.476   1.985  13.562  0.3165 -0.2299 -0.0177
  159MPD2    C5 2425   2.474   1.998  13.696 -0.2381  0.0441 -0.3126
  159MPD2     H 2426   2.149   2.057  13.512  2.4218  0.7924 -3.6207
  159MPD2    H1 2427   2.569   1.970  13.509  0.3754 -2.3946  0.7198
  159MPD2    H2 2428   2.371   2.030  13.878  0.8253 -2.8980  0.0614
  159MPD2    H3 2429   2.560   1.967  13.754  0.6065  1.6897 -0.6807
  159MPD2     N 2430   2.346   1.997  13.355  0.3129  1.0179  0.5391
  159MPD2    H5 2431   2.260   2.039  13.321 -0.3687 -0.3408  0.6025
  159MPD2    N1 2432   2.131   2.070  13.797  0.1677 -0.1108  0.3338
  159MPD2    H7 2433   2.147   2.064  13.897 -0.7295 -1.0751  0.4135
  160TMC2    C1 2434   2.052   0.092   1.438 -0.2629  0.4527  0.0635
  160TMC2    C2 2435   2.152   0.038   1.521  0.3464 -0.4785 -0.8477
  160TMC2    C3 2436   2.126   4.627   1.545  0.3766 -0.6076 -0.5270
  160TMC2    C4 2437   1.955   0.028   1.369  0.0073 -0.2492  0.4054
  160TMC2    C5 2438   1.931   4.613   1.396  0.6348  0.7380 -0.2245
  160TMC2    C6 2439   2.021   4.552   1.487  0.0404 -0.2956  0.1385
  160TMC2     C 2440   2.063   0.234   1.427 -0.6277  0.1504  0.3901
  160TMC2     O 2441   2.173   0.285   1.445 -0.1600 -0.5178 -0.1565
  160TMC2     H 2442   2.215   0.108   1.573 -1.1077  1.6642 -1.9579
  160TMC2    H1 2443   1.899   0.087   1.297 -0.7203 -2.6564 -1.0167
  160TMC2    H2 2444   2.006   4.447   1.506 -1.0033 -0.2178 -0.2543
  160TMC2    C7 2445   1.834   4.531   1.327 -0.7356  0.2688 -0.0955
  160TMC2    C8 2446   2.198   4.556   1.649 -0.4232 -0.3135 -0.1013
  160TMC2    O1 2447   1.803   4.417   1.361  0.2292 -0.6103 -0.3602
  160TMC2    O2 2448   2.166   4.451   1.696  0.3086 -0.1832  0.0842
  160TMC2    O5 2449   2.305   4.626   1.692  0.4963 -0.3354  0.2895
  160TMC2    H5 2450   2.324   4.711   1.647 -0.7510  0.2722  0.8844
  161MPD2     C 2451   2.008   0.534   1.370 -0.1440 -0.0630  0.4591
  161MPD2    C1 2452   1.907   0.436   1.378 -0.4117  0.4062 -0.1360
  161MPD2    C2 2453   1.790   0.466   1.326 -0.1088  0.2083 -0.2339
  161MPD2    C3 2454   1.756   0.574   1.262 -0.0430 -0.1266  0.7962
  161MPD2    C4 2455   1.840   0.682   1.273  0.0644  0.0368 -0.8272
  161MPD2    C5 2456   1.965   0.659   1.321 -0.2896 -0.0342  0.0543
  161MPD2     H 2457   1.716   0.387   1.314  0.3082 -0.5505  2.0395
  161MPD2    H1 2458   1.812   0.778   1.231  1.1938  0.7217 -0.0224
  161MPD2    H2 2459   2.110   0.525   1.403  0.0648  0.6836  0.0242
  161MPD2    H3 2460   2.038   0.738   1.315  1.0180 -1.1666  1.0530
  161MPD2     N 2461   1.630   0.605   1.201  0.4778 -0.2937  0.6057
  161MPD2    H5 2462   1.618   0.699   1.164 -0.6735 -0.4456  0.5966
  161MPD2    N1 2463   1.939   0.298   1.406  0.0535  0.5813  0.3014
  161MPD2    H7 2464   1.860   0.240   1.380  0.7804 -0.1024 -0.3978
  162TMC2    C1 2465   4.244   1.882   0.889 -0.0298  0.5544 -0.4972
  162TMC2    C2 2466   4.181   1.932   0.779 -0.1920  0.8609 -0.4821
  162TMC2    C3 2467   4.051   1.965   0.788  0.1644  0.6494  0.0943
  162TMC2    C4 2468   4.175   1.848   1.003 -0.0088  0.0562  0.8786
  162TMC2    C5 2469   4.046   1.883   1.015 -0.6900  0.7232  0.6089
  162TMC2    C6 2470   3.983   1.943   0.908 -0.2368  0.3113  0.3295
  162TMC2     C 2471   4.389   1.873   0.884 -0.2494 -0.5696 -0.3593
  162TMC2     O 2472   4.445   1.924   0.786  0.1571 -0.0655 -0.1597
  162TMC2     H 2473   4.234   1.943   0.685 -1.7952  1.7901 -1.2705
  162TMC2    H1 2474   4.215   1.775   1.073 -0.6603 -1.8392 -0.7189
  162TMC2    H2 2475   3.888   1.994   0.924 -0.1196  0.1822  1.4658
  162TMC2    C7 2476   3.963   1.846   1.122 -0.2945 -0.0568  0.0199
  162TMC2    C8 2477   3.980   2.003   0.661 -0.1341 -0.2620  0.4904
  162TMC2    O1 2478   3.847   1.839   1.086  0.0717  0.4060 -0.2009
  162TMC2    O2 2479   4.031   2.056   0.566 -0.2537  0.0961 -0.2085
  162TMC2    O5 2480   3.855   1.960   0.645 -0.1073 -0.9724 -0.0364
  162TMC2    H5 2481   3.833   1.897   0.716  1.9393  0.0543  1.5447
  163MPD2     C 2482   0.155   1.745   1.028 -0.3040  0.1732  0.2845
  163MPD2    C1 2483   0.089   1.776   0.908 -0.7573 -0.2240 -0.4905
  163MPD2    C2 2484   4.674   1.807   0.900  0.0580  0.5396 -0.2972
  163MPD2    C3 2485   4.594   1.803   1.015  0.3209  0.1906  0.2527
  163MPD2    C4 2486   4.655   1.778   1.134 -0.0792  0.6189 -0.0407
  163MPD2    C5 2487   0.071   1.749   1.137  0.1862  0.4088  0.2982
  163MPD2     H 2488   4.631   1.810   0.800 -1.2523 -0.4067  0.2424
  163MPD2    H1 2489   4.591   1.784   1.222  1.0797  0.0287  0.8364
  163MPD2    H2 2490   0.261   1.722   1.030 -0.5001 -0.6844  1.0743
  163MPD2    H3 2491   0.117   1.721   1.231  1.0794  0.2264 -0.1893
  163MPD2     N 2492   4.454   1.828   1.003  0.3473  0.5434 -0.1796
  163MPD2    H5 2493   4.404   1.820   1.091 -0.3963 -1.4464 -0.7943
  163MPD2    N1 2494   0.167   1.771   0.790 -0.0508  0.9024 -0.1405
  163MPD2    H7 2495   0.258   1.725   0.786 -0.5201 -0.2822  2.5878
  164TCq2    C1 2496   0.612   1.999  11.262  0.6485 -0.0235  1.1185
  164TCq2    O2 2497   0.552   1.943  11.359  0.4303  0.6459 -0.3068
  164TCq2    C2 2498   0.540   2.089  11.183  0.2379 -0.0227  0.2749
  164TCq2    C3 2499   0.601   2.179  11.103  0.2442  0.9033  0.0740
  164TCq2    C4 2500   0.523   2.252  11.018  0.6231 -0.1648 -0.9176
  164TCq2    C5 2501   0.388   2.233  11.012 -0.1719  0.4610  0.0248
  164TCq2    C6 2502   0.332   2.138  11.086 -0.1072  0.3750 -0.4681
  164TCq2    C7 2503   0.405   2.065  11.177 -0.5141  0.3252 -0.3665
  164TCq2    C8 2504   0.186   2.148  11.104  0.6498 -0.0121  0.5650
  164TCq2    O4 2505   0.109   2.178  11.012 -0.5042 -0.0296  0.5791
  164TCq2    C9 2506   0.584   2.348  10.925  0.0874 -0.1131 -0.1251
  164TCq2    O5 2507   0.703   2.379  10.946 -0.0980  0.0865 -0.1337
  164TCq2    O6 2508   0.521   2.389  10.826 -0.0935  0.3963  0.3790
  164TCq2    H2 2509   0.706   2.204  11.114  0.8845 -2.2676  1.1443
  164TCq2    H3 2510   0.321   2.291  10.949  3.1701  2.5578 -1.6347
  164TCq2    H4 2511   0.368   1.978  11.229 -0.4180  0.3797 -0.2100
  165MPD2     C 2512   1.137   3.127   1.924  0.0245  0.1042 -0.4548
  165MPD2    C1 2513   1.090   3.232   1.855 -0.2061  0.3414  0.3026
  165MPD2    C2 2514   1.175   3.305   1.769  0.6471  0.4150  0.2790
  165MPD2    C3 2515   1.306   3.264   1.752 -0.0552  0.8009 -0.0042
  165MPD2    C4 2516   1.348   3.157   1.825 -0.1262  0.8273  0.7523
  165MPD2    C5 2517   1.263   3.089   1.906 -0.2255  0.7688  0.1452
  165MPD2     H 2518   1.137   3.397   1.728  1.8343  1.4886  1.6000
  165MPD2    H1 2519   1.454   3.135   1.833 -0.3963 -0.4380  0.7905
  165MPD2    H2 2520   1.070   3.068   1.987 -0.2411  2.6886  1.6826
  165MPD2    H3 2521   1.307   3.009   1.966  2.7577  1.7634 -0.7177
  165MPD2     N 2522   1.406   3.330   1.676 -0.2212  0.5280 -0.1696
  165MPD2    H5 2523   1.500   3.293   1.689 -1.1982 -2.9703 -2.9356
  165MPD2    N1 2524   0.955   3.267   1.865 -0.5540  0.3691 -0.3777
  165MPD2    H7 2525   0.894   3.199   1.909  0.3162  0.6338  1.2586
  166TCq2    C1 2526   1.393   3.431   1.583  0.0162 -0.1909 -0.4564
  166TCq2    O2 2527   1.287   3.483   1.549  0.3051  0.7669 -0.2083
  166TCq2    C2 2528   1.505   3.463   1.507 -0.1508  0.4201  0.4576
  166TCq2    C3 2529   1.614   3.381   1.509 -0.6750 -0.1158  0.3857
  166TCq2    C4 2530   1.728   3.430   1.452 -0.0107  0.5234 -0.0696
  166TCq2    C5 2531   1.727   3.557   1.390 -0.1238 -0.6410  0.0749
  166TCq2    C6 2532   1.610   3.629   1.380  0.2746 -0.5626  0.3588
  166TCq2    C7 2533   1.495   3.580   1.436 -0.5265  0.1849 -0.5390
  166TCq2    C8 2534   1.615   3.751   1.299  0.8666 -0.3642 -0.0312
  166TCq2    O4 2535   1.724   3.803   1.274 -0.3893 -0.5907 -0.3823
  166TCq2    C9 2536   1.850   3.360   1.440 -0.0499  0.1823 -0.1411
  166TCq2    O5 2537   1.945   3.416   1.380 -0.3786  0.3884  0.2381
  166TCq2    O6 2538   1.836   3.236   1.459 -0.3479  0.6954 -0.2130
  166TCq2    H2 2539   1.620   3.285   1.559  0.8219 -0.8154 -1.1045
  166TCq2    H3 2540   1.822   3.582   1.345 -0.5450  1.2801  0.2628
  166TCq2    H4 2541   1.402   3.634   1.444 -1.0650 -1.0766  1.6613
  167TMC2    C1 2542   4.443   1.809  12.724 -0.7932 -0.0510  0.5002
  167TMC2    C2 2543   4.368   1.833  12.842 -0.3268 -0.2867 -0.0712
  167TMC2    C3 2544   4.347   1.732  12.935  0.5912 -0.0024 -0.1270
  167TMC2    C4 2545   4.495   1.682  12.699  0.0626 -0.2597  0.4856
  167TMC2    C5 2546   4.478   1.591  12.800  0.2542  0.1346 -0.4123
  167TMC2    C6 2547   4.401   1.613  12.910  0.3600 -0.1423  0.2943
  167TMC2     C 2548   4.454   1.917  12.629 -0.2093  0.9155  0.1419
  167TMC2     O 2549   4.381   2.016  12.651 -0.0530 -0.4098  0.5471
  167TMC2     H 2550   4.330   1.929  12.874 -1.1384 -0.8891  0.7819
  167TMC2    H1 2551   4.543   1.653  12.606 -1.4922  2.7507 -1.2632
  167TMC2    H2 2552   4.381   1.525  12.971 -0.0922  0.7138  1.3810
  167TMC2    C7 2553   4.497   1.449  12.762  0.5375  0.7387 -0.0609
  167TMC2    C8 2554   4.266   1.754  13.046  0.3948 -0.6698 -0.4791
  167TMC2    O1 2555   4.419   1.364  12.805 -0.3691 -0.0048 -0.2308
  167TMC2    O2 2556   4.269   1.865  13.097 -0.0547 -0.1006  0.2576
  167TMC2    O5 2557   4.176   1.652  13.063  0.5258 -0.3730  0.2902
  167TMC2    H5 2558   4.163   1.579  12.999 -1.0486  1.8878 -1.9543
  168MPD2     C 2559   4.519   2.081  12.390 -0.3851 -0.2855  0.5124
  168MPD2    C1 2560   4.577   1.961  12.421 -0.6001  0.6689  1.0643
  168MPD2    C2 2561   4.663   1.896  12.337  0.7542 -0.3663  0.6698
  168MPD2    C3 2562   4.670   1.941  12.209 -0.5827 -0.4571 -0.1869
  168MPD2    C4 2563   4.612   2.057  12.174 -0.2835 -0.0564 -0.5248
  168MPD2    C5 2564   4.545   2.126  12.268 -0.1265  0.0263  0.0830
  168MPD2     H 2565   4.711   1.805  12.370  0.2290 -0.3615  1.4503
  168MPD2    H1 2566   4.612   2.088  12.070 -1.2969 -0.3282 -0.6079
  168MPD2    H2 2567   4.447   2.134  12.452 -0.8249 -1.4746  1.0276
  168MPD2    H3 2568   4.502   2.220  12.236 -0.2427 -1.3671 -3.8036
  168MPD2     N 2569   0.008   1.861  12.107  0.5600 -0.8128 -0.2997
  168MPD2    H5 2570   4.720   1.888  12.009  0.2760 -3.0653 -0.8910
  168MPD2    N1 2571   4.564   1.903  12.548 -0.5447  0.1183 -0.3880
  168MPD2    H7 2572   4.622   1.823  12.573 -2.4302 -1.2575 -0.3905
  169MPD1     C 2573   1.701   0.762   9.644  0.2551 -0.2100 -0.2207
  169MPD1    C1 2574   1.739   0.660   9.734 -0.3983  0.2147 -0.8350
  169MPD1    C2 2575   1.869   0.670   9.784 -0.4156  0.2511  0.1287
  169MPD1    C3 2576   1.961   0.758   9.735  0.2069  0.5538 -0.0658
  169MPD1    C4 2577   1.926   0.842   9.631 -0.5072 -0.1776  0.6733
  169MPD1    C5 2578   1.795   0.849   9.598  0.7716 -0.7192  0.2122
  169MPD1     H 2579   1.888   0.621   9.879  0.9283 -1.5874 -1.0869
  169MPD1    H1 2580   1.991   0.918   9.588 -0.8335  0.3332  1.0687
  169MPD1    H2 2581   1.601   0.773   9.605  0.6814 -0.0979 -1.2694
  169MPD1    H3 2582   1.775   0.913   9.513  3.8657  0.2006  0.1670
  169MPD1     N 2583   2.089   0.757   9.799  0.0410 -0.4884 -0.5861
  169MPD1    H5 2584   2.100   0.692   9.877 -0.5105 -1.0195 -0.9504
  169MPD1    N1 2585   1.641   0.581   9.796 -0.6739  0.2342 -0.7465
  169MPD1    H6 2586   1.682   0.500   9.841  0.3075  0.3390 -1.4722
  169MPD1    H7 2587   1.579   0.541   9.726 -1.2653  2.1556 -1.3350
  170MPD1     C 2588   0.856   3.701  13.135  0.3128  0.4041  0.0873
  170MPD1    C1 2589   0.890   3.834  13.126 -0.2947  0.2940  0.2011
  170MPD1    C2 2590   0.905   3.910  13.241  0.3251 -0.3144 -0.1487
  170MPD1    C3 2591   0.871   3.856  13.368  0.4089  0.0441 -0.2707
  170MPD1    C4 2592   0.818   3.733  13.371  0.1000 -0.5323  0.6279
  170MPD1    C5 2593   0.808   3.657  13.259  0.6542 -0.1980  0.1138
  170MPD1     H 2594   0.948   4.009  13.246  0.6795 -0.5219  1.0539
  170MPD1    H1 2595   0.779   3.691  13.463 -2.3225  0.5260  0.1032
  170MPD1    H2 2596   0.861   3.631  13.052  0.6254 -0.1091  0.5333
  170MPD1    H3 2597   0.774   3.555  13.272 -1.3743  0.3850 -0.5847
  170MPD1     N 2598   0.870   3.946  13.478  0.1264 -0.0693  0.5715
  170MPD1    H5 2599   0.914   4.037  13.476 -0.2826  0.1830  2.6228
  170MPD1    N1 2600   0.942   3.889  12.999  0.1233 -0.0108  0.0504
  170MPD1    H6 2601   0.895   3.849  12.917  0.6179 -0.1151 -0.1846
  170MPD1    H7 2602   0.939   3.990  12.994  5.1996 -0.0152 -3.8039
  171MPD1     C 2603   4.124   0.500  15.254 -0.2871  0.5732 -0.4482
  171MPD1    C1 2604   4.115   0.386  15.179  0.1152  0.3457  0.6021
  171MPD1    C2 2605   4.082   0.270  15.251  0.0356 -0.2712 -0.1127
  171MPD1    C3 2606   4.103   0.262  15.386  0.4732 -0.5289  0.5035
  171MPD1    C4 2607   4.136   0.372  15.448  0.7944  0.3035  0.0092
  171MPD1    C5 2608   4.138   0.492  15.383  0.1883 -0.2771 -0.0710
  171MPD1     H 2609   4.064   0.180  15.192  0.1461 -0.6364  0.4107
  171MPD1    H1 2610   4.150   0.370  15.555  0.9093 -0.0285 -0.0143
  171MPD1    H2 2611   4.129   0.598  15.207  3.6342  0.3232 -0.5302
  171MPD1    H3 2612   4.153   0.581  15.443 -1.1314  0.0596 -0.2281
  171MPD1     N 2613   4.098   0.148  15.468  0.2699 -0.3576 -0.9664
  171MPD1    H5 2614   4.116   0.160  15.567 -0.1170 -1.8763 -0.7138
  171MPD1    N1 2615   4.096   0.399  15.040  0.1812  0.2519  0.2952
  171MPD1    H6 2616   4.163   0.467  15.004 -0.9403  1.3044  0.1876
  171MPD1    H7 2617   4.100   0.307  14.997 -0.1234 -0.9441  2.8322
  172MPD1     C 2618   2.231   3.516   0.039  0.5115 -0.5247 -0.1474
  172MPD1    C1 2619   2.238   3.608   0.137  0.4349 -0.2705 -0.1188
  172MPD1    C2 2620   2.318   3.722   0.130  0.4504 -0.4705 -0.0112
  172MPD1    C3 2621   2.415   3.727   0.031  0.4689 -0.1181  0.1300
  172MPD1    C4 2622   2.411   3.631  17.621  0.2203 -1.0127  0.3938
  172MPD1    C5 2623   2.328   3.527  17.633  0.2041  0.2866  0.2523
  172MPD1     H 2624   2.335   3.782   0.218  3.1521 -2.1407  0.6083
  172MPD1    H1 2625   2.489   3.619  17.547  1.8721  2.2130  1.6399
  172MPD1    H2 2626   2.158   3.436   0.041 -0.0223 -0.0424 -0.2461
  172MPD1    H3 2627   2.338   3.446  17.561 -0.0075  0.9739 -0.5487
  172MPD1     N 2628   2.520   3.816   0.034  0.1074  0.2901 -0.6121
  172MPD1    H5 2629   2.589   3.811  17.650  0.6358 -0.0021 -0.0978
  172MPD1    N1 2630   2.137   3.604   0.237 -0.4081  0.2388 -0.0923
  172MPD1    H6 2631   2.158   3.670   0.312  0.0042  2.6209 -2.2744
  172MPD1    H7 2632   2.137   3.511   0.278 -1.8576 -0.6434 -2.0841
  173MPD1     C 2633   4.407   4.463  14.126 -0.0564 -0.0881 -0.2042
  173MPD1    C1 2634   4.517   4.409  14.191 -0.1673 -0.2562  0.2044
  173MPD1    C2 2635   4.498   4.284  14.249 -0.1529 -0.2452 -0.1693
  173MPD1    C3 2636   4.378   4.216  14.248 -0.4718  0.3575 -0.5382
  173MPD1    C4 2637   4.269   4.279  14.190  0.5252  0.1970  0.4048
  173MPD1    C5 2638   4.292   4.394  14.119  0.4197 -0.1649 -1.1755
  173MPD1     H 2639   4.579   4.245  14.309  0.5609 -0.9121 -1.5556
  173MPD1    H1 2640   4.170   4.235  14.183  0.5662 -0.0153  1.2106
  173MPD1    H2 2641   4.418   4.552  14.066  0.5238  1.1021  1.6636
  173MPD1    H3 2642   4.213   4.438  14.059  0.0075 -0.6364 -0.9749
  173MPD1     N 2643   4.374   4.087  14.307 -0.1377  0.0610 -0.1974
  173MPD1    H5 2644   4.461   4.045  14.338  0.2761  0.6855 -0.4988
  173MPD1    N1 2645   4.639   4.477  14.200 -0.8540  0.1311 -0.5554
  173MPD1    H6 2646   0.004   4.430  14.222 -0.3884  0.9927 -0.5600
  173MPD1    H7 2647   4.658   4.543  14.125  1.0839 -0.0081 -0.1877
  174MPD1     C 2648   4.337   3.188  14.066 -0.5226 -1.0085 -0.3740
  174MPD1    C1 2649   4.306   3.177  14.194 -0.9189  0.1830  0.4702
  174MPD1    C2 2650   4.306   3.289  14.272 -0.1914 -0.4667  0.8361
  174MPD1    C3 2651   4.342   3.412  14.224 -0.5135  0.1728 -0.0218
  174MPD1    C4 2652   4.393   3.418  14.101 -0.8835  0.4565 -0.3004
  174MPD1    C5 2653   4.385   3.307  14.020 -0.1393 -0.0921  0.3988
  174MPD1     H 2654   4.272   3.287  14.375 -0.9002 -1.2853  0.5826
  174MPD1    H1 2655   4.418   3.512  14.053 -0.2124 -0.0049 -0.8494
  174MPD1    H2 2656   4.343   3.101  14.002  0.6987 -0.1625 -1.4151
  174MPD1    H3 2657   4.402   3.325  13.914 -0.6661 -1.2902  0.1104
  174MPD1     N 2658   4.330   3.535  14.297  0.3901 -0.1076 -0.0837
  174MPD1    H5 2659   4.367   3.618  14.252 -0.1293  0.8910  1.3585
  174MPD1    N1 2660   4.249   3.057  14.236 -0.2708 -0.2860 -0.1980
  174MPD1    H6 2661   4.304   2.981  14.197 -2.5611 -1.1648 -1.6603
  174MPD1    H7 2662   4.242   3.059  14.337  0.4198 -1.6608 -0.1225
  175MPD1     C 2663   2.893   0.615  15.642 -0.3951 -0.5457  0.5647
  175MPD1    C1 2664   2.990   0.556  15.719  0.6969 -0.2523 -0.5737
  175MPD1    C2 2665   2.952   0.524  15.848  0.1144 -0.1957 -0.7886
  175MPD1    C3 2666   2.822   0.529  15.891  0.6007  0.5135 -0.0703
  175MPD1    C4 2667   2.731   0.583  15.805  0.4887 -0.2421 -0.0799
  175MPD1    C5 2668   2.761   0.630  15.682  0.1299  0.2114 -0.3259
  175MPD1     H 2669   3.026   0.491  15.920  0.0002  1.5999  0.1720
  175MPD1    H1 2670   2.626   0.597  15.827  0.6390  3.7712 -1.9462
  175MPD1    H2 2671   2.910   0.664  15.546 -1.8595  0.0872  0.6241
  175MPD1    H3 2672   2.692   0.677  15.614  0.0966  0.7761  0.1047
  175MPD1     N 2673   2.789   0.504  16.026  0.5322  0.2625 -0.5347
  175MPD1    H5 2674   2.693   0.516  16.057  0.8297 -2.8043  1.5812
  175MPD1    N1 2675   3.127   0.570  15.674 -0.1097 -0.0015  0.1346
  175MPD1    H6 2676   3.187   0.498  15.714  0.9855  0.6647 -0.3029
  175MPD1    H7 2677   3.139   0.558  15.573 -1.6945  0.7083 -0.1339
  176MPD1     C 2678   3.505   2.179   0.458 -0.1673 -0.0035 -0.0937
  176MPD1    C1 2679   3.523   2.283   0.366  0.3366 -1.0514 -0.3330
  176MPD1    C2 2680   3.641   2.355   0.365 -0.2005  0.4053 -0.3128
  176MPD1    C3 2681   3.723   2.350   0.476  0.1892 -0.2036  0.3621
  176MPD1    C4 2682   3.699   2.255   0.572  0.1047 -0.2032 -0.4215
  176MPD1    C5 2683   3.589   2.170   0.563  0.2043  0.0677  0.2888
  176MPD1     H 2684   3.648   2.432   0.289  0.4473 -0.1199 -0.7929
  176MPD1    H1 2685   3.760   2.245   0.661 -0.0743 -3.3724 -0.6756
  176MPD1    H2 2686   3.417   2.115   0.451 -1.0843  1.1503  0.7447
  176MPD1    H3 2687   3.579   2.083   0.627 -0.6931 -0.2976 -0.3447
  176MPD1     N 2688   3.842   2.436   0.480 -0.4790  0.1215 -0.3048
  176MPD1    H5 2689   3.844   2.503   0.404 -2.0591 -0.5988 -0.9980
  176MPD1    N1 2690   3.436   2.296   0.257 -0.3423  0.0550 -1.0157
  176MPD1    H6 2691   3.340   2.272   0.282 -0.1596 -0.8462 -1.1850
  176MPD1    H7 2692   3.435   2.385   0.208 -1.3218  1.2725  1.1981
  177MPD1     C 2693   4.100   1.396   9.705  0.0197  0.4413 -0.6732
  177MPD1    C1 2694   3.993   1.378   9.789 -0.1488 -0.8369  0.0948
  177MPD1    C2 2695   3.878   1.449   9.760  0.5909 -0.0800  0.1743
  177MPD1    C3 2696   3.875   1.561   9.671  0.2148 -0.2270 -0.3000
  177MPD1    C4 2697   3.993   1.583   9.596 -0.0795  0.0708  0.6857
  177MPD1    C5 2698   4.099   1.492   9.613 -0.2063  0.7872 -0.1536
  177MPD1     H 2699   3.794   1.425   9.824  1.6352 -1.0895  1.1570
  177MPD1    H1 2700   3.994   1.660   9.520 -0.4234  1.3205  1.9520
  177MPD1    H2 2701   4.195   1.345   9.716  0.8399  2.5483  1.8285
  177MPD1    H3 2702   4.187   1.499   9.550  1.0901 -0.7816  1.4930
  177MPD1     N 2703   3.758   1.644   9.673 -0.0940  0.4097  0.3630
  177MPD1    H5 2704   3.683   1.612   9.734  0.4032 -1.2211  0.1313
  177MPD1    N1 2705   4.004   1.269   9.880 -0.0004  0.1183 -0.2265
  177MPD1    H6 2706   4.097   1.260   9.921 -0.0994  0.0342 -0.0217
  177MPD1    H7 2707   3.946   1.279   9.963 -0.7701  2.7614 -1.0829
  178MPD1     C 2708   0.278   2.478   0.658  1.0244 -0.2907  0.7345
  178MPD1    C1 2709   0.250   2.397   0.552 -0.1791  0.4966  0.7384
  178MPD1    C2 2710   0.314   2.418   0.437 -0.1074  0.0055 -0.0849
  178MPD1    C3 2711   0.397   2.531   0.421  1.0276 -0.5003 -0.2837
  178MPD1    C4 2712   0.426   2.610   0.527  0.5525  0.1756 -0.6830
  178MPD1    C5 2713   0.369   2.584   0.646 -0.4661 -0.3674 -0.2528
  178MPD1     H 2714   0.278   2.365   0.350  2.2210 -0.7794 -0.5589
  178MPD1    H1 2715   0.500   2.687   0.513  0.4692 -0.0114 -2.1789
  178MPD1    H2 2716   0.244   2.463   0.759  0.9514 -2.7098  0.3395
  178MPD1    H3 2717   0.374   2.651   0.731 -0.3771  0.7665 -1.1518
  178MPD1     N 2718   0.454   2.570   0.298  1.0008  0.1313 -0.6885
  178MPD1    H5 2719   0.512   2.653   0.305 -1.9999  2.1219  0.4860
  178MPD1    N1 2720   0.165   2.287   0.570 -0.5611 -0.1244  0.0233
  178MPD1    H6 2721   0.081   2.311   0.623 -1.6975 -3.1036 -0.3768
  178MPD1    H7 2722   0.149   2.238   0.483 -0.4221 -0.8613  0.4083
  179MPD1     C 2723   0.073   1.651  15.427 -0.2070 -0.2733  0.4498
  179MPD1    C1 2724   0.185   1.570  15.459  0.3315  0.4409  0.4940
  179MPD1    C2 2725   0.160   1.451  15.529 -0.1176 -0.0871  0.1546
  179MPD1    C3 2726   0.028   1.410  15.559 -0.6835  0.3522 -0.2315
  179MPD1    C4 2727   4.645   1.490  15.514 -0.3109  0.2245 -0.2918
  179MPD1    C5 2728   4.664   1.611  15.450 -0.1754 -0.1442  0.0010
  179MPD1     H 2729   0.244   1.392  15.562  0.0291  0.5614  0.9564
  179MPD1    H1 2730   4.541   1.469  15.539  0.0952  0.4319  1.5189
  179MPD1    H2 2731   0.091   1.752  15.393 -0.6422  0.2600  1.7827
  179MPD1    H3 2732   4.575   1.670  15.431 -0.2925 -0.1871  0.4158
  179MPD1     N 2733   4.712   1.288  15.620  0.1068  0.2615 -0.0001
  179MPD1    H5 2734   4.615   1.256  15.616  0.6436 -1.0709 -2.2504
  179MPD1    N1 2735   0.313   1.604  15.402  0.6877 -0.1839 -0.2708
  179MPD1    H6 2736   0.316   1.692  15.352  1.8105  0.0284  0.1785
  179MPD1    H7 2737   0.339   1.530  15.337 -0.2370  1.4071 -2.4441
  180MPD1     C 2738   3.975   1.625  14.677  0.4658  0.0075  0.0172
  180MPD1    C1 2739   3.993   1.751  14.730  0.5414  0.4937  0.2998
  180MPD1    C2 2740   4.022   1.849  14.636 -0.0828  0.4627 -0.1534
  180MPD1    C3 2741   4.032   1.822  14.502  0.1980  0.1596 -0.5579
  180MPD1    C4 2742   4.013   1.696  14.453 -0.4674 -0.4334 -1.0462
  180MPD1    C5 2743   3.979   1.600  14.546 -0.2732 -0.4829  0.4355
  180MPD1     H 2744   4.031   1.953  14.665 -1.3632  0.0366  1.6855
  180MPD1    H1 2745   4.038   1.679  14.349 -0.0675 -0.0941 -1.0048
  180MPD1    H2 2746   3.956   1.541  14.743 -1.1545 -0.3701 -0.9218
  180MPD1    H3 2747   3.973   1.496  14.517  0.5431  0.1981 -2.1806
  180MPD1     N 2748   4.073   1.934  14.426 -0.9583 -0.1834  0.2770
  180MPD1    H5 2749   4.088   2.020  14.479  2.0259  0.1210 -1.1085
  180MPD1    N1 2750   4.018   1.766  14.868  0.3833 -0.1652 -0.0775
  180MPD1    H6 2751   4.005   1.863  14.895  0.9278  0.8385 -3.4677
  180MPD1    H7 2752   3.954   1.703  14.916  2.5013 -0.7802  1.9258
  181MPD1     C 2753   2.433   3.069  10.016  0.0817 -0.4176  0.4764
  181MPD1    C1 2754   2.430   3.209  10.035 -0.2244 -0.2546 -0.1263
  181MPD1    C2 2755   2.506   3.287   9.944  0.2399  0.1488  0.1400
  181MPD1    C3 2756   2.587   3.222   9.845 -0.0300  0.2771 -0.3698
  181MPD1    C4 2757   2.600   3.087   9.845  0.1010 -0.4217  0.1511
  181MPD1    C5 2758   2.518   3.015   9.924 -0.0823 -0.5468  1.1709
  181MPD1     H 2759   2.493   3.394   9.944 -0.8438  0.0134 -1.0324
  181MPD1    H1 2760   2.642   3.035   9.760 -0.0318  1.2003 -0.8898
  181MPD1    H2 2761   2.383   2.994  10.076 -0.2838 -0.7933 -0.3079
  181MPD1    H3 2762   2.516   2.908   9.908  2.0334  0.0761 -3.4128
  181MPD1     N 2763   2.656   3.292   9.748  0.2639  0.1590 -0.5931
  181MPD1    H5 2764   2.735   3.246   9.703  2.1486  4.1045 -1.2686
  181MPD1    N1 2765   2.343   3.267  10.135  0.4561  0.5620 -0.1877
  181MPD1    H6 2766   2.323   3.217  10.221 -1.1842  1.3563 -0.0963
  181MPD1    H7 2767   2.376   3.359  10.161  1.3159  0.9469 -2.6242
  182MPD1     C 2768   2.340   3.017   1.562  0.0589 -0.8252 -0.5684
  182MPD1    C1 2769   2.377   3.005   1.433 -0.0731 -0.6700  0.3082
  182MPD1    C2 2770   2.315   3.073   1.331  0.4892 -0.8123  0.3003
  182MPD1    C3 2771   2.192   3.134   1.360  0.8627  0.3055  0.0538
  182MPD1    C4 2772   2.153   3.153   1.491  0.4809 -0.0878 -0.0110
  182MPD1    C5 2773   2.223   3.088   1.585  0.5153 -0.1539  0.1069
  182MPD1     H 2774   2.355   3.067   1.230  0.7192  0.1796  0.3381
  182MPD1    H1 2775   2.062   3.208   1.513  0.8352  0.9796 -1.1795
  182MPD1    H2 2776   2.381   2.973   1.652 -0.4858  0.6671  0.4041
  182MPD1    H3 2777   2.186   3.096   1.687 -0.8780 -0.4491 -0.3859
  182MPD1     N 2778   2.117   3.204   1.261  0.0778  0.1482 -0.2906
  182MPD1    H5 2779   2.033   3.250   1.293  0.7718  1.0350  0.2625
  182MPD1    N1 2780   2.492   2.935   1.402 -0.0517  0.3411  0.0874
  182MPD1    H6 2781   2.466   2.860   1.339  0.0175  0.9103 -0.6320
  182MPD1    H7 2782   2.539   2.895   1.483  0.7092  0.0492 -0.5008
  183MPD1     C 2783   4.301   4.022  10.693  0.0370 -0.3318 -0.1688
  183MPD1    C1 2784   4.181   3.958  10.690 -0.2726  0.2511  0.0701
  183MPD1    C2 2785   4.126   3.932  10.563  0.5954  0.1292 -0.3660
  183MPD1    C3 2786   4.176   3.990  10.449  0.7370  0.5318 -0.6530
  183MPD1    C4 2787   4.299   4.059  10.449 -1.0163 -0.3539  0.0740
  183MPD1    C5 2788   4.358   4.062  10.570  0.9644 -0.2542 -0.2242
  183MPD1     H 2789   4.036   3.873  10.551  1.0252 -0.4539 -0.7132
  183MPD1    H1 2790   4.350   4.095  10.360  0.4973 -0.6781  0.8147
  183MPD1    H2 2791   4.349   4.046  10.787 -0.1885  1.7620 -0.5884
  183MPD1    H3 2792   4.459   4.100  10.577  0.8271 -0.1372  1.1028
  183MPD1     N 2793   4.119   3.956  10.325 -0.6230  0.7222  0.3944
  183MPD1    H5 2794   4.040   3.893  10.338 -0.5595  0.4631 -0.4977
  183MPD1    N1 2795   4.106   3.926  10.808  0.4592  0.5716 -0.7145
  183MPD1    H6 2796   4.046   3.844  10.799  0.1916  0.4359  2.1501
  183MPD1    H7 2797   4.162   3.895  10.887 -1.3984  0.6518  0.6438
  184MPD1     C 2798   2.172   2.410  10.247  0.3823  0.1115 -0.0901
  184MPD1    C1 2799   2.082   2.324  10.300 -0.1587  0.0617 -1.3048
  184MPD1    C2 2800   2.079   2.195  10.251  0.0395  0.1324  0.0925
  184MPD1    C3 2801   2.167   2.159  10.148 -1.1364 -0.0306  0.3033
  184MPD1    C4 2802   2.254   2.252  10.093 -0.1857 -0.4554 -0.3048
  184MPD1    C5 2803   2.256   2.376  10.148 -0.1982  0.5283 -0.2820
  184MPD1     H 2804   2.008   2.126  10.295  2.9884 -1.4874  2.2718
  184MPD1    H1 2805   2.312   2.222  10.006 -0.2503 -0.5590 -0.3129
  184MPD1    H2 2806   2.192   2.507  10.292 -0.7613  1.4250 -2.4002
  184MPD1    H3 2807   2.317   2.453  10.102  0.9956 -0.3090 -0.0885
  184MPD1     N 2808   2.172   2.032  10.083  0.3759 -0.2298 -0.3170
  184MPD1    H5 2809   2.232   2.022  10.002 -0.1011  0.4062 -0.7484
  184MPD1    N1 2810   2.034   2.346  10.428  0.0032 -0.2415 -0.0359
  184MPD1    H6 2811   2.023   2.446  10.439 -0.0492 -0.1129 -1.2163
  184MPD1    H7 2812   1.941   2.305  10.437  0.2545 -0.3112  2.1922
  185MPD1     C 2813   1.622   1.172   9.770  0.6423 -0.0442 -0.1752
  185MPD1    C1 2814   1.653   1.179   9.905  0.3578 -0.2130  0.1042
  185MPD1    C2 2815   1.745   1.273   9.942  0.0287  0.5672  0.4199
  185MPD1    C3 2816   1.820   1.337   9.849 -0.3002  0.5113  0.4638
  185MPD1    C4 2817   1.802   1.310   9.719 -0.1990 -0.1324 -0.1846
  185MPD1    C5 2818   1.695   1.236   9.674  0.4478 -0.6322 -0.1724
  185MPD1     H 2819   1.756   1.295  10.048 -0.7109  1.5501  0.2904
  185MPD1    H1 2820   1.868   1.360   9.649 -1.3845 -0.4407 -1.5342
  185MPD1    H2 2821   1.534   1.119   9.735  0.6708 -0.8487  0.9742
  185MPD1    H3 2822   1.668   1.238   9.569  0.2848 -0.2815 -0.1256
  185MPD1     N 2823   1.912   1.432   9.883  0.0460 -0.1486  0.2445
  185MPD1    H5 2824   1.980   1.459   9.813 -0.7815  5.3887  1.5815
  185MPD1    N1 2825   1.565   1.122  10.002  0.1801 -0.2310 -0.1074
  185MPD1    H6 2826   1.535   1.027   9.983  0.3519 -0.9263  3.0886
  185MPD1    H7 2827   1.611   1.111  10.093  0.6635 -2.6257 -0.6502
  186MPD1     C 2828   0.637   1.166  15.464 -0.2377  0.5313  0.2167
  186MPD1    C1 2829   0.752   1.212  15.523  0.0658 -0.1441 -0.4727
  186MPD1    C2 2830   0.746   1.296  15.627  0.3248 -0.1701 -0.4866
  186MPD1    C3 2831   0.625   1.346  15.667 -0.1673 -0.0005  0.1451
  186MPD1    C4 2832   0.511   1.300  15.605  0.3799  0.2089  0.1187
  186MPD1    C5 2833   0.521   1.203  15.510 -0.1470 -0.2305 -0.6423
  186MPD1     H 2834   0.839   1.336  15.668 -0.5275  0.1569  1.0909
  186MPD1    H1 2835   0.416   1.325  15.650  0.9741  2.8882 -0.1056
  186MPD1    H2 2836   0.636   1.091  15.385 -0.4324  0.9213 -0.1491
  186MPD1    H3 2837   0.426   1.159  15.486 -1.3381  2.5834 -1.0889
  186MPD1     N 2838   0.620   1.432  15.784  0.1788 -0.2658  0.0400
  186MPD1    H5 2839   0.529   1.465  15.816 -0.8541 -2.8987 -0.1537
  186MPD1    N1 2840   0.874   1.138  15.501  0.5355  0.6673  0.2284
  186MPD1    H6 2841   0.949   1.205  15.513  0.8121 -0.0666  2.7939
  186MPD1    H7 2842   0.885   1.104  15.406  0.6200 -2.0614  1.2227
  187MPD1     C 2843   0.177   3.327   0.719  0.2541 -0.0347 -0.1666
  187MPD1    C1 2844   0.170   3.227   0.619  0.6578  0.0190  0.2467
  187MPD1    C2 2845   0.097   3.258   0.504  0.0884  0.1075 -0.1659
  187MPD1    C3 2846   0.065   3.387   0.470  0.4041  0.0300  0.3581
  187MPD1    C4 2847   0.093   3.490   0.556 -0.1260  0.2466 -1.1484
  187MPD1    C5 2848   0.145   3.453   0.677 -0.3983  0.5454  0.0583
  187MPD1     H 2849   0.080   3.182   0.429  0.3708  1.3084 -1.4385
  187MPD1    H1 2850   0.061   3.592   0.540  0.4303  0.5866 -0.0619
  187MPD1    H2 2851   0.218   3.317   0.818 -0.6278  1.6694  0.3717
  187MPD1    H3 2852   0.151   3.524   0.758  1.3568 -2.1754  2.2994
  187MPD1     N 2853   4.713   3.418   0.350 -0.2520 -0.1648  0.2126
  187MPD1    H5 2854   4.699   3.512   0.315  0.3100 -0.4331 -0.7455
  187MPD1    N1 2855   0.200   3.093   0.646 -0.3118 -0.4969  0.1452
  187MPD1    H6 2856   0.286   3.095   0.700 -1.2139  0.5336  1.5569
  187MPD1    H7 2857   0.210   3.049   0.554 -1.5799  1.3669 -0.8959
  188MPD1     C 2858   1.393   2.705  10.598  0.0192 -0.3060  0.3538
  188MPD1    C1 2859   1.442   2.640  10.491  0.0452  0.1273  0.1935
  188MPD1    C2 2860   1.355   2.588  10.393  0.2288 -0.1409 -0.4961
  188MPD1    C3 2861   1.219   2.592  10.413 -0.1045  0.6754  0.5287
  188MPD1    C4 2862   1.167   2.645  10.528 -0.1890  0.3396 -0.2677
  188MPD1    C5 2863   1.256   2.704  10.607  0.0625 -0.1700  0.4151
  188MPD1     H 2864   1.400   2.549  10.302 -0.8714  0.9330 -1.5015
  188MPD1    H1 2865   1.063   2.655  10.556 -0.4949 -2.0914 -0.5860
  188MPD1    H2 2866   1.456   2.741  10.678  1.5174  1.1667 -1.4785
  188MPD1    H3 2867   1.212   2.762  10.688  0.1974 -0.5053  0.7273
  188MPD1     N 2868   1.123   2.532  10.327  0.1226 -0.1016 -0.1885
  188MPD1    H5 2869   1.030   2.551  10.361  0.5218  1.7329 -0.1166
  188MPD1    N1 2870   1.578   2.656  10.455  0.3326  0.1598  0.2588
  188MPD1    H6 2871   1.640   2.683  10.532  0.7371 -1.2519  0.4205
  188MPD1    H7 2872   1.620   2.578  10.407 -2.0209 -0.1260 -1.3142
  189MPD1     C 2873   0.944   3.299   0.974 -0.0665  0.0650 -0.5357
  189MPD1    C1 2874   0.816   3.260   0.937 -0.6672  0.2494 -0.7206
  189MPD1    C2 2875   0.778   3.283   0.806 -0.8329  0.0594  0.7460
  189MPD1    C3 2876   0.847   3.359   0.716 -0.1496  0.3331 -0.2559
  189MPD1    C4 2877   0.974   3.407   0.760 -0.2293 -0.1676  0.3557
  189MPD1    C5 2878   1.010   3.375   0.885  1.3106  0.4737  0.2708
  189MPD1     H 2879   0.684   3.239   0.775 -1.1701  1.5618 -0.3302
  189MPD1    H1 2880   1.053   3.461   0.710  0.4525 -0.9819  0.5315
  189MPD1    H2 2881   0.987   3.280   1.072  0.0898  0.6064 -0.4995
  189MPD1    H3 2882   1.106   3.414   0.914  1.4186 -1.0619  1.9722
  189MPD1     N 2883   0.792   3.389   0.589 -0.3049  0.2761  0.2221
  189MPD1    H5 2884   0.702   3.348   0.566  1.3683 -2.7428 -0.9654
  189MPD1    N1 2885   0.741   3.189   1.037 -0.2594 -0.3873  0.5556
  189MPD1    H6 2886   0.774   3.228   1.125  2.0185  1.4737 -1.1528
  189MPD1    H7 2887   0.641   3.211   1.040  0.2289  1.7754  0.3585
  190MPD1     C 2888   4.524   3.475  15.547 -0.4142 -0.1413  0.9111
  190MPD1    C1 2889   4.659   3.483  15.524 -0.1970  0.0427 -0.0277
  190MPD1    C2 2890   0.025   3.399  15.586 -0.1627  0.2159  0.7176
  190MPD1    C3 2891   4.702   3.278  15.644 -0.0148  0.5949  0.0508
  190MPD1    C4 2892   4.566   3.254  15.653  0.0043  0.2505  0.1430
  190MPD1    C5 2893   4.482   3.358  15.614  0.1162 -0.6963 -0.4321
  190MPD1     H 2894   0.130   3.419  15.573 -0.2182  1.5734  2.4620
  190MPD1    H1 2895   4.519   3.160  15.680 -0.7687  1.3022  2.4089
  190MPD1    H2 2896   4.451   3.547  15.513  1.2991  1.3131  0.3027
  190MPD1    H3 2897   4.374   3.349  15.625 -0.0696  0.5533 -1.2089
  190MPD1     N 2898   0.071   3.179  15.689 -0.0523 -0.1180 -0.3158
  190MPD1    H5 2899   0.168   3.206  15.694 -0.1636 -0.0131  1.1970
  190MPD1    N1 2900   4.710   3.595  15.466  0.3868  0.0967  0.6903
  190MPD1    H6 2901   4.651   3.619  15.388  1.1195 -0.1790  0.0457
  190MPD1    H7 2902   0.081   3.588  15.424 -0.3790 -2.8318 -0.5748
  191MPD1     C 2903   0.124   3.930  13.095 -0.0666  0.1163 -0.5152
  191MPD1    C1 2904   0.190   4.029  13.025  0.3643 -0.3093 -0.2466
  191MPD1    C2 2905   0.111   4.107  12.938  0.3022  0.4642  0.2641
  191MPD1    C3 2906   4.699   4.082  12.917  0.9152  0.4034  0.8417
  191MPD1    C4 2907   4.640   3.981  12.985  0.1352 -0.0018  0.3914
  191MPD1    C5 2908   4.713   3.914  13.081 -0.0407 -0.4860  0.5743
  191MPD1     H 2909   0.161   4.188  12.886  0.6752  0.5814  0.8130
  191MPD1    H1 2910   4.539   3.947  12.965  0.2898  0.7081 -1.6610
  191MPD1    H2 2911   0.175   3.861  13.161 -1.4646 -0.1557  0.2662
  191MPD1    H3 2912   4.661   3.834  13.131  0.4834 -1.6880 -0.7952
  191MPD1     N 2913   4.636   4.172  12.827  0.3742 -0.4341  0.2497
  191MPD1    H5 2914   4.691   4.244  12.781  0.5978  0.7059  2.3347
  191MPD1    N1 2915   0.331   4.043  13.046 -0.3121 -0.0310 -0.2771
  191MPD1    H6 2916   0.370   3.959  13.088 -0.2308 -0.0263 -0.3436
  191MPD1    H7 2917   0.381   4.053  12.958  1.8688 -1.1431  0.8303
  192MPD1     C 2918   3.657   4.385  12.812 -0.1886  0.0437  0.1214
  192MPD1    C1 2919   3.736   4.507  12.790  0.1583  0.1938 -0.1231
  192MPD1    C2 2920   3.856   4.497  12.728  0.0082  0.5862 -0.3413
  192MPD1    C3 2921   3.919   4.376  12.718  0.0151  0.1801 -0.2673
  192MPD1    C4 2922   3.852   4.261  12.758 -0.4528 -0.7362 -0.4445
  192MPD1    C5 2923   3.724   4.268  12.813 -0.2992 -0.3226 -0.5362
  192MPD1     H 2924   3.903   4.588  12.695  0.8991 -0.2654 -1.4076
  192MPD1    H1 2925   3.877   4.156  12.750 -1.1649 -0.7751 -1.9864
  192MPD1    H2 2926   3.555   4.387  12.846 -0.4622 -0.3998 -0.6700
  192MPD1    H3 2927   3.667   4.179  12.838 -0.3379 -0.0791  0.2309
  192MPD1     N 2928   4.045   4.354  12.662  0.1064  0.3805  0.3958
  192MPD1    H5 2929   4.066   4.255  12.658 -2.6968 -0.0383 -3.8220
  192MPD1    N1 2930   3.665   4.631  12.791 -0.0066  0.1588 -0.4747
  192MPD1    H6 2931   3.733   4.703  12.812 -0.9590  0.7743  0.5179
  192MPD1    H7 2932   3.585   4.626  12.855 -0.9723  1.5464 -1.5654
  193MPD1     C 2933   4.584   4.180  17.603 -0.0895  0.7058  0.7936
  193MPD1    C1 2934   4.538   4.305  17.644  0.2051 -0.4959 -0.7254
  193MPD1    C2 2935   4.505   4.399  17.550  0.7314 -0.1001  0.5311
  193MPD1    C3 2936   4.530   4.370  17.416  0.5595 -0.5121 -0.8616
  193MPD1    C4 2937   4.565   4.242  17.380 -0.4565  0.1741  0.3000
  193MPD1    C5 2938   4.588   4.144  17.474  0.5423 -0.0897 -0.2883
  193MPD1     H 2939   4.475   4.497  17.587 -1.7073 -0.1755 -1.2577
  193MPD1    H1 2940   4.569   4.199  17.281  0.2852 -1.1027  0.8823
  193MPD1    H2 2941   4.593   4.096  17.672 -1.4994  0.8123  1.1109
  193MPD1    H3 2942   4.609   4.040  17.455 -1.1303 -0.6791  1.1186
  193MPD1     N 2943   4.500   4.465  17.315  0.2492  0.2334  0.3797
  193MPD1    H5 2944   4.520   4.433  17.221  1.3401  0.1635  0.6443
  193MPD1    N1 2945   4.494   4.319   0.082 -0.8288 -0.2832  0.4356
  193MPD1    H6 2946   4.571   4.281   0.137 -0.9839  0.1265  0.9370
  193MPD1    H7 2947   4.480   4.417   0.107 -0.5054 -0.4856  1.4275
  194MPD1     C 2948   1.803   2.603  16.936 -0.0334  0.0826 -0.1589
  194MPD1    C1 2949   1.687   2.596  17.008 -0.3928  0.3886 -0.5446
  194MPD1    C2 2950   1.658   2.484  17.084 -0.1118 -0.0513 -0.8238
  194MPD1    C3 2951   1.750   2.387  17.103  0.2705 -0.0136  0.0199
  194MPD1    C4 2952   1.871   2.399  17.040 -0.4210  0.8345 -0.2580
  194MPD1    C5 2953   1.897   2.507  16.958 -0.6499  0.3232 -0.3391
  194MPD1     H 2954   1.562   2.475  17.133  0.3902  0.7541  0.2909
  194MPD1    H1 2955   1.949   2.324  17.049 -0.3237  0.8602 -0.9085
  194MPD1    H2 2956   1.843   2.680  16.871  1.7628 -1.4240 -0.8503
  194MPD1    H3 2957   1.991   2.507  16.903 -0.8718 -0.0519 -0.7198
  194MPD1     N 2958   1.730   2.269  17.182  0.1311 -0.0505  0.5770
  194MPD1    H5 2959   1.805   2.201  17.172 -1.4366 -1.8052  0.8131
  194MPD1    N1 2960   1.593   2.698  16.986 -0.7742  0.3125  0.2054
  194MPD1    H6 2961   1.624   2.786  16.945 -1.2479 -1.1546 -3.2494
  194MPD1    H7 2962   1.522   2.710  17.059 -1.2034 -1.9015  0.1397
  195MPD1     C 2963   3.188   4.084   0.771 -0.3133 -0.1827  0.2195
  195MPD1    C1 2964   3.307   4.077   0.842 -0.4785  0.1281  0.4551
  195MPD1    C2 2965   3.374   3.953   0.835 -0.3147 -0.2227 -0.0022
  195MPD1    C3 2966   3.321   3.848   0.765 -0.4512 -0.2653 -0.5361
  195MPD1    C4 2967   3.205   3.863   0.698 -0.1880  0.0979  0.0608
  195MPD1    C5 2968   3.136   3.976   0.702  0.0280 -0.2290  0.3568
  195MPD1     H 2969   3.472   3.942   0.881 -0.0729  0.2001 -0.4120
  195MPD1    H1 2970   3.172   3.787   0.629  2.0828 -0.0563 -0.8686
  195MPD1    H2 2971   3.136   4.179   0.767  2.4576  1.2122 -2.8935
  195MPD1    H3 2972   3.046   3.989   0.644  0.9205 -0.4932 -1.0639
  195MPD1     N 2973   3.389   3.718   0.763  0.2574 -0.4248 -0.1895
  195MPD1    H5 2974   3.354   3.643   0.705 -0.1969 -1.5683  1.5606
  195MPD1    N1 2975   3.372   4.185   0.903 -0.3756 -0.1565 -0.0299
  195MPD1    H6 2976   3.310   4.258   0.938 -0.6522  0.2312 -1.3526
  195MPD1    H7 2977   3.434   4.149   0.976  0.4744 -1.5586 -1.4468
  196MPD1     C 2978   2.511   2.796   1.121 -0.2907 -0.4009 -0.1209
  196MPD1    C1 2979   2.576   2.700   1.186 -0.3212  0.2957 -0.1657
  196MPD1    C2 2980   2.719   2.701   1.177  0.3602 -0.0492 -0.3864
  196MPD1    C3 2981   2.789   2.797   1.102  0.6998  0.3419 -0.4641
  196MPD1    C4 2982   2.710   2.887   1.026 -0.1589  0.3109  0.1878
  196MPD1    C5 2983   2.573   2.883   1.037  1.1534 -0.1146 -0.1193
  196MPD1     H 2984   2.774   2.634   1.243 -0.0472 -0.7476 -0.7542
  196MPD1    H1 2985   2.756   2.961   0.961 -0.8165  0.5319 -0.0228
  196MPD1    H2 2986   2.407   2.825   1.128 -0.0891  0.1990  0.4719
  196MPD1    H3 2987   2.518   2.948   0.970 -2.3182 -1.9030  0.9398
  196MPD1     N 2988   2.930   2.797   1.084 -0.2198 -0.0537  0.1205
  196MPD1    H5 2989   2.969   2.873   1.030 -1.4576  0.0914 -0.5764
  196MPD1    N1 2990   2.512   2.617   1.281  0.1709  1.1723 -0.4355
  196MPD1    H6 2991   2.413   2.594   1.271  0.4215  0.1955 -0.6709
  196MPD1    H7 2992   2.561   2.531   1.305  1.5247  1.5445 -1.8229
  197MPD1     C 2993   3.093   0.134   0.369 -0.5413  0.4315  0.1052
  197MPD1    C1 2994   3.026   0.250   0.400  0.2676 -0.2900  0.3208
  197MPD1    C2 2995   3.002   0.341   0.299  0.1116 -0.6152  0.0205
  197MPD1    C3 2996   3.058   0.321   0.175  0.2738 -0.5022  0.0687
  197MPD1    C4 2997   3.119   0.208   0.145 -0.3022 -0.4989 -0.5964
  197MPD1    C5 2998   3.138   0.111   0.241 -0.4110  0.2575  0.3680
  197MPD1     H 2999   2.958   0.435   0.332  0.5031 -0.8738  1.2965
  197MPD1    H1 3000   3.148   0.182   0.044  0.3910 -0.8318 -0.3086
  197MPD1    H2 3001   3.113   0.056   0.442 -0.2179  1.0593  0.6825
  197MPD1    H3 3002   3.189   0.019   0.214  1.3197  0.9378  1.3677
  197MPD1     N 3003   3.050   0.415   0.075 -0.3838  0.3660  0.3564
  197MPD1    H5 3004   3.076   0.377  17.675 -0.1357  0.8019  0.2468
  197MPD1    N1 3005   2.996   0.274   0.533  0.0856  0.4340 -0.5075
  197MPD1    H6 3006   2.906   0.319   0.540  0.3312  0.7566  0.5405
  197MPD1    H7 3007   2.998   0.188   0.588  1.5263 -0.4583 -1.9224
  198MPD1     C 3008   4.362   4.106  15.950 -0.1801 -0.3685  0.0300
  198MPD1    C1 3009   4.474   4.167  15.894 -0.3350 -0.1957 -0.7927
  198MPD1    C2 3010   4.592   4.143  15.959  0.2284 -0.1481  0.3883
  198MPD1    C3 3011   4.610   4.054  16.055  0.0682 -0.1269  0.3073
  198MPD1    C4 3012   4.496   3.980  16.097  0.5599 -0.7955 -0.3301
  198MPD1    C5 3013   4.373   4.010  16.049  0.7904  0.0266 -0.1268
  198MPD1     H 3014   4.678   4.199  15.924  1.2136 -1.0644  1.3675
  198MPD1    H1 3015   4.504   3.907  16.177 -0.2438  1.5319  1.9229
  198MPD1    H2 3016   4.261   4.138  15.928 -1.3849 -3.9972  0.3890
  198MPD1    H3 3017   4.285   3.960  16.088  0.7347 -0.4488 -0.8673
  198MPD1     N 3018   0.018   4.026  16.098 -0.3857 -0.2423 -0.0359
  198MPD1    H5 3019   0.088   4.081  16.049 -0.8378  0.3205 -0.0599
  198MPD1    N1 3020   4.464   4.268  15.801  0.5264  0.4379 -0.0320
  198MPD1    H6 3021   4.380   4.270  15.744 -0.3669  0.3719  1.2800
  198MPD1    H7 3022   4.550   4.262  15.747  1.8633 -1.6753  2.3236
  199MPD1     C 3023   1.833   4.059  10.828 -0.0103 -0.4098 -0.0570
  199MPD1    C1 3024   1.944   4.061  10.741 -0.5634  0.7563 -0.2200
  199MPD1    C2 3025   1.951   4.164  10.642 -1.2163  0.2166 -0.3943
  199MPD1    C3 3026   1.844   4.248  10.623  0.1320  0.1535 -0.0610
  199MPD1    C4 3027   1.734   4.250  10.711  0.0574 -0.0845 -0.2534
  199MPD1    C5 3028   1.730   4.151  10.804 -0.0002  0.2308  0.4604
  199MPD1     H 3029   2.033   4.162  10.572  0.2505  1.2346  1.2951
  199MPD1    H1 3030   1.646   4.313  10.708 -0.5042 -0.8584  0.0760
  199MPD1    H2 3031   1.823   3.990  10.911  2.0968 -1.8016 -0.9692
  199MPD1    H3 3032   1.640   4.139  10.863 -1.4496  4.0757 -1.0223
  199MPD1     N 3033   1.836   4.351  10.526  0.0610  0.0729 -0.2137
  199MPD1    H5 3034   1.754   4.408  10.514 -1.6318 -2.6036 -1.3755
  199MPD1    N1 3035   2.061   3.999  10.783  0.0088  0.2986 -0.2120
  199MPD1    H6 3036   2.141   3.986  10.722  0.3192 -3.9972  1.0996
  199MPD1    H7 3037   2.045   3.908  10.827  1.4918 -0.7973 -1.9420
  200MPD1     C 3038   1.514   0.471  15.115  1.1567 -0.0585  0.5413
  200MPD1    C1 3039   1.464   0.366  15.043 -0.0299  0.4900  0.0050
  200MPD1    C2 3040   1.454   0.371  14.902  0.0377 -0.0413 -0.1616
  200MPD1    C3 3041   1.499   0.483  14.833 -0.2519  0.0653 -0.1011
  200MPD1    C4 3042   1.538   0.590  14.908 -0.7689 -0.3965 -0.1325
  200MPD1    C5 3043   1.550   0.578  15.043 -0.1862 -0.2909  0.4717
  200MPD1     H 3044   1.415   0.283  14.851  0.3158  0.3692 -1.0870
  200MPD1    H1 3045   1.576   0.683  14.866  1.5245 -0.6213  1.4494
  200MPD1    H2 3046   1.527   0.481  15.223  2.3772 -1.7947  0.5453
  200MPD1    H3 3047   1.582   0.662  15.104  1.7842  0.2259 -1.2581
  200MPD1     N 3048   1.508   0.477  14.696 -0.4306 -0.2587 -0.7085
  200MPD1    H5 3049   1.465   0.394  14.657 -0.2227 -0.4835 -0.4596
  200MPD1    N1 3050   1.425   0.246  15.111 -0.0249  0.0299  0.2696
  200MPD1    H6 3051   1.340   0.208  15.070 -0.2268  0.5125  0.2355
  200MPD1    H7 3052   1.407   0.268  15.209  0.8581 -0.9511  0.6507
  201MPD1     C 3053   3.103   3.982  13.427  0.2150 -0.1360  0.0836
  201MPD1    C1 3054   3.149   3.919  13.314  0.1525  0.5736 -0.6392
  201MPD1    C2 3055   3.219   3.807  13.334 -0.0533  0.2446 -0.8402
  201MPD1    C3 3056   3.232   3.740  13.451 -0.1469  0.5609 -0.0636
  201MPD1    C4 3057   3.175   3.802  13.568 -0.1507  0.0341 -0.0325
  201MPD1    C5 3058   3.122   3.927  13.551  0.0106 -0.1170  0.2834
  201MPD1     H 3059   3.277   3.772  13.249  0.6812 -0.8177  0.1016
  201MPD1    H1 3060   3.172   3.757  13.666  2.6197 -0.9815 -0.4110
  201MPD1    H2 3061   3.046   4.073  13.417 -0.8752 -0.7264  0.8883
  201MPD1    H3 3062   3.088   3.986  13.636 -0.6020  2.0908 -1.4982
  201MPD1     N 3063   3.301   3.619  13.457 -0.3187  0.1746  0.1218
  201MPD1    H5 3064   3.350   3.609  13.369  0.1732  1.6134  0.2358
  201MPD1    N1 3065   3.158   3.980  13.190 -0.5931  0.0666 -0.5139
  201MPD1    H6 3066   3.071   4.033  13.181  0.0661  1.1188 -0.6564
  201MPD1    H7 3067   3.165   3.915  13.112 -0.6033  1.2166 -1.4825
  202MPD1     C 3068   4.716   3.157  10.181 -0.2334 -0.0450  0.2722
  202MPD1    C1 3069   0.006   3.053  10.100  0.2347  0.2765 -0.1641
  202MPD1    C2 3070   4.607   2.996  10.058  0.0909 -0.1343  0.7864
  202MPD1    C3 3071   4.485   3.044  10.096 -0.1773 -0.2868 -0.3734
  202MPD1    C4 3072   4.477   3.149  10.186  0.1210  0.4530 -0.2420
  202MPD1    C5 3073   4.595   3.203  10.223  0.6130  0.6577  0.4892
  202MPD1     H 3074   4.611   2.925   9.976  1.8451 -0.3026  1.0235
  202MPD1    H1 3075   4.381   3.181  10.226 -0.5933 -1.8854 -0.0979
  202MPD1    H2 3076   0.079   3.208  10.225 -0.6092  0.2766  0.6181
  202MPD1    H3 3077   4.600   3.291  10.287 -0.9522 -0.3105  1.9586
  202MPD1     N 3078   4.360   2.993  10.043  0.5899  0.2152  0.2678
  202MPD1    H5 3079   4.275   3.036  10.078  0.4937 -0.6234  1.0491
  202MPD1    N1 3080   0.123   3.037  10.024  0.0902 -0.2848  0.9090
  202MPD1    H6 3081   0.202   3.056  10.085  0.7519  0.0083 -0.0290
  202MPD1    H7 3082   0.129   2.943   9.985  0.0179 -0.9535  2.5296
  203MPD1     C 3083   2.331   4.230  12.991 -0.5177  0.1243 -0.3728
  203MPD1    C1 3084   2.309   4.131  13.081  0.7475 -0.5862  0.1173
  203MPD1    C2 3085   2.380   4.020  13.066  1.3900 -0.3414  0.1019
  203MPD1    C3 3086   2.460   3.989  12.959  0.3813  0.5094 -0.0138
  203MPD1    C4 3087   2.476   4.088  12.867  0.0946 -0.1052 -0.8642
  203MPD1    C5 3088   2.415   4.207  12.885  0.1961  0.6642 -0.1410
  203MPD1     H 3089   2.388   3.943  13.142 -1.9843 -2.6243 -1.8511
  203MPD1    H1 3090   2.540   4.082  12.780  2.3890  0.4328  0.8064
  203MPD1    H2 3091   2.274   4.323  12.994  2.8059  2.1389 -0.1403
  203MPD1    H3 3092   2.419   4.279  12.804  3.4030  1.1319  0.4400
  203MPD1     N 3093   2.526   3.861  12.941  0.0948 -0.1704  0.5925
  203MPD1    H5 3094   2.504   3.791  13.011 -2.6176 -0.3993 -0.4787
  203MPD1    N1 3095   2.247   4.171  13.202 -0.5718 -0.3484  0.1543
  203MPD1    H6 3096   2.180   4.247  13.199 -0.2516 -0.0533  0.5051
  203MPD1    H7 3097   2.204   4.106  13.268 -0.8474 -0.1077  0.2074
  204MPD1     C 3098   2.137   0.379   0.328  0.4744  0.9605 -0.1019
  204MPD1    C1 3099   2.056   0.446   0.238  0.0933 -0.2445  0.3352
  204MPD1    C2 3100   1.966   0.365   0.162  0.8574 -0.3226 -0.1038
  204MPD1    C3 3101   1.963   0.228   0.163 -0.3060 -0.4832 -0.0221
  204MPD1    C4 3102   2.051   0.170   0.255  0.3968 -1.0817  0.4043
  204MPD1    C5 3103   2.134   0.242   0.335 -0.1190  0.1012  0.3075
  204MPD1     H 3104   1.897   0.417   0.096  1.1234  1.5246  1.0639
  204MPD1    H1 3105   2.034   0.063   0.268 -1.0341 -0.9692 -0.5815
  204MPD1    H2 3106   2.206   0.431   0.394  2.1781 -0.4261 -0.7902
  204MPD1    H3 3107   2.193   0.188   0.408 -2.0812  1.1168  2.6275
  204MPD1     N 3108   1.860   0.161   0.088 -0.3999  0.6235  0.7189
  204MPD1    H5 3109   1.790   0.220   0.045 -1.5090 -0.7571  0.6097
  204MPD1    N1 3110   2.055   0.587   0.230  0.0422 -0.2504 -0.2351
  204MPD1    H6 3111   1.993   0.633   0.163 -0.1406  1.7507  1.3090
  204MPD1    H7 3112   2.148   0.625   0.211 -0.3549  1.5232  1.3453
  205MPD1     C 3113   2.368   3.785  16.858 -0.5015 -0.5782  0.2747
  205MPD1    C1 3114   2.332   3.651  16.877 -0.0372 -0.1881 -0.3524
  205MPD1    C2 3115   2.225   3.633  16.964 -0.0660  0.1361 -0.3307
  205MPD1    C3 3116   2.144   3.736  17.011  0.3404 -0.1224  0.1623
  205MPD1    C4 3117   2.187   3.864  16.988 -0.0798  0.0183  0.6037
  205MPD1    C5 3118   2.300   3.887  16.917  0.2339  0.0119  0.0277
  205MPD1     H 3119   2.201   3.529  16.981  0.2015  0.5917  2.8962
  205MPD1    H1 3120   2.129   3.949  17.024  0.4175  0.9842 -0.8744
  205MPD1    H2 3121   2.451   3.817  16.795 -0.1344 -1.2080  0.4441
  205MPD1    H3 3122   2.334   3.990  16.912  1.3289 -0.2442  2.0199
  205MPD1     N 3123   2.023   3.719  17.074 -0.6937  0.0519  0.2648
  205MPD1    H5 3124   1.978   3.803  17.111  0.4228 -0.0477  1.8329
  205MPD1    N1 3125   2.402   3.541  16.811  0.1713  0.1377  0.5157
  205MPD1    H6 3126   2.452   3.566  16.726  1.0744 -3.1608  0.0703
  205MPD1    H7 3127   2.357   3.451  16.795 -2.5842  1.7093 -0.6040
  206MPD1     C 3128   2.172   2.181  16.876  0.6444  0.0721 -0.0339
  206MPD1    C1 3129   2.109   2.061  16.830  0.0851 -0.6790 -0.4174
  206MPD1    C2 3130   2.049   2.060  16.704 -0.0560 -0.4482  0.0028
  206MPD1    C3 3131   2.041   2.176  16.633 -0.2272 -0.2283  0.4166
  206MPD1    C4 3132   2.077   2.297  16.689  0.6708  0.3579  0.1284
  206MPD1    C5 3133   2.137   2.296  16.808 -1.0491 -0.0087  0.1241
  206MPD1     H 3134   2.019   1.967  16.659  1.9124 -2.4753  2.8378
  206MPD1    H1 3135   2.047   2.393  16.649  0.4720  0.6457  0.9776
  206MPD1    H2 3136   2.215   2.187  16.975  2.0836 -0.4202 -0.6284
  206MPD1    H3 3137   2.158   2.392  16.854  4.4427 -1.2013  0.1756
  206MPD1     N 3138   2.013   2.180  16.498  0.0700  0.5199 -0.3391
  206MPD1    H5 3139   2.012   2.271  16.454 -2.1380  1.1384  0.9727
  206MPD1    N1 3140   2.136   1.941  16.895  0.3064  0.5259 -0.5049
  206MPD1    H6 3141   2.068   1.867  16.881  1.3486 -0.0763 -2.3054
  206MPD1    H7 3142   2.153   1.958  16.994  0.1503  2.2807 -0.7772
  207MPD1     C 3143   4.359   4.466   9.864 -0.2979 -0.0396  0.2823
  207MPD1    C1 3144   4.369   4.364   9.957  0.1669 -0.4185 -0.1377
  207MPD1    C2 3145   4.466   4.361  10.053  0.1686  0.7189 -0.2793
  207MPD1    C3 3146   4.564   4.457  10.057  0.0061  0.4386 -0.5408
  207MPD1    C4 3147   4.563   4.555   9.960  0.0399 -0.8746  0.1213
  207MPD1    C5 3148   4.462   4.552   9.864 -0.2661 -0.1405  0.2017
  207MPD1     H 3149   4.467   4.289  10.133  1.0963  0.6662 -0.3358
  207MPD1    H1 3150   4.640   4.629   9.945  0.0240 -0.6949  0.9807
  207MPD1    H2 3151   4.286   4.465   9.784  0.4157 -2.2537 -0.3383
  207MPD1    H3 3152   4.461   4.633   9.792  2.4353 -1.3288 -1.1477
  207MPD1     N 3153   4.668   4.446  10.161  0.5464 -0.2361 -0.1510
  207MPD1    H5 3154   0.025   4.509  10.162  0.4128 -0.0483 -1.4703
  207MPD1    N1 3155   4.285   4.257   9.943 -0.2802  0.1535 -0.0675
  207MPD1    H6 3156   4.280   4.210  10.033  1.5987  0.9433  0.4537
  207MPD1    H7 3157   4.192   4.288   9.915 -0.4004 -2.6416 -2.6914
  208MPD1     C 3158   2.626   3.498  17.210 -0.7672 -0.1417 -0.3091
  208MPD1    C1 3159   2.692   3.466  17.322 -0.7518  0.4067 -0.6258
  208MPD1    C2 3160   2.644   3.366  17.403  0.0276 -0.1137 -0.9152
  208MPD1    C3 3161   2.531   3.298  17.367 -0.4309 -0.3399 -0.2262
  208MPD1    C4 3162   2.476   3.323  17.245  0.0340 -0.7437 -0.3219
  208MPD1    C5 3163   2.516   3.424  17.163  0.1070 -0.4436 -0.1742
  208MPD1     H 3164   2.692   3.348  17.498  1.6950 -1.4423 -2.0067
  208MPD1    H1 3165   2.382   3.279  17.214 -0.6388  0.9916 -0.7478
  208MPD1    H2 3166   2.660   3.578  17.146  0.6219  0.8731  1.6925
  208MPD1    H3 3167   2.471   3.445  17.066  0.8339  0.6886 -0.2667
  208MPD1     N 3168   2.482   3.207  17.464  0.9441 -0.7744  0.6885
  208MPD1    H5 3169   2.530   3.200  17.553  1.8930 -1.6412  0.1146
  208MPD1    N1 3170   2.784   3.559  17.363 -0.0741  0.0805 -0.0272
  208MPD1    H6 3171   2.834   3.603  17.286  1.1295  0.8784  1.2195
  208MPD1    H7 3172   2.845   3.526  17.437 -3.1720 -1.0141  2.0516
  209MPD1     C 3173   0.209   3.806  12.133 -0.1058 -0.3361 -0.3654
  209MPD1    C1 3174   0.234   3.749  12.014  0.0104 -0.1644  0.0350
  209MPD1    C2 3175   0.224   3.829  11.899 -0.1517 -0.4632  0.5406
  209MPD1    C3 3176   0.202   3.965  11.904  0.0236  0.3714  0.0691
  209MPD1    C4 3177   0.202   4.019  12.030  0.1137  0.3115 -0.3785
  209MPD1    C5 3178   0.191   3.944  12.139  0.1236 -0.0748 -0.1139
  209MPD1     H 3179   0.221   3.782  11.801  0.7607  1.0769 -0.2362
  209MPD1    H1 3180   0.191   4.126  12.042 -0.9619  0.1540  0.0065
  209MPD1    H2 3181   0.197   3.742  12.220  1.1137 -1.3522 -0.9515
  209MPD1    H3 3182   0.158   3.997  12.228 -0.9292  0.9388 -1.1119
  209MPD1     N 3183   0.189   4.052  11.788  0.1643  0.0111  0.9397
  209MPD1    H5 3184   0.190   4.153  11.799 -1.9056 -0.0598  1.6763
  209MPD1    N1 3185   0.233   3.604  11.995  0.8717  0.2730  0.3050
  209MPD1    H6 3186   0.286   3.572  12.076 -1.5025 -1.8638  1.0267
  209MPD1    H7 3187   0.293   3.583  11.915 -1.4287  0.3424 -1.4517
  210MPD1     C 3188   0.612   0.165  11.480 -0.0550  0.0649  0.0642
  210MPD1    C1 3189   0.538   0.117  11.585  0.7614  0.0724 -0.0872
  210MPD1    C2 3190   0.468   0.002  11.571  0.2014  0.5639  0.2281
  210MPD1    C3 3191   0.492   4.635  11.464 -0.0899  0.4462 -0.1770
  210MPD1    C4 3192   0.568   4.687  11.357 -0.5274 -0.1519  0.4441
  210MPD1    C5 3193   0.627   0.089  11.367  0.5311  0.2689  0.3293
  210MPD1     H 3194   0.393   4.704  11.646  0.9783 -0.6019  0.6965
  210MPD1    H1 3195   0.574   4.627  11.267 -1.2673 -0.5633  0.6653
  210MPD1    H2 3196   0.653   0.265  11.488  0.3591 -0.0439 -0.7280
  210MPD1    H3 3197   0.689   0.125  11.286  0.3560  1.3685  0.6908
  210MPD1     N 3198   0.426   4.509  11.449 -0.3090 -0.1117 -0.5423
  210MPD1    H5 3199   0.443   4.455  11.364  1.9541 -0.7035  0.2755
  210MPD1    N1 3200   0.505   0.209  11.690  0.3102  0.4612  0.6368
  210MPD1    H6 3201   0.589   0.257  11.719 -0.2164  1.9830 -0.3142
  210MPD1    H7 3202   0.470   0.162  11.773 -1.2971  1.1169  0.3502
  211MPD1     C 3203   3.019   3.896  15.911 -0.1420 -0.0939 -0.7179
  211MPD1    C1 3204   2.993   4.025  15.954 -0.3150 -0.7237 -0.5753
  211MPD1    C2 3205   2.857   4.046  15.992  0.5782 -0.0426  0.1479
  211MPD1    C3 3206   2.758   3.954  15.972  0.3307  0.8544 -0.2139
  211MPD1    C4 3207   2.788   3.833  15.914 -0.6360  0.2349  0.4915
  211MPD1    C5 3208   2.921   3.809  15.882 -0.0025  0.3701 -0.3709
  211MPD1     H 3209   2.832   4.140  16.039 -1.7688 -0.6188  0.0797
  211MPD1    H1 3210   2.716   3.752  15.906  1.2169 -1.5327  1.4640
  211MPD1    H2 3211   3.120   3.871  15.881  1.1341  1.6811  2.0145
  211MPD1    H3 3212   2.948   3.708  15.853 -1.1702  0.6780 -2.5708
  211MPD1     N 3213   2.628   3.993  16.008  0.4094 -0.1485 -0.4583
  211MPD1    H5 3214   2.632   4.086  16.049 -1.6345 -0.4370  0.4348
  211MPD1    N1 3215   3.087   4.116  16.008 -0.1796 -0.1347  0.6844
  211MPD1    H6 3216   3.055   4.213  16.004  2.6980  0.8842  2.6680
  211MPD1    H7 3217   3.179   4.109  15.964 -0.2560  1.6418  0.2295
  212MPD1     C 3218   1.482   2.404  16.320  0.3085 -0.9531 -0.4985
  212MPD1    C1 3219   1.414   2.458  16.428 -0.0637 -0.3796 -0.3245
  212MPD1    C2 3220   1.360   2.366  16.519  0.2980  0.0581 -0.1581
  212MPD1    C3 3221   1.386   2.228  16.500 -0.9464  0.5680 -0.0650
  212MPD1    C4 3222   1.466   2.179  16.399  0.2669 -0.3300  0.5644
  212MPD1    C5 3223   1.511   2.269  16.308 -0.4332  0.5025  0.2106
  212MPD1     H 3224   1.296   2.400  16.600  1.4759 -0.8267  1.1203
  212MPD1    H1 3225   1.486   2.074  16.381  1.3018  0.1455 -0.9668
  212MPD1    H2 3226   1.516   2.467  16.238  1.4264 -0.4405  0.3607
  212MPD1    H3 3227   1.568   2.230  16.224 -1.7941 -0.0464 -0.4489
  212MPD1     N 3228   1.327   2.130  16.581  0.0659  0.7003  0.0710
  212MPD1    H5 3229   1.348   2.036  16.551  1.5999  1.3695 -0.9368
  212MPD1    N1 3230   1.386   2.593  16.440  0.3724  0.5603  0.5782
  212MPD1    H6 3231   1.456   2.660  16.409 -1.4240  1.1391 -2.2888
  212MPD1    H7 3232   1.374   2.606  16.540  0.8316  0.8908  0.5890
  213MPD1     C 3233   0.714   2.683  15.412 -0.2203 -0.7259  0.3592
  213MPD1    C1 3234   0.617   2.587  15.436 -0.2059 -0.9328  0.0080
  213MPD1    C2 3235   0.488   2.638  15.449  0.1276 -1.0205  0.2414
  213MPD1    C3 3236   0.446   2.762  15.411 -0.0323  0.6587  0.1314
  213MPD1    C4 3237   0.545   2.856  15.388  0.7045  0.6917 -0.1270
  213MPD1    C5 3238   0.675   2.812  15.379  0.4888  0.5588  0.2399
  213MPD1     H 3239   0.410   2.570  15.483  0.7360 -2.9170 -2.0939
  213MPD1    H1 3240   0.525   2.962  15.377  2.3747  0.8651 -1.6354
  213MPD1    H2 3241   0.814   2.653  15.384  0.7708  1.2584  1.8070
  213MPD1    H3 3242   0.754   2.887  15.377  1.1524 -0.1637 -0.3306
  213MPD1     N 3243   0.315   2.796  15.424 -0.1024  0.3926  0.4748
  213MPD1    H5 3244   0.252   2.721  15.452  1.0867 -0.7796  0.0525
  213MPD1    N1 3245   0.652   2.459  15.495 -0.2081  0.4905 -0.2772
  213MPD1    H6 3246   0.578   2.390  15.484  1.5442 -1.0347 -2.6182
  213MPD1    H7 3247   0.739   2.421  15.457  0.8425  0.0307  2.5755
  214MPD1     C 3248   4.160   2.515  15.828 -0.1792  0.5532 -0.0910
  214MPD1    C1 3249   4.294   2.485  15.832  0.2564  0.0865 -0.1940
  214MPD1    C2 3250   4.379   2.574  15.771 -0.0908 -0.0543  0.1495
  214MPD1    C3 3251   4.338   2.667  15.684  0.6907 -0.9556  0.5525
  214MPD1    C4 3252   4.201   2.681  15.665 -0.5943  0.0588 -0.1296
  214MPD1    C5 3253   4.112   2.614  15.744 -0.0544  0.0415 -0.3269
  214MPD1     H 3254   4.483   2.562  15.798 -0.3584 -3.3283 -0.2043
  214MPD1    H1 3255   4.163   2.753  15.592  0.5531 -0.5094 -1.2986
  214MPD1    H2 3256   4.089   2.459  15.886  0.7654 -0.0169  0.5202
  214MPD1    H3 3257   4.007   2.633  15.726  0.1182  0.5810 -0.7440
  214MPD1     N 3258   4.428   2.752  15.604  0.1195 -0.5476 -0.3155
  214MPD1    H5 3259   4.386   2.830  15.553 -0.5148  0.1826  1.3283
  214MPD1    N1 3260   4.333   2.368  15.888  0.1517  0.7781 -0.6424
  214MPD1    H6 3261   4.433   2.356  15.899  0.4409  2.2836 -1.6509
  214MPD1    H7 3262   4.276   2.326  15.961 -0.1771  0.7172 -0.9343
  215MPD1     C 3263   3.904   3.471  11.162 -0.4001  0.3255 -0.1950
  215MPD1    C1 3264   3.900   3.541  11.279 -0.0865  0.0356 -1.0903
  215MPD1    C2 3265   3.973   3.658  11.303 -0.3258 -0.1499 -0.1098
  215MPD1    C3 3266   4.057   3.707  11.208 -0.5390 -0.4501  0.2084
  215MPD1    C4 3267   4.067   3.636  11.090  0.1612 -0.2802  0.6500
  215MPD1    C5 3268   3.985   3.526  11.065  0.4577 -0.5456 -0.2695
  215MPD1     H 3269   3.967   3.706  11.400  0.2621 -1.1187  0.4087
  215MPD1    H1 3270   4.132   3.667  11.009 -0.1235  0.3634  0.6686
  215MPD1    H2 3271   3.855   3.375  11.149  0.7841 -0.1765 -0.9392
  215MPD1    H3 3272   4.000   3.483  10.967  0.1512  1.0496 -1.0188
  215MPD1     N 3273   4.134   3.817  11.245  0.0387  0.2736 -0.5130
  215MPD1    H5 3274   4.127   3.856  11.339 -3.3157 -1.8346  0.0934
  215MPD1    N1 3275   3.814   3.498  11.377 -0.3905  0.2511  0.4573
  215MPD1    H6 3276   3.783   3.400  11.374 -0.3682  0.2554  0.0969
  215MPD1    H7 3277   3.829   3.516  11.475 -0.8296  0.5093  0.4766
  216MPD1     C 3278   1.678   1.893  16.305  0.5897 -0.6986 -0.3913
  216MPD1    C1 3279   1.633   1.782  16.240  0.0847  0.3959 -0.6108
  216MPD1    C2 3280   1.580   1.684  16.315  0.6331 -0.2871  0.4736
  216MPD1    C3 3281   1.559   1.696  16.456 -0.1767 -0.2417 -0.1883
  216MPD1    C4 3282   1.607   1.810  16.516 -0.0112 -0.2850 -0.2259
  216MPD1    C5 3283   1.666   1.909  16.443  0.2143  0.0984 -0.4509
  216MPD1     H 3284   1.559   1.584  16.278 -0.5444 -0.5028  1.6977
  216MPD1    H1 3285   1.592   1.827  16.622 -0.5908 -4.0241  0.2775
  216MPD1    H2 3286   1.720   1.982  16.259 -0.1159  0.6550  1.5883
  216MPD1    H3 3287   1.698   1.996  16.499  2.4368 -1.2706  0.3754
  216MPD1     N 3288   1.513   1.584  16.523 -0.4759  0.1219 -1.0400
  216MPD1    H5 3289   1.510   1.498  16.469  1.9046 -1.1137  0.8206
  216MPD1    N1 3290   1.670   1.757  16.110 -0.0121  0.0107 -0.1888
  216MPD1    H6 3291   1.608   1.689  16.065  0.8694  1.1911 -3.2435
  216MPD1    H7 3292   1.677   1.841  16.053  0.7550  1.0014  1.3714
  217MPD1     C 3293   3.920   3.360   8.974 -0.4439  0.4078 -0.4365
  217MPD1    C1 3294   3.806   3.433   8.971 -0.0261 -0.1308  0.0460
  217MPD1    C2 3295   3.687   3.363   8.994  0.3044 -0.3079  0.0075
  217MPD1    C3 3296   3.696   3.229   9.038 -0.3084 -0.2919 -0.7109
  217MPD1    C4 3297   3.822   3.159   9.051 -0.3717  0.1781  0.1677
  217MPD1    C5 3298   3.928   3.232   9.021  0.1018  0.2536 -0.2659
  217MPD1     H 3299   3.601   3.421   8.963  1.5259  0.6575 -1.5411
  217MPD1    H1 3300   3.824   3.052   9.069 -0.8042  0.3754  1.4457
  217MPD1    H2 3301   4.017   3.407   8.961 -0.1126 -0.3827 -0.8034
  217MPD1    H3 3302   4.027   3.188   9.024  0.2854  0.7125  0.3423
  217MPD1     N 3303   3.587   3.147   9.061 -0.0057  0.1731  0.4324
  217MPD1    H5 3304   3.606   3.056   9.102  0.0472  0.2928  0.6714
  217MPD1    N1 3305   3.794   3.555   8.912  0.1934  0.3760 -0.7076
  217MPD1    H6 3306   3.873   3.608   8.947 -0.2852 -0.5204  1.7617
  217MPD1    H7 3307   3.714   3.611   8.940 -0.8252  0.0784 -3.0052
  218MPD1     C 3308   3.703   2.669  12.607  0.2251  0.2352 -0.5946
  218MPD1    C1 3309   3.820   2.693  12.682  0.3935 -0.9022  0.4864
  218MPD1    C2 3310   3.841   2.828  12.722  0.1748  0.0766 -0.1993
  218MPD1    C3 3311   3.760   2.930  12.677  0.1397  0.1100 -0.6180
  218MPD1    C4 3312   3.644   2.901  12.606 -0.2947 -0.2315 -0.2292
  218MPD1    C5 3313   3.621   2.777  12.574  0.3226 -0.1531 -0.3185
  218MPD1     H 3314   3.929   2.849  12.782  1.8547 -1.2860 -2.1881
  218MPD1    H1 3315   3.575   2.973  12.563 -1.8238 -0.2112  2.2994
  218MPD1    H2 3316   3.688   2.567  12.576 -0.2466 -0.2431  1.1773
  218MPD1    H3 3317   3.537   2.760  12.507  0.9744  2.8704 -1.8993
  218MPD1     N 3318   3.798   3.063  12.707  0.2050  0.7426 -0.1630
  218MPD1    H5 3319   3.892   3.075  12.743  0.0418 -0.8944  0.8069
  218MPD1    N1 3320   3.893   2.593  12.753 -1.2178 -0.8694  0.0073
  218MPD1    H6 3321   3.889   2.503  12.706 -0.3169 -0.7585 -0.2715
  218MPD1    H7 3322   3.990   2.616  12.775 -1.3559 -0.0025 -0.2781
  219MPD1     C 3323   3.318   3.973  12.647 -0.2787  0.9564  0.0369
  219MPD1    C1 3324   3.390   3.981  12.766  0.0335  0.1303  0.5760
  219MPD1    C2 3325   3.469   3.871  12.787 -0.4063  0.4560 -0.1084
  219MPD1    C3 3326   3.460   3.749  12.722  0.1810  0.3855  0.1908
  219MPD1    C4 3327   3.363   3.740  12.626 -0.1888 -0.1417 -0.1536
  219MPD1    C5 3328   3.302   3.854  12.573  0.4684  0.4329  0.1172
  219MPD1     H 3329   3.547   3.886  12.861 -0.1515  1.1810 -0.5188
  219MPD1    H1 3330   3.346   3.645  12.576 -1.2887  0.3511 -0.7295
  219MPD1    H2 3331   3.255   4.054  12.611 -2.3924  0.9236  3.6249
  219MPD1    H3 3332   3.215   3.847  12.509  0.5670 -0.8041  0.1221
  219MPD1     N 3333   3.550   3.640  12.734 -0.5869 -0.2719  0.1185
  219MPD1    H5 3334   3.534   3.562  12.671 -1.3519 -0.4376  0.5137
  219MPD1    N1 3335   3.396   4.107  12.835 -0.3676 -0.1458  0.0935
  219MPD1    H6 3336   3.317   4.162  12.800  0.8716  1.7297  0.2534
  219MPD1    H7 3337   3.402   4.094  12.936 -2.6101  1.5870  0.4616
  220MPD1     C 3338   4.027   0.054   9.599 -0.1350 -0.5359 -0.9210
  220MPD1    C1 3339   3.927   4.702   9.654  0.1923  0.4095 -0.3308
  220MPD1    C2 3340   3.939   4.646   9.780 -0.2661 -0.2125 -0.8945
  220MPD1    C3 3341   4.055   4.669   9.854  0.5066  0.2767  0.4152
  220MPD1    C4 3342   4.156   0.024   9.803 -0.1060  0.1871  0.1060
  220MPD1    C5 3343   4.146   0.078   9.679 -0.4722  0.1767 -0.1312
  220MPD1     H 3344   3.856   4.595   9.829 -0.3357 -0.0622 -0.8528
  220MPD1    H1 3345   4.252   0.037   9.852 -0.4870 -1.7989  1.3851
  220MPD1    H2 3346   4.020   0.100   9.501  1.0987 -0.3600 -0.9292
  220MPD1    H3 3347   4.234   0.128   9.640  0.5813 -0.5048  1.3490
  220MPD1     N 3348   4.062   4.614   9.980  0.2882  0.2039  0.6077
  220MPD1    H5 3349   3.993   4.542  10.001 -1.8977  1.6544 -1.5908
  220MPD1    N1 3350   3.821   4.650   9.576  0.7497 -0.0028  0.3583
  220MPD1    H6 3351   3.734   4.637   9.628 -0.6241  1.7638 -1.5188
  220MPD1    H7 3352   3.796   4.718   9.504 -3.2771 -1.8374  0.0343
  221MPD1     C 3353   1.362   3.796  17.164 -0.3850  0.0836 -0.0993
  221MPD1    C1 3354   1.437   3.910  17.144  0.8490  0.3745 -0.8710
  221MPD1    C2 3355   1.543   3.904  17.052 -0.3337 -0.0061  0.5849
  221MPD1    C3 3356   1.578   3.782  16.991  0.0671 -0.1176 -0.3391
  221MPD1    C4 3357   1.503   3.672  17.015  0.0147 -0.1289 -0.3243
  221MPD1    C5 3358   1.404   3.683  17.107  0.0702 -0.2648 -0.3360
  221MPD1     H 3359   1.605   3.991  17.032  0.8990 -0.7686  1.0818
  221MPD1    H1 3360   1.521   3.572  16.977 -0.3133 -0.1088 -0.5347
  221MPD1    H2 3361   1.281   3.785  17.235 -0.1702  0.1222  0.1538
  221MPD1    H3 3362   1.343   3.597  17.133  0.5482 -0.1505  1.1130
  221MPD1     N 3363   1.689   3.766  16.908  0.7153 -0.1850  0.3425
  221MPD1    H5 3364   1.699   3.671  16.873 -0.7012  0.3217 -1.4568
  221MPD1    N1 3365   1.402   4.030  17.194  0.1455 -0.1423  0.1214
  221MPD1    H6 3366   1.488   4.082  17.211  0.8665 -0.3733 -2.8480
  221MPD1    H7 3367   1.370   4.029  17.291 -1.5187 -2.1918 -0.4754
  222MPD1     C 3368   1.394   1.701  17.082 -0.0637 -0.1131  0.4874
  222MPD1    C1 3369   1.316   1.673  17.195 -0.7472 -0.1184 -0.5391
  222MPD1    C2 3370   1.249   1.779  17.249  0.5863 -0.1258  0.2931
  222MPD1    C3 3371   1.273   1.912  17.210  0.3248  0.2171  0.0474
  222MPD1    C4 3372   1.351   1.940  17.094 -0.1369  0.1199  0.1949
  222MPD1    C5 3373   1.405   1.830  17.032  0.7794 -0.4103 -0.5844
  222MPD1     H 3374   1.195   1.768  17.342  1.1570  0.7559  0.7295
  222MPD1    H1 3375   1.379   2.034  17.049  0.7257 -0.4878 -0.5369
  222MPD1    H2 3376   1.455   1.623  17.037  1.4502  0.1281  2.0984
  222MPD1    H3 3377   1.472   1.839  16.947 -1.1982 -0.9332 -2.1897
  222MPD1     N 3378   1.236   2.026  17.293  0.9043  0.4941  0.6378
  222MPD1    H5 3379   1.259   2.117  17.254 -0.1391  0.5844  0.2433
  222MPD1    N1 3380   1.331   1.551  17.266  0.7636 -0.7263  0.2182
  222MPD1    H6 3381   1.250   1.539  17.327  0.1831 -0.2893 -0.4520
  222MPD1    H7 3382   1.327   1.476  17.198  3.1301 -2.8934  2.5134
  223MPD1     C 3383   0.768   2.385   0.476 -0.7851  0.6121  0.2611
  223MPD1    C1 3384   0.897   2.419   0.451 -0.0189 -0.0435  0.0787
  223MPD1    C2 3385   0.939   2.422   0.321 -0.4553 -0.6575 -0.0590
  223MPD1    C3 3386   0.861   2.369   0.221  0.5098  0.2070  0.7317
  223MPD1    C4 3387   0.736   2.327   0.247  0.3834  0.3929  1.1178
  223MPD1    C5 3388   0.684   2.341   0.376 -0.5091  0.2150 -0.7220
  223MPD1     H 3389   1.030   2.468   0.284  0.0608  0.1193  2.1727
  223MPD1    H1 3390   0.679   2.272   0.173 -0.8440 -0.7285  2.9048
  223MPD1    H2 3391   0.738   2.387   0.580  0.8851 -1.9742  0.7628
  223MPD1    H3 3392   0.586   2.304   0.402  0.3212 -1.7380 -0.3077
  223MPD1     N 3393   0.921   2.352   0.091  0.3117  0.7341 -0.2843
  223MPD1    H5 3394   1.018   2.381   0.097  1.4231 -2.7876 -0.8370
  223MPD1    N1 3395   0.969   2.477   0.557  0.0031 -0.4609 -0.0226
  223MPD1    H6 3396   1.071   2.470   0.549  0.2427  0.5430  2.1786
  223MPD1    H7 3397   0.962   2.418   0.639 -3.0026 -0.0480  0.0168
  224MPD1     C 3398   4.141   3.985   9.780  0.0700 -0.3873  0.6414
  224MPD1    C1 3399   4.204   3.864   9.794  0.5059  0.2410 -0.6154
  224MPD1    C2 3400   4.153   3.752   9.728 -0.1461 -0.9058  0.4943
  224MPD1    C3 3401   4.032   3.754   9.659 -0.2019  0.2866 -0.5209
  224MPD1    C4 3402   3.970   3.876   9.640  0.4839 -0.1916 -0.4359
  224MPD1    C5 3403   4.016   3.990   9.707  0.2575  0.7174  0.3925
  224MPD1     H 3404   4.197   3.655   9.747  0.5517 -0.3114  1.9351
  224MPD1    H1 3405   3.881   3.888   9.579 -0.1907  0.9040  0.7793
  224MPD1    H2 3406   4.161   4.076   9.834  0.5204  0.5068 -1.0243
  224MPD1    H3 3407   3.953   4.078   9.717  0.5227  0.8124  1.2492
  224MPD1     N 3408   3.968   3.640   9.601  0.0017  0.2078 -0.7148
  224MPD1    H5 3409   3.883   3.656   9.548 -1.1113 -2.5117  0.3022
  224MPD1    N1 3410   4.329   3.870   9.850 -0.4082  0.5102  0.5591
  224MPD1    H6 3411   4.382   3.788   9.880  0.9840  1.3139  0.3233
  224MPD1    H7 3412   4.349   3.955   9.903  1.5010 -1.4951  3.1096
  225MPD1     C 3413   4.614   0.254  12.308  0.1147  0.2490 -0.2242
  225MPD1    C1 3414   4.543   0.176  12.225  0.0437  0.4135 -0.0062
  225MPD1    C2 3415   4.409   0.157  12.227  0.2092 -0.0081 -0.3061
  225MPD1    C3 3416   4.335   0.226  12.321 -0.2568 -0.7973  0.0030
  225MPD1    C4 3417   4.399   0.313  12.402 -0.3322  0.2044  0.7850
  225MPD1    C5 3418   4.539   0.325  12.400  0.1293 -0.4621 -0.4260
  225MPD1     H 3419   4.367   0.079  12.165  0.8652  0.6618 -1.6095
  225MPD1    H1 3420   4.344   0.371  12.475  0.3335 -0.5773  1.8999
  225MPD1    H2 3421   0.000   0.259  12.312  0.0730  1.4312 -0.7852
  225MPD1    H3 3422   4.587   0.387  12.475 -1.3063 -1.1460  1.0749
  225MPD1     N 3423   4.200   0.211  12.346 -0.3877 -0.2439 -0.4060
  225MPD1    H5 3424   4.164   0.237  12.437  0.5867  1.1883 -0.4398
  225MPD1    N1 3425   4.613   0.120  12.114  0.0975 -0.4160  0.1510
  225MPD1    H6 3426   4.574   0.033  12.081 -0.4143 -0.2643  0.3585
  225MPD1    H7 3427   4.715   0.127  12.109  0.2066 -0.1191  2.4003
  226MPD1     C 3428   2.818   3.683   9.087  0.6177 -0.1213  0.7689
  226MPD1    C1 3429   2.746   3.786   9.142  0.1800  0.2856  0.7611
  226MPD1    C2 3430   2.810   3.885   9.216 -0.0565  0.7552 -0.3192
  226MPD1    C3 3431   2.953   3.893   9.214  0.3206 -0.0097  0.9662
  226MPD1    C4 3432   3.027   3.798   9.153 -1.0411 -0.1268 -0.6237
  226MPD1    C5 3433   2.958   3.692   9.096 -0.1218  0.2784  0.5628
  226MPD1     H 3434   2.760   3.961   9.276 -1.2233 -0.5798  0.3880
  226MPD1    H1 3435   3.135   3.793   9.140 -0.7552 -0.1634  1.8784
  226MPD1    H2 3436   2.779   3.591   9.043 -1.1541  1.5337 -1.1585
  226MPD1    H3 3437   3.009   3.612   9.043  0.2256  0.0204  1.2920
  226MPD1     N 3438   3.013   3.999   9.283 -0.2236 -0.1158  0.1414
  226MPD1    H5 3439   2.954   4.075   9.316  0.1740  1.1768 -2.1075
  226MPD1    N1 3440   2.608   3.770   9.138  0.1572  0.0638 -0.5444
  226MPD1    H6 3441   2.585   3.727   9.048  0.0912  0.1300 -0.5584
  226MPD1    H7 3442   2.558   3.858   9.139 -1.2271 -0.7626  1.1977
  227MPD1     C 3443   2.819   0.134   9.714 -0.0544  0.0501 -0.3142
  227MPD1    C1 3444   2.902   0.066   9.808  0.1611  0.1061 -0.2665
  227MPD1    C2 3445   2.965   4.674   9.760  0.4268  0.6914 -0.7216
  227MPD1    C3 3446   2.944   4.632   9.629 -0.0142  0.0420  0.2285
  227MPD1    C4 3447   2.870   4.708   9.539  0.6664 -0.3096  0.5395
  227MPD1    C5 3448   2.809   0.095   9.587 -0.5393 -0.1014 -0.1431
  227MPD1     H 3449   3.035   4.630   9.830 -1.1417 -0.8497 -0.1240
  227MPD1    H1 3450   2.861   4.682   9.434  1.5898 -1.4637  0.7456
  227MPD1    H2 3451   2.778   0.229   9.748 -1.0156 -0.6165  0.4175
  227MPD1    H3 3452   2.757   0.159   9.517 -1.2034  0.0316  0.4752
  227MPD1     N 3453   3.017   4.519   9.594  0.3166  0.0760 -0.6418
  227MPD1    H5 3454   3.099   4.498   9.650 -0.3592 -1.3164 -0.1619
  227MPD1    N1 3455   2.945   0.134   9.924  0.1576  1.1997  0.9905
  227MPD1    H6 3456   2.876   0.200   9.959 -0.1206  1.8723 -0.8489
  227MPD1    H7 3457   2.963   0.067   9.999 -0.9955 -0.9484 -0.6761
  228MPD1     C 3458   1.334   3.265  12.515 -0.2950  0.0787 -0.0090
  228MPD1    C1 3459   1.265   3.215  12.403 -0.0092 -0.5798 -0.2576
  228MPD1    C2 3460   1.144   3.143  12.426 -0.0817 -0.0859 -0.1007
  228MPD1    C3 3461   1.118   3.103  12.552 -0.9730  0.3813  0.4971
  228MPD1    C4 3462   1.176   3.172  12.661 -0.5581 -0.5444  0.0282
  228MPD1    C5 3463   1.287   3.243  12.644  0.4031 -0.7806 -0.3358
  228MPD1     H 3464   1.098   3.104  12.336  3.2977  0.1444 -1.9382
  228MPD1    H1 3465   1.148   3.175  12.766 -2.2821 -0.1029 -0.4472
  228MPD1    H2 3466   1.411   3.341  12.505  0.1538 -0.4740 -0.7351
  228MPD1    H3 3467   1.336   3.293  12.726  0.5213 -0.6173 -0.5055
  228MPD1     N 3468   1.010   3.011  12.569 -0.2844 -0.3572  0.2708
  228MPD1    H5 3469   0.950   2.985  12.491 -1.6724  0.5675  1.0449
  228MPD1    N1 3470   1.288   3.275  12.279  0.3610  0.0367 -0.2431
  228MPD1    H6 3471   1.256   3.209  12.209 -0.6037 -0.0766  0.2986
  228MPD1    H7 3472   1.379   3.311  12.252 -0.5765  2.9320  0.4453
  229MPD1     C 3473   1.211   1.638  14.160  0.0575  0.1425  0.2555
  229MPD1    C1 3474   1.107   1.662  14.073 -0.2584  0.1320  0.9747
  229MPD1    C2 3475   0.989   1.577  14.077  0.6884 -0.0399  0.1971
  229MPD1    C3 3476   0.985   1.473  14.173 -0.8602 -0.6441 -0.1006
  229MPD1    C4 3477   1.094   1.445  14.254  0.6014  0.0360  0.3686
  229MPD1    C5 3478   1.200   1.534  14.247 -0.1513  0.5463  0.4153
  229MPD1     H 3479   0.906   1.597  14.010  2.7271  1.1433 -1.9641
  229MPD1    H1 3480   1.098   1.372  14.333 -1.6537 -0.8678 -0.3498
  229MPD1    H2 3481   1.306   1.690  14.153 -0.7974  1.5959 -0.5293
  229MPD1    H3 3482   1.284   1.521  14.313 -0.5678 -0.8835  0.6606
  229MPD1     N 3483   0.871   1.387  14.180 -0.1200  0.3869 -0.2874
  229MPD1    H5 3484   0.876   1.320  14.256 -2.3691  0.9323  0.3583
  229MPD1    N1 3485   1.111   1.764  13.975 -0.6164  0.3816 -0.5905
  229MPD1    H6 3486   1.015   1.785  13.948 -0.8577  0.3093  0.1967
  229MPD1    H7 3487   1.146   1.853  14.010  1.2596  0.4095 -2.5376
  230MPD1     C 3488   4.609   1.470  14.212 -0.5662  0.4055 -0.2201
  230MPD1    C1 3489   4.667   1.462  14.087 -0.9638 -0.7170  0.0187
  230MPD1    C2 3490   0.064   1.399  14.071  0.2839 -0.3977 -1.0555
  230MPD1    C3 3491   0.126   1.334  14.181  0.4192 -0.4743  0.2499
  230MPD1    C4 3492   0.062   1.338  14.306  0.3764 -0.5467  0.4434
  230MPD1    C5 3493   4.666   1.409  14.322 -0.4373 -0.8071  0.2028
  230MPD1     H 3494   0.114   1.388  13.976  1.6103  0.5681 -0.4622
  230MPD1    H1 3495   0.085   1.290  14.400 -0.8397 -0.4121  0.8076
  230MPD1    H2 3496   4.522   1.531  14.229 -0.5989  0.7812 -1.7490
  230MPD1    H3 3497   4.626   1.425  14.422 -0.8577  1.0199 -0.2482
  230MPD1     N 3498   0.247   1.257  14.161  0.2022  0.4275 -0.5019
  230MPD1    H5 3499   0.290   1.260  14.069  3.7270 -0.2730  1.1253
  230MPD1    N1 3500   4.605   1.509  13.971 -0.6013 -0.5165  0.2878
  230MPD1    H6 3501   4.571   1.604  13.984  0.6753  0.2137 -1.5480
  230MPD1    H7 3502   4.665   1.509  13.888  1.0573  0.9570  1.4866
  231MPD1     C 3503   3.387   3.168  15.691 -0.0290 -0.6357 -0.4833
  231MPD1    C1 3504   3.457   3.082  15.618  0.7392 -0.3689  0.1228
  231MPD1    C2 3505   3.571   3.121  15.564  0.2761  0.2783  0.0721
  231MPD1    C3 3506   3.638   3.232  15.602  0.3803 -0.1382  0.1686
  231MPD1    C4 3507   3.571   3.322  15.684 -0.4765 -0.4207 -0.2175
  231MPD1    C5 3508   3.443   3.288  15.725 -0.5988  0.7656  0.2597
  231MPD1     H 3509   3.623   3.061  15.490  0.8638 -0.4513  1.0955
  231MPD1    H1 3510   3.614   3.414  15.724  0.4160 -0.9849  0.0965
  231MPD1    H2 3511   3.292   3.144  15.738  0.1478  0.3683  0.3777
  231MPD1    H3 3512   3.392   3.344  15.803  1.3825  1.9724  0.6751
  231MPD1     N 3513   3.765   3.254  15.554 -0.0502 -0.6528  0.2943
  231MPD1    H5 3514   3.797   3.188  15.485 -0.1809  1.7127 -2.0202
  231MPD1    N1 3515   3.387   2.966  15.575  0.1848 -0.1384 -0.2565
  231MPD1    H6 3516   3.449   2.891  15.546 -0.9566  0.0081 -3.1029
  231MPD1    H7 3517   3.322   2.940  15.648 -0.6804  1.2533 -0.5213
  232MPD1     C 3518   0.915   0.021  17.377  0.6585  0.6173 -0.7106
  232MPD1    C1 3519   0.884   0.006  17.507  0.3193 -0.1281 -0.1351
  232MPD1    C2 3520   0.797   0.103  17.556  0.0657  0.4559 -0.2579
  232MPD1    C3 3521   0.765   0.209  17.475  0.4757 -0.3704 -0.0964
  232MPD1    C4 3522   0.796   0.214  17.337  0.2545 -0.3458 -0.3332
  232MPD1    C5 3523   0.878   0.119  17.297 -0.6934  0.2141  0.6577
  232MPD1     H 3524   0.759   0.100  17.657 -0.7004 -1.6356 -0.6315
  232MPD1    H1 3525   0.785   0.296  17.267 -1.7489 -0.2726  0.0550
  232MPD1    H2 3526   0.975   4.667  17.327  0.9831  0.9574 -0.8382
  232MPD1    H3 3527   0.914   0.126  17.195 -2.5553 -2.5486 -0.2053
  232MPD1     N 3528   0.689   0.315  17.529  0.1125 -0.3050  0.0038
  232MPD1    H5 3529   0.651   0.295  17.621 -1.0723  3.4165  0.3184
  232MPD1    N1 3530   0.924   4.611  17.575 -0.4822 -0.2430 -0.0116
  232MPD1    H6 3531   0.935   4.626  17.675  1.6893 -0.0437 -0.2920
  232MPD1    H7 3532   1.011   4.568  17.544  1.2575  2.6053  0.8948
  233MPD1     C 3533   0.465   2.869   1.397  0.7372 -0.4375  0.3529
  233MPD1    C1 3534   0.493   2.734   1.405  0.4541 -0.1733  0.0669
  233MPD1    C2 3535   0.606   2.686   1.343 -0.1807 -0.1187  0.5048
  233MPD1    C3 3536   0.684   2.770   1.260 -0.1590  0.4879 -0.1735
  233MPD1    C4 3537   0.651   2.900   1.246  0.0909  0.4211 -0.0220
  233MPD1    C5 3538   0.542   2.941   1.316  0.5434 -0.3229 -0.0405
  233MPD1     H 3539   0.623   2.580   1.357  0.8916  0.0012  0.0934
  233MPD1    H1 3540   0.705   2.972   1.185 -1.5244 -0.5632 -2.6421
  233MPD1    H2 3541   0.374   2.907   1.441  1.6317  2.1457 -0.0108
  233MPD1    H3 3542   0.529   3.049   1.311  2.1465 -0.1935 -1.6200
  233MPD1     N 3543   0.804   2.730   1.206 -0.2061 -0.2579 -0.3740
  233MPD1    H5 3544   0.843   2.797   1.142 -1.0757  0.2088 -0.4233
  233MPD1    N1 3545   0.406   2.654   1.476 -0.7131  0.6331  0.4827
  233MPD1    H6 3546   0.369   2.580   1.417 -0.2251 -0.1862  1.2206
  233MPD1    H7 3547   0.321   2.708   1.491 -0.7674  0.6877 -0.0016
  234MPD1     C 3548   4.380   1.589   9.281  0.2748 -0.3782  0.4458
  234MPD1    C1 3549   4.459   1.701   9.314 -0.1161  0.5053  0.6598
  234MPD1    C2 3550   4.402   1.826   9.300 -0.1211  0.1933  0.3103
  234MPD1    C3 3551   4.264   1.845   9.288 -0.8883  0.0161 -0.2983
  234MPD1    C4 3552   4.191   1.729   9.279  0.3618  0.3976 -1.0889
  234MPD1    C5 3553   4.246   1.607   9.267  0.4589  0.1158 -0.8724
  234MPD1     H 3554   4.457   1.915   9.328 -0.5485  0.5096  0.1571
  234MPD1    H1 3555   4.084   1.733   9.261 -0.4317 -1.2940  3.2780
  234MPD1    H2 3556   4.431   1.496   9.263  1.5580  0.6016 -0.9608
  234MPD1    H3 3557   4.181   1.524   9.241 -0.2840  0.3236  0.3431
  234MPD1     N 3558   4.204   1.974   9.306 -0.2522 -0.4201  0.1444
  234MPD1    H5 3559   4.268   2.051   9.323  0.8284 -1.4377  0.7091
  234MPD1    N1 3560   4.595   1.689   9.328  0.2388  0.2139  0.1211
  234MPD1    H6 3561   4.626   1.602   9.372  2.6218  0.1788 -1.6115
  234MPD1    H7 3562   4.643   1.769   9.368  0.2792 -0.3647  1.2245
  235MPD1     C 3563   4.699   0.006  10.620 -0.1938 -0.2995  0.0210
  235MPD1    C1 3564   0.015   0.053  10.499 -0.8160  0.4232 -0.0568
  235MPD1    C2 3565   0.137   0.109  10.482  0.4654 -0.1169 -0.3470
  235MPD1    C3 3566   0.226   0.107  10.586  0.3508 -0.7428 -0.2352
  235MPD1    C4 3567   0.190   0.068  10.716 -0.5350  0.1799 -0.6254
  235MPD1    C5 3568   0.063   0.014  10.728  0.6747 -0.2858  0.8123
  235MPD1     H 3569   0.167   0.146  10.385 -3.0312 -1.3616 -1.8871
  235MPD1    H1 3570   0.265   0.071  10.795 -2.0758 -2.0889  0.9245
  235MPD1    H2 3571   4.605   4.676  10.635 -0.3186  0.6449  2.5841
  235MPD1    H3 3572   0.037   4.668  10.809 -1.9969 -0.3757 -0.1272
  235MPD1     N 3573   0.355   0.157  10.560 -0.7812  0.5006 -0.2396
  235MPD1    H5 3574   0.379   0.196  10.469 -2.6160 -1.2561 -1.4685
  235MPD1    N1 3575   4.646   0.043  10.393 -0.3011  0.2424 -0.1280
  235MPD1    H6 3576   4.569   4.699  10.405 -1.4428  1.7141  0.6755
  235MPD1    H7 3577   4.695   0.022  10.306 -1.5128 -0.5367 -0.6292
  236MPD1     C 3578   0.010   1.270   9.968  0.2385 -0.0583  0.0850
  236MPD1    C1 3579   4.696   1.144   9.940 -0.4339  0.1623  1.4425
  236MPD1    C2 3580   0.014   1.036  10.014  0.2948 -0.5927 -0.3393
  236MPD1    C3 3581   0.099   1.055  10.124  0.2375 -0.9106 -0.3060
  236MPD1    C4 3582   0.139   1.181  10.144 -0.4434  0.3293 -0.2012
  236MPD1    C5 3583   0.103   1.289  10.067  0.1101 -0.1369 -0.0036
  236MPD1     H 3584   4.685   0.944   9.987 -1.1038  0.5606 -1.6141
  236MPD1    H1 3585   0.209   1.198  10.225  0.5111 -2.1058 -0.5148
  236MPD1    H2 3586   4.696   1.353   9.908 -0.3140 -0.8076 -0.6228
  236MPD1    H3 3587   0.146   1.385  10.093 -1.3661  0.1062  1.5441
  236MPD1     N 3588   0.137   0.951  10.213  0.2285  0.1245 -0.3270
  236MPD1    H5 3589   0.207   0.981  10.279 -3.3951  1.6058  2.8605
  236MPD1    N1 3590   4.599   1.118   9.845 -0.4930  0.4393 -0.0523
  236MPD1    H6 3591   4.613   1.175   9.761  1.6675 -2.0029 -1.3660
  236MPD1    H7 3592   4.596   1.020   9.819 -1.5012  0.7460 -1.1057
  237MPD1     C 3593   3.822   0.499  15.850 -0.6401 -0.8173 -0.6036
  237MPD1    C1 3594   3.867   0.465  15.722  0.2934 -0.1733  0.3769
  237MPD1    C2 3595   3.826   0.348  15.659 -0.4299 -0.2278  0.6217
  237MPD1    C3 3596   3.728   0.276  15.723  0.5292 -0.3260  0.5560
  237MPD1    C4 3597   3.681   0.311  15.850 -0.7040  0.5074 -0.1671
  237MPD1    C5 3598   3.727   0.424  15.910 -0.6374 -0.1268  0.1311
  237MPD1     H 3599   3.872   0.318  15.566  0.4405  0.5985  0.7734
  237MPD1    H1 3600   3.615   0.251  15.911  0.2692  0.9533  1.3272
  237MPD1    H2 3601   3.849   0.596  15.889  0.9938 -1.3810 -0.3546
  237MPD1    H3 3602   3.687   0.454  16.006 -1.8289 -1.6235  0.1108
  237MPD1     N 3603   3.673   0.159  15.670 -0.1220  0.5347  0.3057
  237MPD1    H5 3604   3.601   0.112  15.725 -0.8873  2.1476  0.6743
  237MPD1    N1 3605   3.979   0.538  15.679  0.4412  0.5569  0.5438
  237MPD1    H6 3606   3.992   0.536  15.578  1.9832  2.0294  0.7066
  237MPD1    H7 3607   3.981   0.635  15.710 -1.3129  1.3496 -1.7589
  238MPD1     C 3608   0.577   2.097  15.430  0.3009  0.0536 -0.5027
  238MPD1    C1 3609   0.645   2.150  15.322 -0.2187  0.2578 -0.6629
  238MPD1    C2 3610   0.578   2.256  15.254  0.4780 -0.2679 -0.0827
  238MPD1    C3 3611   0.451   2.293  15.277  0.2787 -0.1494  0.0847
  238MPD1    C4 3612   0.380   2.222  15.371  0.8563 -0.0090  0.1897
  238MPD1    C5 3613   0.443   2.125  15.446  0.1847 -0.1005  0.6417
  238MPD1     H 3614   0.636   2.314  15.182  0.4827  0.0844  0.2040
  238MPD1    H1 3615   0.277   2.247  15.394  1.0557  1.1272 -0.1429
  238MPD1    H2 3616   0.637   2.041  15.500  0.0457 -1.9692 -1.9045
  238MPD1    H3 3617   0.394   2.077  15.530  0.7599  0.0556  1.0681
  238MPD1     N 3618   0.392   2.409  15.218 -0.0392 -0.2534 -0.2490
  238MPD1    H5 3619   0.300   2.430  15.256 -1.1307 -1.3597 -2.2321
  238MPD1    N1 3620   0.784   2.142  15.320 -0.5745  0.2672 -0.4561
  238MPD1    H6 3621   0.816   2.138  15.224 -0.4470 -0.6948 -0.3767
  238MPD1    H7 3622   0.819   2.055  15.359  0.4385  0.7915 -0.2016
  239MPD1     C 3623   1.235   4.226  15.068 -0.2693 -0.2640 -0.4389
  239MPD1    C1 3624   1.100   4.211  15.052  0.2469  0.1796  0.3208
  239MPD1    C2 3625   1.045   4.231  14.926 -0.2046  0.6239  0.0819
  239MPD1    C3 3626   1.119   4.270  14.814  0.1932  0.7951 -0.0460
  239MPD1    C4 3627   1.257   4.274  14.830 -0.1482  0.0404 -1.4667
  239MPD1    C5 3628   1.311   4.248  14.953  0.2021  0.7289  0.3701
  239MPD1     H 3629   0.938   4.215  14.918  0.1391 -2.2634  1.0496
  239MPD1    H1 3630   1.329   4.297  14.753 -1.1388  1.0227 -2.0857
  239MPD1    H2 3631   1.286   4.216  15.163  3.3503  0.5962 -2.3100
  239MPD1    H3 3632   1.419   4.248  14.960  0.1837  0.5806  0.6285
  239MPD1     N 3633   1.071   4.307  14.685  0.1652 -0.4603 -0.5014
  239MPD1    H5 3634   1.137   4.307  14.608 -0.4308 -1.4030 -1.0037
  239MPD1    N1 3635   1.026   4.173  15.159 -0.5408  0.9937 -0.4373
  239MPD1    H6 3636   1.055   4.220  15.244 -3.5543  1.0305  0.5518
  239MPD1    H7 3637   0.934   4.212  15.137 -1.1776  0.5068  1.3897
  240MPD1     C 3638   4.536   3.272  13.350  0.2156  0.0727  0.0658
  240MPD1    C1 3639   4.540   3.395  13.413  0.2247 -0.0704 -0.7608
  240MPD1    C2 3640   4.594   3.395  13.543 -0.3718  0.9699 -0.3114
  240MPD1    C3 3641   4.645   3.279  13.601  0.1419  0.1322  0.1632
  240MPD1    C4 3642   4.641   3.158  13.531  0.1496 -0.4740  0.6382
  240MPD1    C5 3643   4.589   3.164  13.409  0.1470 -0.4071  0.1440
  240MPD1     H 3644   4.606   3.485  13.603 -0.5846  0.0895  1.0644
  240MPD1    H1 3645   4.666   3.062  13.575  2.5580  0.3699  1.0772
  240MPD1    H2 3646   4.490   3.262  13.253 -0.4295 -2.4510  0.6149
  240MPD1    H3 3647   4.572   3.070  13.358  0.9129  1.0129 -2.7395
  240MPD1     N 3648   4.683   3.293  13.739  0.1186 -0.4744 -0.3248
  240MPD1    H5 3649   4.670   3.384  13.782 -0.0021 -0.3556 -0.6170
  240MPD1    N1 3650   4.470   3.500  13.354  1.0683  0.3565 -0.0036
  240MPD1    H6 3651   4.503   3.594  13.376  0.1683  0.7662 -0.3845
  240MPD1    H7 3652   4.469   3.497  13.253  1.7789  1.4212 -0.0428
  241MPD1     C 3653   0.291   3.941  14.365 -0.0923 -0.1926  0.4313
  241MPD1    C1 3654   0.187   3.936  14.270 -0.2285  0.0088  0.5397
  241MPD1    C2 3655   0.143   3.809  14.231  0.0145  0.8494  0.1059
  241MPD1    C3 3656   0.211   3.697  14.263  0.2113 -0.8217  0.9072
  241MPD1    C4 3657   0.327   3.709  14.332 -0.3701  0.5648 -0.3108
  241MPD1    C5 3658   0.367   3.830  14.388  0.2032 -0.1072 -0.7776
  241MPD1     H 3659   0.056   3.815  14.166 -0.1544 -1.1834  0.1714
  241MPD1    H1 3660   0.387   3.621  14.351 -1.2992  0.1945  0.9127
  241MPD1    H2 3661   0.333   4.033  14.405  2.0688 -1.0970  0.2322
  241MPD1    H3 3662   0.453   3.837  14.454  0.0952 -1.5045 -0.4795
  241MPD1     N 3663   0.177   3.568  14.220  0.5373  0.5724  0.1912
  241MPD1    H5 3664   0.235   3.491  14.251  1.5181  1.6484  1.0233
  241MPD1    N1 3665   0.125   4.054  14.228  0.5498 -1.0201 -0.0119
  241MPD1    H6 3666   0.178   4.140  14.230 -2.8269  1.0162  0.8197
  241MPD1    H7 3667   0.078   4.042  14.139  1.1659  0.0959 -0.4841
  242MPD1     C 3668   4.480   1.102  16.036 -0.6213  0.4882 -0.0847
  242MPD1    C1 3669   4.394   1.143  15.937  0.2070  0.1193  0.3580
  242MPD1    C2 3670   4.405   1.277  15.904  0.0350 -0.4217 -0.1736
  242MPD1    C3 3671   4.510   1.356  15.942  0.4169 -0.3223  0.4124
  242MPD1    C4 3672   4.599   1.311  16.031  0.3560 -0.4332 -0.5458
  242MPD1    C5 3673   4.590   1.178  16.069  0.2080 -0.4430 -0.3090
  242MPD1     H 3674   4.325   1.316  15.843 -0.1664 -1.0613 -0.3191
  242MPD1    H1 3675   4.685   1.368  16.065 -1.0835  1.1986  0.3571
  242MPD1    H2 3676   4.469   1.000  16.071  0.4008  0.6582  0.7525
  242MPD1    H3 3677   4.670   1.134  16.127 -1.9824 -0.1427  2.9478
  242MPD1     N 3678   4.526   1.494  15.895  0.0363  0.0266  0.0749
  242MPD1    H5 3679   4.581   1.555  15.955  1.4047  0.3719 -1.5381
  242MPD1    N1 3680   4.289   1.064  15.894  0.5276  0.0180  0.3168
  242MPD1    H6 3681   4.294   0.963  15.898 -1.0918 -0.1237 -1.1289
  242MPD1    H7 3682   4.256   1.099  15.804 -2.9260 -0.0011  1.5789
  243MPD1     C 3683   1.907   0.905  17.682 -0.1483  0.1351 -0.2734
  243MPD1    C1 3684   1.856   0.777  17.671 -0.5516 -0.4228  0.2404
  243MPD1    C2 3685   1.839   0.713  17.555  0.0876 -0.2292  0.7284
  243MPD1    C3 3686   1.877   0.770  17.434 -0.1937  0.5437 -0.1699
  243MPD1    C4 3687   1.933   0.896  17.444  0.2010  0.1921  0.0088
  243MPD1    C5 3688   1.946   0.965  17.563 -0.4399 -0.5150  0.1154
  243MPD1     H 3689   1.812   0.609  17.567 -0.1553  0.0636  2.7812
  243MPD1    H1 3690   1.964   0.956  17.359  1.0191  1.7444  1.3875
  243MPD1    H2 3691   1.909   0.957   0.087 -1.1797 -0.0021 -0.1754
  243MPD1    H3 3692   1.985   1.066  17.556 -1.9142 -0.0627 -1.5354
  243MPD1     N 3693   1.844   0.703  17.314 -0.5338 -0.2140 -1.3528
  243MPD1    H5 3694   1.810   0.609  17.332  0.2153  0.0948  1.5810
  243MPD1    N1 3695   1.832   0.709   0.091 -0.3874 -0.0335 -0.3466
  243MPD1    H6 3696   1.796   0.760   0.171 -0.8637 -0.0467 -0.5547
  243MPD1    H7 3697   1.796   0.618   0.063 -1.5465 -0.4018  2.3040
  244MPD1     C 3698   1.261   0.142  17.377  0.3617 -0.2381  0.0343
  244MPD1    C1 3699   1.323   0.245  17.448 -0.0758 -0.2526 -0.1826
  244MPD1    C2 3700   1.423   0.303  17.377 -0.4845  0.0602  0.1690
  244MPD1    C3 3701   1.440   0.284  17.239  0.2586 -0.2722 -0.2353
  244MPD1    C4 3702   1.369   0.194  17.171  0.6085  0.5779  0.2159
  244MPD1    C5 3703   1.287   0.111  17.246 -0.0335 -0.0273  0.4151
  244MPD1     H 3704   1.475   0.383  17.428  0.3150 -0.4575  0.1594
  244MPD1    H1 3705   1.392   0.173  17.068  0.6282 -0.4506  0.4293
  244MPD1    H2 3706   1.187   0.074  17.417  0.9713 -0.7110  0.3541
  244MPD1    H3 3707   1.227   0.036  17.196  2.1336 -1.6514  0.2502
  244MPD1     N 3708   1.547   0.352  17.179  0.0904  0.4614 -0.2771
  244MPD1    H5 3709   1.613   0.399  17.241  0.6392 -0.8545  0.1291
  244MPD1    N1 3710   1.308   0.258  17.585  0.1842 -0.3394 -0.6996
  244MPD1    H6 3711   1.213   0.242  17.616  0.4637 -3.1460 -1.3174
  244MPD1    H7 3712   1.347   0.347  17.616  0.5315 -0.2110 -1.4908
  245MPD1     C 3713   2.866   0.976  12.948  0.5081  0.4683 -0.0771
  245MPD1    C1 3714   2.856   0.997  13.084 -0.0523  0.0222 -0.2661
  245MPD1    C2 3715   2.968   1.069  13.143  0.3228 -0.5437  0.4756
  245MPD1    C3 3716   3.082   1.102  13.079  0.0516 -0.5267  0.6843
  245MPD1    C4 3717   3.087   1.062  12.948 -0.0975 -0.3378  0.2965
  245MPD1    C5 3718   2.980   1.000  12.885  0.0329 -0.8758 -0.6870
  245MPD1     H 3719   2.964   1.092  13.249  0.6393 -0.3352  0.4412
  245MPD1    H1 3720   3.178   1.076  12.890 -1.1725 -0.4302 -1.3878
  245MPD1    H2 3721   2.787   0.930  12.889  2.1312 -3.0268  0.4623
  245MPD1    H3 3722   2.989   0.972  12.780 -0.8427  0.9671 -1.2447
  245MPD1     N 3723   3.178   1.170  13.156 -0.0783  0.5962  0.4090
  245MPD1    H5 3724   3.174   1.185  13.256 -0.7332  3.3430 -0.0372
  245MPD1    N1 3725   2.736   0.969  13.152 -0.0870 -0.4079 -0.3731
  245MPD1    H6 3726   2.767   0.943  13.246  0.4050 -1.5298 -0.8503
  245MPD1    H7 3727   2.690   0.883  13.123 -1.5892  0.5150 -0.7746
  246MPD1     C 3728   1.889   1.608   8.246 -0.0715  0.2951 -0.6558
  246MPD1    C1 3729   1.791   1.529   8.317 -0.9542 -0.8558  0.1336
  246MPD1    C2 3730   1.663   1.582   8.329 -0.0139  0.3106 -0.0583
  246MPD1    C3 3731   1.632   1.704   8.286  0.1637 -0.1570 -0.0186
  246MPD1    C4 3732   1.730   1.782   8.229 -0.2748  0.6223  0.2340
  246MPD1    C5 3733   1.853   1.729   8.199 -0.1644  0.6055 -0.3092
  246MPD1     H 3734   1.584   1.527   8.379 -1.0577  0.2323 -1.8006
  246MPD1    H1 3735   1.698   1.876   8.186 -1.0732  0.5314  0.6213
  246MPD1    H2 3736   1.987   1.572   8.215  1.2409  0.2575  3.6583
  246MPD1    H3 3737   1.922   1.798   8.152 -0.3448  0.9010 -0.1419
  246MPD1     N 3738   1.504   1.754   8.312  0.3930  0.2453 -0.1365
  246MPD1    H5 3739   1.446   1.691   8.366  3.1010  0.1172  2.6417
  246MPD1    N1 3740   1.822   1.398   8.345 -0.2182  0.6459  0.2065
  246MPD1    H6 3741   1.776   1.366   8.430  1.5833 -1.8971  0.2330
  246MPD1    H7 3742   1.923   1.390   8.360 -0.6940 -1.4989  2.2437
  247MPD1     C 3743   2.806   1.869  16.670 -0.5904 -0.3280 -0.2221
  247MPD1    C1 3744   2.753   1.810  16.779 -0.1451  0.6059 -1.0411
  247MPD1    C2 3745   2.791   1.674  16.803 -0.1077 -0.0810 -0.2114
  247MPD1    C3 3746   2.852   1.601  16.706 -0.4881  0.3806 -0.9998
  247MPD1    C4 3747   2.892   1.657  16.590 -0.1629 -0.0092 -0.9569
  247MPD1    C5 3748   2.862   1.792  16.573 -0.0291  0.1676 -0.0088
  247MPD1     H 3749   2.740   1.624  16.885  1.1238  0.9759  1.1892
  247MPD1    H1 3750   2.946   1.613  16.507 -1.3366 -0.1227 -1.6477
  247MPD1    H2 3751   2.790   1.971  16.638  3.9532  0.7800  1.0443
  247MPD1    H3 3752   2.900   1.843  16.485  1.5182 -1.3304 -0.2044
  247MPD1     N 3753   2.874   1.462  16.721  0.0810 -0.4114 -0.0275
  247MPD1    H5 3754   2.897   1.418  16.633  0.4575  2.1868 -1.2171
  247MPD1    N1 3755   2.676   1.894  16.866  0.2324  0.3540 -0.1896
  247MPD1    H6 3756   2.607   1.834  16.911  0.5361 -1.1461 -1.7577
  247MPD1    H7 3757   2.629   1.971  16.819 -0.7029 -0.4945 -0.6418
  248MPD1     C 3758   2.857   0.259  17.389 -0.3325  0.1711  0.3943
  248MPD1    C1 3759   2.871   0.205  17.520 -0.3992 -0.4433 -0.4522
  248MPD1    C2 3760   2.808   0.272  17.621  0.0489  0.5477 -0.6362
  248MPD1    C3 3761   2.742   0.391  17.605 -0.4753  0.3309 -0.6081
  248MPD1    C4 3762   2.727   0.443  17.475 -0.7618  0.4054  0.9735
  248MPD1    C5 3763   2.791   0.378  17.371 -0.2469  0.3278 -0.4221
  248MPD1     H 3764   2.817   0.233   0.032  1.5741  0.7753 -0.6762
  248MPD1    H1 3765   2.675   0.535  17.453  0.1707  0.8146  0.4497
  248MPD1    H2 3766   2.913   0.222  17.304  0.8680  0.5795  1.0020
  248MPD1    H3 3767   2.782   0.419  17.271  1.7235 -0.0464 -0.7611
  248MPD1     N 3768   2.702   0.454   0.031 -0.7277 -0.3405  0.3954
  248MPD1    H5 3769   2.741   0.412   0.114  3.1710  1.5653 -0.4535
  248MPD1    N1 3770   2.921   0.078  17.528  0.0637 -0.3612 -0.3051
  248MPD1    H6 3771   2.981   0.047  17.451 -0.4861 -0.7084 -0.5892
  248MPD1    H7 3772   2.977   0.059  17.612 -1.0646  3.2855  1.2703
  249MPD1     C 3773   4.720   4.076   9.903  0.7886  0.0375  0.4010
  249MPD1    C1 3774   4.670   3.945   9.876  0.6090  0.0732  0.2611
  249MPD1    C2 3775   4.640   3.869   9.983  0.0642  0.3043 -0.5452
  249MPD1    C3 3776   4.642   3.919  10.112  0.8108  0.0760 -0.3021
  249MPD1    C4 3777   4.676   4.051  10.133  0.1637 -0.3226  0.3499
  249MPD1    C5 3778   4.717   4.131  10.026  0.0165 -0.5861  0.1607
  249MPD1     H 3779   4.611   3.768   9.958 -2.4864  1.3235 -1.7813
  249MPD1    H1 3780   4.672   4.091  10.234 -0.7352 -2.0351  0.9938
  249MPD1    H2 3781   0.018   4.141   9.818  0.5522  2.0928  1.9338
  249MPD1    H3 3782   0.010   4.237  10.041 -0.0681 -0.6629  0.7581
  249MPD1     N 3783   4.613   3.826  10.212 -0.4458 -0.1322 -0.6856
  249MPD1    H5 3784   4.588   3.732  10.186 -2.2128  0.7978 -2.3470
  249MPD1    N1 3785   4.701   3.891   9.752  0.5357 -0.2918 -0.5959
  249MPD1    H6 3786   4.636   3.816   9.730  0.4069 -0.5994  0.8381
  249MPD1    H7 3787   4.701   3.963   9.680  0.1581  2.3374  2.0044
  250MPD2     C 3788   2.277   4.389  12.238 -0.1101 -0.7615  0.0554
  250MPD2    C1 3789   2.199   4.384  12.351 -0.2522 -0.1762  0.4963
  250MPD2    C2 3790   2.137   4.263  12.382  0.4394  0.3172  0.1010
  250MPD2    C3 3791   2.150   4.156  12.292  0.2816 -0.5413  0.2226
  250MPD2    C4 3792   2.220   4.165  12.173  0.2495 -0.0104 -0.0064
  250MPD2    C5 3793   2.281   4.291  12.146  0.0716  0.5816  0.6908
  250MPD2     H 3794   2.081   4.255  12.475  0.1159  1.4368 -0.0047
  250MPD2    H1 3795   2.227   4.080  12.107 -2.2843 -0.2784  0.0656
  250MPD2    H2 3796   2.327   4.483  12.214  0.9243 -1.2501  0.2829
  250MPD2    H3 3797   2.338   4.308  12.056 -0.5439  0.8333  0.3449
  250MPD2     N 3798   2.072   4.038  12.304 -0.1453 -0.5514 -0.4155
  250MPD2    H5 3799   2.081   3.974  12.226 -1.0229  0.3123 -1.2289
  250MPD2    N1 3800   2.193   4.505  12.427  0.4430  0.2051  0.3722
  250MPD2    H7 3801   2.260   4.576  12.399  1.1967 -1.3684 -1.8327
  251TMC3    C1 3802   2.157   4.619  12.630 -0.2551 -0.1881 -0.3523
  251TMC3    C2 3803   2.074   4.722  12.659  0.7129 -0.0329  0.2279
  251TMC3    C3 3804   2.136   0.105  12.721  0.3082 -0.5573 -0.4165
  251TMC3    C4 3805   2.291   4.609  12.657  0.1907  0.2329 -0.2844
  251TMC3    C5 3806   2.339   4.714  12.731  0.4965  0.4379 -0.8832
  251TMC3    C6 3807   2.262   0.103  12.757  0.8756  0.0590  0.4969
  251TMC3     C 3808   2.105   4.524  12.536  0.0389  0.4694  0.5801
  251TMC3     O 3809   1.993   4.474  12.557  0.3388  0.3172 -0.4866
  251TMC3     H 3810   1.975   0.013  12.616  1.2307  0.8278 -0.7094
  251TMC3    H1 3811   2.347   4.521  12.628 -0.4222  0.0947 -1.0625
  251TMC3    H2 3812   2.306   0.180  12.819  2.6285 -1.3743  1.0473
  251TMC3    C7 3813   2.472   4.703  12.793 -0.5539 -0.1332  0.0616
  251TMC3    C8 3814   2.051   0.221  12.765 -0.0678 -0.1700 -0.0792
  251TMC3    O1 3815   2.511   4.596  12.834  0.1140  0.0492 -0.0952
  251TMC3    O2 3816   1.938   0.197  12.798 -0.2018 -0.7030 -0.0225
  252TMC3    C1 3817   2.325   0.786   9.828 -0.2098 -0.6757  0.2468
  252TMC3    C2 3818   2.439   0.860   9.783 -0.3142  0.1194  0.5308
  252TMC3    C3 3819   2.561   0.800   9.794 -0.3570  0.4562 -0.3930
  252TMC3    C4 3820   2.337   0.659   9.875 -0.3731 -0.3676  0.1122
  252TMC3    C5 3821   2.463   0.612   9.885  0.5672  0.2336  0.0286
  252TMC3    C6 3822   2.579   0.674   9.841  0.2220 -0.0729 -0.5969
  252TMC3     C 3823   2.199   0.826   9.765 -0.6662 -0.0403  0.7342
  252TMC3     O 3824   2.217   0.911   9.675 -0.5003 -0.4996 -0.0862
  252TMC3     H 3825   2.430   0.961   9.747 -0.2400  1.2859  3.7988
  252TMC3    H1 3826   2.250   0.609   9.916  0.2800  0.6247  2.7377
  252TMC3    H2 3827   2.674   0.623   9.825  0.5949  0.4545 -0.0496
  252TMC3    C7 3828   2.483   0.470   9.904 -0.3771  0.5464 -0.5646
  252TMC3    C8 3829   2.669   0.868   9.725  0.3701  0.1811 -0.0085
  252TMC3    O1 3830   2.603   0.431   9.895  0.0320  0.3439  0.5960
  252TMC3    O2 3831   2.638   0.936   9.628  0.7933  0.3591  0.4032
  253MPD2     C 3832   3.002   4.502  15.277  0.3694  0.0269  0.1783
  253MPD2    C1 3833   2.894   4.454  15.355  0.0907  0.3736 -0.4730
  253MPD2    C2 3834   2.844   4.531  15.456  0.4231 -0.0586  0.1053
  253MPD2    C3 3835   2.908   4.652  15.493 -0.6103  0.3417  0.0710
  253MPD2    C4 3836   3.023   4.689  15.426 -0.0657 -0.6472 -0.2884
  253MPD2    C5 3837   3.060   4.616  15.320  0.1475 -0.4682  0.5055
  253MPD2     H 3838   2.757   4.488  15.505  2.1484 -0.2012  3.0091
  253MPD2    H1 3839   3.081   0.054  15.455  1.4879 -1.7280 -0.1860
  253MPD2    H2 3840   3.055   4.442  15.205  0.4247  0.3182 -0.0246
  253MPD2    H3 3841   3.142   4.662  15.265  0.0055 -0.1049  0.5927
  253MPD2     N 3842   2.880   0.000  15.614 -0.3161  0.0285 -0.3415
  253MPD2    H5 3843   2.937   0.083  15.630  1.2169 -1.2454  0.7873
  253MPD2    N1 3844   2.849   4.320  15.342 -0.1893  0.5721  0.2623
  253MPD2    H7 3845   2.754   4.299  15.371  0.3563 -1.7144  0.3585
  254TMC3    C1 3846   2.773   0.060  15.814 -0.4852 -0.0594 -0.3169
  254TMC3    C2 3847   2.654   0.080  15.878 -0.3962  0.0862  0.1584
  254TMC3    C3 3848   2.662   0.114  16.015 -0.3777 -0.7527 -0.5400
  254TMC3    C4 3849   2.892   0.058  15.883  0.0702  0.3137 -0.4385
  254TMC3    C5 3850   2.887   0.071  16.018  0.1173 -0.6481  1.0647
  254TMC3    C6 3851   2.777   0.112  16.089  0.1117 -0.0468  0.2136
  254TMC3     C 3852   2.768   4.699  15.690  0.0721  0.3278 -0.0479
  254TMC3     O 3853   2.666   4.634  15.663 -0.2341  0.6623  0.0158
  254TMC3     H 3854   2.565   0.076  15.817  0.9470  1.9837 -1.9382
  254TMC3    H1 3855   2.989   0.031  15.842  1.5872  1.7735  2.1511
  254TMC3    H2 3856   2.785   0.152  16.190  0.3147 -1.7420  0.8742
  254TMC3    C7 3857   3.015   0.076  16.087  0.2492 -0.6005  0.5114
  254TMC3    C8 3858   2.555   0.182  16.085  0.5900 -0.5059  0.8932
  254TMC3    O1 3859   3.111   0.121  16.023  0.1859 -0.3189  0.0314
  254TMC3    O2 3860   2.578   0.194  16.206  0.5438  0.4064 -0.1727
  255MPD2     C 3861   1.665   1.799   9.859 -0.5658  0.6408  0.3076
  255MPD2    C1 3862   1.702   1.931   9.863 -0.2887 -0.0825 -0.6287
  255MPD2    C2 3863   1.808   1.980   9.791 -0.1342  0.3126  0.1708
  255MPD2    C3 3864   1.887   1.891   9.718  0.0800 -0.2352 -0.1551
  255MPD2    C4 3865   1.841   1.760   9.705 -0.1757  0.2084 -0.4323
  255MPD2    C5 3866   1.735   1.713   9.781  0.3665  0.0784  0.1016
  255MPD2     H 3867   1.830   2.086   9.791 -0.6703  0.4153 -1.9885
  255MPD2    H1 3868   1.884   1.677   9.651 -0.4844  0.0893 -0.4977
  255MPD2    H2 3869   1.582   1.767   9.920  0.7620  0.2092  1.8733
  255MPD2    H3 3870   1.703   1.609   9.775 -0.5454  0.3707 -0.1382
  255MPD2     N 3871   1.998   1.948   9.656  0.6423  1.0221  0.1331
  255MPD2    H5 3872   2.007   2.049   9.660  0.7840  0.9489  1.4881
  255MPD2    N1 3873   1.611   2.035   9.918  0.5874 -0.2502  0.4404
  255MPD2    H7 3874   1.514   2.009   9.933  0.4400 -0.5646 -1.0686
  256TMC3    C1 3875   1.538   2.257   9.909 -0.1155 -0.2014  0.6142
  256TMC3    C2 3876   1.569   2.385   9.916 -0.2567 -0.1492  0.5747
  256TMC3    C3 3877   1.488   2.471   9.849  0.8526  0.4029 -0.2914
  256TMC3    C4 3878   1.429   2.208   9.836  0.9913 -0.2669  0.4287
  256TMC3    C5 3879   1.354   2.297   9.766  0.4851  0.8204 -0.1650
  256TMC3    C6 3880   1.386   2.426   9.770  0.3603 -0.0479 -0.7320
  256TMC3     C 3881   1.645   2.165   9.945  0.2774 -0.8939  0.1646
  256TMC3     O 3882   1.752   2.221   9.949 -0.3850  0.2552 -0.0385
  256TMC3     H 3883   1.651   2.414   9.981 -0.1096  2.0218 -0.5542
  256TMC3    H1 3884   1.400   2.103   9.829 -0.6170  0.2596 -0.8714
  256TMC3    H2 3885   1.331   2.505   9.721 -2.7655 -1.0101  1.2583
  256TMC3    C7 3886   1.300   2.251   9.643  0.6675  0.6463  0.2740
  256TMC3    C8 3887   1.505   2.612   9.854  0.1254  0.4798 -0.5450
  256TMC3    O1 3888   1.314   2.131   9.620  0.1647 -0.1458 -0.2757
  256TMC3    O2 3889   1.407   2.675   9.816  0.3029  0.3497  0.0382
  257MPD2     C 3890   0.886   4.710  13.256 -0.2588 -0.0825 -0.1558
  257MPD2    C1 3891   0.813   4.614  13.205 -0.1894 -0.5775 -0.9432
  257MPD2    C2 3892   0.768   4.511  13.285  0.5339  0.0355  0.5795
  257MPD2    C3 3893   0.774   4.517  13.422  0.1498 -0.3440 -0.1551
  257MPD2    C4 3894   0.837   4.625  13.478 -0.3344  0.4152  0.6877
  257MPD2    C5 3895   0.895   4.718  13.396  0.3492 -0.0052 -0.4456
  257MPD2     H 3896   0.701   4.439  13.239 -0.1069  2.1656 -1.8457
  257MPD2    H1 3897   0.850   4.646  13.584 -0.4976 -0.8429  0.9557
  257MPD2    H2 3898   0.934   0.054  13.185  0.0713  0.0462  0.1859
  257MPD2    H3 3899   0.947   0.077  13.445  2.8261  0.2499 -3.5116
  257MPD2     N 3900   0.720   4.408  13.498  0.0049 -0.5753 -0.0394
  257MPD2    H5 3901   0.671   4.335  13.448 -1.5915  0.9878 -0.7321
  257MPD2    N1 3902   0.794   4.611  13.065  0.1087 -0.3507  0.0701
  257MPD2    H7 3903   0.836   4.681  13.006 -0.4551 -1.7764 -2.0178
  258TMC3    C1 3904   0.711   4.267  13.682 -0.1451 -0.0387 -0.4138
  258TMC3    C2 3905   0.769   4.166  13.616  0.0612  0.0289  0.1186
  258TMC3    C3 3906   0.793   4.051  13.682  0.1480  0.0781 -0.3715
  258TMC3    C4 3907   0.678   4.249  13.812 -0.6024 -0.1521 -0.0666
  258TMC3    C5 3908   0.705   4.132  13.878 -0.6776 -0.0988  0.5682
  258TMC3    C6 3909   0.755   4.031  13.810  0.1610  0.6045  0.6085
  258TMC3     C 3910   0.726   4.402  13.635 -0.2016 -0.1857  0.7318
  258TMC3     O 3911   0.740   4.495  13.717 -0.3124  0.0481 -0.7152
  258TMC3     H 3912   0.808   4.190  13.518 -2.5605  1.8759 -0.4519
  258TMC3    H1 3913   0.644   4.333  13.873 -0.3562  0.5855 -0.9461
  258TMC3    H2 3914   0.789   3.941  13.861  1.2219 -0.6168 -2.2455
  258TMC3    C7 3915   0.678   4.122  14.015 -0.6378 -0.1787 -0.0225
  258TMC3    C8 3916   0.819   3.924  13.601  0.4799  0.1448  0.2207
  258TMC3    O1 3917   0.577   4.180  14.059 -0.7841  0.5632  0.7055
  258TMC3    O2 3918   0.775   3.823  13.647 -0.1934  0.2114  0.1473
  259MPD2     C 3919   4.362   1.121   1.341  0.1948  0.2162 -0.2530
  259MPD2    C1 3920   4.279   1.078   1.239 -0.3196 -0.0614  0.7201
  259MPD2    C2 3921   4.312   1.096   1.110  0.0743  0.8530  0.1803
  259MPD2    C3 3922   4.444   1.137   1.080 -0.4600 -0.4203 -0.6863
  259MPD2    C4 3923   4.540   1.154   1.179  0.2716 -0.1508 -0.2383
  259MPD2    C5 3924   4.488   1.153   1.312  0.3654  0.0585 -0.2514
  259MPD2     H 3925   4.244   1.084   1.026 -0.5488  0.1276  0.7965
  259MPD2    H1 3926   4.641   1.187   1.161  0.6587 -0.9410  0.4523
  259MPD2    H2 3927   4.326   1.117   1.443  1.1823  0.5446  0.0967
  259MPD2    H3 3928   4.557   1.182   1.390  0.8192  1.8908 -1.3140
  259MPD2     N 3929   4.482   1.135   0.943 -0.4428  0.5260 -0.1171
  259MPD2    H5 3930   4.407   1.124   0.875 -1.1146  0.8337  0.5701
  259MPD2    N1 3931   4.152   1.026   1.292  0.4070  0.0107  0.5628
  259MPD2    H7 3932   4.139   1.035   1.392 -0.6671  0.8350  0.3439
  260TMC3    C1 3933   4.607   1.172   0.749  0.5544 -0.4467 -0.6067
  260TMC3    C2 3934   0.003   1.204   0.681 -0.3203  0.0846 -0.9267
  260TMC3    C3 3935   0.012   1.194   0.546  0.2408  0.6600 -0.0752
  260TMC3    C4 3936   4.497   1.126   0.679  0.4008 -0.0601  0.4712
  260TMC3    C5 3937   4.507   1.123   0.545 -0.1277  0.8633  0.5622
  260TMC3    C6 3938   4.619   1.163   0.478 -0.0381  0.3218  0.4686
  260TMC3     C 3939   4.609   1.162   0.894 -1.1424  0.3565 -0.5582
  260TMC3     O 3940   4.717   1.188   0.943 -0.1426  0.1647  0.1150
  260TMC3     H 3941   0.099   1.220   0.730 -1.5927 -1.6396  2.1186
  260TMC3    H1 3942   4.419   1.070   0.729 -0.1588  1.1801  0.9962
  260TMC3    H2 3943   4.628   1.141   0.372 -0.8758 -0.1349  0.4929
  260TMC3    C7 3944   4.395   1.071   0.471  0.0872  0.3745  0.7590
  260TMC3    C8 3945   0.142   1.195   0.490 -0.5050  0.5782 -0.1927
  260TMC3    O1 3946   4.409   1.036   0.355 -0.1828 -0.8931 -0.8112
  260TMC3    O2 3947   0.224   1.271   0.541  0.1909 -0.2656 -0.4360
  261MPD2     C 3948   1.314   3.752  12.271 -0.2554  0.2576  0.2414
  261MPD2    C1 3949   1.428   3.817  12.229 -0.2551 -0.0338  0.2156
  261MPD2    C2 3950   1.411   3.915  12.129  0.1095 -0.4323  0.2370
  261MPD2    C3 3951   1.287   3.942  12.067  0.4231  0.7681  0.2899
  261MPD2    C4 3952   1.181   3.870  12.111 -0.2980 -0.6074 -0.0269
  261MPD2    C5 3953   1.193   3.781  12.215 -0.4537 -0.2042  0.2777
  261MPD2     H 3954   1.500   3.972  12.103 -0.2667 -0.5545 -1.2900
  261MPD2    H1 3955   1.087   3.883  12.059 -0.0671  1.1222  0.0119
  261MPD2    H2 3956   1.321   3.677  12.349 -0.5957  0.0784  0.0985
  261MPD2    H3 3957   1.099   3.737  12.247 -0.5071  0.8946  1.6201
  261MPD2     N 3958   1.286   4.038  11.963 -0.8052  0.0706 -0.1956
  261MPD2    H5 3959   1.373   4.083  11.937 -1.1974  1.0747  0.2304
  261MPD2    N1 3960   1.555   3.807  12.288 -0.3030 -0.0672  0.5264
  261MPD2    H7 3961   1.626   3.871  12.253  0.0095 -1.4214 -1.3444
  262TMC3    C1 3962   1.214   4.183  11.804 -0.0203 -0.3627  0.0555
  262TMC3    C2 3963   1.187   4.314  11.816 -0.3042  0.5198  0.5226
  262TMC3    C3 3964   1.239   4.394  11.723 -1.0827  0.0520 -0.6043
  262TMC3    C4 3965   1.302   4.133  11.711  0.5338  0.1958  0.2418
  262TMC3    C5 3966   1.368   4.221  11.633  1.0762 -0.3842  0.3945
  262TMC3    C6 3967   1.332   4.355  11.625  0.3098 -0.9087 -0.3121
  262TMC3     C 3968   1.175   4.091  11.906  0.2064 -0.2600 -1.1248
  262TMC3     O 3969   1.056   4.073  11.936 -0.0239  0.1102 -0.0741
  262TMC3     H 3970   1.119   4.344  11.896 -0.7135 -0.0378  0.3928
  262TMC3    H1 3971   1.329   4.028  11.719 -0.2807  0.0606  1.2609
  262TMC3    H2 3972   1.370   4.425  11.552 -1.9819  1.1770  0.5067
  262TMC3    C7 3973   1.482   4.170  11.559 -0.4729  0.4384  0.5746
  262TMC3    C8 3974   1.243   4.537  11.747 -0.0740  0.1230 -0.1028
  262TMC3    O1 3975   1.507   4.054  11.583  0.3286  0.1664 -0.3454
  262TMC3    O2 3976   1.303   4.604  11.663 -0.4253 -0.9391  0.0313
  263MPD2     C 3977   2.799   3.400  11.577 -0.4074  0.0040 -0.8401
  263MPD2    C1 3978   2.931   3.415  11.546 -0.2243  0.5674 -0.7848
  263MPD2    C2 3979   2.970   3.437  11.418 -0.3182 -0.4135  0.3452
  263MPD2    C3 3980   2.876   3.436  11.320  0.5373  0.1626  0.9002
  263MPD2    C4 3981   2.743   3.407  11.348  0.6839  0.4060  0.0717
  263MPD2    C5 3982   2.712   3.398  11.481 -0.1990  0.0035 -0.6057
  263MPD2     H 3983   3.076   3.454  11.400 -0.0079 -1.0667  1.5249
  263MPD2    H1 3984   2.670   3.411  11.268  0.2601  0.8529  0.4783
  263MPD2    H2 3985   2.765   3.392  11.680  1.4105 -0.8958 -0.3101
  263MPD2    H3 3986   2.606   3.388  11.502  0.1901 -2.3056  0.2510
  263MPD2     N 3987   2.920   3.464  11.192  0.6055  0.4714 -0.3021
  263MPD2    H5 3988   3.011   3.508  11.197  0.6159  0.4000  0.1500
  263MPD2    N1 3989   3.021   3.411  11.657  0.0296 -0.2963 -0.2648
  263MPD2    H7 3990   2.977   3.384  11.744 -2.1572  1.6743 -0.7569
  264TMC3    C1 3991   2.907   3.551  10.978  0.1903  0.2941  0.2761
  264TMC3    C2 3992   2.890   3.684  11.001 -0.1452  0.8093 -0.0777
  264TMC3    C3 3993   2.933   3.769  10.901  0.1410 -0.4867  0.4359
  264TMC3    C4 3994   2.930   3.498  10.855  0.2043 -0.5939 -0.4654
  264TMC3    C5 3995   2.954   3.588  10.759 -0.1029  0.3563  0.4562
  264TMC3    C6 3996   2.961   3.723  10.780 -0.1574 -0.3834 -0.0221
  264TMC3     C 3997   2.853   3.460  11.078 -0.0356 -0.5781 -0.0049
  264TMC3     O 3998   2.762   3.384  11.041  0.3103 -0.2671 -0.1223
  264TMC3     H 3999   2.881   3.715  11.105 -0.8548  0.3086  0.0044
  264TMC3    H1 4000   2.941   3.392  10.832  1.3767 -0.2671 -1.4651
  264TMC3    H2 4001   2.987   3.796  10.705 -0.9066 -0.4303 -0.3226
  264TMC3    C7 4002   3.041   3.549  10.651 -0.2669 -0.6070 -0.1435
  264TMC3    C8 4003   2.932   3.918  10.922  0.5916  0.6093 -0.1075
  264TMC3    O1 4004   3.130   3.623  10.625  0.3154 -0.0362  0.3829
  264TMC3    O2 4005   3.001   3.987  10.853  0.2959  0.1043  0.0470
  265MPD2     C 4006   4.375   4.074  15.555 -0.5956  0.2485  0.1328
  265MPD2    C1 4007   4.355   4.175  15.459 -0.2604 -0.3156  0.1376
  265MPD2    C2 4008   4.438   4.169  15.349 -0.1984  1.1792 -0.5935
  265MPD2    C3 4009   4.533   4.073  15.334 -0.0317 -1.0532  0.2485
  265MPD2    C4 4010   4.549   3.974  15.434  0.5555  0.0354 -0.2564
  265MPD2    C5 4011   4.462   3.970  15.536 -0.3973  0.3388 -0.1750
  265MPD2     H 4012   4.424   4.238  15.267  0.3799  1.7593 -0.1960
  265MPD2    H1 4013   4.611   3.887  15.416  0.1606 -0.3159  0.1171
  265MPD2    H2 4014   4.315   4.069  15.645 -2.0671 -2.7101 -1.0086
  265MPD2    H3 4015   4.466   3.880  15.597 -0.2208 -0.6962 -1.7304
  265MPD2     N 4016   4.606   4.047  15.219  0.2632 -0.3188  0.3938
  265MPD2    H5 4017   4.664   3.963  15.221  1.3167  0.4025  0.0534
  265MPD2    N1 4018   4.268   4.284  15.470 -0.4221 -0.3833  0.7799
  265MPD2    H7 4019   4.280   4.350  15.393 -1.1882 -0.3381  0.7067
  266TMC3    C1 4020   4.097   4.420  15.565 -0.1282 -0.2475  0.2925
  266TMC3    C2 4021   3.999   4.437  15.659  0.3931  0.4847 -0.1730
  266TMC3    C3 4022   3.953   4.564  15.694 -0.1465  0.7739  0.4967
  266TMC3    C4 4023   4.140   4.526  15.494 -0.2618  0.5842 -0.7476
  266TMC3    C5 4024   4.093   4.650  15.536  0.3368 -0.5794 -0.1439
  266TMC3    C6 4025   4.004   4.672  15.634  0.5567 -0.0829  0.0242
  266TMC3     C 4026   4.181   4.296  15.573  0.1565  0.3201  0.7661
  266TMC3     O 4027   4.183   4.239  15.683  0.4596  0.2156 -0.0879
  266TMC3     H 4028   3.970   4.348  15.712  0.4219  0.3323 -0.4110
  266TMC3    H1 4029   4.213   4.519  15.413 -0.9920  2.7917 -1.5870
  266TMC3    H2 4030   3.945   0.041  15.634 -0.9527 -1.0571 -1.5576
  266TMC3    C7 4031   4.081   0.022  15.424 -0.3261 -0.3403 -0.6958
  266TMC3    C8 4032   3.856   4.574  15.798  0.6947  0.0831 -0.9778
  266TMC3    O1 4033   4.101   4.705  15.311  0.2646 -0.2353  0.1377
  266TMC3    O2 4034   3.759   4.503  15.783 -0.8147  0.1422 -0.2585
  267MPD2     C 4035   0.878   1.422  17.287 -0.2110 -0.3336  0.3758
  267MPD2    C1 4036   0.962   1.316  17.280  0.4527 -0.0903  0.7289
  267MPD2    C2 4037   1.035   1.298  17.162  0.7216  0.1953  0.0755
  267MPD2    C3 4038   1.023   1.381  17.052 -0.4163 -0.0262 -0.1146
  267MPD2    C4 4039   0.920   1.473  17.057 -0.6929 -0.0379  0.2164
  267MPD2    C5 4040   0.854   1.493  17.175  0.8992 -0.5076 -0.0909
  267MPD2     H 4041   1.106   1.216  17.159 -0.4380 -0.8176  0.4537
  267MPD2    H1 4042   0.909   1.549  16.980 -2.2503  0.1665  0.6222
  267MPD2    H2 4043   0.810   1.434  17.371 -1.0393  0.1540 -0.3535
  267MPD2    H3 4044   0.779   1.572  17.176  1.3381 -0.1022  1.3266
  267MPD2     N 4045   1.108   1.375  16.939 -0.0662  0.4241 -0.1091
  267MPD2    H5 4046   1.090   1.441  16.865 -0.5196 -0.6837 -0.9856
  267MPD2    N1 4047   0.988   1.257  17.404  0.3840 -0.1887  0.0636
  267MPD2    H7 4048   0.946   1.296  17.487 -0.5100 -0.6529 -0.1792
  268TMC3    C1 4049   1.078   1.118  17.565  0.2442 -0.2807 -0.0813
  268TMC3    C2 4050   1.112   1.226  17.643  0.4732 -0.0004  0.4875
  268TMC3    C3 4051   1.154   1.194   0.083  0.6211  0.6192 -0.3298
  268TMC3    C4 4052   1.101   0.995  17.606 -0.4262  0.6187 -0.3011
  268TMC3    C5 4053   1.129   0.973   0.045  0.2249 -0.4756 -0.0538
  268TMC3    C6 4054   1.151   1.072   0.133 -0.8181  0.0300 -0.3970
  268TMC3     C 4055   1.052   1.139  17.426 -0.4197  0.5208 -0.6515
  268TMC3     O 4056   1.105   1.056  17.347  0.6293  0.6383 -0.3999
  268TMC3     H 4057   1.117   1.327  17.604  0.4711  0.4865  1.7451
  268TMC3    H1 4058   1.077   0.914  17.538  1.5197  1.0692 -1.5273
  268TMC3    H2 4059   1.180   1.066   0.238  1.3672  0.1986 -0.9962
  268TMC3    C7 4060   1.129   0.842   0.103  0.2229 -0.5038  0.3713
  268TMC3    C8 4061   1.235   1.291   0.156  0.4676  0.1651  0.2466
  268TMC3    O1 4062   1.160   0.833   0.223 -0.1908  0.1165  0.2105
  268TMC3    O2 4063   1.230   1.289   0.278  0.3767  0.4893  0.4463
  269MPD2     C 4064   2.191   0.288  15.540  0.0768 -0.2491 -0.2442
  269MPD2    C1 4065   2.071   0.333  15.593  0.0279  0.4649  0.2874
  269MPD2    C2 4066   2.042   0.467  15.573 -0.1315 -0.3882  0.7408
  269MPD2    C3 4067   2.111   0.548  15.490  0.3132 -0.0103 -0.3569
  269MPD2    C4 4068   2.227   0.493  15.428 -1.0700  0.1341  0.5762
  269MPD2    C5 4069   2.257   0.364  15.460  0.1024 -0.0493 -0.5843
  269MPD2     H 4070   1.953   0.507  15.622  0.8375  0.0556  2.1493
  269MPD2    H1 4071   2.293   0.552  15.366 -1.2194 -1.8916 -1.4945
  269MPD2    H2 4072   2.224   0.185  15.550 -1.6662 -0.9758 -2.2162
  269MPD2    H3 4073   2.352   0.329  15.419 -0.0908 -0.3198 -0.7962
  269MPD2     N 4074   2.070   0.682  15.468 -0.7037 -0.3479  0.0694
  269MPD2    H5 4075   1.986   0.719  15.512 -1.7687 -2.6994  0.0072
  269MPD2    N1 4076   1.991   0.241  15.670  0.1849 -0.4932 -0.4063
  269MPD2    H7 4077   2.019   0.143  15.664 -1.0441 -0.8500 -0.3590
  270TMC3    C1 4078   1.802   0.153  15.781  0.0087  0.1658 -0.5126
  270TMC3    C2 4079   1.684   0.113  15.727  0.0165 -0.5342  0.0225
  270TMC3    C3 4080   1.653   4.700  15.736 -0.2828 -0.4857  0.4792
  270TMC3    C4 4081   1.885   0.060  15.836  0.4990  0.1271 -0.0045
  270TMC3    C5 4082   1.846   4.652  15.856  0.7433 -0.1854 -0.5133
  270TMC3    C6 4083   1.726   4.604  15.802  0.0469 -0.3979 -0.6195
  270TMC3     C 4084   1.862   0.265  15.706 -0.8431  0.1418 -0.8517
  270TMC3     O 4085   1.793   0.363  15.695  0.4273 -0.1389  0.5156
  270TMC3     H 4086   1.638   0.185  15.661 -1.4413 -2.4619 -1.0816
  270TMC3    H1 4087   1.985   0.085  15.870  1.1635 -0.0424 -1.8429
  270TMC3    H2 4088   1.696   4.501  15.814 -0.9132 -0.3737 -2.7951
  270TMC3    C7 4089   1.942   4.552  15.872 -0.4861  0.1244 -0.1472
  270TMC3    C8 4090   1.566   4.666  15.632 -0.0051 -0.2515 -0.7974
  270TMC3    O1 4091   2.050   4.577  15.826  0.5276  0.1778  0.1240
  270TMC3    O2 4092   1.465   0.016  15.618 -0.1162 -0.2594 -0.3882
  271MPD2     C 4093   1.376   4.675  13.841  0.6438 -0.3454  0.0001
  271MPD2    C1 4094   1.301   4.622  13.942  0.2428 -0.2477 -0.0343
  271MPD2    C2 4095   1.171   4.654  13.961  0.0746 -0.3549 -0.0589
  271MPD2    C3 4096   1.111   0.015  13.868  0.1272  0.4653  0.1446
  271MPD2    C4 4097   1.189   0.060  13.760  0.4265  0.7437  0.0493
  271MPD2    C5 4098   1.319   0.029  13.747 -0.1104 -0.3999  0.1868
  271MPD2     H 4099   1.120   4.605  14.044 -0.6963 -1.0986 -0.9664
  271MPD2    H1 4100   1.139   0.110  13.678  2.1759  1.8144 -0.3589
  271MPD2    H2 4101   1.484   4.661  13.833  0.5755  0.0813 -1.6433
  271MPD2    H3 4102   1.375   0.081  13.670 -0.6147 -0.6814 -0.3773
  271MPD2     N 4103   0.972   0.043  13.861  0.5820 -0.2505 -0.0220
  271MPD2    H5 4104   0.944   0.116  13.796 -1.2528  0.4781  1.6079
  271MPD2    N1 4105   1.354   4.528  14.036  0.4717  0.2644 -0.9412
  271MPD2    H7 4106   1.285   4.499  14.105 -0.5916  1.5202 -1.4734
  272TMC3    C1 4107   1.520   4.393  14.148 -0.1070 -0.0223 -0.0142
  272TMC3    C2 4108   1.648   4.345  14.158  0.6545  0.5414  0.1140
  272TMC3    C3 4109   1.704   4.297  14.277  0.5057 -0.0387  0.8576
  272TMC3    C4 4110   1.443   4.383  14.259  0.1206  0.8522 -0.0740
  272TMC3    C5 4111   1.496   4.345  14.380  0.2087 -0.7652 -0.0387
  272TMC3    C6 4112   1.627   4.306  14.392  0.4581 -0.2756  0.2835
  272TMC3     C 4113   1.486   4.484  14.040 -0.4337 -0.4122 -0.6516
  272TMC3     O 4114   1.574   4.496  13.954  0.0126 -0.2523  0.2606
  272TMC3     H 4115   1.690   4.328  14.059 -0.6891 -1.1033 -0.1745
  272TMC3    H1 4116   1.343   4.424  14.254 -0.5300 -0.6162  0.9300
  272TMC3    H2 4117   1.659   4.256  14.483  0.6718 -0.2935  0.1995
  272TMC3    C7 4118   1.421   4.385  14.503  0.1076 -0.4889 -0.6850
  272TMC3    C8 4119   1.846   4.301  14.288 -0.1153 -0.4825  0.1029
  272TMC3    O1 4120   1.304   4.349  14.509 -0.1023 -0.1354 -0.5153
  272TMC3    O2 4121   1.911   4.334  14.189  0.1987 -0.0175  0.0584
  273MPD2     C 4122   2.886   2.778  12.304  0.2353 -0.0866  0.2574
  273MPD2    C1 4123   3.016   2.768  12.259  0.8987 -0.3964 -0.0166
  273MPD2    C2 4124   3.051   2.674  12.167  0.2475 -0.0900  0.2397
  273MPD2    C3 4125   2.959   2.585  12.122 -0.2243 -0.2260 -0.4462
  273MPD2    C4 4126   2.825   2.600  12.157  0.2248 -0.8739  0.8596
  273MPD2    C5 4127   2.791   2.699  12.246  0.7528 -0.0251  0.3921
  273MPD2     H 4128   3.145   2.668  12.113  0.5620  0.9746  0.6772
  273MPD2    H1 4129   2.744   2.542  12.115 -0.6615  0.5868  0.5191
  273MPD2    H2 4130   2.872   2.848  12.386 -0.7994  0.8102 -0.6985
  273MPD2    H3 4131   2.691   2.716  12.286  1.4194  1.1134  1.5535
  273MPD2     N 4132   2.992   2.487  12.022 -0.5861  0.0521 -0.2528
  273MPD2    H5 4133   2.921   2.419  11.996  0.6964 -2.7355  3.5625
  273MPD2    N1 4134   3.120   2.862  12.308  0.8727  0.1826 -0.4217
  273MPD2    H7 4135   3.075   2.936  12.359 -2.0244 -1.2315 -0.9423
  274TMC3    C1 4136   3.141   2.333  11.896 -0.5864 -0.2799  0.8721
  274TMC3    C2 4137   3.024   2.306  11.822  0.2278 -0.6450  0.1551
  274TMC3    C3 4138   3.035   2.298  11.687  0.0453  0.2170 -0.5800
  274TMC3    C4 4139   3.259   2.342  11.830  0.6135  0.2655  0.5688
  274TMC3    C5 4140   3.256   2.354  11.698  0.2849 -0.3604 -0.1176
  274TMC3    C6 4141   3.146   2.335  11.620  0.6914  0.4241 -0.4019
  274TMC3     C 4142   3.124   2.444  11.992  0.6189  0.1274 -0.1661
  274TMC3     O 4143   3.235   2.486  12.027 -0.1080  0.1965 -0.2684
  274TMC3     H 4144   2.924   2.291  11.860 -0.1838 -0.1329 -0.7251
  274TMC3    H1 4145   3.353   2.350  11.883  0.4887 -2.1772  1.1518
  274TMC3    H2 4146   3.156   2.316  11.514  1.3956  0.2890 -0.3104
  274TMC3    C7 4147   3.350   2.444  11.642 -0.8356  0.4758 -0.3156
  274TMC3    C8 4148   2.929   2.222  11.613  0.1251  0.7954 -0.2471
  274TMC3    O1 4149   3.396   2.420  11.531  0.0534 -0.2735  0.5982
  274TMC3    O2 4150   2.883   2.123  11.666 -0.4822  0.4031  0.2588
  275MPD2     C 4151   3.044   0.127  14.707  0.2751 -0.1505  0.8110
  275MPD2    C1 4152   3.010   0.254  14.755  0.0434  0.1547  0.0359
  275MPD2    C2 4153   2.905   0.320  14.702 -0.3417  0.4064  0.7364
  275MPD2    C3 4154   2.828   0.262  14.596  0.5226  0.6593  0.2428
  275MPD2    C4 4155   2.871   0.144  14.547  0.2813 -0.1406 -0.3794
  275MPD2    C5 4156   2.980   0.075  14.599  0.1165  0.2188 -0.0997
  275MPD2     H 4157   2.875   0.411  14.753  0.0541  1.1042 -0.2799
  275MPD2    H1 4158   2.821   0.090  14.467  1.3200 -0.3037 -0.9051
  275MPD2    H2 4159   3.106   0.055  14.758 -0.8009 -0.9450  1.0006
  275MPD2    H3 4160   3.022   4.705  14.561  0.7661  0.8151 -0.8268
  275MPD2     N 4161   2.716   0.326  14.541 -0.1831  0.4670  0.1607
  275MPD2    H5 4162   2.665   0.276  14.468 -1.9367 -2.2963  3.2557
  275MPD2    N1 4163   3.071   0.306  14.872 -0.2032  0.4312 -0.0839
  275MPD2    H7 4164   3.026   0.388  14.911  0.3929 -0.0810  1.6967
  276TMC3    C1 4165   3.151   0.254  15.082  0.6911  0.0953 -0.0943
  276TMC3    C2 4166   3.030   0.208  15.126 -0.7303  0.6311 -0.4412
  276TMC3    C3 4167   2.964   0.282  15.217  0.6104  0.4375 -0.4223
  276TMC3    C4 4168   3.202   0.369  15.121 -0.1280  0.1597  0.5922
  276TMC3    C5 4169   3.135   0.437  15.217  1.4041  0.2679  0.0624
  276TMC3    C6 4170   3.015   0.399  15.265 -0.0157  0.9175  0.2091
  276TMC3     C 4171   3.168   0.242  14.944 -0.2536  0.0079  0.1213
  276TMC3     O 4172   3.263   0.171  14.914 -0.3071  0.0089  1.1136
  276TMC3     H 4173   2.984   0.123  15.078 -0.3103 -0.8209  1.7281
  276TMC3    H1 4174   3.286   0.408  15.063  0.0372 -0.6168  0.3059
  276TMC3    H2 4175   2.948   0.456  15.329 -0.1925 -1.5266  2.2072
  276TMC3    C7 4176   3.210   0.536  15.299 -0.2870 -0.0795 -0.1886
  276TMC3    C8 4177   2.819   0.259  15.239 -0.2707 -0.6284  0.7369
  276TMC3    O1 4178   3.147   0.598  15.385 -0.0514  0.8463  0.4095
  276TMC3    O2 4179   2.748   0.353  15.271  0.0125 -0.5138  0.0727
  277MPD2     C 4180   4.695   4.355  13.391 -0.0288 -0.3305  0.0667
  277MPD2    C1 4181   4.570   4.329  13.346 -0.6286  0.0001  0.5868
  277MPD2    C2 4182   4.470   4.281  13.434 -0.6001  0.3054  0.0492
  277MPD2    C3 4183   4.507   4.255  13.562  0.5019 -0.1192 -0.0509
  277MPD2    C4 4184   4.633   4.273  13.606  0.7527 -0.3181  0.0155
  277MPD2    C5 4185   0.003   4.330  13.524  0.1914 -0.5303  0.5935
  277MPD2     H 4186   4.368   4.289  13.400 -0.9259  1.6855  1.3784
  277MPD2    H1 4187   4.669   4.265  13.708  0.9558 -0.3929 -0.0608
  277MPD2    H2 4188   0.047   4.407  13.332 -0.3015 -1.4175 -1.2169
  277MPD2    H3 4189   0.104   4.355  13.555 -0.2899  0.7294  1.1490
  277MPD2     N 4190   4.399   4.198  13.641 -0.1786  0.3036  0.6570
  277MPD2    H5 4191   4.308   4.191  13.596  0.2634 -1.7725  0.1227
  277MPD2    N1 4192   4.540   4.373  13.217  0.8285 -0.5142  0.0899
  277MPD2    H7 4193   4.610   4.425  13.166 -0.1163 -0.8540 -1.5474
  278TMC3    C1 4194   4.284   4.144  13.838  0.6410 -0.0723  0.0729
  278TMC3    C2 4195   4.282   4.022  13.895 -0.6194 -0.3397  0.8431
  278TMC3    C3 4196   4.159   3.967  13.892  0.0576 -0.2547  0.3110
  278TMC3    C4 4197   4.175   4.219  13.798  0.8848 -0.2940  0.3409
  278TMC3    C5 4198   4.051   4.168  13.823  0.6320  0.2358  0.7749
  278TMC3    C6 4199   4.047   4.031  13.858  0.7846 -0.0264  0.2666
  278TMC3     C 4200   4.410   4.171  13.775 -0.0620 -0.3331  0.4809
  278TMC3     O 4201   4.509   4.160  13.848 -0.1632 -0.4765  0.2314
  278TMC3     H 4202   4.374   3.970  13.920  0.5348  1.6597  0.8376
  278TMC3    H1 4203   4.174   4.320  13.759  1.5346  0.5450  2.5432
  278TMC3    H2 4204   3.952   3.983  13.876 -0.6684  1.9723 -2.0351
  278TMC3    C7 4205   3.934   4.227  13.757 -0.1911  0.5634  0.2150
  278TMC3    C8 4206   4.157   3.825  13.936 -0.2118  0.5588 -0.3031
  278TMC3    O1 4207   3.943   4.297  13.659 -0.1219 -0.1953 -0.1377
  278TMC3    O2 4208   4.245   3.790  14.008  0.3692 -0.5589 -0.2166
  279MPD2     C 4209   3.227   3.719  17.613  0.6851 -0.5698  0.0976
  279MPD2    C1 4210   3.234   3.833   0.004 -0.0882  0.1937 -0.2396
  279MPD2    C2 4211   3.352   3.888   0.038 -0.5119 -0.2641 -0.3645
  279MPD2    C3 4212   3.469   3.840  17.673  0.6030  0.1496  0.5376
  279MPD2    C4 4213   3.466   3.731  17.593  0.1672  0.6313 -0.3638
  279MPD2    C5 4214   3.343   3.672  17.563 -0.8424  0.6916 -0.3996
  279MPD2     H 4215   3.348   3.976   0.101  0.5139  0.6985 -1.6368
  279MPD2    H1 4216   3.559   3.690  17.554 -1.5547 -1.5214 -2.2384
  279MPD2    H2 4217   3.140   3.659  17.591  0.6096  0.0551 -1.3297
  279MPD2    H3 4218   3.340   3.580  17.506 -2.7715  2.3003 -2.9010
  279MPD2     N 4219   3.593   3.902   0.015  0.9802  0.3937  0.1690
  279MPD2    H5 4220   3.672   3.873  17.648 -0.1160 -2.0064 -0.1554
  279MPD2    N1 4221   3.117   3.899   0.046 -0.6141  0.0256  0.3698
  279MPD2    H7 4222   3.129   3.990   0.090 -0.1338  0.3875 -0.5273
  280TMC3    C1 4223   2.887   3.947   0.081 -0.4471  0.4351 -0.1162
  280TMC3    C2 4224   2.769   3.890   0.098  0.5382 -0.1956 -0.6267
  280TMC3    C3 4225   2.664   3.973   0.118 -0.4354  0.1939  0.4770
  280TMC3    C4 4226   2.908   4.079   0.059  0.8072  0.3730 -0.0916
  280TMC3    C5 4227   2.798   4.160   0.077 -0.6254  0.3361 -0.2559
  280TMC3    C6 4228   2.676   4.110   0.114  0.0170  0.0968  0.4215
  280TMC3     C 4229   2.992   3.845   0.051  0.3540  0.1499 -0.1562
  280TMC3     O 4230   2.965   3.727   0.041  0.7031 -0.4668 -0.4491
  280TMC3     H 4231   2.759   3.782   0.107  0.0074 -0.1059 -0.1231
  280TMC3    H1 4232   3.005   4.125   0.041  0.1985  1.0512 -1.6835
  280TMC3    H2 4233   2.602   4.177   0.156  1.8498  1.1535  1.9555
  280TMC3    C7 4234   2.824   4.298   0.110  1.2566 -0.7227  0.0633
  280TMC3    C8 4235   2.528   3.918   0.125 -0.3080  0.4905 -0.1832
  280TMC3    O1 4236   2.942   4.317   0.128  0.0958  0.2288 -0.4639
  280TMC3    O2 4237   2.449   3.967   0.205  0.0526  0.1318 -0.4015
  281TMC3    C1 4238   2.621   4.495  13.139  0.3947 -0.1667  0.5896
  281TMC3    C2 4239   2.733   4.562  13.099  0.1471  0.2656  0.0057
  281TMC3    C3 4240   2.833   4.492  13.037  0.5414 -0.2081 -0.3489
  281TMC3    C4 4241   2.606   4.359  13.138  0.2889  0.0655  0.0279
  281TMC3    C5 4242   2.713   4.292  13.071  0.5541 -0.3875 -0.1568
  281TMC3    C6 4243   2.823   4.357  13.020 -0.4595  0.6158  0.1122
  281TMC3     C 4244   2.526   4.576  13.210  0.3250  0.2053 -0.1433
  281TMC3     O 4245   2.504   4.534  13.323 -0.3728  0.1452  0.2811
  281TMC3     H 4246   2.749   4.667  13.124 -2.7385  0.9279 -0.8436
  281TMC3    H1 4247   2.516   4.317  13.181  0.6508 -0.9269 -0.1655
  281TMC3    H2 4248   2.901   4.301  12.969  0.4928  1.5937  0.5112
  281TMC3    C7 4249   2.742   4.162  13.129 -0.2003  0.2716  0.3890
  281TMC3    C8 4250   2.965   4.556  13.012 -0.4521  0.1863 -0.0001
  281TMC3    O1 4251   2.853   4.113  13.112  0.3900 -0.1867  0.0920
  281TMC3    O2 4252   3.065   4.488  13.040 -0.3998 -0.6295 -0.0798
  282MPD2     C 4253   4.181   1.299  15.251 -0.1711  0.4162  0.0337
  282MPD2    C1 4254   4.054   1.325  15.285  0.2012 -0.0491 -0.3356
  282MPD2    C2 4255   3.959   1.331  15.182 -0.8339  0.5041  0.5417
  282MPD2    C3 4256   3.996   1.325  15.048  0.4609  0.1972 -0.1986
  282MPD2    C4 4257   4.131   1.305  15.016  0.1440  0.0054 -0.2213
  282MPD2    C5 4258   4.217   1.287  15.118 -0.2891 -0.2084 -0.6633
  282MPD2     H 4259   3.852   1.326  15.198 -0.9296 -1.3072 -0.7448
  282MPD2    H1 4260   4.159   1.283  14.914  4.3681  1.3800  0.6346
  282MPD2    H2 4261   4.259   1.305  15.326 -0.5864 -1.1985  0.6101
  282MPD2    H3 4262   4.316   1.247  15.102 -0.7730 -2.0979  1.1493
  282MPD2     N 4263   3.889   1.311  14.956 -0.4001  0.5447  0.2377
  282MPD2    H5 4264   3.797   1.332  14.993 -0.2320 -0.8816  1.4490
  282MPD2    N1 4265   4.010   1.343  15.417  0.1701 -0.6393 -0.2444
  282MPD2    H7 4266   3.921   1.384  15.441 -0.1935 -1.2523 -0.5330
  283TMC3    C1 4267   4.013   1.342  15.647 -0.1941 -0.3341  0.5819
  283TMC3    C2 4268   4.024   1.477  15.660 -0.7353 -0.4611 -0.5449
  283TMC3    C3 4269   4.012   1.522  15.784 -0.3985  0.6412  0.2173
  283TMC3    C4 4270   4.023   1.252  15.757 -0.3664  0.2148 -0.6325
  283TMC3    C5 4271   4.025   1.307  15.881  0.6213 -0.2521  0.4191
  283TMC3    C6 4272   4.004   1.441  15.896 -0.6209  0.4165  0.9327
  283TMC3     C 4273   4.077   1.303  15.521 -0.1272 -0.5662  0.1315
  283TMC3     O 4274   4.173   1.229  15.524 -0.2695 -0.7589 -0.3760
  283TMC3     H 4275   4.070   1.527  15.575 -2.3209  1.4117 -0.3073
  283TMC3    H1 4276   4.034   1.145  15.743 -0.6400  0.3148 -1.6040
  283TMC3    H2 4277   3.989   1.479  15.997 -0.8264  0.1357  1.0101
  283TMC3    C7 4278   3.968   1.234  15.992 -0.3084 -0.3111  0.7560
  283TMC3    C8 4279   4.020   1.665  15.815  0.0571 -0.6802  0.3436
  283TMC3    O1 4280   3.915   1.294  16.086 -0.0003  0.3607  0.5224
  283TMC3    O2 4281   4.027   1.688  15.936 -0.5469 -0.3343  0.0952
  284MPD2     C 4282   2.954   0.260  12.169  0.4101 -0.0074  0.2150
  284MPD2    C1 4283   2.885   0.275  12.043  0.2124 -0.0473  0.2428
  284MPD2    C2 4284   2.792   0.179  12.005  0.4136  0.3683 -0.6705
  284MPD2    C3 4285   2.775   0.059  12.070  0.4947  0.2466  0.0616
  284MPD2    C4 4286   2.852   0.033  12.181 -0.1388  0.2031 -0.3964
  284MPD2    C5 4287   2.926   0.134  12.232  0.4576  0.4625 -0.0985
  284MPD2     H 4288   2.745   0.203  11.911  1.1783  2.1098 -0.6026
  284MPD2    H1 4289   2.838   4.664  12.238  1.8154 -0.2118 -0.6039
  284MPD2    H2 4290   3.030   0.321  12.216  0.4906  0.7890 -0.9405
  284MPD2    H3 4291   2.986   0.112  12.320  0.3703 -1.1651 -0.4498
  284MPD2     N 4292   2.680   4.680  12.033 -0.0266 -0.0352 -0.3846
  284MPD2    H5 4293   2.685   4.598  12.093 -1.1533  1.5403  1.8343
  284MPD2    N1 4294   2.915   0.381  11.954  0.5457  0.3975 -0.8806
  284MPD2    H7 4295   2.858   0.384  11.870  0.5779 -0.6940 -0.9348
  285TMC3    C1 4296   2.993   0.577  11.863  0.3569 -0.2184 -0.3007
  285TMC3    C2 4297   2.997   0.527  11.735  0.6134 -0.6500 -0.0378
  285TMC3    C3 4298   3.025   0.612  11.635 -0.5737 -0.6497 -0.1894
  285TMC3    C4 4299   3.019   0.710  11.887 -0.5214 -1.0913 -0.6596
  285TMC3    C5 4300   3.065   0.783  11.784  0.4555  0.0755 -0.1114
  285TMC3    C6 4301   3.080   0.736  11.657 -0.2136 -0.9274 -0.7106
  285TMC3     C 4302   3.003   0.486  11.970 -0.1763 -0.5325  0.1068
  285TMC3     O 4303   3.074   0.523  12.061  0.6391  1.1711 -0.0749
  285TMC3     H 4304   2.962   0.426  11.720  0.7801 -0.6857 -0.1759
  285TMC3    H1 4305   2.997   0.761  11.980  1.6311  1.5150 -1.5995
  285TMC3    H2 4306   3.082   0.801  11.570 -0.9183 -0.7834 -0.6223
  285TMC3    C7 4307   3.030   0.925  11.786  0.0958  0.3806  0.4549
  285TMC3    C8 4308   3.045   0.549  11.501 -0.3051 -0.7626 -0.4902
  285TMC3    O1 4309   2.974   0.965  11.685  0.1234 -0.0773  0.1594
  285TMC3    O2 4310   2.979   0.452  11.473  0.1720  0.7896 -0.2590
  286MPD2     C 4311   2.239   4.345   1.254  0.4312  0.9128 -0.7354
  286MPD2    C1 4312   2.212   4.264   1.145  0.0977  0.3650 -0.4208
  286MPD2    C2 4313   2.299   4.156   1.137 -0.0951 -0.5866  0.5537
  286MPD2    C3 4314   2.411   4.133   1.218 -0.5045 -0.1236 -1.4969
  286MPD2    C4 4315   2.430   4.220   1.325 -0.4132  0.9588 -0.1438
  286MPD2    C5 4316   2.339   4.324   1.340  0.3602  0.5987  0.0297
  286MPD2     H 4317   2.278   4.086   1.057 -0.8871  0.3205 -0.0458
  286MPD2    H1 4318   2.522   4.203   1.380 -0.1468 -1.5888 -1.3590
  286MPD2    H2 4319   2.173   4.430   1.273 -0.2416 -0.0006  1.0664
  286MPD2    H3 4320   2.361   4.393   1.422 -2.4780  1.4158  0.0818
  286MPD2     N 4321   2.502   4.029   1.192 -0.2439  0.6137  0.0480
  286MPD2    H5 4322   2.578   4.018   1.258 -1.5848 -1.3346  1.2978
  286MPD2    N1 4323   2.094   4.275   1.073 -0.2017  1.0097 -0.4706
  286MPD2    H7 4324   2.063   4.199   1.014 -0.6455  1.1755 -0.4480
  287TMC3    C1 4325   2.601   3.826   1.095  0.6272 -0.1287  0.4718
  287TMC3    C2 4326   2.603   3.724   1.004  0.3073  0.1925  0.7739
  287TMC3    C3 4327   2.694   3.624   1.019  0.1783  0.2090 -0.5764
  287TMC3    C4 4328   2.695   3.817   1.195  0.3233 -0.1464 -0.1315
  287TMC3    C5 4329   2.778   3.710   1.212 -0.1945  0.2964  0.5383
  287TMC3    C6 4330   2.781   3.605   1.118  0.1138  0.2326 -1.3414
  287TMC3     C 4331   2.493   3.927   1.092 -0.2600  0.2198  0.2900
  287TMC3     O 4332   2.420   3.910   0.998  0.8539 -0.3270  0.2934
  287TMC3     H 4333   2.548   3.725   0.911  0.7888  1.1008  0.5007
  287TMC3    H1 4334   2.699   3.898   1.267 -1.6897 -1.9469  1.9702
  287TMC3    H2 4335   2.836   3.512   1.126 -1.0955 -0.2288  1.7001
  287TMC3    C7 4336   2.891   3.721   1.310 -1.0066  0.3313  0.4482
  287TMC3    C8 4337   2.718   3.539   0.906  0.1776 -0.6997  0.0932
  287TMC3    O1 4338   2.908   3.826   1.368  0.1672  0.6542  0.7745
  287TMC3    O2 4339   2.709   3.417   0.922  0.6494 -0.1494  0.2315
  288TMC3    C1 4340   4.276   3.682  14.481  0.4102  0.1303  0.3491
  288TMC3    C2 4341   4.329   3.709  14.606 -0.4572 -0.7120  0.1068
  288TMC3    C3 4342   4.360   3.842  14.631 -0.9563  0.4441  0.4268
  288TMC3    C4 4343   4.258   3.783  14.389 -0.9500 -1.0481  0.0659
  288TMC3    C5 4344   4.287   3.909  14.425  0.4952 -0.2325 -0.6163
  288TMC3    C6 4345   4.333   3.943  14.547 -0.1512  0.3652 -0.0310
  288TMC3     C 4346   4.289   3.544  14.428 -0.0524  0.7707  0.4226
  288TMC3     O 4347   4.286   3.454  14.512 -0.1996  0.2382  0.6187
  288TMC3     H 4348   4.366   3.630  14.669 -1.2966  0.1102  1.6160
  288TMC3    H1 4349   4.239   3.766  14.284 -0.8266 -0.5804 -0.0319
  288TMC3    H2 4350   4.354   4.047  14.571  1.2122  0.1483 -0.2929
  288TMC3    C7 4351   4.262   4.008  14.320 -0.4066 -0.0613 -0.6299
  288TMC3    C8 4352   4.384   3.886  14.766  0.2965 -0.4934 -0.8782
  288TMC3    O1 4353   4.158   4.006  14.253  0.3504  0.3788  0.5557
  288TMC3    O2 4354   4.411   4.004  14.782 -0.0304 -0.3779 -0.2061
  289MPD2     C 4355   4.654   2.726  14.334 -0.0512  0.1752 -0.3587
  289MPD2    C1 4356   4.611   2.864  14.334 -0.0725 -1.0857  1.0753
  289MPD2    C2 4357   4.495   2.897  14.410  0.0028 -0.1757  0.0533
  289MPD2    C3 4358   4.418   2.798  14.468  0.7827  0.2640 -0.4913
  289MPD2    C4 4359   4.460   2.666  14.457 -0.1750 -0.8985  0.4089
  289MPD2    C5 4360   4.580   2.632  14.396 -0.1835 -0.3965 -0.2900
  289MPD2     H 4361   4.469   3.002  14.416 -1.5796 -0.5254 -0.5770
  289MPD2    H1 4362   4.399   2.580  14.484 -1.1758  0.0933  1.3095
  289MPD2    H2 4363   0.026   2.704  14.284  0.3689 -1.9146  1.3974
  289MPD2    H3 4364   4.595   2.527  14.373  0.1088 -0.1081 -1.4420
  289MPD2     N 4365   4.285   2.813  14.511 -0.1050 -0.1106  0.0520
  289MPD2    H5 4366   4.235   2.725  14.519  1.2639 -0.6797  2.6322
  289MPD2    N1 4367   4.694   2.963  14.277 -0.1245  0.3228  0.2479
  289MPD2    H7 4368   0.049   2.936  14.217  0.1473  0.1316  0.6874
  290TMC3    C1 4369   4.083   2.937  14.501 -0.0536 -0.0302  0.2759
  290TMC3    C2 4370   4.030   3.061  14.522  0.8948  0.4959  0.4947
  290TMC3    C3 4371   3.910   3.082  14.464 -0.2695 -0.1051 -0.2441
  290TMC3    C4 4372   4.018   2.838  14.441  0.4602 -0.3756  0.4612
  290TMC3    C5 4373   3.887   2.856  14.415  0.3747 -0.1521  0.0941
  290TMC3    C6 4374   3.837   2.981  14.412 -0.4955  0.6520 -0.4285
  290TMC3     C 4375   4.227   2.927  14.529  0.3514 -0.5301 -0.8009
  290TMC3     O 4376   4.282   3.034  14.539  0.1661  0.3292 -0.5779
  290TMC3     H 4377   4.095   3.141  14.553 -0.2343  2.3683 -1.9943
  290TMC3    H1 4378   4.064   2.741  14.425  1.4662  0.4500 -1.5369
  290TMC3    H2 4379   3.740   3.000  14.367 -1.2780  0.2301  1.0485
  290TMC3    C7 4380   3.847   2.784  14.298  0.1687  0.8870  0.2607
  290TMC3    C8 4381   3.881   3.214  14.396 -0.1296  0.2446 -0.0479
  290TMC3    O1 4382   3.794   2.854  14.210  0.0001  0.4477  0.0238
  290TMC3    O2 4383   3.785   3.212  14.317 -0.5779 -0.9504 -0.0017
  291MPD2     C 4384   2.925   2.978   0.742 -0.3457 -0.0338 -0.4155
  291MPD2    C1 4385   3.049   2.924   0.755 -0.2155 -0.0940  0.3663
  291MPD2    C2 4386   3.150   3.011   0.787 -0.2317 -0.4173 -0.2904
  291MPD2    C3 4387   3.127   3.147   0.820  0.0322  0.8413  0.2606
  291MPD2    C4 4388   3.000   3.193   0.829  0.0601  0.1760  0.2711
  291MPD2    C5 4389   2.899   3.111   0.779  0.2912  0.5596  0.6481
  291MPD2     H 4390   3.248   2.965   0.796  0.5516  1.5918  1.2349
  291MPD2    H1 4391   2.981   3.296   0.855  3.0515  1.1932 -1.5325
  291MPD2    H2 4392   2.833   2.930   0.710  1.6614 -3.7110 -0.6491
  291MPD2    H3 4393   2.804   3.160   0.762  1.0299  1.5840 -0.5799
  291MPD2     N 4394   3.231   3.240   0.831  0.0823 -0.4036 -0.4143
  291MPD2    H5 4395   3.208   3.334   0.860 -2.7493 -0.8879 -1.1021
  291MPD2    N1 4396   3.079   2.788   0.721  0.9962 -0.0178  0.1124
  291MPD2    H7 4397   3.177   2.765   0.733  0.5892 -1.8382 -0.0574
  292TMC3    C1 4398   3.059   2.569   0.637  0.0636 -0.0879 -0.1337
  292TMC3    C2 4399   3.158   2.534   0.727  0.3324 -0.0944 -0.0276
  292TMC3    C3 4400   3.223   2.416   0.695  0.3818 -0.4597 -0.1998
  292TMC3    C4 4401   3.019   2.489   0.525 -0.9020 -0.4110 -0.0459
  292TMC3    C5 4402   3.087   2.377   0.505  0.1998  0.3077 -0.2458
  292TMC3    C6 4403   3.192   2.342   0.584  0.1450  0.7107  0.8843
  292TMC3     C 4404   2.994   2.694   0.660  0.5057  0.1768  0.6670
  292TMC3     O 4405   2.893   2.714   0.601 -0.2209  0.3626 -0.3469
  292TMC3     H 4406   3.171   2.580   0.825 -0.0839  1.3253 -0.6459
  292TMC3    H1 4407   2.949   2.522   0.449 -0.8236 -0.9454 -0.3482
  292TMC3    H2 4408   3.252   2.255   0.560 -1.9874 -0.4902 -0.1077
  292TMC3    C7 4409   3.080   2.289   0.392  0.0882  0.7103 -0.4605
  292TMC3    C8 4410   3.303   2.351   0.792  0.6256  0.2814 -0.5852
  292TMC3    O1 4411   3.180   2.227   0.355  1.0841 -0.5059 -0.2866
  292TMC3    O2 4412   3.384   2.428   0.847  0.2162  0.8314  0.6179
  293MPD2     C 4413   0.874   4.058  12.606 -0.4020 -0.4175 -0.2411
  293MPD2    C1 4414   0.788   4.107  12.694  0.2137  0.8046 -0.6182
  293MPD2    C2 4415   0.826   4.169  12.817 -0.2127 -0.4210  0.2310
  293MPD2    C3 4416   0.960   4.199  12.829  0.0953  0.3140 -0.5619
  293MPD2    C4 4417   1.048   4.161  12.738  0.0009  0.0293 -0.0030
  293MPD2    C5 4418   1.005   4.089  12.624 -0.0958 -0.2925  0.7958
  293MPD2     H 4419   0.745   4.206  12.878  0.8340 -2.7278  2.9924
  293MPD2    H1 4420   1.154   4.179  12.754  0.5310 -0.5613 -2.8460
  293MPD2    H2 4421   0.846   4.015  12.511 -1.2182 -1.8976  0.6814
  293MPD2    H3 4422   1.074   4.058  12.546 -0.1391  0.5910  0.4012
  293MPD2     N 4423   0.994   4.268  12.950  0.3417  0.4211 -0.2967
  293MPD2    H5 4424   0.916   4.290  13.012  0.1251  0.1282 -0.4671
  293MPD2    N1 4425   0.656   4.095  12.651 -0.9707 -0.1208 -1.2744
  293MPD2    H7 4426   0.639   4.073  12.553  0.8470 -1.0583 -1.3905
  294TMC3    C1 4427   0.428   4.027  12.670 -0.3711  0.3136  0.0085
  294TMC3    C2 4428   0.362   3.908  12.703  0.2458 -0.3981 -0.2715
  294TMC3    C3 4429   0.235   3.902  12.660  0.3214 -0.3892 -0.4478
  294TMC3    C4 4430   0.391   4.119  12.575 -0.2056  0.1855 -0.3293
  294TMC3    C5 4431   0.272   4.093  12.522 -0.4190  0.4766 -0.7584
  294TMC3    C6 4432   0.190   3.991  12.568 -0.1583  0.3094  0.7112
  294TMC3     C 4433   0.552   4.063  12.742  0.4953  0.4311 -0.4491
  294TMC3     O 4434   0.555   4.033  12.855 -0.4275  0.7370  0.1688
  294TMC3     H 4435   0.403   3.831  12.768 -2.9393 -1.9372 -0.0519
  294TMC3    H1 4436   0.437   4.217  12.566 -0.1881  0.0220 -2.0344
  294TMC3    H2 4437   0.090   3.971  12.530  0.2008  1.4459 -0.8701
  294TMC3    C7 4438   0.219   4.181  12.421 -0.5887  0.0382  0.4852
  294TMC3    C8 4439   0.181   3.776  12.644  0.1714  0.5656 -0.4615
  294TMC3    O1 4440   0.101   4.173  12.408 -0.7981  0.0747  0.3988
  294TMC3    O2 4441   0.090   3.761  12.721 -0.3974 -0.0758 -0.1381
  295MPD2     C 4442   1.052   2.307   0.880  0.4339 -0.3110 -0.2678
  295MPD2    C1 4443   1.066   2.444   0.870  0.2412 -0.2408  0.1924
  295MPD2    C2 4444   0.964   2.532   0.886 -0.5523  0.1361 -0.2584
  295MPD2    C3 4445   0.838   2.483   0.908 -0.0446 -0.6104 -0.7028
  295MPD2    C4 4446   0.821   2.346   0.935 -0.0886  0.6095 -0.2696
  295MPD2    C5 4447   0.922   2.260   0.921 -0.1471  0.1885 -0.3218
  295MPD2     H 4448   0.977   2.640   0.882 -0.4942  0.1062 -0.8091
  295MPD2    H1 4449   0.724   2.306   0.962  0.8522 -1.9758 -0.7859
  295MPD2    H2 4450   1.135   2.237   0.869 -0.4622 -1.2719 -1.0188
  295MPD2    H3 4451   0.910   2.152   0.927 -1.6751  0.2594 -2.3144
  295MPD2     N 4452   0.719   2.558   0.925  0.0455 -0.2497 -0.1126
  295MPD2    H5 4453   0.647   2.512   0.979  1.8397 -2.3422  0.4705
  295MPD2    N1 4454   1.198   2.494   0.859 -0.0816  0.4450  0.0730
  295MPD2    H7 4455   1.273   2.426   0.850 -0.1000  0.2227  1.5262
  296TMC3    C1 4456   0.573   2.748   0.912 -0.3800  0.7909  0.3642
  296TMC3    C2 4457   0.554   2.886   0.897 -0.1972 -0.2205 -0.3940
  296TMC3    C3 4458   0.430   2.934   0.921 -0.3607 -0.2894 -0.4539
  296TMC3    C4 4459   0.476   2.667   0.957 -0.6941  0.0903 -0.0161
  296TMC3    C5 4460   0.357   2.728   0.995  1.5690  0.1773  0.2525
  296TMC3    C6 4461   0.328   2.861   0.977 -0.7981 -0.6725  0.2644
  296TMC3     C 4462   0.708   2.688   0.879 -0.1001  0.5910  0.2405
  296TMC3     O 4463   0.781   2.759   0.812 -0.1109 -0.3960  0.0509
  296TMC3     H 4464   0.637   2.941   0.856 -0.4209  0.8393  0.5837
  296TMC3    H1 4465   0.478   2.560   0.976  3.1554  0.4883  1.6701
  296TMC3    H2 4466   0.235   2.911   1.000 -0.8002 -1.3943  1.8168
  296TMC3    C7 4467   0.258   2.648   1.052  0.3722  0.2653  0.1421
  296TMC3    C8 4468   0.419   3.076   0.925  0.2756  0.0362  0.4714
  296TMC3    O1 4469   0.261   2.529   1.022  0.4112 -0.4068 -0.5102
  296TMC3    O2 4470   0.424   3.139   0.819 -0.6433 -0.8275  0.0958
  297MPD2     C 4471   3.204   0.194  16.691  0.2643  1.0468  0.4465
  297MPD2    C1 4472   3.200   0.286  16.586 -0.2999 -0.0480 -0.7884
  297MPD2    C2 4473   3.312   0.356  16.550 -0.0120 -0.8497  0.1796
  297MPD2    C3 4474   3.421   0.360  16.632 -0.0160  0.3757 -0.7565
  297MPD2    C4 4475   3.419   0.278  16.749  0.0833  0.0357  0.3839
  297MPD2    C5 4476   3.313   0.200  16.773  0.4822  0.0096 -0.2844
  297MPD2     H 4477   3.316   0.418  16.462 -0.1261 -0.9349  0.1141
  297MPD2    H1 4478   3.496   0.283  16.826  0.7766 -1.4043 -0.2110
  297MPD2    H2 4479   3.125   0.125  16.718  0.2427  1.6743  1.9961
  297MPD2    H3 4480   3.324   0.129  16.854  0.8625 -0.3786 -0.6792
  297MPD2     N 4481   3.525   0.456  16.611 -0.2967 -0.4772 -0.3551
  297MPD2    H5 4482   3.542   0.506  16.524  0.1597 -0.3276 -0.1786
  297MPD2    N1 4483   3.091   0.301  16.503  0.1003 -0.9467 -0.0376
  297MPD2    H7 4484   3.099   0.359  16.420 -0.6862  0.2910  0.7696
  298TMC3    C1 4485   2.860   0.340  16.463  0.7100  0.3974  0.2559
  298TMC3    C2 4486   2.888   0.350  16.333  0.0218 -0.6039 -0.1503
  298TMC3    C3 4487   2.817   0.434  16.254 -0.2705 -0.2274 -0.6892
  298TMC3    C4 4488   2.764   0.418  16.520 -0.3053  0.5230  0.2554
  298TMC3    C5 4489   2.692   0.497  16.431  0.2085  0.0216  0.4690
  298TMC3    C6 4490   2.726   0.516  16.300 -0.4517 -0.6904  0.3046
  298TMC3     C 4491   2.962   0.272  16.548  0.1870 -1.0638 -0.2221
  298TMC3     O 4492   2.914   0.242  16.661 -0.3292 -0.1654 -0.1240
  298TMC3     H 4493   2.957   0.274  16.296  1.1091  0.4306 -0.2527
  298TMC3    H1 4494   2.736   0.414  16.625 -0.0160  0.5096  0.3334
  298TMC3    H2 4495   2.686   0.588  16.230 -1.1100 -2.0220 -0.7010
  298TMC3    C7 4496   2.576   0.570  16.486 -0.3711  0.8421 -0.2334
  298TMC3    C8 4497   2.874   0.449  16.120  0.0298 -0.4870 -0.0352
  298TMC3    O1 4498   2.577   0.599  16.606 -1.0290  0.3664  0.2783
  298TMC3    O2 4499   2.990   0.409  16.112  0.4415 -0.1702 -0.3306
  299MPD2     C 4500   4.126   4.668  10.681 -0.4830  0.1360  0.1481
  299MPD2    C1 4501   4.204   0.051  10.632  0.5172  0.3473  0.4987
  299MPD2    C2 4502   4.174   0.105  10.506  0.6250  0.1998  0.6061
  299MPD2    C3 4503   4.057   0.063  10.443  0.3794  0.4858  0.4002
  299MPD2    C4 4504   3.972   4.690  10.501 -0.5927  0.9576  0.4990
  299MPD2    C5 4505   4.012   4.627  10.618 -0.3148 -0.1442 -0.2574
  299MPD2     H 4506   4.236   0.187  10.472  0.4919 -0.6161 -1.6057
  299MPD2    H1 4507   3.878   4.668  10.451  0.5265  0.5640 -1.3980
  299MPD2    H2 4508   4.164   4.613  10.766 -1.7358 -1.4714 -0.3309
  299MPD2    H3 4509   3.964   4.542  10.666 -1.7837  0.2422 -1.0285
  299MPD2     N 4510   4.018   0.117  10.324  0.0735  0.4551  0.7038
  299MPD2    H5 4511   3.934   0.081  10.281  0.5935  2.5034 -2.0214
  299MPD2    N1 4512   4.318   0.075  10.708 -0.3392  0.2500 -0.5916
  299MPD2    H7 4513   4.309   0.025  10.797  2.1635  1.2301  0.2039
  300TMC3    C1 4514   3.982   0.300  10.178 -0.0363  0.0342  0.3732
  300TMC3    C2 4515   3.952   0.412  10.245 -0.2969  0.3224 -0.1643
  300TMC3    C3 4516   3.821   0.420  10.287 -1.0894  0.4493 -0.0122
  300TMC3    C4 4517   3.888   0.225  10.124 -0.4076 -0.3794  0.9459
  300TMC3    C5 4518   3.757   0.228  10.170  0.1471  0.0755 -0.6496
  300TMC3    C6 4519   3.724   0.332  10.250  0.6523 -0.2021 -0.2694
  300TMC3     C 4520   4.076   0.228  10.262  0.3191 -0.5041 -0.6812
  300TMC3     O 4521   4.165   0.300  10.305 -0.8837 -0.3571 -0.3731
  300TMC3     H 4522   4.022   0.481  10.291  1.1113 -1.5205  0.4266
  300TMC3    H1 4523   3.927   0.143  10.065 -1.6686  0.0388 -0.4617
  300TMC3    H2 4524   3.626   0.344  10.294  0.9292 -0.2171  0.3597
  300TMC3    C7 4525   3.718   0.097  10.212  0.3272 -0.6716 -0.1415
  300TMC3    C8 4526   3.796   0.525  10.388  0.4017  0.5773  0.9301
  300TMC3    O1 4527   3.792   0.007  10.170 -0.7947 -0.3192  0.2166
  300TMC3    O2 4528   3.895   0.550  10.460  0.5608 -0.0131 -0.5355
  301MPD2     C 4529   1.086   1.196   1.509 -0.2141 -0.2144 -0.1636
  301MPD2    C1 4530   1.006   1.120   1.421 -0.2413 -0.3079 -0.5562
  301MPD2    C2 4531   1.073   1.037   1.333  0.4147  0.4635 -0.2071
  301MPD2    C3 4532   1.204   1.026   1.314  0.2395 -0.4945  0.1843
  301MPD2    C4 4533   1.283   1.095   1.400  0.7460  0.1274 -0.7410
  301MPD2    C5 4534   1.225   1.180   1.498 -0.0270  0.4957  0.2954
  301MPD2     H 4535   1.012   0.961   1.287 -1.8096  1.3948  1.2097
  301MPD2    H1 4536   1.390   1.087   1.394  0.9966  1.5883  1.7420
  301MPD2    H2 4537   1.041   1.273   1.571  0.1315 -1.2397  1.3518
  301MPD2    H3 4538   1.296   1.236   1.557  2.7197 -2.5052 -0.1431
  301MPD2     N 4539   1.248   0.924   1.235 -0.0837 -0.1444 -0.7270
  301MPD2    H5 4540   1.343   0.889   1.243  0.0097  0.4491  0.6345
  301MPD2    N1 4541   0.865   1.134   1.401  0.3914 -0.1444 -0.6552
  301MPD2    H7 4542   0.831   1.110   1.308  0.2723 -0.3438 -0.5597
  302TMC3    C1 4543   1.255   0.742   1.079  0.6129  0.1310 -0.0547
  302TMC3    C2 4544   1.376   0.706   1.133  0.5636 -0.0812 -0.0524
  302TMC3    C3 4545   1.426   0.580   1.099 -0.7545  0.1137 -0.5353
  302TMC3    C4 4546   1.184   0.662   0.993 -0.0443  0.1901  0.9348
  302TMC3    C5 4547   1.235   0.533   0.977  0.1175  0.5896 -0.4562
  302TMC3    C6 4548   1.354   0.495   1.024 -0.4133  0.5827  0.2528
  302TMC3     C 4549   1.184   0.866   1.133  0.0124 -0.3613 -0.1688
  302TMC3     O 4550   1.093   0.922   1.069  0.1301  0.3032  0.1706
  302TMC3     H 4551   1.429   0.762   1.208 -0.3642  1.2852 -0.4138
  302TMC3    H1 4552   1.084   0.699   0.975  0.1488 -0.2120 -0.9095
  302TMC3    H2 4553   1.390   0.395   1.002 -1.3780  0.0990  0.9408
  302TMC3    C7 4554   1.171   0.439   0.885  0.5946  0.2693 -0.3085
  302TMC3    C8 4555   1.526   0.515   1.180  0.6724  0.3932  0.1595
  302TMC3    O1 4556   1.193   0.320   0.900 -0.2135  0.4366 -0.2921
  302TMC3    O2 4557   1.513   0.398   1.213  0.0600  0.3914  0.1756
  303MPD2     C 4558   1.399   3.594  10.451  0.3729 -0.5365 -0.1534
  303MPD2    C1 4559   1.302   3.617  10.547  0.6410 -1.3096  0.0309
  303MPD2    C2 4560   1.218   3.727  10.537  0.0754 -0.0819  0.0606
  303MPD2    C3 4561   1.223   3.810  10.430  0.3096  0.7433  0.4384
  303MPD2    C4 4562   1.331   3.797  10.349  0.7797  0.0757 -0.7091
  303MPD2    C5 4563   1.421   3.692  10.356 -0.0581 -0.1208 -0.0140
  303MPD2     H 4564   1.153   3.735  10.623 -1.8118 -0.8450 -1.3007
  303MPD2    H1 4565   1.353   3.869  10.271 -0.8395 -0.2543 -1.4747
  303MPD2    H2 4566   1.456   3.502  10.453 -0.2809 -0.8462  4.9057
  303MPD2    H3 4567   1.498   3.683  10.281 -0.1033  1.6209 -0.2756
  303MPD2     N 4568   1.134   3.915  10.415 -0.6224  0.1993 -0.6318
  303MPD2    H5 4569   1.148   3.990  10.349 -0.4146  3.0626  2.7061
  303MPD2    N1 4570   1.298   3.517  10.649  0.4291  0.0400  0.0089
  303MPD2    H7 4571   1.348   3.429  10.639 -0.1687  0.0652 -3.2562
  304TMC3    C1 4572   1.239   3.414  10.842 -0.9632  0.7338 -0.2157
  304TMC3    C2 4573   1.214   3.431  10.973 -0.3194 -0.2490  0.3289
  304TMC3    C3 4574   1.144   3.338  11.041  0.8885 -0.0883  0.1228
  304TMC3    C4 4575   1.198   3.305  10.781 -0.3082  0.0327  0.0314
  304TMC3    C5 4576   1.140   3.204  10.855  0.1146  0.1208 -0.0028
  304TMC3    C6 4577   1.121   3.214  10.986 -0.0194 -0.3046 -0.3959
  304TMC3     C 4578   1.239   3.535  10.769  0.5303 -0.7100 -0.3703
  304TMC3     O 4579   1.207   3.638  10.826  0.1047 -0.2097  0.2609
  304TMC3     H 4580   1.217   3.530  11.017 -0.7273 -1.0060  2.0361
  304TMC3    H1 4581   1.214   3.286  10.676 -0.8105  0.7828 -0.1804
  304TMC3    H2 4582   1.083   3.130  11.042  2.4934 -1.3281 -0.2487
  304TMC3    C7 4583   1.022   3.133  10.799  0.4578  0.9187  0.2002
  304TMC3    C8 4584   1.027   3.391  11.118  0.1758 -0.1212 -0.4456
  304TMC3    O1 4585   0.918   3.123  10.865  0.3444  0.4265  0.3324
  304TMC3    O2 4586   1.040   3.484  11.197  0.5969  0.7428  0.7633
  305MPD2     C 4587   4.574   1.914  14.273 -0.1328 -0.8737 -0.3116
  305MPD2    C1 4588   4.486   1.807  14.278 -0.7098  0.4198  0.3980
  305MPD2    C2 4589   4.424   1.770  14.157  0.4656  0.0526 -0.2210
  305MPD2    C3 4590   4.454   1.841  14.039 -0.8416  0.3208  0.3975
  305MPD2    C4 4591   4.545   1.941  14.048 -0.0704  0.4149 -0.9226
  305MPD2    C5 4592   4.600   1.984  14.162 -0.1445  0.3137 -0.0695
  305MPD2     H 4593   4.356   1.686  14.150  2.0931 -1.3402  0.6876
  305MPD2    H1 4594   4.570   1.996  13.959  0.3996  0.3915 -0.8014
  305MPD2    H2 4595   4.629   1.948  14.360  1.3419 -2.1149 -0.7769
  305MPD2    H3 4596   4.657   2.076  14.155  0.4973 -0.1228 -0.6022
  305MPD2     N 4597   4.417   1.813  13.907  0.2919  0.7737  0.2930
  305MPD2    H5 4598   4.462   1.867  13.833 -0.6702 -0.5508 -1.2568
  305MPD2    N1 4599   4.461   1.749  14.402 -0.2216 -0.3409 -0.8016
  305MPD2    H7 4600   4.508   1.798  14.477 -0.1006 -0.5564 -0.7368
  306TMC3    C1 4601   4.357   1.640  14.575 -0.8515 -0.5849  0.3988
  306TMC3    C2 4602   4.357   1.521  14.640  0.2793  0.0717 -0.1575
  306TMC3    C3 4603   4.379   1.526  14.776  0.4173  0.4571  0.2244
  306TMC3    C4 4604   4.340   1.759  14.641  0.0821  0.0203 -0.0963
  306TMC3    C5 4605   4.339   1.754  14.775 -1.6156  0.0253  0.0258
  306TMC3    C6 4606   4.363   1.637  14.851 -0.8213  0.7967  0.2425
  306TMC3     C 4607   4.376   1.646  14.431 -0.1298  1.4018  0.1001
  306TMC3     O 4608   4.324   1.564  14.355 -0.0856  0.2508 -0.4554
  306TMC3     H 4609   4.364   1.428  14.584 -0.4116  0.4267 -0.8341
  306TMC3    H1 4610   4.314   1.850  14.590 -0.8450 -0.7543 -1.0167
  306TMC3    H2 4611   4.367   1.649  14.959 -1.7149 -0.8961  0.4568
  306TMC3    C7 4612   4.356   1.879  14.845 -0.5200  0.5424 -0.1003
  306TMC3    C8 4613   4.449   1.413  14.830 -0.3275 -0.1063  0.1193
  306TMC3    O1 4614   4.387   1.969  14.768  0.6643 -0.2591 -0.3482
  306TMC3    O2 4615   4.435   1.309  14.767  0.3440 -0.3801  0.4163
  307MPD2     C 4616   1.488   3.464   1.136 -0.0029  0.3066  0.2755
  307MPD2    C1 4617   1.458   3.540   1.023  0.0116 -0.5346 -0.1859
  307MPD2    C2 4618   1.329   3.577   1.014  0.2667  0.5380 -0.8464
  307MPD2    C3 4619   1.227   3.548   1.097  0.0324  0.0555  0.3573
  307MPD2    C4 4620   1.249   3.458   1.197 -0.0427 -0.5032  0.4142
  307MPD2    C5 4621   1.383   3.418   1.213  0.0558  0.4174  0.1342
  307MPD2     H 4622   1.295   3.645   0.937  1.4546 -0.6462 -2.4367
  307MPD2    H1 4623   1.174   3.411   1.260 -1.8243  0.3555 -1.0816
  307MPD2    H2 4624   1.584   3.426   1.169 -0.8574 -1.1180  1.1113
  307MPD2    H3 4625   1.415   3.338   1.278 -0.7870  1.2826  1.6224
  307MPD2     N 4626   1.108   3.610   1.073 -0.1913  0.1632  0.0146
  307MPD2    H5 4627   1.084   3.654   0.985  3.0072 -0.3876 -1.1351
  307MPD2    N1 4628   1.563   3.589   0.939  0.0426 -0.1951 -0.4693
  307MPD2    H7 4629   1.530   3.643   0.860  0.0279  1.1567  0.4565
  308TMC3    C1 4630   0.735   3.765   0.964  0.0557 -0.5305  0.4130
  308TMC3    C2 4631   0.743   3.896   1.009  1.1336 -0.3433  0.5618
  308TMC3    C3 4632   0.827   3.922   1.116 -0.7888 -1.1898  0.1120
  308TMC3    C4 4633   0.824   3.673   1.011 -0.9123  0.2668 -0.1342
  308TMC3    C5 4634   0.896   3.707   1.124 -0.1903  0.3616 -0.2702
  308TMC3    C6 4635   0.900   3.830   1.187  0.5597  0.2502 -0.6179
  308TMC3     C 4636   0.725   3.771   0.822  0.9100 -0.8574 -0.0420
  308TMC3     O 4637   0.813   3.839   0.772 -0.1001 -0.0907 -0.1978
  308TMC3     H 4638   0.687   3.976   0.961  1.8064  0.7497  1.6116
  308TMC3    H1 4639   0.842   3.579   0.960  1.3932  0.3594  0.5409
  308TMC3    H2 4640   0.948   3.852   1.281 -1.5511  1.5702  0.1401
  308TMC3    C7 4641   1.009   3.618   1.170  0.1296  0.0996 -0.4451
  308TMC3    C8 4642   0.890   4.054   1.134 -0.4203 -0.1921  0.3706
  308TMC3    O1 4643   1.017   3.593   1.287  0.4224  0.2775  0.3646
  308TMC3    O2 4644   0.955   4.082   1.232 -0.4113 -0.0229  0.3053
  309MPD2     C 4645   1.180   4.543  16.936 -0.1363  0.2993  0.0913
  309MPD2    C1 4646   1.119   4.608  16.830 -0.5266  0.0268 -0.3888
  309MPD2    C2 4647   0.995   4.662  16.846 -0.0662  0.2555 -0.1996
  309MPD2    C3 4648   0.919   4.643  16.961 -0.1529 -0.2266 -0.3916
  309MPD2    C4 4649   0.972   4.571  17.066 -0.6249  0.2218  0.2035
  309MPD2    C5 4650   1.107   4.542  17.052 -0.2733  0.2212 -0.1148
  309MPD2     H 4651   0.954   4.716  16.761  1.1395 -0.4004 -1.2018
  309MPD2    H1 4652   0.921   4.567  17.162  1.7772 -1.1413  1.4185
  309MPD2    H2 4653   1.284   4.512  16.929  0.1845  1.5004 -0.6699
  309MPD2    H3 4654   1.161   4.498  17.135 -1.2091  1.4207  1.1534
  309MPD2     N 4655   0.793   4.695  16.982 -0.3883 -0.5919  0.1896
  309MPD2    H5 4656   0.743   4.664  17.065  0.9853 -0.5286  1.0400
  309MPD2    N1 4657   1.180   4.633  16.708 -0.3772  0.8009 -0.3090
  309MPD2    H7 4658   1.131   4.706  16.657  0.2014  0.3302 -1.5383
  310TMC3    C1 4659   1.389   4.656  16.580 -0.0517 -0.9324  0.2899
  310TMC3    C2 4660   1.330   0.006  16.484 -0.3996  0.6064 -0.5208
  310TMC3    C3 4661   1.403   0.043  16.371 -0.3669  0.4010 -0.0051
  310TMC3    C4 4662   1.522   4.622  16.559 -0.7523 -0.5763 -0.6781
  310TMC3    C5 4663   1.589   4.655  16.448  0.3315 -0.4369  0.3081
  310TMC3    C6 4664   1.538   0.009  16.347 -0.2908  0.7015 -0.3385
  310TMC3     C 4665   1.308   4.583  16.685 -0.4270 -0.0714  0.7029
  310TMC3     O 4666   1.352   4.476  16.719 -0.4839  0.6896  0.0563
  310TMC3     H 4667   1.224   0.026  16.478 -0.3841  0.6053 -0.7735
  310TMC3    H1 4668   1.572   4.565  16.635 -3.0329  2.2193  2.9199
  310TMC3    H2 4669   1.585   0.030  16.252  1.4076  1.0185  0.5807
  310TMC3    C7 4670   1.719   4.593  16.423  0.1051 -0.6181 -0.1737
  310TMC3    C8 4671   1.332   0.118  16.268  0.0165 -0.7429  0.1647
  310TMC3    O1 4672   1.728   4.477  16.457 -0.2250  0.1920  0.7812
  310TMC3    O2 4673   1.221   0.157  16.306 -0.0008  0.4575  0.3524
  311MPD2     C 4674   3.526   1.193  12.492 -0.0368 -0.4871  0.1061
  311MPD2    C1 4675   3.543   1.247  12.617 -0.1726  0.6522 -0.4060
  311MPD2    C2 4676   3.433   1.289  12.689  0.8400 -0.7412  0.3506
  311MPD2    C3 4677   3.307   1.265  12.639  0.3356 -0.6396 -0.0177
  311MPD2    C4 4678   3.290   1.195  12.524  0.2867  0.0620 -0.6585
  311MPD2    C5 4679   3.400   1.163  12.452  0.2524  0.2359 -0.1507
  311MPD2     H 4680   3.448   1.350  12.777  0.1642 -0.4375  0.2538
  311MPD2    H1 4681   3.194   1.153  12.495  1.1094 -1.0930 -1.7191
  311MPD2    H2 4682   3.612   1.148  12.443  0.6841  2.5221 -1.3443
  311MPD2    H3 4683   3.388   1.093  12.370 -3.4017  0.4574  0.1726
  311MPD2     N 4684   3.195   1.304  12.718 -0.1826 -0.1808 -0.3164
  311MPD2    H5 4685   3.211   1.328  12.815 -0.5823 -0.9486 -0.0595
  311MPD2    N1 4686   3.675   1.262  12.675  0.1997  0.6528  0.0888
  311MPD2    H7 4687   3.674   1.301  12.768  0.7031  0.3356  0.2298
  312TMC3    C1 4688   2.963   1.350  12.768 -0.0343  0.8252 -0.1306
  312TMC3    C2 4689   2.833   1.308  12.765  0.1338 -0.2454  0.3445
  312TMC3    C3 4690   2.757   1.332  12.875  0.3286 -1.1010  0.8083
  312TMC3    C4 4691   3.012   1.411  12.881 -0.0348  0.0568  0.3135
  312TMC3    C5 4692   2.931   1.444  12.981  0.3123  0.0045  0.4331
  312TMC3    C6 4693   2.803   1.399  12.983  0.3992 -0.4977 -0.0006
  312TMC3     C 4694   3.061   1.293  12.681  0.6867 -0.5491  0.3402
  312TMC3     O 4695   3.012   1.250  12.574 -0.1200  0.2027  0.2519
  312TMC3     H 4696   2.787   1.267  12.676  0.0271  1.1607 -0.2597
  312TMC3    H1 4697   3.108   1.459  12.868 -0.5910  1.0875  0.0588
  312TMC3    H2 4698   2.743   1.405  13.073  0.1142  0.0078 -0.2248
  312TMC3    C7 4699   3.005   1.481  13.097 -0.0407  0.1495 -0.1548
  312TMC3    C8 4700   2.624   1.295  12.890  0.0640  0.1517 -0.0882
  312TMC3    O1 4701   3.108   1.542  13.080 -0.2645  0.4272  0.2577
  312TMC3    O2 4702   2.569   1.316  12.996 -0.5866 -0.4474 -0.8680
  313MPD2     C 4703   2.824   4.427  10.649 -0.0965 -0.3585  0.2908
  313MPD2    C1 4704   2.874   4.520  10.564  0.3687  0.3282 -0.0692
  313MPD2    C2 4705   2.982   4.498  10.481  0.3625 -0.3004  0.4648
  313MPD2    C3 4706   3.037   4.369  10.474  0.5193  0.1213 -0.1145
  313MPD2    C4 4707   2.981   4.270  10.545  0.0693  0.3675  0.3146
  313MPD2    C5 4708   2.874   4.295  10.633  0.2818  0.5604 -0.1854
  313MPD2     H 4709   3.038   4.577  10.433 -1.2780  0.0860 -0.8360
  313MPD2    H1 4710   3.012   4.166  10.543 -0.6841  0.1210  1.9568
  313MPD2    H2 4711   2.741   4.455  10.712  0.5182  0.8852  0.5513
  313MPD2    H3 4712   2.840   4.215  10.697  3.5550  0.7370  1.7771
  313MPD2     N 4713   3.141   4.350  10.382 -0.2503 -0.3830  0.6124
  313MPD2    H5 4714   3.185   4.428  10.333 -1.0706 -0.1856  0.1927
  313MPD2    N1 4715   2.845   4.660  10.575  0.4655 -0.1039  0.0874
  313MPD2    H7 4716   2.882   4.717  10.499 -0.2576  0.0682 -0.1312
  314TMC3    C1 4717   2.772   0.140  10.644  0.2315 -0.3865  0.0046
  314TMC3    C2 4718   2.856   0.213  10.728  0.4255 -0.5635 -0.0182
  314TMC3    C3 4719   2.942   0.303  10.674 -0.0388  0.1461 -0.3265
  314TMC3    C4 4720   2.782   0.160  10.506  0.6346  0.5956  0.1972
  314TMC3    C5 4721   2.876   0.246  10.454  0.0120 -0.3019  0.1015
  314TMC3    C6 4722   2.963   0.313  10.536 -0.2318 -0.4919  0.5484
  314TMC3     C 4723   2.780   0.004  10.676 -0.6856  0.2643 -0.4380
  314TMC3     O 4724   2.772   4.684  10.792 -0.1222 -0.2776 -0.6714
  314TMC3     H 4725   2.859   0.188  10.833 -0.1650 -0.5747 -0.0045
  314TMC3    H1 4726   2.718   0.099  10.443  0.6844  0.4686  0.2676
  314TMC3    H2 4727   3.043   0.375  10.499 -0.8558 -0.2518 -0.3890
  314TMC3    C7 4728   2.942   0.178  10.342 -0.1298  0.0806  0.5849
  314TMC3    C8 4729   2.999   0.413  10.748  0.3367 -0.2471 -0.3077
  314TMC3    O1 4730   2.913   0.059  10.329  0.2295  0.0098 -0.1717
  314TMC3    O2 4731   3.100   0.461  10.697 -0.2800 -0.1108  0.3252
  315MPD2     C 4732   1.941   4.480  17.304  0.3548 -0.3768  0.3220
  315MPD2    C1 4733   1.969   4.456  17.438  0.9308 -0.0157  0.4249
  315MPD2    C2 4734   2.009   4.570  17.502 -0.6709 -0.5279  0.2418
  315MPD2    C3 4735   2.046   4.686  17.444 -0.4396  0.4119 -0.3976
  315MPD2    C4 4736   2.017   4.705  17.318  0.7021 -0.1119 -0.7436
  315MPD2    C5 4737   1.956   4.602  17.247  0.8886  0.5268  0.3724
  315MPD2     H 4738   2.029   4.555  17.607  0.8617 -1.3899 -0.1619
  315MPD2    H1 4739   2.023   0.076  17.262 -3.0388  0.8109  0.3341
  315MPD2    H2 4740   1.914   4.398  17.239  0.3444  1.2377 -1.7139
  315MPD2    H3 4741   1.935   4.625  17.143 -0.0090 -0.1672  0.4031
  315MPD2     N 4742   2.114   0.060  17.517 -0.4389  0.0278 -0.1633
  315MPD2    H5 4743   2.153   0.029  17.606 -0.0607  0.1370 -0.2917
  315MPD2    N1 4744   1.966   4.337  17.501  0.0589 -0.2019  0.0339
  315MPD2    H7 4745   1.995   4.336  17.598  0.7539 -1.7258 -0.1781
  316TMC3    C1 4746   2.202   0.268  17.583  0.9648  0.0685  0.5633
  316TMC3    C2 4747   2.280   0.199  17.680 -1.0460 -0.7128 -0.3065
  316TMC3    C3 4748   2.346   0.270   0.082  0.5973 -0.7671 -0.0693
  316TMC3    C4 4749   2.200   0.407  17.580 -0.7389  1.1908  0.3375
  316TMC3    C5 4750   2.272   0.472  17.672  0.0320 -0.1143  0.2092
  316TMC3    C6 4751   2.337   0.404   0.083 -0.1746 -0.6100 -0.0900
  316TMC3     C 4752   2.123   0.193  17.484 -0.8600  0.0240  0.6895
  316TMC3     O 4753   2.067   0.256  17.398 -0.0264 -0.2156 -0.3660
  316TMC3     H 4754   2.290   0.091  17.679  1.4536 -0.4803  0.3165
  316TMC3    H1 4755   2.153   0.456  17.495  2.8541  3.1770 -0.4987
  316TMC3    H2 4756   2.390   0.454   0.164 -0.2515 -3.1171  1.5301
  316TMC3    C7 4757   2.290   0.614  17.675  0.0723 -0.7177 -0.0075
  316TMC3    C8 4758   2.462   0.211   0.148  0.1118 -0.3027  0.0864
  316TMC3    O1 4759   2.326   0.661   0.091  0.2418  0.1563  0.0055
  316TMC3    O2 4760   2.528   0.280   0.220 -0.1130 -0.0941 -0.1230
  317MPD2     C 4761   4.444   3.182  12.577 -0.3896  0.0750 -0.1442
  317MPD2    C1 4762   4.559   3.105  12.546  0.2423 -0.5956 -0.1758
  317MPD2    C2 4763   4.654   3.069  12.648  0.4849  0.3876  0.7053
  317MPD2    C3 4764   4.626   3.113  12.773 -0.1744  0.4898  0.8083
  317MPD2    C4 4765   4.520   3.197  12.797 -0.2439  0.0110 -0.3928
  317MPD2    C5 4766   4.424   3.230  12.705  0.1882  0.1575 -0.6979
  317MPD2     H 4767   0.016   3.005  12.623 -1.1347 -1.3581 -0.3036
  317MPD2    H1 4768   4.501   3.243  12.893  2.6146  1.1405 -0.3669
  317MPD2    H2 4769   4.377   3.204  12.494 -0.4445  1.5203  0.2898
  317MPD2    H3 4770   4.349   3.303  12.733 -1.3964 -1.9357  0.5362
  317MPD2     N 4771   4.714   3.070  12.877  0.4508  0.1779 -0.3396
  317MPD2    H5 4772   0.078   3.019  12.856 -0.0030 -0.9425  0.5267
  317MPD2    N1 4773   4.583   3.057  12.412  0.0917 -1.4155  0.3341
  317MPD2    H7 4774   4.664   2.995  12.415  1.0462 -0.1017  2.1516
  318TMC3    C1 4775   0.074   3.024  13.089 -0.7254 -0.1773 -0.2458
  318TMC3    C2 4776   0.043   2.919  13.176 -0.2007 -0.3499 -0.9557
  318TMC3    C3 4777   0.145   2.839  13.213  0.2717  0.1911  0.6260
  318TMC3    C4 4778   0.201   3.045  13.032  0.5699 -0.7556  0.4102
  318TMC3    C5 4779   0.302   2.969  13.090 -0.0162  0.2363 -0.1893
  318TMC3    C6 4780   0.274   2.864  13.173 -0.6372 -0.3188  0.1459
  318TMC3     C 4781   4.683   3.071  13.014  0.3462 -0.5939 -0.5789
  318TMC3     O 4782   4.578   3.093  13.069 -0.3186 -0.2183  0.1403
  318TMC3     H 4783   4.660   2.905  13.199  0.2703 -0.6773  0.9908
  318TMC3    H1 4784   0.213   3.138  12.979 -1.6078 -1.6838 -1.7249
  318TMC3    H2 4785   0.344   2.794  13.216  0.6091  1.2578  0.6867
  318TMC3    C7 4786   0.437   2.996  13.047 -0.3206 -0.2875 -0.3977
  318TMC3    C8 4787   0.115   2.700  13.228 -0.3747  0.0356 -0.1191
  318TMC3    O1 4788   0.444   3.090  12.969 -0.5527 -0.5134  0.0901
  318TMC3    O2 4789   0.210   2.626  13.203 -0.2921  0.0395  0.4245
  319MPD2     C 4790   0.711   4.218  16.508 -0.4076 -0.7120  0.8359
  319MPD2    C1 4791   0.631   4.206  16.616  0.4194 -0.1271 -0.3181
  319MPD2    C2 4792   0.489   4.206  16.596 -0.5543  0.3992 -0.0156
  319MPD2    C3 4793   0.432   4.214  16.477  0.1803 -0.2440  0.1867
  319MPD2    C4 4794   0.522   4.221  16.371 -0.0517  0.2239 -0.2635
  319MPD2    C5 4795   0.654   4.223  16.383 -0.0452 -0.1683  0.5823
  319MPD2     H 4796   0.425   4.197  16.684  0.6018  0.9295  0.8690
  319MPD2    H1 4797   0.478   4.221  16.272 -2.6314 -1.9120  0.8941
  319MPD2    H2 4798   0.819   4.211  16.518 -0.1331  2.4201 -0.1416
  319MPD2    H3 4799   0.724   4.228  16.301  0.6293 -2.4742  1.0187
  319MPD2     N 4800   0.289   4.214  16.450 -0.0220 -0.5037 -0.0862
  319MPD2    H5 4801   0.258   4.237  16.356  1.8826 -2.0336 -1.0871
  319MPD2    N1 4802   0.677   4.185  16.747 -0.1205  0.2094 -0.2302
  319MPD2    H7 4803   0.611   4.151  16.816  1.1487 -1.2150  0.2913
  320TMC3    C1 4804   0.056   4.144  16.495 -0.1819 -0.5120  0.0697
  320TMC3    C2 4805   0.000   4.238  16.416 -0.1918 -0.6736 -1.1439
  320TMC3    C3 4806   4.595   4.214  16.381 -0.0016  0.8472 -0.1990
  320TMC3    C4 4807   4.712   4.037  16.553  0.0634 -0.4767  0.5991
  320TMC3    C5 4808   4.591   4.020  16.501 -0.1208  0.7424  0.0454
  320TMC3    C6 4809   4.531   4.100  16.407 -0.3784 -0.1386 -0.1709
  320TMC3     C 4810   0.198   4.157  16.542  0.4177  0.6854 -0.0413
  320TMC3     O 4811   0.221   4.099  16.646 -0.1983  0.5222  0.6245
  320TMC3     H 4812   0.050   4.333  16.401  0.2531 -0.5126  1.3552
  320TMC3    H1 4813   0.039   3.965  16.618  0.5596 -0.7109 -0.0363
  320TMC3    H2 4814   4.429   4.087  16.371 -0.5713  0.8357  0.0111
  320TMC3    C7 4815   4.534   3.885  16.501  1.4910  0.6662 -0.9066
  320TMC3    C8 4816   4.522   4.330  16.334 -0.1967  0.2398  0.4130
  320TMC3    O1 4817   4.454   3.870  16.410  0.2598  0.5704  0.1162
  320TMC3    O2 4818   4.564   4.443  16.347 -0.0340  0.4071  0.0344
  321TMC3    C1 4819   0.827   4.166  16.926 -0.1046 -0.1497  0.1855
  321TMC3    C2 4820   0.725   4.098  16.996  0.2999 -0.4952 -0.2042
  321TMC3    C3 4821   0.723   4.107  17.129 -0.5625 -0.5053  0.4453
  321TMC3    C4 4822   0.932   4.219  16.998 -0.2274  1.0720  0.0701
  321TMC3    C5 4823   0.924   4.216  17.137  0.5319 -0.6176  0.0809
  321TMC3    C6 4824   0.812   4.180  17.205 -0.1972  0.4415 -0.3429
  321TMC3     C 4825   0.807   4.208  16.788  0.2446 -0.8316  0.1834
  321TMC3     O 4826   0.899   4.268  16.730  0.2439  0.3502 -0.2323
  321TMC3     H 4827   0.659   4.031  16.944  0.1654 -0.3393 -0.2341
  321TMC3    H1 4828   1.019   4.265  16.954  0.1212  0.4069  0.0629
  321TMC3    H2 4829   0.795   4.193  17.312  1.2054  2.6407 -0.4018
  321TMC3    C7 4830   1.048   4.204  17.223  0.0071  1.0742 -0.8696
  321TMC3    C8 4831   0.691   3.984  17.201 -0.2240 -0.3486 -0.6230
  321TMC3    O1 4832   1.145   4.280  17.198 -0.1710 -0.5022 -0.0400
  321TMC3    O2 4833   0.771   3.958  17.283  0.5072 -0.3261  0.6147
  322MPD2     C 4834   4.181   0.778  13.402 -0.2907  0.2033  0.0311
  322MPD2    C1 4835   4.245   0.774  13.524  0.1301  0.0853 -0.1563
  322MPD2    C2 4836   4.249   0.657  13.601  0.5296 -0.1704 -0.0383
  322MPD2    C3 4837   4.192   0.542  13.547 -0.1909 -0.3549 -0.1715
  322MPD2    C4 4838   4.136   0.547  13.416 -0.5686 -0.1006  0.4091
  322MPD2    C5 4839   4.135   0.658  13.345 -0.3307  0.0149  0.0051
  322MPD2     H 4840   4.290   0.657  13.701  2.0296  1.4259 -0.6398
  322MPD2    H1 4841   4.089   0.459  13.375  1.5835 -0.6870 -0.7879
  322MPD2    H2 4842   4.175   0.867  13.341  2.3291  0.7764  0.5702
  322MPD2    H3 4843   4.104   0.649  13.242  0.4670  1.2696 -0.3470
  322MPD2     N 4844   4.199   0.424  13.620 -0.3396 -0.3711 -0.2413
  322MPD2    H5 4845   4.251   0.432  13.707  2.0562 -0.6623 -1.6365
  322MPD2    N1 4846   4.298   0.888  13.586 -0.0395 -0.1022 -0.0780
  322MPD2    H7 4847   4.335   0.864  13.677 -0.7080 -1.6636 -0.2321
  323TMC3    C1 4848   4.360   1.110  13.633 -0.4699 -0.2438  0.2714
  323TMC3    C2 4849   4.481   1.152  13.607  0.1800  0.9539 -1.3848
  323TMC3    C3 4850   4.566   1.182  13.711  0.7994  0.4145  0.6509
  323TMC3    C4 4851   4.323   1.082  13.766  0.1695 -0.1762 -0.1787
  323TMC3    C5 4852   4.421   1.089  13.859 -0.2971 -1.1488  0.4851
  323TMC3    C6 4853   4.546   1.145  13.844  0.0030 -0.6673  0.0027
  323TMC3     C 4854   4.304   1.019  13.538 -0.0318 -0.3230 -0.4839
  323TMC3     O 4855   4.291   1.052  13.422 -0.0354  0.2494  0.3162
  323TMC3     H 4856   4.515   1.156  13.504 -0.9181 -1.4346 -1.8310
  323TMC3    H1 4857   4.228   1.033  13.782  0.3083 -0.4058 -0.0574
  323TMC3    H2 4858   4.612   1.185  13.920 -2.1814  4.7157 -0.9507
  323TMC3    C7 4859   4.391   1.020  13.973  0.1790  0.5095  0.3392
  323TMC3    C8 4860   4.703   1.215  13.683  0.8829 -0.0026 -0.0004
  323TMC3    O1 4861   4.331   0.915  13.963 -0.1030 -0.2631 -0.0454
  323TMC3    O2 4862   0.061   1.174  13.766  0.3949  0.6113 -0.3727
  324MPD2     C 4863   1.065   2.530  15.059 -0.3300 -0.2310  0.0158
  324MPD2    C1 4864   1.088   2.506  14.921  0.0113  0.3932  0.0451
  324MPD2    C2 4865   0.973   2.479  14.850  0.3091 -0.1690 -0.0059
  324MPD2    C3 4866   0.850   2.473  14.919 -0.1217 -0.1997  0.4560
  324MPD2    C4 4867   0.841   2.503  15.054 -0.7898 -0.0560  0.1654
  324MPD2    C5 4868   0.952   2.537  15.118  0.0991 -0.4506 -0.0306
  324MPD2     H 4869   0.974   2.472  14.741  1.2476 -0.6079  0.0351
  324MPD2    H1 4870   0.748   2.513  15.109  0.7662 -4.1431  3.4690
  324MPD2    H2 4871   1.147   2.556  15.125 -1.0632  1.2443  0.3661
  324MPD2    H3 4872   0.954   2.584  15.216  1.8343  0.2677 -0.4081
  324MPD2     N 4873   0.728   2.441  14.849  0.7087 -0.3575 -0.3021
  324MPD2    H5 4874   0.639   2.430  14.897  0.1507 -0.5829 -1.3941
  324MPD2    N1 4875   1.214   2.496  14.857 -0.1008  0.1226  0.0755
  324MPD2    H7 4876   1.223   2.475  14.758 -2.8752  0.2996 -0.2167
  325TMC3    C1 4877   0.591   2.336  14.671  0.1290 -1.0398 -0.4761
  325TMC3    C2 4878   0.597   2.235  14.580 -0.6591 -0.5365 -1.3253
  325TMC3    C3 4879   0.475   2.179  14.548  0.1030 -1.0495 -0.0435
  325TMC3    C4 4880   0.475   2.383  14.729  0.9044  0.0800  0.8409
  325TMC3    C5 4881   0.358   2.323  14.694 -0.4052  0.1971  0.1351
  325TMC3    C6 4882   0.357   2.221  14.604 -0.5835 -0.3809  0.0018
  325TMC3     C 4883   0.719   2.387  14.721  0.2420 -0.0126 -0.2590
  325TMC3     O 4884   0.805   2.368  14.632 -0.5840  0.3150 -0.1686
  325TMC3     H 4885   0.688   2.202  14.533  0.3678 -1.5106  1.3124
  325TMC3    H1 4886   0.474   2.461  14.805 -0.3446  1.4149 -0.5412
  325TMC3    H2 4887   0.265   2.183  14.562 -0.0172 -2.3502  0.5682
  325TMC3    C7 4888   0.232   2.386  14.735 -0.3083 -0.4704 -0.4556
  325TMC3    C8 4889   0.478   2.071  14.445  0.4173 -0.4075 -0.4306
  325TMC3    O1 4890   0.223   2.445  14.843  0.7874 -0.1218 -0.3179
  325TMC3    O2 4891   0.575   2.076  14.367  0.6177 -0.6052  0.2179
  326MPD2     C 4892   2.788   2.869  11.318 -1.0604  0.1529 -0.8086
  326MPD2    C1 4893   2.806   2.850  11.178 -0.1680  0.3701 -0.1707
  326MPD2    C2 4894   2.918   2.900  11.113 -0.0364  0.7949  0.9484
  326MPD2    C3 4895   3.001   2.991  11.179 -0.1959 -1.1192  0.0479
  326MPD2    C4 4896   2.984   3.013  11.312 -0.2736 -0.0066 -0.6227
  326MPD2    C5 4897   2.881   2.948  11.384  0.8204  0.2284  0.4813
  326MPD2     H 4898   2.926   2.893  11.005  1.2994 -4.1610  1.3950
  326MPD2    H1 4899   3.032   3.097  11.359 -0.0044 -0.3808 -0.2291
  326MPD2    H2 4900   2.705   2.830  11.377 -1.5714  2.0744 -0.2309
  326MPD2    H3 4901   2.868   2.967  11.490 -1.8888  2.7223 -0.2861
  326MPD2     N 4902   3.103   3.062  11.120 -0.0062  0.4004  0.1194
  326MPD2    H5 4903   3.142   3.136  11.179  0.6886  0.7829 -0.8084
  326MPD2    N1 4904   2.698   2.794  11.099 -0.0705 -0.1782 -0.3204
  326MPD2    H7 4905   2.724   2.782  11.002 -0.0655  1.9352 -0.5823
  327TMC3    C1 4906   2.496   2.696  11.044 -0.8505 -0.6098 -0.4541
  327TMC3    C2 4907   2.515   2.742  10.916 -0.2713  0.3599 -0.1680
  327TMC3    C3 4908   2.513   2.648  10.820 -0.3551 -0.5695 -0.1814
  327TMC3    C4 4909   2.470   2.565  11.075  0.7424 -0.0029 -0.3088
  327TMC3    C5 4910   2.466   2.471  10.974 -0.4626 -0.3267 -0.1318
  327TMC3    C6 4911   2.479   2.517  10.845 -0.0630 -0.3215 -0.1999
  327TMC3     C 4912   2.579   2.750  11.150 -0.0787 -0.4219 -0.1064
  327TMC3     O 4913   2.537   2.730  11.263 -0.0276  0.1939 -0.5246
  327TMC3     H 4914   2.538   2.847  10.904 -1.3094  0.9349  2.9127
  327TMC3    H1 4915   2.456   2.536  11.179 -3.1001 -1.1195 -1.1327
  327TMC3    H2 4916   2.482   2.442  10.767  1.3156 -1.3802  0.8731
  327TMC3    C7 4917   2.523   2.342  11.005  0.2854  0.1705 -0.0451
  327TMC3    C8 4918   2.558   2.698  10.687 -0.4468 -0.4044 -0.1978
  327TMC3    O1 4919   2.474   2.242  10.958 -0.4432 -0.6511 -0.3047
  327TMC3    O2 4920   2.617   2.802  10.690  0.5525  0.9513 -0.2126
  328MPD2     C 4921   4.517   2.849   0.123  0.1095 -0.0336  1.1167
  328MPD2    C1 4922   4.392   2.786   0.112  0.1006 -0.0142  0.2069
  328MPD2    C2 4923   4.312   2.809  17.687 -0.1203 -0.0634  0.2463
  328MPD2    C3 4924   4.362   2.879  17.582 -0.3778 -0.2560  0.5970
  328MPD2    C4 4925   4.494   2.921  17.577 -0.3180 -0.2471  0.6354
  328MPD2    C5 4926   4.570   2.907   0.005  0.7952  0.3124  0.7903
  328MPD2     H 4927   4.209   2.776  17.688  0.4170 -1.7508 -0.1119
  328MPD2    H1 4928   4.528   2.980  17.493  0.3574 -0.0464  1.0529
  328MPD2    H2 4929   4.577   2.838   0.212  2.4467  1.1519 -0.3210
  328MPD2    H3 4930   4.668   2.952   0.012  0.1434  1.7023  0.9638
  328MPD2     N 4931   4.282   2.922  17.472 -0.1964 -0.1287 -0.1198
  328MPD2    H5 4932   4.327   2.959  17.389  2.7319  0.4405  1.7076
  328MPD2    N1 4933   4.349   2.719   0.230  0.8503 -0.5122 -0.0463
  328MPD2    H7 4934   4.412   2.709   0.309  2.8881 -0.4009 -1.6756
  329TMC3    C1 4935   4.185   2.627   0.390  0.4106  0.1681 -0.1458
  329TMC3    C2 4936   4.238   2.704   0.489  0.3768  0.0562 -0.6267
  329TMC3    C3 4937   4.190   2.691   0.616 -0.4406  0.5172  0.3586
  329TMC3    C4 4938   4.087   2.532   0.410  0.2852 -0.7813 -0.2466
  329TMC3    C5 4939   4.048   2.523   0.547  0.3728  0.2461  1.0691
  329TMC3    C6 4940   4.099   2.596   0.652 -0.5738 -0.3074  0.6927
  329TMC3     C 4941   4.224   2.660   0.253 -0.6626 -0.0203 -0.4363
  329TMC3     O 4942   4.130   2.636   0.176  0.3964 -0.2644 -0.3695
  329TMC3     H 4943   4.292   2.793   0.460 -0.0445  0.8991  1.1992
  329TMC3    H1 4944   4.065   2.463   0.329 -1.2118 -0.2072 -0.3258
  329TMC3    H2 4945   4.061   2.583   0.753 -1.7941  2.5313  0.6157
  329TMC3    C7 4946   3.932   2.452   0.581 -0.3071 -0.6435 -0.2201
  329TMC3    C8 4947   4.222   2.792   0.709 -0.0719 -0.5689 -0.2991
  329TMC3    O1 4948   3.920   2.409   0.698  0.2211  0.0037 -0.3016
  329TMC3    O2 4949   4.333   2.844   0.693  0.7820 -0.1961 -0.1109
  330TMC3    C1 4950   3.510   2.029   9.616 -0.2197  0.8324  0.5721
  330TMC3    C2 4951   3.383   1.973   9.637 -0.1639 -1.6189 -0.7427
  330TMC3    C3 4952   3.386   1.836   9.657 -1.0466  0.1079 -0.3299
  330TMC3    C4 4953   3.630   1.965   9.598  0.2181  0.4107 -0.3504
  330TMC3    C5 4954   3.626   1.829   9.633 -0.1533 -0.3874 -0.2329
  330TMC3    C6 4955   3.506   1.765   9.658  0.2203  0.1964 -0.0811
  330TMC3     C 4956   3.513   2.168   9.581 -0.7372 -0.5058 -0.0529
  330TMC3     O 4957   3.620   2.220   9.587  0.1450 -0.0570  0.6088
  330TMC3     H 4958   3.302   2.034   9.675  0.1863 -1.5762 -0.0760
  330TMC3    H1 4959   3.720   2.023   9.581  0.2547  0.2287 -0.7710
  330TMC3    H2 4960   3.510   1.657   9.668 -1.5090  0.1040 -0.4086
  330TMC3    C7 4961   3.748   1.762   9.600  0.0701 -0.1451 -0.0931
  330TMC3    C8 4962   3.261   1.774   9.680  0.5122 -1.0082 -0.0069
  330TMC3    O1 4963   3.824   1.813   9.519  0.2452  0.4405  0.2276
  330TMC3    O2 4964   3.160   1.840   9.658 -0.4492 -0.0600  0.7537
  331MPD2     C 4965   0.586   1.211  12.394 -0.0227  0.2807 -0.3057
  331MPD2    C1 4966   0.692   1.220  12.303 -0.5087 -0.3856 -0.2061
  331MPD2    C2 4967   0.765   1.105  12.279  0.4756  0.5051 -0.5626
  331MPD2    C3 4968   0.741   0.987  12.337  0.8125  0.3149  0.3489
  331MPD2    C4 4969   0.648   0.985  12.440 -0.4522  0.2300 -0.2296
  331MPD2    C5 4970   0.570   1.093  12.465  0.2128 -0.5691 -0.0687
  331MPD2     H 4971   0.836   1.105  12.198 -0.7397 -0.6868 -1.6372
  331MPD2    H1 4972   0.621   0.894  12.493 -0.1880  0.2093 -0.1293
  331MPD2    H2 4973   0.535   1.299  12.430  1.3110  0.7197  0.5194
  331MPD2    H3 4974   0.487   1.091  12.534  0.2756  0.7978  0.0550
  331MPD2     N 4975   0.814   0.874  12.302 -0.0119  0.5276  0.2436
  331MPD2    H5 4976   0.881   0.889  12.227 -1.2315 -1.2739 -1.2025
  331MPD2    N1 4977   0.742   1.344  12.256 -0.8089 -0.0071  0.8616
  331MPD2    H7 4978   0.685   1.418  12.294 -0.4183  1.3339 -1.1568
  332TMC3    C1 4979   0.885   0.655  12.277 -0.5206  0.1517  0.2081
  332TMC3    C2 4980   0.896   0.682  12.143  0.5251 -0.3114  0.4562
  332TMC3    C3 4981   0.993   0.606  12.082  0.2079 -0.5180 -0.2494
  332TMC3    C4 4982   0.973   0.572  12.343 -0.3652 -0.1409  0.0561
  332TMC3    C5 4983   1.085   0.531  12.278  0.0199 -0.1264  0.2618
  332TMC3    C6 4984   1.094   0.529  12.144  0.0722 -0.3908 -0.1163
  332TMC3     C 4985   0.808   0.749  12.355  0.5487  0.1846 -0.2771
  332TMC3     O 4986   0.781   0.716  12.468  0.2117  0.3878 -0.8045
  332TMC3     H 4987   0.826   0.732  12.078  1.6460  0.6387 -0.0134
  332TMC3    H1 4988   0.983   0.565  12.451 -0.2619  0.9047  0.1185
  332TMC3    H2 4989   1.186   0.506  12.092  0.1094 -3.5568  1.2906
  332TMC3    C7 4990   1.193   0.465  12.355 -0.5668  0.3850 -0.3478
  332TMC3    C8 4991   1.024   0.651  11.943  0.8731 -0.1589 -0.2129
  332TMC3    O1 4992   1.163   0.404  12.457 -0.1545 -0.5068  0.2034
  332TMC3    O2 4993   1.002   0.768  11.920 -0.4883  0.2572  0.1006
  333MPD2     C 4994   1.400   1.267  11.045 -0.1444  0.3901 -0.7474
  333MPD2    C1 4995   1.369   1.184  10.942  0.0345 -0.6680 -0.2280
  333MPD2    C2 4996   1.290   1.073  10.969 -0.2500  0.7849 -0.2095
  333MPD2    C3 4997   1.259   1.044  11.096  0.1634 -0.0180 -0.1322
  333MPD2    C4 4998   1.287   1.128  11.201 -0.8621  0.1048 -0.4663
  333MPD2    C5 4999   1.358   1.240  11.180  0.4579  0.0735 -0.7409
  333MPD2     H 5000   1.258   1.001  10.894 -0.4033 -0.6803  1.2462
  333MPD2    H1 5001   1.273   1.099  11.305 -1.2501  1.3793 -0.1673
  333MPD2    H2 5002   1.466   1.348  11.017 -0.6733  1.7298  1.9315
  333MPD2    H3 5003   1.390   1.300  11.264  2.2239  1.6402 -2.5264
  333MPD2     N 5004   1.181   0.926  11.114  0.0488  0.0104 -0.0226
  333MPD2    H5 5005   1.193   0.857  11.040 -1.9293 -0.6210  0.2477
  333MPD2    N1 5006   1.431   1.214  10.814 -0.8739 -0.3084 -0.5382
  333MPD2    H7 5007   1.487   1.298  10.809 -0.5605 -0.5638 -1.3003
  334TMC3    C1 5008   1.461   1.198  10.575 -0.1452  0.1696 -0.2690
  334TMC3    C2 5009   1.533   1.126  10.480  0.3375  0.5336  0.0588
  334TMC3    C3 5010   1.610   1.199  10.391  0.4436  0.0114 -0.1511
  334TMC3    C4 5011   1.469   1.337  10.569 -0.2968 -0.3965 -0.6529
  334TMC3    C5 5012   1.534   1.399  10.470 -0.3203 -0.3252  0.1795
  334TMC3    C6 5013   1.615   1.340  10.383  0.2418 -0.6458  0.0091
  334TMC3     C 5014   1.421   1.128  10.701 -0.4308 -0.2644 -0.6514
  334TMC3     O 5015   1.395   1.012  10.691 -0.4264  0.0110 -0.1579
  334TMC3     H 5016   1.543   1.018  10.483 -0.2314  0.5056  1.2413
  334TMC3    H1 5017   1.413   1.399  10.639 -0.6998 -0.3714 -0.9959
  334TMC3    H2 5018   1.671   1.386  10.302 -1.8919  0.4226 -0.8438
  334TMC3    C7 5019   1.551   1.541  10.493  0.1804 -0.0212  0.0504
  334TMC3    C8 5020   1.695   1.120  10.304 -0.0317 -0.6839 -0.6454
  334TMC3    O1 5021   1.521   1.595  10.599  0.2559 -0.4668 -0.2016
  334TMC3    O2 5022   1.664   1.002  10.299 -0.0589  0.0030 -0.1403
  335TMC3    C1 5023   0.509   2.589   0.073  0.4951  0.1438  0.5698
  335TMC3    C2 5024   0.440   2.621  17.658 -0.3138  0.2793  0.3184
  335TMC3    C3 5025   0.502   2.697  17.561  0.2505  0.0503 -0.2904
  335TMC3    C4 5026   0.639   2.624   0.094 -0.4680 -0.2229 -0.1846
  335TMC3    C5 5027   0.704   2.690  17.681 -1.0570  0.1569  0.4386
  335TMC3    C6 5028   0.635   2.724  17.567  0.4829 -0.0445 -0.3214
  335TMC3     C 5029   0.431   2.524   0.177 -0.0904 -1.0024  0.2074
  335TMC3     O 5030   0.336   2.453   0.148  0.1464  0.3989  0.2582
  335TMC3     H 5031   0.338   2.587  17.648 -0.4728  0.9214 -0.3051
  335TMC3    H1 5032   0.692   2.591   0.183  0.0406  0.7779 -0.1207
  335TMC3    H2 5033   0.686   2.770  17.484 -0.1513  0.0151 -0.6808
  335TMC3    C7 5034   0.849   2.695  17.680  0.1451 -0.5244 -0.5290
  335TMC3    C8 5035   0.451   2.701  17.429 -0.0632  0.2380  0.0840
  335TMC3    O1 5036   0.892   2.693  17.566 -0.8801  0.9627 -0.3023
  335TMC3    O2 5037   0.495   2.795  17.364 -0.0823  0.4960 -0.3232
  336MPD2     C 5038   0.256   0.725  16.242 -0.5017 -0.0059  0.1877
  336MPD2    C1 5039   0.204   0.656  16.128  0.6756 -0.7876 -0.8131
  336MPD2    C2 5040   0.212   0.515  16.119  0.0427  0.2987  0.6233
  336MPD2    C3 5041   0.275   0.445  16.223 -0.1033  0.4761  0.0926
  336MPD2    C4 5042   0.320   0.515  16.328 -0.4628 -0.5534 -0.6516
  336MPD2    C5 5043   0.314   0.652  16.341 -0.6401 -0.1690 -0.4681
  336MPD2     H 5044   0.170   0.458  16.037  0.9657 -0.0741  0.4085
  336MPD2    H1 5045   0.381   0.466  16.404  0.0435  0.6066 -0.3011
  336MPD2    H2 5046   0.262   0.832  16.253 -1.0391 -0.0681  1.0683
  336MPD2    H3 5047   0.371   0.700  16.419  0.5436 -1.2379 -0.6703
  336MPD2     N 5048   0.298   0.302  16.231  0.0971  0.1107  0.6660
  336MPD2    H5 5049   0.334   0.259  16.315  3.0512 -1.3719 -1.3689
  336MPD2    N1 5050   0.144   0.733  16.023  0.6993 -0.2058 -0.3582
  336MPD2    H7 5051   0.099   0.682  15.948  0.3820 -0.4732  0.0142
  337TMC3    C1 5052   0.073   0.915  15.892 -0.6768  0.5871  0.2003
  337TMC3    C2 5053   4.681   0.854  15.859  0.3700 -0.0894 -0.1241
  337TMC3    C3 5054   4.603   0.916  15.765  0.1097 -0.4673 -0.5910
  337TMC3    C4 5055   0.096   1.043  15.855 -0.5621 -0.0256  0.0884
  337TMC3    C5 5056   0.015   1.104  15.760  0.8293  0.0974  0.9251
  337TMC3    C6 5057   4.626   1.038  15.709 -0.5545  0.4786  0.9222
  337TMC3     C 5058   0.156   0.870  16.006  0.4817  0.3874  0.5347
  337TMC3     O 5059   0.204   0.957  16.075 -0.3691 -0.0173  0.4339
  337TMC3     H 5060   4.658   0.752  15.889  0.9428 -0.1989 -0.0648
  337TMC3    H1 5061   0.192   1.083  15.885 -1.9664  3.1670  0.4112
  337TMC3    H2 5062   4.567   1.088  15.632  0.3498  0.1688  0.0239
  337TMC3    C7 5063   0.081   1.207  15.681 -0.3085 -0.4839  0.4108
  337TMC3    C8 5064   4.481   0.845  15.732  0.2256  0.1285  0.5964
  337TMC3    O1 5065   0.197   1.211  15.696 -1.1234  0.2840  0.0280
  337TMC3    O2 5066   4.436   0.763  15.812  0.0497  0.7714 -0.1726
  338MPD2     C 5067   0.755   4.552   0.766  0.8156  0.0706  0.2523
  338MPD2    C1 5068   0.681   4.597   0.659 -0.4173  0.6955  0.6293
  338MPD2    C2 5069   0.611   4.717   0.671  0.1600 -0.4866  0.5095
  338MPD2    C3 5070   0.619   0.066   0.786 -0.0023  0.1784 -0.4201
  338MPD2    C4 5071   0.687   0.005   0.889  0.2238 -0.0261  0.3046
  338MPD2    C5 5072   0.746   4.611   0.883  0.4712 -0.5739  0.4983
  338MPD2     H 5073   0.546   0.033   0.593  0.6847 -2.2512 -0.7812
  338MPD2    H1 5074   0.699   0.050   0.987  0.7151  1.3776 -0.3952
  338MPD2    H2 5075   0.824   4.469   0.765  0.3801 -0.2495 -2.8289
  338MPD2    H3 5076   0.783   4.563   0.973 -0.8268 -0.2285  1.2341
  338MPD2     N 5077   0.562   0.196   0.791 -0.7360  0.7132 -0.4810
  338MPD2    H5 5078   0.519   0.234   0.707  1.8156  3.3590 -0.5917
  338MPD2    N1 5079   0.674   4.529   0.532  0.4236 -0.6202  0.0519
  338MPD2    H7 5080   0.624   4.584   0.462 -0.7222 -1.7379  0.0028
  339TMC3    C1 5081   0.450   0.380   0.877 -0.4529  0.3649 -0.1822
  339TMC3    C2 5082   0.338   0.385   0.967 -0.5163  0.1797  1.0369
  339TMC3    C3 5083   0.224   0.447   0.923  0.3887  0.5484  0.0126
  339TMC3    C4 5084   0.436   0.431   0.746 -0.0869  0.1616 -0.1913
  339TMC3    C5 5085   0.316   0.492   0.711  0.3125 -0.2245 -0.0046
  339TMC3    C6 5086   0.211   0.495   0.797 -0.0288  0.4163  0.4216
  339TMC3     C 5087   0.535   0.270   0.907  0.8751 -0.5183 -0.2879
  339TMC3     O 5088   0.531   0.221   1.016 -0.7036 -0.2820  0.1082
  339TMC3     H 5089   0.339   0.350   1.070  3.1185 -0.4099  0.7868
  339TMC3    H1 5090   0.524   0.431   0.683 -0.0829  0.6360 -0.1886
  339TMC3    H2 5091   0.121   0.551   0.776 -0.1985 -0.1520 -0.3542
  339TMC3    C7 5092   0.282   0.465   0.567  0.4765  1.5843 -0.3264
  339TMC3    C8 5093   0.098   0.441   1.002  0.2213  0.7578  1.2255
  339TMC3    O1 5094   0.372   0.419   0.499  0.0839 -0.7859  0.0087
  339TMC3    O2 5095   0.016   0.525   0.976  0.2946 -0.1858  0.3512
  340MPD2     C 5096   1.010   2.324   9.236 -0.1233  0.2632 -0.4895
  340MPD2    C1 5097   1.072   2.217   9.275  0.3454  0.0272 -0.2750
  340MPD2    C2 5098   1.139   2.220   9.398  0.0872 -0.4546  0.2339
  340MPD2    C3 5099   1.144   2.336   9.474  0.3607 -0.1060 -0.2249
  340MPD2    C4 5100   1.070   2.444   9.432  0.3286 -0.2460  0.0439
  340MPD2    C5 5101   1.014   2.440   9.308  0.1543  0.1934 -0.6596
  340MPD2     H 5102   1.203   2.136   9.424 -0.3254 -0.4954  1.1192
  340MPD2    H1 5103   1.069   2.537   9.487 -1.8078 -0.1237 -0.1910
  340MPD2    H2 5104   0.966   2.334   9.137  0.0193  0.5311 -0.5258
  340MPD2    H3 5105   0.965   2.531   9.274  1.1767  1.0564  0.1558
  340MPD2     N 5106   1.223   2.350   9.586 -0.5584  0.2822 -0.0862
  340MPD2    H5 5107   1.221   2.440   9.635 -0.1187 -0.1224  0.6740
  340MPD2    N1 5108   1.065   2.104   9.190  0.5264  0.0206 -0.3194
  340MPD2    H7 5109   1.010   2.118   9.105 -1.1649  0.6854  0.8806
  341TMC3    C1 5110   1.087   1.896   9.094  0.0991  0.5313  0.6900
  341TMC3    C2 5111   1.046   1.772   9.128  0.2706 -0.2525 -0.4720
  341TMC3    C3 5112   1.089   1.663   9.049  0.6698  0.0705 -0.2570
  341TMC3    C4 5113   1.157   1.923   8.978 -0.1685  0.1922 -0.6262
  341TMC3    C5 5114   1.197   1.811   8.911  0.5765 -0.0303  0.3042
  341TMC3    C6 5115   1.177   1.679   8.945  1.0467 -0.3373  0.2895
  341TMC3     C 5116   1.113   1.975   9.204 -0.5554 -0.0985 -0.1534
  341TMC3     O 5117   1.179   1.932   9.295 -0.4341 -0.1111 -0.0877
  341TMC3     H 5118   0.997   1.752   9.222  1.6666 -4.0012 -0.5363
  341TMC3    H1 5119   1.184   2.027   8.964 -0.5250  0.6131  1.8663
  341TMC3    H2 5120   1.223   1.596   8.891  1.8308 -0.6951  1.5160
  341TMC3    C7 5121   1.301   1.840   8.817  0.8192 -0.0535 -0.7049
  341TMC3    C8 5122   1.055   1.539   9.102 -0.1215 -0.0822 -0.1816
  341TMC3    O1 5123   1.365   1.747   8.772  0.0443  0.1528 -0.5197
  341TMC3    O2 5124   0.977   1.541   9.194 -0.0690 -0.1612  0.3298
  342MPD2     C 5125   3.251   0.843   0.212  0.4003  0.3751 -0.0998
  342MPD2    C1 5126   3.325   0.868   0.103  0.3199  0.6530  0.4262
  342MPD2    C2 5127   3.310   0.997   0.048 -0.4200  0.1759  0.2109
  342MPD2    C3 5128   3.221   1.093   0.102  1.4339 -0.2506  0.7521
  342MPD2    C4 5129   3.154   1.066   0.218  0.0434  0.1254  0.3737
  342MPD2    C5 5130   3.179   0.943   0.271  0.0316 -0.0659 -0.1147
  342MPD2     H 5131   3.360   1.029  17.647 -1.1723  0.9800  0.0785
  342MPD2    H1 5132   3.100   1.144   0.270 -1.3866  0.9560 -2.3487
  342MPD2    H2 5133   3.266   0.750   0.265  0.5159 -0.0813 -0.9245
  342MPD2    H3 5134   3.145   0.925   0.372 -1.5820  0.7283 -0.5146
  342MPD2     N 5135   3.216   1.216   0.036  0.5768 -0.5263  0.3723
  342MPD2    H5 5136   3.273   1.226  17.643  0.4012 -1.3226  0.1562
  342MPD2    N1 5137   3.421   0.775   0.046  0.1466  0.0714 -0.3754
  342MPD2    H7 5138   3.475   0.810  17.658 -1.2131  0.3336 -1.1824
  343TMC3    C1 5139   3.518   0.557   0.020  0.4396  0.4324 -0.1152
  343TMC3    C2 5140   3.644   0.606   0.002  0.1617  1.1830  0.2111
  343TMC3    C3 5141   3.754   0.524  17.686 -0.5997  0.8786  0.2561
  343TMC3    C4 5142   3.501   0.423   0.044  0.7068 -0.5466  0.3910
  343TMC3    C5 5143   3.611   0.343   0.051 -0.1230 -0.5754  0.6925
  343TMC3    C6 5144   3.737   0.392   0.028  0.5751 -0.6800  0.2520
  343TMC3     C 5145   3.419   0.643   0.075  0.1910  0.1266  0.0002
  343TMC3     O 5146   3.323   0.589   0.121  0.2406 -0.0938 -0.5713
  343TMC3     H 5147   3.664   0.712  17.688  1.8348  0.7946 -1.4229
  343TMC3    H1 5148   3.402   0.388   0.070  0.1158  0.6819 -0.2246
  343TMC3    H2 5149   3.824   0.329   0.021  1.0964 -0.2463  2.7066
  343TMC3    C7 5150   3.593   0.195   0.063  0.1599  0.1586 -0.1486
  343TMC3    C8 5151   3.874   0.580  17.629  0.2507  0.1392  0.3405
  343TMC3    O1 5152   3.693   0.124   0.081  0.3577 -0.6968 -0.1845
  343TMC3    O2 5153   3.889   0.701  17.644 -0.3277  0.1434 -0.3994
  344MPD2     C 5154   0.290   0.546  10.888  0.1902  0.0954 -0.4176
  344MPD2    C1 5155   0.232   0.473  10.782 -0.0300 -0.5176  0.1073
  344MPD2    C2 5156   0.291   0.463  10.656 -0.1884 -0.6671  0.2750
  344MPD2    C3 5157   0.412   0.535  10.643  0.1391  0.1943  0.4694
  344MPD2    C4 5158   0.463   0.607  10.754  0.1621 -0.5593 -0.7491
  344MPD2    C5 5159   0.412   0.601  10.879  0.5966 -0.0454  0.6530
  344MPD2     H 5160   0.242   0.398  10.583  0.6136 -1.6120  0.5716
  344MPD2    H1 5161   0.549   0.671  10.744 -0.5353  0.6685  0.9670
  344MPD2    H2 5162   0.257   0.548  10.992 -1.1975 -3.8097 -0.7856
  344MPD2    H3 5163   0.459   0.656  10.960  0.5851 -0.5503  1.0035
  344MPD2     N 5164   0.465   0.563  10.520  0.0687 -0.2399  0.1160
  344MPD2    H5 5165   0.540   0.630  10.526  0.0665 -0.2326  0.0621
  344MPD2    N1 5166   0.112   0.393  10.807  0.4528  0.1177 -0.6664
  344MPD2    H7 5167   0.076   0.349  10.723 -1.3803 -0.1836  0.2688
  345TMC3    C1 5168   0.496   0.569  10.290 -0.0718 -0.4048  0.3404
  345TMC3    C2 5169   0.605   0.649  10.321  0.2401  0.0598 -0.1770
  345TMC3    C3 5170   0.653   0.730  10.222  0.0305 -0.3152 -0.4964
  345TMC3    C4 5171   0.427   0.572  10.171 -0.1772  0.5590  0.2775
  345TMC3    C5 5172   0.468   0.673  10.085  0.1019  0.1756  0.3601
  345TMC3    C6 5173   0.579   0.753  10.106 -0.1975  0.1355  0.2182
  345TMC3     C 5174   0.417   0.523  10.402  0.7158  0.2532 -0.3202
  345TMC3     O 5175   0.318   0.454  10.376 -0.2303  0.0496 -0.3315
  345TMC3     H 5176   0.657   0.643  10.416  0.2558 -4.3615 -0.4762
  345TMC3    H1 5177   0.350   0.497  10.155  0.6226 -0.5657  1.6820
  345TMC3    H2 5178   0.601   0.828  10.031 -2.4235  1.4940  0.9429
  345TMC3    C7 5179   0.378   0.709   9.982 -0.1296  0.8756  0.9334
  345TMC3    C8 5180   0.728   0.838  10.280  0.5529  0.3674  0.5863
  345TMC3    O1 5181   0.292   0.624   9.952 -0.1174  0.0771  0.1326
  345TMC3    O2 5182   0.714   0.853  10.397 -0.3652 -0.1211 -0.0238
  346MPD2     C 5183   4.593   2.157  13.557 -0.0846 -0.2305  0.4268
  346MPD2    C1 5184   4.667   2.185  13.668 -0.1645 -0.7948  0.2022
  346MPD2    C2 5185   4.594   2.198  13.790 -0.2273  0.2085 -1.1244
  346MPD2    C3 5186   4.456   2.176  13.795 -0.2302  0.1928  0.0070
  346MPD2    C4 5187   4.394   2.137  13.684  0.2161  0.6620 -0.3278
  346MPD2    C5 5188   4.455   2.139  13.564 -0.2396  0.3089 -0.3061
  346MPD2     H 5189   4.655   2.222  13.876  1.5360 -2.4473 -1.6337
  346MPD2    H1 5190   4.291   2.104  13.681  0.6799 -0.7553 -0.5475
  346MPD2    H2 5191   4.639   2.115  13.468 -1.3342  0.2950 -0.4678
  346MPD2    H3 5192   4.390   2.108  13.483  1.7921 -0.4030 -1.6571
  346MPD2     N 5193   4.384   2.192  13.915 -0.1990  0.2638  0.0264
  346MPD2    H5 5194   4.446   2.209  13.993 -1.0445  1.0515  0.5228
  346MPD2    N1 5195   0.087   2.205  13.674 -0.2384  0.3063  0.0354
  346MPD2    H7 5196   0.136   2.218  13.761  0.2155 -0.1231 -0.1548
  347TMC3    C1 5197   4.222   2.182  14.083 -0.3533  0.1363  0.0395
  347TMC3    C2 5198   4.309   2.249  14.159  0.5079  0.4706 -0.2073
  347TMC3    C3 5199   4.312   2.226  14.292  0.0228 -0.1632  0.1488
  347TMC3    C4 5200   4.138   2.086  14.128 -0.2135  0.2005  0.7634
  347TMC3    C5 5201   4.142   2.062  14.264  0.2535  0.2897 -0.7563
  347TMC3    C6 5202   4.230   2.128  14.352 -0.2828 -0.0590 -0.9162
  347TMC3     C 5203   4.251   2.173  13.941  0.1828  0.2703  0.2804
  347TMC3     O 5204   4.166   2.126  13.866  0.1925 -0.2711 -0.3791
  347TMC3     H 5205   4.372   2.329  14.121  0.2874 -0.8246 -3.2700
  347TMC3    H1 5206   4.084   2.026  14.056 -1.1300  1.8434  0.0841
  347TMC3    H2 5207   4.275   2.083  14.439 -1.9128 -2.4653 -1.3174
  347TMC3    C7 5208   4.101   1.930  14.297 -0.4489 -0.0745  0.5248
  347TMC3    C8 5209   4.426   2.278  14.367 -0.3331 -0.1370 -0.4381
  347TMC3    O1 5210   4.077   1.845  14.211  0.3094 -0.0706 -0.4796
  347TMC3    O2 5211   4.520   2.317  14.299 -0.6244 -0.9840  0.1854
  348MPD2     C 5212   3.622   1.485  11.897 -0.6505 -0.2522  0.2086
  348MPD2    C1 5213   3.675   1.389  11.817 -0.4541  0.2242  0.5182
  348MPD2    C2 5214   3.696   1.415  11.686 -0.1197 -0.8199 -0.0698
  348MPD2    C3 5215   3.654   1.537  11.631  0.3186 -0.1522 -0.1401
  348MPD2    C4 5216   3.582   1.628  11.706  0.1684  0.5942 -0.0747
  348MPD2    C5 5217   3.579   1.607  11.843  1.5285 -0.5330 -0.7075
  348MPD2     H 5218   3.743   1.341  11.623 -0.0822  1.3229 -2.5727
  348MPD2    H1 5219   3.538   1.719  11.668 -2.2895 -0.1276  1.0509
  348MPD2    H2 5220   3.605   1.465  12.002  0.5239  0.1843  0.4867
  348MPD2    H3 5221   3.530   1.678  11.908 -0.0063 -1.0112 -1.3374
  348MPD2     N 5222   3.695   1.558  11.496 -0.2300  0.7842 -0.0029
  348MPD2    H5 5223   3.765   1.496  11.456 -1.1233  0.0351 -0.4072
  348MPD2    N1 5224   3.726   1.259  11.863  0.5308 -0.0960  0.7742
  348MPD2    H7 5225   3.791   1.212  11.801  1.9909 -0.3976  2.5382
  349TMC3    C1 5226   3.730   1.078  12.006 -0.5696  0.1392 -0.9745
  349TMC3    C2 5227   3.706   1.035  12.136 -0.6217  0.3482 -0.3567
  349TMC3    C3 5228   3.638   0.919  12.155 -0.1977  0.5303 -0.6631
  349TMC3    C4 5229   3.679   1.003  11.899  0.1972 -0.1753 -0.7872
  349TMC3    C5 5230   3.605   0.890  11.916  0.6340 -0.3316 -0.2571
  349TMC3    C6 5231   3.579   0.852  12.051  0.3762 -0.2896  0.5808
  349TMC3     C 5232   3.720   1.223  11.993  0.2880 -0.1525 -0.1495
  349TMC3     O 5233   3.691   1.285  12.093  0.2663  0.2174  0.1154
  349TMC3     H 5234   3.728   1.096  12.223 -3.2784  0.5544  0.1771
  349TMC3    H1 5235   3.705   1.037  11.800  1.7730  1.7456  0.3003
  349TMC3    H2 5236   3.527   0.760  12.077  2.2554 -2.3516 -2.9163
  349TMC3    C7 5237   3.508   0.847  11.816  0.4180  0.4680 -0.1894
  349TMC3    C8 5238   3.603   0.894  12.293 -0.2447  0.6774  0.0456
  349TMC3    O1 5239   3.405   0.806  11.864  0.1216 -0.4835  0.5181
  349TMC3    O2 5240   3.699   0.915  12.369 -0.2700 -0.7846 -0.8395
  350MPD2     C 5241   2.839   4.093   9.651  0.2347 -0.1150 -0.0696
  350MPD2    C1 5242   2.936   3.999   9.665 -0.4652  0.7649  0.1769
  350MPD2    C2 5243   3.051   4.028   9.739 -0.3204  0.3253 -0.1765
  350MPD2    C3 5244   3.075   4.152   9.794  0.3337 -0.4911  0.0278
  350MPD2    C4 5245   2.977   4.251   9.774  0.4684  0.3045  0.1494
  350MPD2    C5 5246   2.860   4.215   9.706  0.4996 -0.0730 -0.2408
  350MPD2     H 5247   3.124   3.948   9.741  0.3785  0.9648 -0.2448
  350MPD2    H1 5248   2.979   4.347   9.824  1.2826  0.6304 -0.5071
  350MPD2    H2 5249   2.746   4.084   9.595 -0.0593 -1.9021  0.7148
  350MPD2    H3 5250   2.774   4.281   9.699 -0.1357 -0.8621  0.1393
  350MPD2     N 5251   3.201   4.178   9.855  1.1991  0.3948 -0.1799
  350MPD2    H5 5252   3.254   4.097   9.886  1.7223  1.6651  2.2422
  350MPD2    N1 5253   2.904   3.870   9.626 -1.1843  0.0003 -0.0020
  350MPD2    H7 5254   2.966   3.793   9.649 -0.3130  0.6396 -0.2516
  351TMC3    C1 5255   2.785   3.685   9.541  0.4284 -0.0552  0.0077
  351TMC3    C2 5256   2.901   3.637   9.499  0.0546 -0.2773  0.1224
  351TMC3    C3 5257   2.915   3.504   9.512  0.1084  0.1123 -0.1295
  351TMC3    C4 5258   2.676   3.613   9.589 -0.0900  0.6575  0.2740
  351TMC3    C5 5259   2.703   3.483   9.610  0.4594 -0.0285 -0.5223
  351TMC3    C6 5260   2.818   3.428   9.561  0.2031 -0.2784 -0.6720
  351TMC3     C 5261   2.782   3.823   9.577  0.0179 -0.5525 -0.3145
  351TMC3     O 5262   2.664   3.867   9.575 -0.1487 -0.2708 -0.2519
  351TMC3     H 5263   2.989   3.695   9.474  0.6251 -1.8677 -1.6543
  351TMC3    H1 5264   2.598   3.658   9.650  1.2934  0.4704  2.2100
  351TMC3    H2 5265   2.817   3.320   9.567 -2.7216 -0.1133  1.6627
  351TMC3    C7 5266   2.616   3.418   9.708 -0.3397 -0.5979  0.4026
  351TMC3    C8 5267   3.047   3.454   9.491 -0.4656 -0.3081 -0.4171
  351TMC3    O1 5268   2.506   3.472   9.722 -0.2823  0.5075  0.4711
  351TMC3    O2 5269   3.141   3.534   9.486 -0.1374 -0.3063  0.1243
  352MPD2     C 5270   0.241   1.947   1.532  0.3802 -0.7845 -0.5195
  352MPD2    C1 5271   0.280   1.913   1.400 -0.1224  0.0781 -0.1832
  352MPD2    C2 5272   0.335   1.784   1.374 -0.6717 -0.5408 -0.0449
  352MPD2    C3 5273   0.353   1.688   1.478  0.6849 -0.2316  0.3933
  352MPD2    C4 5274   0.334   1.737   1.606 -0.8049 -0.2129 -0.1416
  352MPD2    C5 5275   0.271   1.862   1.630  0.0144 -0.1507 -0.2704
  352MPD2     H 5276   0.365   1.755   1.274  1.3111  1.7991 -0.1054
  352MPD2    H1 5277   0.357   1.676   1.693 -1.3499 -0.6498 -0.3050
  352MPD2    H2 5278   0.204   2.045   1.560 -0.1023 -1.4680  1.2222
  352MPD2    H3 5279   0.254   1.897   1.731  0.0918 -0.3458 -0.1902
  352MPD2     N 5280   0.396   1.556   1.457  0.5540  0.6330  0.3521
  352MPD2    H5 5281   0.416   1.506   1.543 -1.3068  0.6354  0.7891
  352MPD2    N1 5282   0.262   2.004   1.296 -0.1658 -0.1476  0.2813
  352MPD2    H7 5283   0.306   1.975   1.210  0.7586 -0.1720  0.7580
  353TMC3    C1 5284   0.463   1.356   1.355 -0.2439  0.1140 -0.2009
  353TMC3    C2 5285   0.586   1.351   1.412 -0.0074 -0.2303 -0.0122
  353TMC3    C3 5286   0.655   1.236   1.397 -0.2223  0.2270  0.3289
  353TMC3    C4 5287   0.424   1.267   1.259 -0.0463  0.8527  0.0481
  353TMC3    C5 5288   0.501   1.156   1.235  0.0625  1.3866  0.0824
  353TMC3    C6 5289   0.618   1.137   1.303 -0.3670  0.2355  0.3178
  353TMC3     C 5290   0.417   1.492   1.339  0.3186 -0.3450  0.5886
  353TMC3     O 5291   0.398   1.536   1.226 -0.0401  0.1304 -0.5876
  353TMC3     H 5292   0.629   1.422   1.482 -0.4499 -0.1377  0.1627
  353TMC3    H1 5293   0.329   1.279   1.208 -0.6311  0.1654  0.9748
  353TMC3    H2 5294   0.672   1.044   1.292 -0.4355  0.4165 -1.4536
  353TMC3    C7 5295   0.478   1.081   1.116 -0.4593  0.4199 -0.3073
  353TMC3    C8 5296   0.785   1.224   1.468  0.0246  0.4399 -0.8958
  353TMC3    O1 5297   0.575   1.041   1.054 -0.5270 -0.5435 -0.2339
  353TMC3    O2 5298   0.801   1.298   1.565 -0.7466 -0.0590 -0.0823
  354TMC3    C1 5299   2.692   2.901  13.884  0.0108 -0.1866  0.0301
  354TMC3    C2 5300   2.741   3.026  13.845 -0.1067 -0.5851  0.5503
  354TMC3    C3 5301   2.789   3.041  13.720  0.4105  0.7480  0.6342
  354TMC3    C4 5302   2.695   2.798  13.785  0.0217 -0.7119  0.3960
  354TMC3    C5 5303   2.739   2.820  13.661  0.2184  0.2193  0.3313
  354TMC3    C6 5304   2.785   2.942  13.631  0.3590  0.7090 -0.2525
  354TMC3     C 5305   2.579   2.893  13.976 -0.0520 -0.5684 -0.2226
  354TMC3     O 5306   2.538   2.784  14.002  0.1512  0.5080  0.3894
  354TMC3     H 5307   2.739   3.097  13.927 -2.0643 -1.5273  1.3122
  354TMC3    H1 5308   2.621   2.718  13.793 -1.0438  0.2359 -0.0687
  354TMC3    H2 5309   2.851   2.960  13.547  0.6538  1.5542  0.1568
  354TMC3    C7 5310   2.735   2.706  13.570 -0.3218 -0.5628 -0.2485
  354TMC3    C8 5311   2.831   3.178  13.694  0.3100 -0.3550  0.9239
  354TMC3    O1 5312   2.715   2.600  13.622  0.1146 -0.4637  0.2854
  354TMC3    O2 5313   2.851   3.242  13.795  0.7613  0.3566 -0.1841
  355MPD2     C 5314   2.772   3.639  11.817  0.2025 -0.0201  0.0256
  355MPD2    C1 5315   2.803   3.723  11.718 -0.0804 -0.9286 -0.2678
  355MPD2    C2 5316   2.930   3.778  11.713  0.1794 -0.9579 -0.4563
  355MPD2    C3 5317   3.012   3.779  11.824 -0.4676  0.7400  0.7966
  355MPD2    C4 5318   2.967   3.714  11.945  0.0806  0.2548 -0.3486
  355MPD2    C5 5319   2.848   3.641  11.934  0.0386 -0.0636 -0.3565
  355MPD2     H 5320   2.958   3.830  11.623  1.2070 -0.5454  0.1003
  355MPD2    H1 5321   3.016   3.716  12.042 -1.9014  1.7482  0.6342
  355MPD2    H2 5322   2.685   3.574  11.811 -0.5615  0.8276  1.9255
  355MPD2    H3 5323   2.826   3.579  12.020  1.0909  0.4666  0.2905
  355MPD2     N 5324   3.137   3.847  11.846 -0.0091  0.1835 -0.2743
  355MPD2    H5 5325   3.189   3.837  11.932 -2.2377  0.7028  1.1069
  355MPD2    N1 5326   2.710   3.738  11.614  0.2862 -0.1387 -0.0685
  355MPD2    H7 5327   2.625   3.683  11.617 -2.0647  3.4371 -1.0619
  356TMC3    C1 5328   3.273   4.028  11.800  0.6795 -0.4392 -0.2491
  356TMC3    C2 5329   3.296   4.124  11.709 -0.6565  0.0273  0.1572
  356TMC3    C3 5330   3.316   4.250  11.754  0.1037  0.3402 -0.1485
  356TMC3    C4 5331   3.263   4.055  11.936 -0.0799 -0.1161  0.1940
  356TMC3    C5 5332   3.285   4.186  11.976 -0.3918 -1.2012  0.0795
  356TMC3    C6 5333   3.316   4.287  11.884 -0.3616  0.4113  0.2684
  356TMC3     C 5334   3.197   3.915  11.743  0.3686  0.1863  0.5732
  356TMC3     O 5335   3.175   3.915  11.624 -0.0671  0.2504 -0.3510
  356TMC3     H 5336   3.299   4.096  11.604  0.6057  1.0340 -0.0719
  356TMC3    H1 5337   3.237   3.980  12.009 -1.3580 -0.0986 -0.2490
  356TMC3    H2 5338   3.322   4.391  11.915 -1.1653  0.9038 -1.2242
  356TMC3    C7 5339   3.289   4.208  12.121 -0.0405  0.5080  0.0735
  356TMC3    C8 5340   3.352   4.352  11.656  1.0036 -0.0941  0.1747
  356TMC3    O1 5341   3.237   4.121  12.190  0.2722 -0.4459  0.3227
  356TMC3    O2 5342   3.315   4.331  11.540  0.4307 -0.1622  0.1518
  357MPD2     C 5343   1.391   3.231   0.809 -0.3367 -0.4717 -0.0490
  357MPD2    C1 5344   1.473   3.175   0.906  0.3034 -0.6457  0.1166
  357MPD2    C2 5345   1.421   3.074   0.987 -0.1176  0.2103  0.7006
  357MPD2    C3 5346   1.285   3.035   0.974 -0.9354 -0.2197 -0.0152
  357MPD2    C4 5347   1.205   3.097   0.887  0.0759  0.6022  0.0787
  357MPD2    C5 5348   1.259   3.189   0.801  0.1822 -0.2379  0.8674
  357MPD2     H 5349   1.474   3.030   1.070 -1.3178  0.5575  1.6517
  357MPD2    H1 5350   1.104   3.066   0.864  0.0333 -1.0178  2.4810
  357MPD2    H2 5351   1.423   3.319   0.753  2.7666 -1.9296 -0.5416
  357MPD2    H3 5352   1.201   3.219   0.715 -0.2412 -2.0171  0.5224
  357MPD2     N 5353   1.222   2.940   1.050 -0.4306 -0.1149  0.4129
  357MPD2    H5 5354   1.122   2.931   1.035 -0.5117 -0.9894  1.3952
  357MPD2    N1 5355   1.608   3.215   0.907  0.0386  0.0226 -0.4134
  357MPD2    H7 5356   1.625   3.284   0.834 -0.3851  0.1103 -0.4312
  358TMC3    C1 5357   1.837   3.237   0.968 -0.1880  0.6665 -0.3075
  358TMC3    C2 5358   1.876   3.249   0.836 -0.0386  0.0080  0.7696
  358TMC3    C3 5359   2.005   3.293   0.821 -0.0187 -0.5581 -0.0338
  358TMC3    C4 5360   1.919   3.254   1.079 -0.4877  0.4853 -0.9722
  358TMC3    C5 5361   2.047   3.288   1.054 -0.4024 -0.4163  0.4024
  358TMC3    C6 5362   2.084   3.323   0.929  0.0142 -0.0102  0.4155
  358TMC3     C 5363   1.707   3.172   0.993 -0.3725 -0.0683  0.2969
  358TMC3     O 5364   1.702   3.114   1.100 -0.5356 -0.0270 -0.4517
  358TMC3     H 5365   1.813   3.229   0.749  1.4527 -0.2017 -0.2638
  358TMC3    H1 5366   1.881   3.237   1.179  0.2396  0.5336 -0.6930
  358TMC3    H2 5367   2.191   3.335   0.915  0.1085 -1.2160  0.0841
  358TMC3    C7 5368   2.156   3.230   1.132  0.8258  0.4390  0.0348
  358TMC3    C8 5369   2.061   3.266   0.696  0.7140  0.3437  0.1042
  358TMC3    O1 5370   2.265   3.205   1.074  0.1961  0.2268 -0.3095
  358TMC3    O2 5371   2.018   3.181   0.620  0.1325 -0.5840 -0.1907
  359MPD2     C 5372   3.408   2.131  12.334 -0.0617 -0.6758  0.2028
  359MPD2    C1 5373   3.317   2.224  12.280  0.1667 -0.6283  0.7035
  359MPD2    C2 5374   3.197   2.180  12.242 -0.8194 -0.3502 -0.4705
  359MPD2    C3 5375   3.160   2.042  12.243  0.3569 -0.2342  0.2381
  359MPD2    C4 5376   3.253   1.951  12.291 -0.3455 -0.2654  0.3004
  359MPD2    C5 5377   3.371   1.999  12.347  0.0549 -0.7809 -0.3736
  359MPD2     H 5378   3.124   2.246  12.196  0.5784  0.6808 -1.2100
  359MPD2    H1 5379   3.223   1.848  12.306  0.1551 -0.5113 -0.3801
  359MPD2    H2 5380   3.508   2.154  12.369 -0.3290  1.3756 -0.4066
  359MPD2    H3 5381   3.432   1.926  12.399  0.9829 -2.3536 -3.6395
  359MPD2     N 5382   3.039   1.993  12.198 -0.4856  0.3449  0.5468
  359MPD2    H5 5383   3.035   1.893  12.184 -0.1452  0.5342 -0.9337
  359MPD2    N1 5384   3.341   2.363  12.265  0.8268 -0.2135  0.3531
  359MPD2    H7 5385   3.274   2.423  12.219  1.1485 -0.2238 -0.1364
  360TMC3    C1 5386   3.451   2.573  12.244 -0.2980 -0.1494  0.3889
  360TMC3    C2 5387   3.556   2.610  12.168 -0.3208 -0.3632  0.6813
  360TMC3    C3 5388   3.545   2.736  12.123  0.3532  0.9788  0.0169
  360TMC3    C4 5389   3.341   2.641  12.280  0.4914  0.0502  0.3791
  360TMC3    C5 5390   3.332   2.770  12.229 -0.7883 -0.3548  0.0496
  360TMC3    C6 5391   3.437   2.816  12.150  0.8207  0.3908  0.1592
  360TMC3     C 5392   3.462   2.429  12.285  0.3571 -0.0290  0.8154
  360TMC3     O 5393   3.573   2.375  12.291  0.2062  0.4664  0.1086
  360TMC3     H 5394   3.651   2.558  12.160  0.4676  1.2208 -0.2305
  360TMC3    H1 5395   3.274   2.604  12.356  1.2884  1.9824  2.0070
  360TMC3    H2 5396   3.449   2.920  12.123  3.9614  0.0275  0.1007
  360TMC3    C7 5397   3.259   2.872  12.297 -0.7846  0.1115  0.0607
  360TMC3    C8 5398   3.658   2.796  12.052  0.6240  0.2854  0.1711
  360TMC3    O1 5399   3.323   2.966  12.343  0.3093 -0.6224  0.1237
  360TMC3    O2 5400   3.678   2.915  12.075  0.0035  0.2796  0.1834
  361MPD2     C 5401   3.922   1.144  17.063 -0.1400  0.0682 -0.5034
  361MPD2    C1 5402   3.984   1.249  17.126  0.1346  0.2550 -0.4782
  361MPD2    C2 5403   4.117   1.255  17.154 -0.0377 -0.0436  0.7512
  361MPD2    C3 5404   4.198   1.156  17.105 -0.1975  0.0787 -0.3113
  361MPD2    C4 5405   4.135   1.048  17.048  0.4064 -0.1380 -0.6831
  361MPD2    C5 5406   4.000   1.041  17.016  0.1819 -0.5210 -0.0994
  361MPD2     H 5407   4.169   1.338  17.200  2.2753 -0.7686 -0.5697
  361MPD2    H1 5408   4.205   0.967  17.030  2.3056  1.1027  1.1444
  361MPD2    H2 5409   3.819   1.150  17.031 -0.4335  0.1950  0.4558
  361MPD2    H3 5410   3.951   0.960  16.963  1.4967 -1.2960 -0.1372
  361MPD2     N 5411   4.339   1.153  17.122 -0.5563  0.2652 -0.5515
  361MPD2    H5 5412   4.393   1.076  17.083 -1.1887  0.6560 -2.2045
  361MPD2    N1 5413   3.915   1.368  17.164 -0.4155  0.2942 -0.1119
  361MPD2    H7 5414   3.974   1.448  17.183 -1.4541  0.4838  2.4016
  362TMC3    C1 5415   3.744   1.525  17.208  0.9812  0.1289 -0.4669
  362TMC3    C2 5416   3.632   1.538  17.281  0.8975  0.1575 -0.0371
  362TMC3    C3 5417   3.581   1.663  17.302  0.2320 -0.7838 -0.0814
  362TMC3    C4 5418   3.803   1.635  17.149  0.5503 -0.1023  0.0602
  362TMC3    C5 5419   3.750   1.760  17.178  0.2326 -0.0685  0.6383
  362TMC3    C6 5420   3.645   1.780  17.258  0.9134  0.4106  0.9610
  362TMC3     C 5421   3.778   1.388  17.167  0.0334  0.2938  0.2255
  362TMC3     O 5422   3.691   1.301  17.165 -0.1365  0.3695  0.0714
  362TMC3     H 5423   3.594   1.451  17.332  1.3687  0.2417  0.4603
  362TMC3    H1 5424   3.879   1.619  17.074 -0.2419 -1.6240 -0.4191
  362TMC3    H2 5425   3.614   1.881  17.284 -2.0045 -0.3706  0.5415
  362TMC3    C7 5426   3.793   1.871  17.096  0.3843 -0.2347  0.5377
  362TMC3    C8 5427   3.446   1.671  17.358 -0.2221  0.3433 -0.2461
  362TMC3    O1 5428   3.723   1.970  17.099  0.3900  0.4239 -0.0739
  362TMC3    O2 5429   3.380   1.573  17.344 -0.2869 -0.4295  0.6134
  363TMC3    C1 5430   4.067   3.959  10.096 -0.5610  0.1047  0.7774
  363TMC3    C2 5431   4.048   3.826  10.095  0.0033 -0.6512 -0.2349
  363TMC3    C3 5432   3.936   3.774  10.037  0.0508 -0.0219  0.0095
  363TMC3    C4 5433   3.980   4.051  10.052  0.0034  0.5426 -0.5323
  363TMC3    C5 5434   3.866   3.993  10.014 -0.1961 -0.3410 -0.1744
  363TMC3    C6 5435   3.846   3.861   9.995  0.2262  0.7079  0.0622
  363TMC3     C 5436   4.149   4.015  10.204 -0.1036  0.5154  0.1701
  363TMC3     O 5437   4.200   4.122  10.183 -0.0290 -0.1873  0.2493
  363TMC3     H 5438   4.131   3.770  10.136  0.1366 -0.0654  0.2783
  363TMC3    H1 5439   3.996   4.157  10.068  0.0974  0.3561  0.6443
  363TMC3    H2 5440   3.747   3.830   9.963  0.3334  0.3872  0.0390
  363TMC3    C7 5441   3.773   4.073   9.946 -0.5720 -0.0441  0.1229
  363TMC3    C8 5442   3.936   3.635  10.000 -0.6674  0.1178  0.5471
  363TMC3    O1 5443   3.715   4.025   9.849 -0.0593 -0.7301  0.0073
  363TMC3    O2 5444   4.029   3.571  10.046 -0.0660  0.1039 -0.3395
  364MPD2     C 5445   2.628   2.699  10.184 -0.8076 -0.4385 -0.7148
  364MPD2    C1 5446   2.611   2.809  10.272  0.4841 -0.3723  0.3493
  364MPD2    C2 5447   2.577   2.784  10.403  0.3671  0.2697 -0.8042
  364MPD2    C3 5448   2.564   2.653  10.444 -1.0784 -0.3957  0.5537
  364MPD2    C4 5449   2.555   2.548  10.353 -0.5954  0.4145 -0.0085
  364MPD2    C5 5450   2.598   2.574  10.224 -0.3370 -0.5682 -0.1366
  364MPD2     H 5451   2.573   2.873  10.465 -2.0074 -1.2799  1.2843
  364MPD2    H1 5452   2.525   2.447  10.376  1.1621 -0.2202 -0.4538
  364MPD2    H2 5453   2.665   2.711  10.083  1.7604  0.2869  0.3105
  364MPD2    H3 5454   2.597   2.496  10.149 -0.9394  0.6666 -1.4125
  364MPD2     N 5455   2.543   2.613  10.577  0.2250  0.5801 -0.7279
  364MPD2    H5 5456   2.517   2.517  10.600  1.5253  0.7641  1.4994
  364MPD2    N1 5457   2.663   2.931  10.232  0.4443  0.4091 -0.1209
  364MPD2    H7 5458   2.704   2.924  10.139  1.5414  1.2345  0.2923
  365TMC3    C1 5459   2.726   3.158  10.225 -0.0235 -0.3309  0.0263
  365TMC3    C2 5460   2.815   3.126  10.126  0.2877 -0.1980 -0.0682
  365TMC3    C3 5461   2.883   3.232  10.073  0.2750  0.2734 -1.0146
  365TMC3    C4 5462   2.706   3.285  10.271  0.4984 -0.2810  0.6567
  365TMC3    C5 5463   2.776   3.384  10.217 -0.3887  0.2273 -0.2885
  365TMC3    C6 5464   2.852   3.362  10.109  0.2820 -0.0164  0.6742
  365TMC3     C 5465   2.661   3.051  10.296 -0.2864  0.2158  0.4695
  365TMC3     O 5466   2.611   3.084  10.402  0.1524  0.1560  0.1716
  365TMC3     H 5467   2.837   3.022  10.104 -1.1125 -0.7273  1.0200
  365TMC3    H1 5468   2.639   3.306  10.353  1.9675  1.1285  1.4851
  365TMC3    H2 5469   2.911   3.442  10.065  0.0946  0.8384  1.9838
  365TMC3    C7 5470   2.816   3.495  10.298 -0.4421  0.6123 -0.5403
  365TMC3    C8 5471   3.003   3.199   9.996  0.5251  0.3552 -0.5957
  365TMC3    O1 5472   2.909   3.563  10.257  0.0792  0.0643  0.3317
  365TMC3    O2 5473   3.082   3.292   9.981  0.3089  0.3001  0.1924
  366MPD2     C 5474   4.432   4.702  15.578 -0.0550  0.2957  0.1835
  366MPD2    C1 5475   4.473   0.043  15.458 -0.5158 -0.3346  0.2378
  366MPD2    C2 5476   4.545   4.687  15.367 -0.4696  0.1204  0.1780
  366MPD2    C3 5477   4.572   4.559  15.391 -0.6886  0.0388 -0.3950
  366MPD2    C4 5478   4.531   4.502  15.516  0.5342 -0.2066  0.0288
  366MPD2    C5 5479   4.456   4.573  15.602 -0.2614 -0.4079 -0.2256
  366MPD2     H 5480   4.579   0.016  15.278  0.3003 -1.0341 -0.1909
  366MPD2    H1 5481   4.553   4.397  15.530 -1.1107 -0.0857  3.3611
  366MPD2    H2 5482   4.386   0.037  15.658 -1.2099  0.2705 -0.4673
  366MPD2    H3 5483   4.427   4.521  15.693 -0.9690  0.1715 -0.1273
  366MPD2     N 5484   4.653   4.493  15.298 -0.4132 -0.2608  0.1216
  366MPD2    H5 5485   4.678   4.537  15.210 -1.1189  1.8161  0.9735
  366MPD2    N1 5486   4.467   0.180  15.423  0.1304 -0.1850 -0.0693
  366MPD2    H7 5487   4.512   0.208  15.336  2.1780 -2.0872  0.3859
  367TMC3    C1 5488   4.474   0.401  15.454 -0.4808 -0.4840 -0.2666
  367TMC3    C2 5489   4.535   0.474  15.549  0.8816 -0.2596 -0.1502
  367TMC3    C3 5490   4.604   0.583  15.501  0.3676 -0.1779 -0.3812
  367TMC3    C4 5491   4.475   0.420  15.319  0.1717  0.2367  0.5103
  367TMC3    C5 5492   4.537   0.533  15.278 -1.1000 -0.3829 -0.1281
  367TMC3    C6 5493   4.604   0.621  15.365  0.1112  0.0812  0.0861
  367TMC3     C 5494   4.425   0.279  15.502  0.9189 -0.5494  0.2895
  367TMC3     O 5495   4.388   0.274  15.619 -0.4056  0.2942  0.0245
  367TMC3     H 5496   4.538   0.444  15.652 -0.1447 -2.0120 -0.6460
  367TMC3    H1 5497   4.414   0.366  15.248  2.2596 -1.8414  0.2793
  367TMC3    H2 5498   4.648   0.712  15.323 -0.5439  0.9972  1.3931
  367TMC3    C7 5499   4.502   0.591  15.149 -0.0763  0.4588 -0.2778
  367TMC3    C8 5500   0.004   0.603  15.582  0.1818  0.2172 -0.0970
  367TMC3    O1 5501   4.479   0.713  15.154  0.2826  0.6421  0.1082
  367TMC3    O2 5502   0.033   0.522  15.668  0.0807  0.1761  0.2000
  368MPD2     C 5503   1.233   1.711  12.723 -0.7672 -0.3459 -0.2041
  368MPD2    C1 5504   1.239   1.841  12.672  0.4801  0.5963  0.2781
  368MPD2    C2 5505   1.353   1.886  12.610 -0.7168 -0.9334 -0.0618
  368MPD2    C3 5506   1.465   1.800  12.606 -0.0706  0.1229  0.3714
  368MPD2    C4 5507   1.454   1.675  12.654 -0.1356  0.0046 -0.0968
  368MPD2    C5 5508   1.344   1.636  12.724 -0.1621 -0.0264 -0.4517
  368MPD2     H 5509   1.367   1.983  12.564  0.0019 -1.4687 -0.9571
  368MPD2    H1 5510   1.543   1.614  12.656 -0.1238  0.0366  0.7063
  368MPD2    H2 5511   1.137   1.675  12.760 -0.5693  0.6812  1.3150
  368MPD2    H3 5512   1.339   1.533  12.757 -2.5622 -0.3106 -1.7419
  368MPD2     N 5513   1.595   1.844  12.573  0.1637  0.7430 -0.1265
  368MPD2    H5 5514   1.671   1.784  12.605 -1.3694  0.0951  2.3021
  368MPD2    N1 5515   1.127   1.913  12.690 -0.1221  0.4450  1.0051
  368MPD2    H7 5516   1.058   1.864  12.747 -0.7230  1.3278  1.0486
  369TMC3    C1 5517   0.972   2.096  12.656  0.0437 -0.7033 -0.8145
  369TMC3    C2 5518   0.942   2.217  12.601 -0.4861 -1.0003  0.0468
  369TMC3    C3 5519   0.841   2.294  12.644  0.7838 -0.3128  0.2140
  369TMC3    C4 5520   0.899   2.047  12.762 -0.5056 -0.2213  0.2094
  369TMC3    C5 5521   0.789   2.124  12.799  0.1186  0.1778 -0.3956
  369TMC3    C6 5522   0.769   2.252  12.755  0.5640 -0.7130  0.5804
  369TMC3     C 5523   1.102   2.039  12.638  0.1172  0.0544  0.0353
  369TMC3     O 5524   1.181   2.115  12.586  0.4416 -0.2116 -0.3448
  369TMC3     H 5525   0.997   2.239  12.511 -1.2426 -0.1168 -0.2055
  369TMC3    H1 5526   0.921   1.951  12.807 -0.9947 -0.7020 -0.5667
  369TMC3    H2 5527   0.720   2.327  12.816  1.0648  0.2899 -0.2474
  369TMC3    C7 5528   0.718   2.079  12.921  0.1154 -0.0054 -0.2572
  369TMC3    C8 5529   0.866   2.432  12.629 -0.1229 -0.3582  0.7068
  369TMC3    O1 5530   0.765   1.993  12.996  0.2236  0.5468 -0.7465
  369TMC3    O2 5531   0.770   2.509  12.601 -0.2569 -0.3841  0.3799
  370TMC3    C1 5532   0.794   2.519  16.446  0.2398 -0.4093 -0.3139
  370TMC3    C2 5533   0.736   2.414  16.513  0.9023  0.5383 -0.2448
  370TMC3    C3 5534   0.670   2.314  16.447  0.0090  0.7097  0.8097
  370TMC3    C4 5535   0.793   2.534  16.308 -0.0064 -0.1959  0.2633
  370TMC3    C5 5536   0.727   2.427  16.246  0.5916  0.0068  0.0328
  370TMC3    C6 5537   0.668   2.318  16.308 -0.1353 -0.0786 -0.3365
  370TMC3     C 5538   0.883   2.596  16.528 -0.0892  0.1727  0.3692
  370TMC3     O 5539   0.927   2.539  16.624 -0.0670  0.0690 -0.3878
  370TMC3     H 5540   0.752   2.398  16.619 -0.4687  1.1465  0.0420
  370TMC3    H1 5541   0.855   2.602  16.251 -1.6364  1.6566  0.6876
  370TMC3    H2 5542   0.616   2.244  16.247  1.0204  0.4228 -1.9405
  370TMC3    C7 5543   0.760   2.409  16.108  0.4617  0.2506 -0.9455
  370TMC3    C8 5544   0.625   2.192  16.513  0.3234 -0.1512  0.6617
  370TMC3    O1 5545   0.787   2.514  16.048 -0.2454 -0.6247 -0.0033
  370TMC3    O2 5546   0.593   2.096  16.438  0.0037  0.0016  0.3245
  371TMC3    C1 5547   2.064   0.886  15.369 -0.5143 -0.4968 -0.4436
  371TMC3    C2 5548   1.929   0.884  15.393  0.0714  0.6863 -0.0181
  371TMC3    C3 5549   1.862   1.004  15.401 -0.8462 -0.6401 -0.1583
  371TMC3    C4 5550   2.128   1.008  15.353  0.0186  0.3536  0.2735
  371TMC3    C5 5551   2.054   1.129  15.353 -0.1787  0.3231 -0.2406
  371TMC3    C6 5552   1.921   1.123  15.370 -0.5274 -0.3039 -0.4160
  371TMC3     C 5553   2.142   0.768  15.397  0.1450 -0.6118 -0.2172
  371TMC3     O 5554   2.260   0.778  15.373 -0.1436 -0.2566 -0.3974
  371TMC3     H 5555   1.877   0.791  15.412  0.8220 -0.2832 -2.7231
  371TMC3    H1 5556   2.236   1.012  15.348  0.0235  0.1292  0.1697
  371TMC3    H2 5557   1.867   1.217  15.378 -0.1997 -0.3342  2.0687
  371TMC3    C7 5558   2.119   1.258  15.368  0.0743  1.0548 -0.3676
  371TMC3    C8 5559   1.716   0.990  15.411  0.3766  0.1266  0.4245
  371TMC3    O1 5560   2.062   1.361  15.337  0.2631 -0.7997 -0.1709
  371TMC3    O2 5561   1.674   0.890  15.353  0.6453  0.0219 -0.1287
  372MPD2     C 5562   1.824   1.956  12.892 -0.5031 -0.1504  0.3319
  372MPD2    C1 5563   1.891   1.858  12.962  0.1766  0.7759  0.1697
  372MPD2    C2 5564   1.822   1.750  13.014  0.5686 -0.1350 -0.4348
  372MPD2    C3 5565   1.686   1.739  12.998  0.2788  0.4278  0.3633
  372MPD2    C4 5566   1.613   1.836  12.930 -0.2572  0.1499 -0.4492
  372MPD2    C5 5567   1.686   1.939  12.874 -0.5754  0.0009  0.4217
  372MPD2     H 5568   1.877   1.678  13.074 -0.5660 -2.1501 -1.8244
  372MPD2    H1 5569   1.506   1.836  12.917 -0.3939 -0.7751  0.6479
  372MPD2    H2 5570   1.870   2.050  12.865  1.2414 -0.3766  2.4774
  372MPD2    H3 5571   1.635   2.025  12.832 -2.4955 -0.8354  1.0815
  372MPD2     N 5572   1.629   1.622  13.049 -0.1426 -0.3613 -0.1842
  372MPD2    H5 5573   1.695   1.554  13.088 -1.5524 -1.2234  0.7316
  372MPD2    N1 5574   2.030   1.875  12.993  0.3359  0.3615 -0.6614
  372MPD2    H7 5575   2.078   1.804  13.048 -0.3207  2.1399  2.2049
  373TMC3    C1 5576   1.462   1.500  13.171  0.0442  0.1797 -0.8772
  373TMC3    C2 5577   1.399   1.533  13.289  0.0738 -0.1917 -0.0679
  373TMC3    C3 5578   1.418   1.450  13.390  0.2783 -0.4944 -0.4257
  373TMC3    C4 5579   1.542   1.386  13.162 -0.2178 -0.4404 -0.3878
  373TMC3    C5 5580   1.558   1.306  13.266  0.3199  0.2804 -0.7419
  373TMC3    C6 5581   1.489   1.337  13.382 -0.0761 -0.2972 -0.1733
  373TMC3     C 5582   1.495   1.615  13.089 -0.5448 -0.3471 -0.3897
  373TMC3     O 5583   1.414   1.697  13.088  0.8741 -0.4677  0.9011
  373TMC3     H 5584   1.343   1.626  13.297  2.3472  0.7911  4.1344
  373TMC3    H1 5585   1.596   1.363  13.071  0.8499 -0.6553  0.3006
  373TMC3    H2 5586   1.493   1.266  13.463  0.2895  0.3995  0.4143
  373TMC3    C7 5587   1.620   1.176  13.253 -0.1114 -0.7468  0.2926
  373TMC3    C8 5588   1.380   1.516  13.512 -0.2062  0.6446  0.3637
  373TMC3    O1 5589   1.616   1.137  13.138  0.8838 -0.2538 -0.3935
  373TMC3    O2 5590   1.355   1.638  13.514 -0.2846  0.0685  0.0248
  374TMC3    C1 5591   2.093   1.808  10.037 -0.2209 -0.1353  0.7220
  374TMC3    C2 5592   2.186   1.803   9.935 -0.0021  0.4124  0.0052
  374TMC3    C3 5593   2.207   1.687   9.870  0.6659 -0.1056 -0.5001
  374TMC3    C4 5594   2.028   1.698  10.078 -0.0530 -0.1043  1.1735
  374TMC3    C5 5595   2.041   1.585  10.004 -0.1250 -0.1183  0.2603
  374TMC3    C6 5596   2.128   1.572   9.898  0.0944  0.5430 -0.0632
  374TMC3     C 5597   2.101   1.921  10.128 -0.3388  0.1351 -0.5859
  374TMC3     O 5598   2.058   1.905  10.242 -0.3396 -0.7801 -0.1518
  374TMC3     H 5599   2.241   1.886   9.891  1.0712 -0.2861  0.0247
  374TMC3    H1 5600   1.957   1.707  10.160 -0.3193  2.7988  0.6524
  374TMC3    H2 5601   2.145   1.480   9.843  0.4694 -0.7516  2.2006
  374TMC3    C7 5602   1.927   1.499  10.005 -0.3256  0.0780 -0.7018
  374TMC3    C8 5603   2.326   1.662   9.790 -0.1964  0.7602 -0.2629
  374TMC3    O1 5604   1.854   1.496  10.105 -0.0600  0.0423  0.0869
  374TMC3    O2 5605   2.319   1.574   9.707 -0.0502 -0.1716 -0.1095
  375MPD2     C 5606   2.161   2.492  17.353  0.4331  0.2559  0.3157
  375MPD2    C1 5607   2.082   2.560  17.267  0.2365 -0.1858  0.1274
  375MPD2    C2 5608   2.138   2.611  17.154  0.0157 -0.0460  0.6989
  375MPD2    C3 5609   2.271   2.581  17.113  0.1267  0.2256 -0.7301
  375MPD2    C4 5610   2.336   2.495  17.192 -0.7732  0.0458 -0.8856
  375MPD2    C5 5611   2.294   2.458  17.317  0.1554 -0.3599 -0.1167
  375MPD2     H 5612   2.072   2.667  17.088  2.1898  1.7063  0.0205
  375MPD2    H1 5613   2.435   2.462  17.161  0.2003  1.1301  1.1137
  375MPD2    H2 5614   2.113   2.449  17.441  0.0587  1.5045  0.7207
  375MPD2    H3 5615   2.361   2.394  17.373 -0.0376 -1.5848 -1.2761
  375MPD2     N 5616   2.336   2.604  16.988  0.9115  0.6586  0.3050
  375MPD2    H5 5617   2.434   2.578  16.978  0.5141 -0.6057 -0.3043
  375MPD2    N1 5618   1.952   2.604  17.300 -0.0639 -0.0863 -0.5309
  375MPD2    H7 5619   1.906   2.660  17.230  1.9076 -0.5205 -2.1693
  376TMC3    C1 5620   2.355   2.684  16.773 -0.0675  0.1769 -0.9874
  376TMC3    C2 5621   2.486   2.706  16.798 -0.1198 -0.0452  0.0699
  376TMC3    C3 5622   2.567   2.724  16.691  1.3003 -0.1314  0.1945
  376TMC3    C4 5623   2.299   2.684  16.648  0.2844 -0.1157 -0.8268
  376TMC3    C5 5624   2.391   2.699  16.547 -0.2572  0.0870  0.2851
  376TMC3    C6 5625   2.524   2.709  16.570 -0.1835 -0.0147 -0.6268
  376TMC3     C 5626   2.268   2.647  16.878 -0.1662  0.0220  0.8049
  376TMC3     O 5627   2.152   2.685  16.873 -0.5602  0.2006 -0.6152
  376TMC3     H 5628   2.529   2.703  16.897  1.2802  0.9389 -0.5134
  376TMC3    H1 5629   2.195   2.659  16.634  0.1719  0.2941 -0.7091
  376TMC3    H2 5630   2.595   2.729  16.490  0.2956 -1.8584 -0.6603
  376TMC3    C7 5631   2.354   2.719  16.407  0.0063  0.0733 -0.1960
  376TMC3    C8 5632   2.705   2.751  16.717  0.1130  0.3036  0.1974
  376TMC3    O1 5633   2.437   2.724  16.319  0.4452  0.0712  0.4552
  376TMC3    O2 5634   2.751   2.837  16.647  0.5210 -0.0713  0.2321
  377MPD2     C 5635   0.357   2.512  12.082 -0.2324  0.3078  0.5030
  377MPD2    C1 5636   0.421   2.442  12.177  0.5626 -0.2496 -0.2534
  377MPD2    C2 5637   0.339   2.378  12.272  0.3147  0.4523  0.3840
  377MPD2    C3 5638   0.200   2.375  12.255 -0.1741  0.5508 -0.1416
  377MPD2    C4 5639   0.147   2.428  12.143  0.1478  0.9281 -0.4833
  377MPD2    C5 5640   0.226   2.496  12.055  0.5267 -0.0144 -0.3296
  377MPD2     H 5641   0.380   2.322  12.356  0.0095  1.2505  1.0603
  377MPD2    H1 5642   0.041   2.429  12.122  0.3550 -3.1858 -1.7441
  377MPD2    H2 5643   0.406   2.566  12.003  0.2300  0.8124  1.1391
  377MPD2    H3 5644   0.191   2.557  11.972 -1.7746 -0.5689  0.2391
  377MPD2     N 5645   0.113   2.318  12.348 -0.4029  0.0915  0.2659
  377MPD2    H5 5646   0.013   2.320  12.334 -0.5550  2.8333  1.8094
  377MPD2    N1 5647   0.569   2.434  12.185  0.4505  0.5044 -0.3358
  377MPD2    H7 5648   0.618   2.476  12.107  0.4145 -0.5286 -0.9186
  378TMC3    C1 5649   0.882   2.427  12.043 -0.2248 -0.4075 -0.4629
  378TMC3    C2 5650   0.815   2.459  12.154  0.3356  0.2797  0.0725
  378TMC3    C3 5651   0.781   2.363  12.243  0.4709  0.7156  0.1542
  378TMC3    C4 5652   0.925   2.297  12.034  0.4352 -0.2339 -0.2811
  378TMC3    C5 5653   0.907   2.207  12.132 -0.2215 -0.6070 -0.6160
  378TMC3    C6 5654   0.824   2.237  12.235  0.2623 -0.2424 -0.6518
  378TMC3     C 5655   0.846   2.503  11.925  0.2614 -0.0636 -0.3718
  378TMC3     O 5656   0.737   2.547  11.936 -0.3107 -0.2192 -0.0036
  378TMC3     H 5657   0.785   2.558  12.188 -2.6939 -0.5854 -0.0895
  378TMC3    H1 5658   1.002   2.279  11.960  0.5027 -1.6414  0.1299
  378TMC3    H2 5659   0.805   2.169  12.317 -1.8447 -0.8388 -1.6272
  378TMC3    C7 5660   1.006   2.113  12.169 -0.5629 -0.4268  0.4492
  378TMC3    C8 5661   0.638   2.356  12.270  0.1381  0.0591  0.2818
  378TMC3    O1 5662   0.978   2.041  12.258 -0.7253 -0.4073  0.1028
  378TMC3    O2 5663   0.601   2.288  12.363  0.1625  0.4611  0.1142
  379MPD2     C 5664   1.370   0.355  15.811 -0.0359  0.2058 -0.3461
  379MPD2    C1 5665   1.260   0.305  15.881 -0.2813  0.2368  0.6688
  379MPD2    C2 5666   1.276   0.258  16.008 -0.1174  0.2303 -0.3334
  379MPD2    C3 5667   1.400   0.255  16.071  0.1464 -0.1465  0.4092
  379MPD2    C4 5668   1.511   0.296  16.007 -0.3447  0.1766  0.5474
  379MPD2    C5 5669   1.491   0.344  15.882 -1.0086 -0.5312 -0.7285
  379MPD2     H 5670   1.182   0.228  16.053  0.6827 -0.9155  0.5475
  379MPD2    H1 5671   1.609   0.298  16.054  0.8171  3.1135 -2.0616
  379MPD2    H2 5672   1.367   0.388  15.708 -0.7088  1.0031 -0.0784
  379MPD2    H3 5673   1.578   0.373  15.824 -0.2406  0.9340  1.1453
  379MPD2     N 5674   1.425   0.187  16.190 -0.2265 -0.7847  0.1546
  379MPD2    H5 5675   1.521   0.158  16.207  0.2330  1.4728  1.3657
  379MPD2    N1 5676   1.134   0.311  15.807  0.4088 -0.9963 -0.4004
  379MPD2    H7 5677   1.126   0.348  15.712  2.5389  0.3483 -0.0534
  380TMC3    C1 5678   0.910   0.359  15.776  0.7296  0.2935 -0.7898
  380TMC3    C2 5679   0.918   0.337  15.641 -0.1823 -0.4950  0.3466
  380TMC3    C3 5680   0.817   0.387  15.569 -0.5711  0.0917  0.9954
  380TMC3    C4 5681   0.800   0.410  15.844  0.0590  0.4531  0.0354
  380TMC3    C5 5682   0.708   0.469  15.761 -0.6680 -0.6055  0.3311
  380TMC3    C6 5683   0.721   0.470  15.627 -0.5027 -0.3787 -0.4887
  380TMC3     C 5684   1.017   0.316  15.863  0.2209 -0.8493  0.5243
  380TMC3     O 5685   0.990   0.322  15.981 -0.2367  0.2501  0.1462
  380TMC3     H 5686   1.007   0.294  15.597 -1.4311 -1.7527 -0.9423
  380TMC3    H1 5687   0.783   0.425  15.949 -0.8704  4.1013 -0.6521
  380TMC3    H2 5688   0.655   0.527  15.562  0.0698 -1.2981 -1.8628
  380TMC3    C7 5689   0.619   0.572  15.816 -0.1865 -0.5193  0.4952
  380TMC3    C8 5690   0.862   0.428  15.438  0.8383  0.0054  0.0881
  380TMC3    O1 5691   0.653   0.649  15.905 -0.0804  0.1714 -0.4125
  380TMC3    O2 5692   0.853   0.541  15.390 -0.0686  0.0569 -0.2751
  381TMC3    C1 5693   0.686   1.564  15.964 -0.4049 -0.6229 -0.7804
  381TMC3    C2 5694   0.791   1.617  16.027 -1.2361  0.9124  0.2104
  381TMC3    C3 5695   0.772   1.677  16.148 -0.8074  0.7749 -0.2943
  381TMC3    C4 5696   0.564   1.553  16.032  0.1898 -0.1889  0.0336
  381TMC3    C5 5697   0.555   1.605  16.153  0.2230 -0.8042  0.5422
  381TMC3    C6 5698   0.653   1.674  16.218  0.2407 -0.3522 -0.1247
  381TMC3     C 5699   0.726   1.462  15.864  0.0436 -0.1606  0.0172
  381TMC3     O 5700   0.842   1.421  15.868 -0.0717 -0.4897 -0.5334
  381TMC3     H 5701   0.890   1.610  15.985 -1.1493  0.9991  0.3973
  381TMC3    H1 5702   0.487   1.483  16.001  1.0974 -1.0418 -0.3271
  381TMC3    H2 5703   0.650   1.724  16.314 -1.4222  1.5905 -1.2067
  381TMC3    C7 5704   0.461   1.546  16.242 -0.1426 -1.1590 -0.2243
  381TMC3    C8 5705   0.870   1.778  16.181 -0.6124 -0.9755  0.0583
  381TMC3    O1 5706   0.427   1.433  16.225  0.0446 -0.1031 -0.6063
  381TMC3    O2 5707   0.940   1.822  16.090 -0.0278  0.3472  0.5104
  382MPD2     C 5708   0.041   3.929  17.230 -0.3444 -0.4361 -0.0545
  382MPD2    C1 5709   0.097   3.924  17.352  0.0357 -0.5512  0.4258
  382MPD2    C2 5710   0.064   3.830  17.445 -0.5406  0.3965 -0.1801
  382MPD2    C3 5711   4.691   3.735  17.409  0.3679 -1.1033 -0.0544
  382MPD2    C4 5712   4.645   3.735  17.279  0.0157 -0.4279  0.5796
  382MPD2    C5 5713   4.677   3.833  17.189 -0.2286  0.0042 -0.5916
  382MPD2     H 5714   0.107   3.823  17.545 -1.2854 -1.4344  0.0092
  382MPD2    H1 5715   4.570   3.659  17.258  0.0730 -0.7107  1.3849
  382MPD2    H2 5716   0.059   4.004  17.153 -1.4068 -0.1169  0.0053
  382MPD2    H3 5717   4.631   3.838  17.091 -2.2257  0.5965  0.3774
  382MPD2     N 5718   4.628   3.648  17.496  0.3271  0.5985  0.5575
  382MPD2    H5 5719   4.559   3.584  17.459  2.2824 -1.4307  0.4511
  382MPD2    N1 5720   0.187   4.030  17.400 -0.4274  0.2273 -0.6806
  382MPD2    H7 5721   0.215   4.028  17.498  2.2713 -0.0064 -1.4727
  383TMC3    C1 5722   4.575   3.523  17.683  0.1554 -0.2660  0.3656
  383TMC3    C2 5723   4.463   3.459  17.630  0.7665 -0.0484 -0.0271
  383TMC3    C3 5724   4.399   3.372   0.021  0.3845 -0.0758  0.0674
  383TMC3    C4 5725   4.630   3.474   0.105 -0.1921  0.2737  0.1422
  383TMC3    C5 5726   4.582   3.368   0.165 -0.0442 -0.4722 -0.9893
  383TMC3    C6 5727   4.459   3.317   0.127  0.0995  0.8192  0.5295
  383TMC3     C 5728   4.652   3.636  17.632  0.5823 -0.3038  0.2490
  383TMC3     O 5729   0.006   3.702   0.017  0.2859  0.0892  0.4023
  383TMC3     H 5730   4.403   3.505  17.552  1.4555  1.1493  0.1455
  383TMC3    H1 5731   0.003   3.516   0.135  0.2487 -0.8878  0.3345
  383TMC3    H2 5732   4.424   3.224   0.171 -0.3548  0.9874  0.5267
  383TMC3    C7 5733   4.645   3.321   0.280  0.5418 -0.3033  0.6218
  383TMC3    C8 5734   4.286   3.293  17.653 -0.2662 -0.5799 -0.1681
  383TMC3    O1 5735   4.604   3.215   0.322  0.0221 -0.4994 -0.1568
  383TMC3    O2 5736   4.252   3.321  17.537  0.1430  0.5681  0.0660
  384MPD2     C 5737   1.820   0.504  11.939  0.0995  0.3746  0.1726
  384MPD2    C1 5738   1.794   0.369  11.945  0.3444  0.1389 -0.5476
  384MPD2    C2 5739   1.827   0.285  11.843  0.0281 -0.5409 -0.2685
  384MPD2    C3 5740   1.882   0.337  11.725 -0.4594  0.3263 -0.0420
  384MPD2    C4 5741   1.913   0.470  11.729 -0.7764 -0.1136  0.0954
  384MPD2    C5 5742   1.884   0.551  11.828  0.1198 -0.3865 -0.0912
  384MPD2     H 5743   1.821   0.177  11.854 -1.0458 -0.6216 -1.6788
  384MPD2    H1 5744   1.967   0.520  11.650  0.0448 -0.4570  0.4439
  384MPD2    H2 5745   1.805   0.573  12.022 -0.6000  0.0146  0.3549
  384MPD2    H3 5746   1.904   0.656  11.814  0.7017 -0.9131 -3.1816
  384MPD2     N 5747   1.892   0.245  11.620 -0.5294 -0.0914  0.0270
  384MPD2    H5 5748   1.867   0.148  11.638  1.2812 -0.6652 -0.5788
  384MPD2    N1 5749   1.749   0.321  12.070 -0.1264 -1.1712  0.1010
  384MPD2    H7 5750   1.763   0.389  12.144 -3.4302  1.2370 -1.5556
  385TMC3    C1 5751   1.947   0.147  11.419  0.2310 -0.3686  0.1925
  385TMC3    C2 5752   2.069   0.116  11.368  0.2493  0.9091  0.1165
  385TMC3    C3 5753   2.117   4.710  11.374 -0.7015  0.3931  0.2380
  385TMC3    C4 5754   1.865   0.051  11.477 -0.1335 -0.3447 -0.0156
  385TMC3    C5 5755   1.923   4.648  11.496  0.4985 -0.7404  0.7409
  385TMC3    C6 5756   2.046   4.614  11.446 -0.2297  0.2378 -0.2985
  385TMC3     C 5757   1.940   0.272  11.493 -0.1611 -0.0281 -0.5408
  385TMC3     O 5758   2.008   0.366  11.454 -0.3337  0.2044  0.5362
  385TMC3     H 5759   2.130   0.200  11.338 -0.6549  2.1966  1.8434
  385TMC3    H1 5760   1.767   0.064  11.523 -0.2400 -0.7910 -0.1190
  385TMC3    H2 5761   2.092   4.517  11.464  0.3950  0.6548  0.3551
  385TMC3    C7 5762   1.891   4.601  11.629  0.2741  0.0210  0.1957
  385TMC3    C8 5763   2.230   4.677  11.284  0.5161  0.6670  0.4523
  385TMC3    O1 5764   1.862   4.683  11.708 -0.6713 -0.8214  0.1070
  385TMC3    O2 5765   2.289   0.049  11.229 -0.5799  0.3596  0.1557
  386TMC3    C1 5766   1.931   2.197  11.962  0.1330 -0.4449 -0.4850
  386TMC3    C2 5767   2.018   2.192  11.852 -0.2774 -0.2282 -0.1011
  386TMC3    C3 5768   2.025   2.299  11.770  0.5249  0.0324  0.0314
  386TMC3    C4 5769   1.865   2.316  11.986  0.2918  0.2750  0.5221
  386TMC3    C5 5770   1.881   2.422  11.902  0.1714  0.1195  0.2585
  386TMC3    C6 5771   1.963   2.411  11.795  0.1457 -0.2145  0.2056
  386TMC3     C 5772   1.902   2.080  12.050 -0.4371 -0.5800  0.4349
  386TMC3     O 5773   1.821   2.097  12.142  0.2615  0.5309  0.1058
  386TMC3     H 5774   2.070   2.100  11.826  2.8509  1.2246  1.0430
  386TMC3    H1 5775   1.787   2.321  12.061 -0.8524 -1.0052 -0.5904
  386TMC3    H2 5776   1.965   2.495  11.726 -2.5294 -1.1080 -0.9803
  386TMC3    C7 5777   1.757   2.504  11.873  0.4417  0.3967  0.4258
  386TMC3    C8 5778   2.029   2.280  11.623 -0.1117 -0.0765 -0.7832
  386TMC3    O1 5779   1.704   2.542  11.972 -0.0954  0.2246 -0.5213
  386TMC3    O2 5780   1.961   2.357  11.560  0.7704 -0.2617  0.0657
  387MPD2     C 5781   0.911   2.066   9.617  0.6231 -0.1567  0.6221
  387MPD2    C1 5782   0.808   2.114   9.696 -0.4778 -0.9037  0.0623
  387MPD2    C2 5783   0.682   2.058   9.692  0.4157 -0.3468 -0.0431
  387MPD2    C3 5784   0.662   1.946   9.614 -0.2229 -0.5263  0.7234
  387MPD2    C4 5785   0.764   1.899   9.536 -1.0908 -0.2437  0.6189
  387MPD2    C5 5786   0.883   1.953   9.542  0.1643 -0.3404 -0.1553
  387MPD2     H 5787   0.599   2.101   9.747  0.4937  0.4122 -0.5145
  387MPD2    H1 5788   0.762   1.809   9.475 -0.3299 -1.4640  2.3997
  387MPD2    H2 5789   1.007   2.113   9.605  0.1205  0.6220 -0.4143
  387MPD2    H3 5790   0.967   1.909   9.489  0.1222  0.1044 -0.5927
  387MPD2     N 5791   0.543   1.879   9.615 -0.1770  0.9523 -0.3674
  387MPD2    H5 5792   0.464   1.923   9.660 -1.2914 -0.8508 -0.5399
  387MPD2    N1 5793   0.827   2.234   9.776 -0.4636  0.1493 -0.1353
  387MPD2    H7 5794   0.745   2.283   9.810  1.2586  2.8929  0.0880
  388TMC3    C1 5795   0.930   2.359   9.949  0.0957 -0.4265  0.9382
  388TMC3    C2 5796   1.049   2.389  10.015  0.3421  0.0155 -0.3732
  388TMC3    C3 5797   1.040   2.409  10.151 -0.2838  0.1107  0.1129
  388TMC3    C4 5798   0.818   2.328  10.024 -0.3929  0.1025  0.5532
  388TMC3    C5 5799   0.827   2.332  10.162  0.3799 -0.2107 -0.0881
  388TMC3    C6 5800   0.934   2.377  10.230 -0.3657 -0.9276  0.6649
  388TMC3     C 5801   0.952   2.271   9.830  1.0513 -0.4864 -0.1759
  388TMC3     O 5802   1.064   2.219   9.823  0.1579  0.3939  0.1118
  388TMC3     H 5803   1.142   2.399   9.961  0.5639  0.9196  0.1863
  388TMC3    H1 5804   0.723   2.299   9.980 -0.6081 -0.1141  1.1478
  388TMC3    H2 5805   0.917   2.389  10.337  0.0057 -2.5335  0.9008
  388TMC3    C7 5806   0.730   2.264  10.248  0.1452  0.0731 -0.7670
  388TMC3    C8 5807   1.159   2.465  10.212 -0.1107 -0.3505 -0.4599
  388TMC3    O1 5808   0.696   2.318  10.357 -0.2570 -0.1578  0.1964
  388TMC3    O2 5809   1.259   2.460  10.143  0.1194  0.8005  0.0762
  389MPD2     C 5810   3.944   0.688  11.685 -0.7043  0.1844 -0.2776
  389MPD2    C1 5811   3.884   0.647  11.565 -0.7445  0.3348 -0.3530
  389MPD2    C2 5812   3.782   0.547  11.571  0.1612 -0.3413 -0.2132
  389MPD2    C3 5813   3.725   0.510  11.686 -0.0881 -0.0944 -0.4390
  389MPD2    C4 5814   3.782   0.569  11.803  0.3232 -0.2164 -0.1210
  389MPD2    C5 5815   3.886   0.646  11.801  0.0791 -0.8324  0.7922
  389MPD2     H 5816   3.744   0.506  11.478  2.4091 -0.5905 -1.0282
  389MPD2    H1 5817   3.751   0.540  11.903  2.4566  0.5811  0.7715
  389MPD2    H2 5818   4.028   0.756  11.691 -0.4398 -0.3650  2.4400
  389MPD2    H3 5819   3.922   0.686  11.895  0.0232  0.6876  0.1704
  389MPD2     N 5820   3.601   0.431  11.694 -0.8004 -0.7900  0.0310
  389MPD2    H5 5821   3.544   0.440  11.778 -0.1076  2.0093  0.2003
  389MPD2    N1 5822   3.928   0.717  11.446  0.5637  0.1207  0.0547
  389MPD2    H7 5823   4.011   0.775  11.450  0.3465  0.3197  1.6477
  390TMC3    C1 5824   3.423   0.291  11.612  0.1182 -0.7716  0.5777
  390TMC3    C2 5825   3.373   0.273  11.732 -0.4369  0.4669 -0.4963
  390TMC3    C3 5826   3.239   0.240  11.748  0.5598  0.2463  0.5242
  390TMC3    C4 5827   3.353   0.257  11.502  0.3964 -0.0814 -1.1265
  390TMC3    C5 5828   3.219   0.238  11.520  0.2866 -0.4153  0.5510
  390TMC3    C6 5829   3.156   0.243  11.639 -0.4705 -0.7390  0.4209
  390TMC3     C 5830   3.554   0.367  11.589 -0.0037 -0.0809 -0.3747
  390TMC3     O 5831   3.612   0.335  11.485 -0.2839  0.3972  0.2768
  390TMC3     H 5832   3.436   0.277  11.820 -0.2692  1.3361 -0.6586
  390TMC3    H1 5833   3.403   0.236  11.408  0.8329  1.9229 -1.3343
  390TMC3    H2 5834   3.050   0.235  11.658 -0.4972 -0.4282  0.4023
  390TMC3    C7 5835   3.166   0.131  11.441 -0.3081  0.1710  0.3957
  390TMC3    C8 5836   3.211   0.134  11.838  0.0537 -0.8056  0.4384
  390TMC3    O1 5837   3.254   0.057  11.400  0.1656  0.1348  0.4491
  390TMC3    O2 5838   3.265   0.122  11.942  0.3490  0.1660 -0.3301
  391MPD2     C 5839   3.281   1.528  10.896  0.3929  0.5575 -0.3222
  391MPD2    C1 5840   3.392   1.600  10.854  0.5798  0.4753  0.5320
  391MPD2    C2 5841   3.390   1.649  10.724  0.4300  0.1585 -0.1588
  391MPD2    C3 5842   3.270   1.637  10.646 -0.2019  1.3065 -0.4592
  391MPD2    C4 5843   3.164   1.571  10.703 -0.0303  0.6578  0.0606
  391MPD2    C5 5844   3.164   1.518  10.827  0.7993 -0.3209  0.0597
  391MPD2     H 5845   3.477   1.697  10.680  0.4110 -0.0707 -0.4485
  391MPD2    H1 5846   3.078   1.547  10.642  0.2620  0.2537 -0.1931
  391MPD2    H2 5847   3.284   1.491  10.998  0.9213 -0.4598 -0.7101
  391MPD2    H3 5848   3.087   1.448  10.858  0.1923  0.6729  0.8266
  391MPD2     N 5849   3.265   1.692  10.516  0.3584  0.4828 -0.2617
  391MPD2    H5 5850   3.355   1.708  10.473  0.2425  0.9139 -0.3436
  391MPD2    N1 5851   3.500   1.612  10.943 -0.2055  0.5130  0.1855
  391MPD2    H7 5852   3.491   1.576  11.037  0.7452  0.0632  0.1025
  392TMC3    C1 5853   3.151   1.767  10.313  0.6996  0.5788  0.0664
  392TMC3    C2 5854   3.039   1.768  10.246 -0.1288 -1.0653  0.7365
  392TMC3    C3 5855   3.039   1.819  10.118 -0.7339  0.3249  0.4261
  392TMC3    C4 5856   3.276   1.797  10.252  0.5139 -0.4541 -0.0870
  392TMC3    C5 5857   3.264   1.837  10.120  0.3539 -1.1296 -0.8029
  392TMC3    C6 5858   3.155   1.847  10.051  0.5725  0.4910 -0.7897
  392TMC3     C 5859   3.146   1.709  10.447  0.1350 -0.5099  0.1414
  392TMC3     O 5860   3.031   1.697  10.489  0.6401  0.2244  0.0976
  392TMC3     H 5861   2.946   1.729  10.285 -2.4565  1.9422 -1.8679
  392TMC3    H1 5862   3.366   1.798  10.312  0.4577 -1.3185  0.0082
  392TMC3    H2 5863   3.165   1.873   9.946 -1.8376 -0.0235 -1.1651
  392TMC3    C7 5864   3.369   1.919  10.063  0.3821  0.2667  0.1125
  392TMC3    C8 5865   2.911   1.817  10.047  0.0465  0.4172 -0.2037
  392TMC3    O1 5866   3.375   1.945   9.942 -0.4656 -0.1733 -0.3178
  392TMC3    O2 5867   2.823   1.776  10.121  0.5755  0.0832 -0.3708
  393TMC3    C1 5868   2.653   3.932  10.210  0.3401  0.4515  0.3915
  393TMC3    C2 5869   2.543   3.860  10.253 -0.1654  0.4344  0.2848
  393TMC3    C3 5870   2.518   3.736  10.195 -0.0112 -0.0293 -0.0306
  393TMC3    C4 5871   2.732   3.886  10.104  0.4501 -0.5129  0.8665
  393TMC3    C5 5872   2.708   3.764  10.067  0.8825  0.2820  0.3018
  393TMC3    C6 5873   2.613   3.682  10.115  0.3557  0.4976 -0.1613
  393TMC3     C 5874   2.661   4.069  10.249 -0.2904  0.5263 -0.3761
  393TMC3     O 5875   2.553   4.116  10.228 -0.4520 -0.2415 -0.0384
  393TMC3     H 5876   2.481   3.912  10.324 -0.6137  0.1004  0.1396
  393TMC3    H1 5877   2.797   3.948  10.043 -0.5694 -0.1644  0.1484
  393TMC3    H2 5878   2.602   3.581  10.078  0.1208  0.3845  0.2209
  393TMC3    C7 5879   2.811   3.699   9.990  1.1657  0.1835 -0.3838
  393TMC3    C8 5880   2.419   3.643  10.259  0.3233  0.3053 -0.2635
  393TMC3    O1 5881   2.774   3.606   9.916  0.2162 -0.7896 -0.4909
  393TMC3    O2 5882   2.446   3.522  10.249  0.1111 -0.3042  0.0114
  394TMC3    C1 5883   3.901   0.806  11.231  0.5828 -0.1115  0.1167
  394TMC3    C2 5884   3.803   0.846  11.153 -0.1827 -0.5479 -0.3692
  394TMC3    C3 5885   3.825   0.866  11.025  0.2322 -0.3137 -0.0659
  394TMC3    C4 5886   4.021   0.766  11.177  0.1727  0.3821 -0.0689
  394TMC3    C5 5887   4.051   0.801  11.049 -0.0474  0.6436 -0.4641
  394TMC3    C6 5888   3.950   0.853  10.968  0.1335  0.2164 -0.1730
  394TMC3     C 5889   3.859   0.712  11.331 -0.5162 -0.8043  0.1745
  394TMC3     O 5890   3.768   0.641  11.293 -0.0499 -0.1898 -0.3362
  394TMC3     H 5891   3.703   0.873  11.185  0.3382 -0.5282  1.2497
  394TMC3    H1 5892   4.090   0.701  11.229 -2.2050 -1.2329  1.0766
  394TMC3    H2 5893   3.975   0.875  10.865  2.4430 -2.2783 -0.1192
  394TMC3    C7 5894   4.171   0.759  10.986 -0.3094  0.2677 -0.6742
  394TMC3    C8 5895   3.706   0.867  10.944  0.4189  0.0037  0.4260
  394TMC3    O1 5896   4.280   0.786  11.034 -0.1575 -0.5035 -0.2648
  394TMC3    O2 5897   3.595   0.896  10.984  0.2662  0.3295 -0.3025
  395TMC3    C1 5898   3.595   2.319  15.132 -0.2988 -0.8701 -0.6316
  395TMC3    C2 5899   3.590   2.276  14.996  0.0399 -0.3823  0.3824
  395TMC3    C3 5900   3.677   2.325  14.899  0.4482  0.0585 -0.4146
  395TMC3    C4 5901   3.666   2.433  15.156  0.1827  0.7943  0.8063
  395TMC3    C5 5902   3.726   2.499  15.056 -0.0095  0.2908  0.7867
  395TMC3    C6 5903   3.741   2.443  14.930  0.2461 -0.5147 -0.2242
  395TMC3     C 5904   3.517   2.244  15.235 -0.0389 -0.3487 -0.3827
  395TMC3     O 5905   3.505   2.124  15.219  0.3353 -0.0550  0.1870
  395TMC3     H 5906   3.523   2.193  14.979  1.8033 -1.6391 -0.4026
  395TMC3    H1 5907   3.670   2.478  15.254  1.8229  2.3796 -0.0064
  395TMC3    H2 5908   3.803   2.495  14.857  0.9350 -0.5161  0.3556
  395TMC3    C7 5909   3.783   2.623  15.090  0.4460  0.1788 -0.7706
  395TMC3    C8 5910   3.652   2.294  14.760  0.6886  0.0888 -0.2562
  395TMC3    O1 5911   3.783   2.649  15.209  0.1042 -0.2809  0.4871
  395TMC3    O2 5912   3.722   2.354  14.681 -0.4282  0.5341 -0.3703
  396MPD2     C 5913   2.759   3.585  16.894 -0.3885  0.4717 -0.4270
  396MPD2    C1 5914   2.882   3.572  16.953 -0.2264  0.1118  0.5646
  396MPD2    C2 5915   2.978   3.680  16.952  0.0627 -0.2885  0.3910
  396MPD2    C3 5916   2.944   3.797  16.886 -0.0931 -0.3834 -0.1314
  396MPD2    C4 5917   2.818   3.808  16.825  0.1794 -0.1597  0.2237
  396MPD2    C5 5918   2.733   3.702  16.832  0.3439  0.0429  0.0504
  396MPD2     H 5919   3.073   3.671  17.004  0.9040 -1.1779 -1.2966
  396MPD2    H1 5920   2.787   3.902  16.782 -1.4265 -1.2035 -0.9278
  396MPD2    H2 5921   2.689   3.502  16.892  0.5189 -0.2861  0.0040
  396MPD2    H3 5922   2.635   3.710  16.787  1.6504  0.0966 -2.7553
  396MPD2     N 5923   3.029   3.910  16.886 -0.1562 -0.2677 -0.2956
  396MPD2    H5 5924   3.123   3.892  16.920 -0.3193  0.4103  0.5229
  396MPD2    N1 5925   2.906   3.441  17.007  0.4952  0.2300  0.0105
  396MPD2    H7 5926   2.835   3.370  16.991  1.3857 -0.8647  0.8756
  397TMC3    C1 5927   3.026   3.258  17.080  0.2955 -0.2592 -0.0309
  397TMC3    C2 5928   3.101   3.198  16.977  0.1349 -0.5714  0.5534
  397TMC3    C3 5929   3.043   3.099  16.900 -0.3031  0.3111 -0.0808
  397TMC3    C4 5930   2.900   3.209  17.101  0.7599 -0.2884  0.4534
  397TMC3    C5 5931   2.858   3.099  17.034  0.0840 -0.1573 -0.9083
  397TMC3    C6 5932   2.917   3.051  16.927  0.5766 -0.1041  0.4747
  397TMC3     C 5933   3.027   3.396  17.052 -0.3187  0.2504 -0.4896
  397TMC3     O 5934   3.130   3.454  17.077  0.0822 -0.6227  0.3208
  397TMC3     H 5935   3.179   3.244  16.918  0.5029 -0.3630  1.2073
  397TMC3    H1 5936   2.836   3.243  17.182 -1.1361  0.1562 -1.2072
  397TMC3    H2 5937   2.888   2.962  16.873 -1.0376  0.2520  0.7680
  397TMC3    C7 5938   2.751   3.021  17.090 -0.6997  0.1726 -0.1820
  397TMC3    C8 5939   3.072   3.102  16.757  0.1395  0.3452 -0.4053
  397TMC3    O1 5940   2.688   2.945  17.013 -0.0038 -0.1930 -0.5087
  397TMC3    O2 5941   2.971   3.094  16.686 -0.5758 -0.4115  0.0920
  398MPD2     C 5942   0.817   3.956  17.647 -1.3141  0.3796 -0.1738
  398MPD2    C1 5943   0.851   3.932   0.086 -0.1329 -0.6486  0.3655
  398MPD2    C2 5944   0.925   4.022   0.154 -0.2152  0.3754 -0.2636
  398MPD2    C3 5945   0.963   4.143   0.091  0.1507  0.1289  0.0072
  398MPD2    C4 5946   0.921   4.164  17.653  0.2489  0.1879 -0.0111
  398MPD2    C5 5947   0.830   4.080  17.595  0.2514 -0.1783  0.0936
  398MPD2     H 5948   0.947   4.004   0.258 -3.6361 -1.2179  0.1909
  398MPD2    H1 5949   0.950   4.259  17.610 -0.3001  0.5925  0.5109
  398MPD2    H2 5950   0.768   3.881  17.587 -1.3643  0.6343 -0.4529
  398MPD2    H3 5951   0.800   4.088  17.491 -1.0152 -0.1246  0.4571
  398MPD2     N 5952   1.030   4.236   0.168 -0.1151 -0.0128  0.3475
  398MPD2    H5 5953   1.045   4.207   0.264  1.1187 -1.7347 -0.3738
  398MPD2    N1 5954   0.809   3.818   0.154  0.4625 -0.2967 -0.5554
  398MPD2    H7 5955   0.854   3.808   0.244  0.1486  0.4730 -0.3153
  399TMC3    C1 5956   0.681   3.618   0.197 -0.1244  0.0730  0.2154
  399TMC3    C2 5957   0.768   3.593   0.303 -0.4568  1.1294 -0.0593
  399TMC3    C3 5958   0.756   3.480   0.376 -0.2675 -0.1722  0.0834
  399TMC3    C4 5959   0.575   3.532   0.171 -0.2994  0.4753 -0.1570
  399TMC3    C5 5960   0.567   3.424   0.254 -0.1506  0.7223 -0.4750
  399TMC3    C6 5961   0.652   3.392   0.355 -0.2805  0.0987 -0.3624
  399TMC3     C 5962   0.710   3.727   0.104  0.3692 -0.2177  0.6227
  399TMC3     O 5963   0.634   3.736   0.011  0.2207 -0.3805 -0.1866
  399TMC3     H 5964   0.846   3.660   0.339  0.0903  0.5605 -0.1966
  399TMC3    H1 5965   0.517   3.546   0.081  1.0588  4.0464 -0.4632
  399TMC3    H2 5966   0.646   3.294   0.401  0.6430  0.2944  0.1731
  399TMC3    C7 5967   0.458   3.334   0.233  0.3701 -0.0138  0.0091
  399TMC3    C8 5968   0.844   3.466   0.490 -0.1383 -0.1532  0.1752
  399TMC3    O1 5969   0.424   3.281   0.336 -0.9151  0.3215 -0.4078
  399TMC3    O2 5970   0.950   3.528   0.490 -0.3699  0.3316 -0.2254
  400TMC3    C1 5971   4.095   2.969  17.345 -0.3399  0.0958 -0.0782
  400TMC3    C2 5972   3.967   2.927  17.307 -0.1720  0.4412  0.0231
  400TMC3    C3 5973   3.911   3.020  17.222  0.2525 -0.2832 -0.9312
  400TMC3    C4 5974   4.155   3.085  17.301  0.4670 -0.3044  0.7051
  400TMC3    C5 5975   4.091   3.159  17.211  0.4942 -0.0238  0.6326
  400TMC3    C6 5976   3.964   3.134  17.172 -0.4089  0.2722  1.0117
  400TMC3     C 5977   4.151   2.881  17.448 -0.6844  0.3803 -0.5517
  400TMC3     O 5978   4.074   2.809  17.507  0.6677  0.1792 -0.6995
  400TMC3     H 5979   3.918   2.839  17.346  1.0443 -0.0549  0.4370
  400TMC3    H1 5980   4.248   3.137  17.321  0.2878  0.0142  0.7101
  400TMC3    H2 5981   3.911   3.195  17.100  0.1547 -0.6561 -0.1844
  400TMC3    C7 5982   4.142   3.286  17.160 -0.0012 -0.6708 -0.4850
  400TMC3    C8 5983   3.820   2.960  17.131  0.1997 -0.1784 -1.3027
  400TMC3    O1 5984   4.117   3.312  17.044 -0.0616 -0.2615 -0.4294
  400TMC3    O2 5985   3.818   2.996  17.015 -0.5923  0.2268  0.5560
  401MPD2     C 5986   2.672   1.305   1.226  0.1165  0.0669 -0.3191
  401MPD2    C1 5987   2.714   1.406   1.137  0.3024  0.0706  0.2684
  401MPD2    C2 5988   2.628   1.460   1.043  0.0181  0.8173 -0.1049
  401MPD2    C3 5989   2.497   1.415   1.038 -0.1759  1.0463 -0.1381
  401MPD2    C4 5990   2.450   1.320   1.123  0.4266 -0.4320 -0.5259
  401MPD2    C5 5991   2.543   1.265   1.210  0.6264  0.4082 -0.1010
  401MPD2     H 5992   2.667   1.545   0.987 -1.8601  2.7394  1.4886
  401MPD2    H1 5993   2.358   1.264   1.116  0.7322 -0.7292 -2.1898
  401MPD2    H2 5994   2.724   1.261   1.309 -2.2252  0.0868  1.1562
  401MPD2    H3 5995   2.530   1.176   1.269 -1.4751 -0.4017 -1.8010
  401MPD2     N 5996   2.412   1.472   0.945 -0.2093  0.5649  0.1099
  401MPD2    H5 5997   2.455   1.543   0.887  1.2238  0.8761  1.5306
  401MPD2    N1 5998   2.850   1.452   1.134 -0.0740 -0.0896 -0.4810
  401MPD2    H7 5999   2.875   1.511   1.055 -0.4433  0.2411 -0.3486
  402TMC3    C1 6000   2.207   1.517   0.821 -0.1898 -0.2237  0.1202
  402TMC3    C2 6001   2.284   1.600   0.748  0.0470  0.0391 -0.1778
  402TMC3    C3 6002   2.278   1.604   0.612  0.0089 -0.5350  0.4893
  402TMC3    C4 6003   2.113   1.441   0.756 -0.0178  0.5108 -0.3700
  402TMC3    C5 6004   2.095   1.454   0.622  0.1696 -0.6937  0.6164
  402TMC3    C6 6005   2.181   1.532   0.547 -0.1761 -0.0432  0.1142
  402TMC3     C 6006   2.275   1.448   0.934  0.0851  0.0596 -0.2439
  402TMC3     O 6007   2.209   1.361   0.984  0.3688 -0.7527 -0.3044
  402TMC3     H 6008   2.358   1.666   0.791 -0.5470  0.8241 -0.3578
  402TMC3    H1 6009   2.040   1.386   0.814 -0.3008 -0.0231 -1.2508
  402TMC3    H2 6010   2.177   1.527   0.439 -2.2480 -1.5851  0.2602
  402TMC3    C7 6011   2.062   1.323   0.570 -0.4617  0.7781 -0.1485
  402TMC3    C8 6012   2.404   1.554   0.551 -0.0097 -0.0547 -0.1342
  402TMC3    O1 6013   1.968   1.264   0.618 -0.2522 -0.4572 -0.1318
  402TMC3    O2 6014   2.402   1.438   0.517 -0.3284 -0.0487  0.1580
  403MPD2     C 6015   1.390   0.185  12.979  0.3681 -0.0481 -0.5701
  403MPD2    C1 6016   1.411   0.109  13.089  0.2475 -0.3192 -0.3824
  403MPD2    C2 6017   1.537   0.106  13.144  0.8132  0.1502  0.3276
  403MPD2    C3 6018   1.631   0.204  13.107 -0.2982 -0.2128 -0.5891
  403MPD2    C4 6019   1.606   0.276  12.992 -0.1238  0.3299 -0.3387
  403MPD2    C5 6020   1.487   0.267  12.930  0.7444  0.2157 -0.2556
  403MPD2     H 6021   1.549   0.043  13.232 -1.1005 -0.6828 -0.0152
  403MPD2    H1 6022   1.676   0.347  12.950 -0.6840  1.1858  0.1979
  403MPD2    H2 6023   1.295   0.175  12.929 -0.3794 -1.5352  1.1293
  403MPD2    H3 6024   1.456   0.325  12.844 -1.5368  1.6384  1.5194
  403MPD2     N 6025   1.748   0.216  13.186  0.1190  0.0893 -0.6643
  403MPD2    H5 6026   1.753   0.144  13.258  1.8662  0.9343  0.0482
  403MPD2    N1 6027   1.308   0.023  13.132  0.5140  0.3398  0.4133
  403MPD2    H7 6028   1.231   0.008  13.067  1.7137  0.8888 -1.1370
  404TMC3    C1 6029   1.220   4.552  13.224 -0.4044  0.0387  0.1971
  404TMC3    C2 6030   1.168   4.497  13.340  0.1689 -0.2553  0.3862
  404TMC3    C3 6031   1.081   4.391  13.326 -0.4881 -0.8938  0.2157
  404TMC3    C4 6032   1.200   4.497  13.106  0.5001 -0.1089  0.1014
  404TMC3    C5 6033   1.106   4.400  13.090  0.4099  0.1068  0.3636
  404TMC3    C6 6034   1.048   4.348  13.202  0.1980 -0.9230 -0.3068
  404TMC3     C 6035   1.321   4.655  13.237  0.7870  0.0790 -0.5060
  404TMC3     O 6036   1.390   4.654  13.336 -0.1844  0.1532 -0.0204
  404TMC3     H 6037   1.197   4.536  13.437  0.6453 -3.4839  1.5308
  404TMC3    H1 6038   1.260   4.534  13.024 -0.2538  0.5392 -0.1643
  404TMC3    H2 6039   0.981   4.262  13.207  1.8018 -2.0802  1.4299
  404TMC3    C7 6040   1.120   4.313  12.978  0.5778 -0.4555  0.0695
  404TMC3    C8 6041   1.073   4.302  13.447 -0.5536 -0.1970 -0.1246
  404TMC3    O1 6042   1.226   4.306  12.914 -0.2162 -0.2292  0.1128
  404TMC3    O2 6043   1.048   4.182  13.424 -0.6922  0.4659 -0.2362
  405MPD2     C 6044   1.308   1.062  14.163 -0.4271 -0.0168 -0.9962
  405MPD2    C1 6045   1.284   0.922  14.173  0.0517  0.2341 -0.2843
  405MPD2    C2 6046   1.160   0.868  14.130 -0.2354  0.2973 -0.2612
  405MPD2    C3 6047   1.069   0.953  14.074 -0.2582  0.3969  0.5887
  405MPD2    C4 6048   1.083   1.095  14.075  0.7579 -0.5422  0.1535
  405MPD2    C5 6049   1.204   1.138  14.113  0.3650  0.6768  0.1891
  405MPD2     H 6050   1.137   0.762  14.125 -1.4552  0.6362 -1.8500
  405MPD2    H1 6051   1.004   1.160  14.039 -0.7180 -3.5757 -2.1445
  405MPD2    H2 6052   1.401   1.113  14.183 -1.6437  1.0519  1.9505
  405MPD2    H3 6053   1.226   1.244  14.113 -0.6031  0.8714 -2.5407
  405MPD2     N 6054   0.965   0.898  13.997  0.0424 -0.3734 -0.0355
  405MPD2    H5 6055   0.964   0.797  13.996 -1.4977 -0.3478  0.3648
  405MPD2    N1 6056   1.389   0.838  14.219  0.1944 -0.7142  0.1157
  405MPD2    H7 6057   1.461   0.883  14.274 -0.6947 -0.2829  0.9356
  406TMC3    C1 6058   0.550   0.788  13.975  0.7288  0.2325  0.2572
  406TMC3    C2 6059   0.589   0.667  14.022  0.4977  0.0955  0.5105
  406TMC3    C3 6060   0.721   0.638  13.996  0.2192  0.0679 -0.0744
  406TMC3    C4 6061   0.634   0.886  13.924  0.0253 -0.1960  0.1135
  406TMC3    C5 6062   0.762   0.848  13.907 -0.5273 -0.3191  0.5806
  406TMC3    C6 6063   0.802   0.723  13.934  0.0616 -1.0409 -0.3733
  406TMC3     C 6064   0.422   0.837  14.019  0.5883 -0.1963 -0.0176
  406TMC3     O 6065   0.367   0.927  13.961 -0.1366 -0.4340  0.2581
  406TMC3     H 6066   0.520   0.594  14.062 -0.6854  0.8589 -0.1416
  406TMC3    H1 6067   0.607   0.990  13.920 -0.0671 -0.2568 -0.8696
  406TMC3    H2 6068   0.894   0.696  13.883  1.9910  0.9462  2.0129
  406TMC3    C7 6069   0.855   0.962  13.944 -0.1256  0.3126  0.3524
  406TMC3    C8 6070   0.768   0.500  14.026 -1.3795 -0.2647 -0.4129
  406TMC3    O1 6071   0.821   1.077  13.952 -0.0001  0.3274 -0.0983
  406TMC3    O2 6072   0.687   0.433  14.083 -0.1235  0.7866 -0.2198
  407MPD2     C 6073   0.278   1.957   9.274  0.1772  0.4433  0.0461
  407MPD2    C1 6074   0.267   1.826   9.327 -0.6432  0.1413 -1.1058
  407MPD2    C2 6075   0.182   1.810   9.433  0.0086  0.4087 -0.4182
  407MPD2    C3 6076   0.108   1.919   9.484 -0.1079  0.7855 -0.6144
  407MPD2    C4 6077   0.110   2.036   9.411  0.2928  0.0570 -0.0465
  407MPD2    C5 6078   0.190   2.052   9.307  0.2734 -0.4455  0.1038
  407MPD2     H 6079   0.172   1.708   9.470  0.9553  0.3442 -0.3505
  407MPD2    H1 6080   0.043   2.119   9.432 -0.0858 -0.8218  2.2839
  407MPD2    H2 6081   0.332   1.989   9.186 -0.0914 -1.3332 -0.7485
  407MPD2    H3 6082   0.187   2.145   9.252  0.9928  0.3587  1.4350
  407MPD2     N 6083   0.036   1.905   9.605  0.2724  0.3226  0.7752
  407MPD2    H5 6084   0.000   1.990   9.648 -0.0207  0.8889 -0.5946
  407MPD2    N1 6085   0.332   1.715   9.272 -0.3018  0.5695 -0.0649
  407MPD2    H7 6086   0.313   1.624   9.312  1.6119  1.2462  2.4556
  408TMC3    C1 6087   0.495   1.612   9.133  0.6367  0.4600  0.0252
  408TMC3    C2 6088   0.527   1.518   9.231 -0.3816 -0.6036 -0.1471
  408TMC3    C3 6089   0.624   1.428   9.201  0.2209  0.4764 -0.3857
  408TMC3    C4 6090   0.557   1.612   9.007 -0.5196  0.0724 -0.6402
  408TMC3    C5 6091   0.639   1.503   8.981 -0.3340  0.0904  0.6097
  408TMC3    C6 6092   0.678   1.412   9.073  0.2342  1.0402  0.1122
  408TMC3     C 6093   0.421   1.727   9.166 -0.2300  0.0900  0.1250
  408TMC3     O 6094   0.453   1.821   9.094 -0.3073 -0.0117  0.1338
  408TMC3     H 6095   0.487   1.511   9.332  0.1697 -0.0586  0.1140
  408TMC3    H1 6096   0.540   1.692   8.935  1.3855  0.2964 -0.8468
  408TMC3    H2 6097   0.761   1.343   9.061  0.4002  1.1087  0.8815
  408TMC3    C7 6098   0.718   1.515   8.859 -0.6814  0.0624  0.7200
  408TMC3    C8 6099   0.661   1.335   9.311  0.1527 -0.8326  0.2773
  408TMC3    O1 6100   0.720   1.628   8.821 -0.2092 -0.2658 -0.2142
  408TMC3    O2 6101   0.680   1.223   9.269 -0.2366 -0.4211  0.0750
  409MPD2     C 6102   2.938   2.712  17.209 -0.0375 -0.2662  0.0535
  409MPD2    C1 6103   3.008   2.740  17.323  0.3136  0.8786  0.0087
  409MPD2    C2 6104   3.127   2.815  17.326  0.2643  0.3747  0.4050
  409MPD2    C3 6105   3.181   2.855  17.209  0.0442  0.4115 -0.1629
  409MPD2    C4 6106   3.114   2.820  17.085  0.0132 -1.1991 -0.2734
  409MPD2    C5 6107   2.997   2.750  17.090 -0.2420 -0.1064 -0.2985
  409MPD2     H 6108   3.167   2.827  17.426  0.6663  1.7852  0.0622
  409MPD2    H1 6109   3.162   2.839  16.990  0.1073  2.6826  0.5770
  409MPD2    H2 6110   2.837   2.673  17.207  0.1210 -0.6423 -0.6880
  409MPD2    H3 6111   2.944   2.744  16.996 -1.9770  1.0467  0.5959
  409MPD2     N 6112   3.297   2.938  17.207 -0.0280 -0.2001  0.5181
  409MPD2    H5 6113   3.331   2.957  17.113 -1.2091 -0.2227  0.0770
  409MPD2    N1 6114   2.977   2.679  17.443 -0.7269  0.2213  0.0692
  409MPD2    H7 6115   3.045   2.689  17.518 -0.8864  0.2506  0.2115
  410TMC3    C1 6116   3.463   3.084  17.295 -0.2945 -0.2975 -0.1079
  410TMC3    C2 6117   3.550   3.115  17.399 -1.2005  0.1277  0.2714
  410TMC3    C3 6118   3.642   3.215  17.377 -0.8644 -0.3893 -0.1650
  410TMC3    C4 6119   3.476   3.146  17.173 -0.6098  1.2552  0.4076
  410TMC3    C5 6120   3.554   3.258  17.163 -0.3264  0.1643  0.2406
  410TMC3    C6 6121   3.644   3.290  17.261 -0.3896  0.1104  0.8921
  410TMC3     C 6122   3.357   2.989  17.322  0.1658 -0.3452  0.7147
  410TMC3     O 6123   3.347   2.951  17.439 -0.2946 -0.1860  0.6273
  410TMC3     H 6124   3.527   3.085  17.500 -2.6213 -2.6804 -0.9096
  410TMC3    H1 6125   3.404   3.133  17.092 -2.3758 -0.4268  2.2338
  410TMC3    H2 6126   3.725   3.360  17.252 -0.5712  0.3827  1.3468
  410TMC3    C7 6127   3.552   3.328  17.035 -0.3559 -0.5719  0.0284
  410TMC3    C8 6128   3.763   3.224  17.455  0.6769 -0.6551 -0.4917
  410TMC3    O1 6129   3.517   3.257  16.939 -0.4004  0.4768  0.4962
  410TMC3    O2 6130   3.849   3.307  17.428 -0.1234  0.1131 -0.4976
  411MPD2     C 6131   3.605   3.154  14.816  0.4347  0.0837  0.3187
  411MPD2    C1 6132   3.585   3.232  14.708  0.4254 -0.4571  0.3459
  411MPD2    C2 6133   3.521   3.175  14.603 -0.5030 -0.3112  0.3523
  411MPD2    C3 6134   3.467   3.047  14.608 -0.7076  0.1514  0.1655
  411MPD2    C4 6135   3.479   2.970  14.718 -0.0746  0.5049  0.2056
  411MPD2    C5 6136   3.564   3.019  14.820  0.2513 -0.2734  0.7044
  411MPD2     H 6137   3.509   3.234  14.513  2.9275  0.5712  0.4946
  411MPD2    H1 6138   3.464   2.862  14.719  0.2024  0.4547 -0.6013
  411MPD2    H2 6139   3.658   3.189  14.904 -0.6231 -1.5142  1.5875
  411MPD2    H3 6140   3.588   2.962  14.909 -1.5934 -2.3413 -0.1467
  411MPD2     N 6141   3.439   2.973  14.488  0.1874  0.5713  0.3304
  411MPD2    H5 6142   3.412   2.877  14.508 -0.3472  0.4973 -0.7736
  411MPD2    N1 6143   3.625   3.363  14.689  0.8881  0.3776  0.0245
  411MPD2    H7 6144   3.596   3.404  14.601 -0.1265 -0.9719 -0.2864
  412TMC3    C1 6145   3.426   2.917  14.259 -0.9920  0.1772 -0.4117
  412TMC3    C2 6146   3.450   2.967  14.131 -0.6446 -0.2986  0.8856
  412TMC3    C3 6147   3.500   2.879  14.041  0.0970  0.0651  0.4153
  412TMC3    C4 6148   3.450   2.789  14.297 -0.3333  0.1811 -0.4221
  412TMC3    C5 6149   3.511   2.710  14.212  0.2399 -0.9059  0.2915
  412TMC3    C6 6150   3.539   2.763  14.086  0.0082 -0.2383  0.2866
  412TMC3     C 6151   3.437   3.019  14.358  0.6567 -0.7865  0.2009
  412TMC3     O 6152   3.453   3.132  14.312 -0.4098 -0.1888  0.0780
  412TMC3     H 6153   3.394   3.057  14.108  1.0118  0.0558 -1.7177
  412TMC3    H1 6154   3.428   2.753  14.397  1.4268  2.1252  0.6499
  412TMC3    H2 6155   3.595   2.698  14.020  0.2540 -0.0107  0.2726
  412TMC3    C7 6156   3.461   2.578  14.211  0.1475 -0.1658 -0.2918
  412TMC3    C8 6157   3.450   2.873  13.910  0.5702  0.2507  0.0318
  412TMC3    O1 6158   3.452   2.523  14.319 -0.4388  0.4838  0.4799
  412TMC3    O2 6159   3.470   2.772  13.846  0.6138  0.3199 -0.3351
  413MPD2     C 6160   0.326   1.884  15.913  0.1787  0.0261 -0.5928
  413MPD2    C1 6161   0.259   1.880  15.793 -0.4297  0.2073  0.8981
  413MPD2    C2 6162   0.333   1.846  15.682 -1.1963 -0.7702 -0.1269
  413MPD2    C3 6163   0.467   1.820  15.683  0.2487 -0.1006 -0.0751
  413MPD2    C4 6164   0.538   1.841  15.802  0.4807  0.5917  0.5819
  413MPD2    C5 6165   0.461   1.876  15.914 -0.1450  0.6817  0.5476
  413MPD2     H 6166   0.280   1.816  15.593  1.7116 -2.4129 -1.3013
  413MPD2    H1 6167   0.645   1.838  15.819  0.7328  0.6561 -1.0005
  413MPD2    H2 6168   0.269   1.909  16.001 -0.9016 -1.9955 -0.7163
  413MPD2    H3 6169   0.514   1.895  16.007  4.0463  0.6015 -1.8355
  413MPD2     N 6170   0.520   1.770  15.564 -0.2260  0.3152  0.3156
  413MPD2    H5 6171   0.453   1.757  15.489 -0.7138  2.0146  0.4628
  413MPD2    N1 6172   0.118   1.872  15.804  0.0854 -0.4247 -0.3807
  413MPD2    H7 6173   0.078   1.861  15.897 -1.3864  0.0790 -0.9430
  414TMC3    C1 6174   0.688   1.688  15.422  0.4042 -0.0705  0.0783
  414TMC3    C2 6175   0.776   1.584  15.410 -0.1432 -0.6713  0.3386
  414TMC3    C3 6176   0.783   1.512  15.291 -0.6747  0.2255 -0.0832
  414TMC3    C4 6177   0.606   1.725  15.321  0.0809  0.8719 -0.0266
  414TMC3    C5 6178   0.624   1.669  15.200 -0.9355  0.4715  0.3381
  414TMC3    C6 6179   0.713   1.564  15.185 -0.1037 -0.4536  0.9635
  414TMC3     C 6180   0.653   1.723  15.557 -0.1265  0.1601  0.2979
  414TMC3     O 6181   0.734   1.708  15.648  0.6961 -0.3841 -0.4611
  414TMC3     H 6182   0.842   1.559  15.492  1.5657  2.1888 -0.1709
  414TMC3    H1 6183   0.566   1.826  15.324 -2.9700 -0.2475 -3.7597
  414TMC3    H2 6184   0.744   1.535  15.085  0.6112  1.1544  0.7237
  414TMC3    C7 6185   0.632   1.766  15.096 -0.1517 -0.2699  0.4559
  414TMC3    C8 6186   0.905   1.437  15.261  0.1218  0.8037  0.1612
  414TMC3    O1 6187   0.669   1.877  15.133 -0.2941  0.0407 -0.2249
  414TMC3    O2 6188   0.895   1.339  15.190 -0.5132 -0.0077 -0.6347
  415TMC3    C1 6189   0.926   4.022  10.467  0.1379  0.0105  0.0676
  415TMC3    C2 6190   0.977   4.142  10.426  0.0169 -0.6142 -0.2698
  415TMC3    C3 6191   0.888   4.232  10.377 -0.0854 -0.7090 -0.4620
  415TMC3    C4 6192   0.792   3.999  10.476  0.4314  0.4145 -0.0873
  415TMC3    C5 6193   0.709   4.100  10.438 -0.0019  0.3665 -0.6443
  415TMC3    C6 6194   0.753   4.218  10.380  0.4341 -0.2551 -0.4410
  415TMC3     C 6195   1.013   3.911  10.480  0.3122  0.2030 -0.2042
  415TMC3     O 6196   0.957   3.812  10.524  0.0919 -0.1740  0.7488
  415TMC3     H 6197   1.084   4.156  10.422 -0.0369 -0.3928 -1.0629
  415TMC3    H1 6198   0.752   3.899  10.493  1.4390 -0.1917 -1.3353
  415TMC3    H2 6199   0.682   4.281  10.327 -0.8272 -1.5371 -0.2672
  415TMC3    C7 6200   0.570   4.064  10.424 -0.4801 -0.0366  0.1705
  415TMC3    C8 6201   0.934   4.329  10.281  0.3693 -0.7162  0.7330
  415TMC3    O1 6202   0.506   4.131  10.341 -0.2291  0.0889 -0.6109
  415TMC3    O2 6203   0.850   4.353  10.189 -0.4054 -0.3551 -0.0324
  416MPD2     C 6204   3.561   2.912  11.636 -0.8488  0.2695  1.2346
  416MPD2    C1 6205   3.474   2.912  11.743 -0.3663  0.5829 -0.2262
  416MPD2    C2 6206   3.428   2.785  11.774  0.2964 -0.3147 -0.0631
  416MPD2    C3 6207   3.441   2.673  11.696  0.3250  0.1493  0.2526
  416MPD2    C4 6208   3.527   2.682  11.588 -0.5383  0.0599  0.3814
  416MPD2    C5 6209   3.582   2.798  11.561  0.1395  1.2186 -0.5530
  416MPD2     H 6210   3.365   2.768  11.862  0.0207 -1.9561 -0.5632
  416MPD2    H1 6211   3.546   2.598  11.521 -0.9215  0.1998  0.1034
  416MPD2    H2 6212   3.621   3.001  11.620 -1.1054 -0.4208 -3.4473
  416MPD2    H3 6213   3.648   2.801  11.475 -0.4269 -2.2060 -1.0779
  416MPD2     N 6214   3.354   2.560  11.719 -0.3655 -0.1118 -0.7501
  416MPD2    H5 6215   3.300   2.559  11.805 -0.1555  0.5517 -0.6115
  416MPD2    N1 6216   3.438   3.030  11.805 -0.5661  0.1030 -0.0886
  416MPD2    H7 6217   3.483   3.116  11.776  0.5088 -0.3184  0.3222
  417TMC3    C1 6218   3.286   3.188  11.897  0.0105 -0.7900  0.1151
  417TMC3    C2 6219   3.193   3.210  11.997  0.2688 -0.2499  0.3735
  417TMC3    C3 6220   3.111   3.317  11.986  0.0106 -0.2399  0.1682
  417TMC3    C4 6221   3.293   3.269  11.787 -0.0128 -0.0545  0.2600
  417TMC3    C5 6222   3.211   3.383  11.783  0.3610 -0.4410  0.6002
  417TMC3    C6 6223   3.128   3.410  11.887  0.1720 -0.1044 -0.0117
  417TMC3     C 6224   3.321   3.049  11.877  0.4944 -0.3676  0.2412
  417TMC3     O 6225   3.248   2.967  11.933  0.0405 -0.3241 -0.3774
  417TMC3     H 6226   3.165   3.137  12.072  0.7807 -0.7421  0.0934
  417TMC3    H1 6227   3.357   3.250  11.701 -1.4757  0.7663 -1.0057
  417TMC3    H2 6228   3.068   3.499  11.879  1.6730  0.7183 -2.1633
  417TMC3    C7 6229   3.160   3.416  11.652 -0.6847 -0.2454 -0.6850
  417TMC3    C8 6230   2.976   3.298  12.014 -0.0614 -0.2144  0.1649
  417TMC3    O1 6231   3.235   3.426  11.552 -0.4054  0.6834  0.4337
  417TMC3    O2 6232   2.898   3.333  11.924  1.2003 -0.4289  0.0627
  418TMC3    C1 6233   1.341   4.456   0.335 -0.5883 -0.5020 -0.4595
  418TMC3    C2 6234   1.265   4.455   0.225  0.7364 -0.3691  0.2341
  418TMC3    C3 6235   1.136   4.415   0.239  0.2746  0.1341  0.4202
  418TMC3    C4 6236   1.286   4.437   0.460 -0.3123  0.2912  0.5175
  418TMC3    C5 6237   1.153   4.401   0.467 -0.5698 -0.2280  0.0412
  418TMC3    C6 6238   1.083   4.374   0.358  0.1089  0.1161 -0.4621
  418TMC3     C 6239   1.474   4.414   0.313  0.4691  0.0105  0.0103
  418TMC3     O 6240   1.518   4.448   0.203 -0.0648 -1.0557  0.8658
  418TMC3     H 6241   1.305   4.484   0.129  0.8453  0.2220  0.4584
  418TMC3    H1 6242   1.346   4.442   0.550 -0.7632 -0.5560  0.8615
  418TMC3    H2 6243   0.980   4.344   0.372 -0.0972  0.8857 -0.3214
  418TMC3    C7 6244   1.099   4.338   0.588  0.7823  0.3051  0.5703
  418TMC3    C8 6245   1.072   4.355   0.120 -0.4855  0.2524 -0.2390
  418TMC3    O1 6246   1.040   4.234   0.563  0.0308 -0.2645  0.1308
  418TMC3    O2 6247   1.108   4.394   0.011  0.1255  0.0411  0.0700
  419MPD2     C 6248   0.745   3.267  12.618  0.2609  0.8551 -0.6647
  419MPD2    C1 6249   0.624   3.272  12.562 -0.2812  0.0028 -0.0638
  419MPD2    C2 6250   0.514   3.305  12.639  0.2791  0.2048 -0.4035
  419MPD2    C3 6251   0.539   3.339  12.776  0.0271 -0.2419 -0.3467
  419MPD2    C4 6252   0.666   3.340  12.827 -0.1813 -0.3681  0.9569
  419MPD2    C5 6253   0.770   3.305  12.749  0.3513 -0.1543 -0.1872
  419MPD2     H 6254   0.418   3.307  12.588 -1.1461 -2.3597  2.2108
  419MPD2    H1 6255   0.681   3.364  12.931 -0.6755  1.0218  0.6984
  419MPD2    H2 6256   0.833   3.245  12.559  0.0670  0.5115 -0.8282
  419MPD2    H3 6257   0.871   3.301  12.789 -0.0100  1.9052  0.9393
  419MPD2     N 6258   0.444   3.391  12.865  0.1539 -0.4167  0.1379
  419MPD2    H5 6259   0.471   3.444  12.947 -0.9914 -0.1842  0.3674
  419MPD2    N1 6260   0.602   3.242  12.421  0.2772 -0.6191 -0.2666
  419MPD2    H7 6261   0.509   3.253  12.381  0.1954  1.4519  0.4860
  420TMC3    C1 6262   0.228   3.440  12.943  0.4390 -0.1592  0.6663
  420TMC3    C2 6263   0.101   3.481  12.901 -0.5378 -0.0730  0.0620
  420TMC3    C3 6264   0.009   3.508  12.992  0.3847  0.1217  0.9729
  420TMC3    C4 6265   0.255   3.416  13.066 -0.4767 -0.0370  0.4636
  420TMC3    C5 6266   0.152   3.430  13.157  0.1696 -0.3877 -0.4160
  420TMC3    C6 6267   0.033   3.484  13.125 -0.3347 -0.1387 -1.0605
  420TMC3     C 6268   0.309   3.387  12.837  0.7102  0.2028 -0.8289
  420TMC3     O 6269   0.243   3.342  12.743  0.2047 -0.2792 -0.2838
  420TMC3     H 6270   0.076   3.488  12.796  0.4059  1.8967 -0.0167
  420TMC3    H1 6271   0.350   3.369  13.089  0.1213  0.6563 -0.6155
  420TMC3    H2 6272   4.677   3.494  13.200  1.4089  0.6048  0.6514
  420TMC3    C7 6273   0.196   3.399  13.295  0.4856 -0.2209  0.2429
  420TMC3    C8 6274   4.596   3.550  12.956  0.3395 -0.3186 -0.2360
  420TMC3    O1 6275   0.291   3.325  13.319 -0.0708  0.5526  0.4680
  420TMC3    O2 6276   4.508   3.538  13.039 -1.1906  0.2440 -0.0459
  421TMC3    C1 6277   1.888   0.332  13.336 -0.3190  1.4054 -0.1977
  421TMC3    C2 6278   1.851   0.432  13.420 -0.0321  0.7074 -0.4283
  421TMC3    C3 6279   1.864   0.414  13.550  0.0491  0.2193 -0.4199
  421TMC3    C4 6280   1.949   0.214  13.373 -0.7339  0.3312 -0.6088
  421TMC3    C5 6281   1.969   0.212  13.508 -0.4287 -0.2900  0.2909
  421TMC3    C6 6282   1.935   0.305  13.595 -0.4532 -0.6487 -0.3110
  421TMC3     C 6283   1.823   0.335  13.205 -0.1212 -0.0403  0.0953
  421TMC3     O 6284   1.808   0.441  13.146  0.3027  0.4030  1.0354
  421TMC3     H 6285   1.782   0.509  13.387 -0.7983 -0.2252 -1.0370
  421TMC3    H1 6286   1.962   0.128  13.309 -2.6475 -2.0507  2.2193
  421TMC3    H2 6287   1.955   0.296  13.701  1.5798  0.0331 -0.6265
  421TMC3    C7 6288   1.999   0.089  13.569 -0.0548 -0.0951  0.3646
  421TMC3    C8 6289   1.827   0.514  13.645 -0.2204 -0.2027 -0.0081
  421TMC3    O1 6290   1.938   0.064  13.673 -0.4047 -0.3265  0.4173
  421TMC3    O2 6291   1.873   0.503  13.760  0.2600  0.3448 -0.3533
  422TMC3    C1 6292   4.125   1.368  12.602 -0.6179  0.3176 -0.8871
  422TMC3    C2 6293   4.107   1.495  12.644 -0.4440  0.6629  0.0500
  422TMC3    C3 6294   3.984   1.525  12.695 -0.0984 -0.1888 -0.6907
  422TMC3    C4 6295   4.026   1.274  12.613  0.4120 -0.4226  0.3024
  422TMC3    C5 6296   3.906   1.308  12.674 -0.1332 -0.6335 -1.0386
  422TMC3    C6 6297   3.881   1.434  12.711  0.7644  0.6461 -0.5285
  422TMC3     C 6298   4.246   1.342  12.527  0.2201 -0.7748 -0.5501
  422TMC3     O 6299   4.300   1.444  12.479 -0.0841 -0.3220 -0.4700
  422TMC3     H 6300   4.174   1.580  12.638 -1.0055  1.2083  1.4738
  422TMC3    H1 6301   4.037   1.169  12.586 -1.0172 -0.0072 -1.9513
  422TMC3    H2 6302   3.784   1.461  12.751  0.8426  1.2507 -0.7536
  422TMC3    C7 6303   3.792   1.247  12.604  0.2561 -0.0625 -0.0406
  422TMC3    C8 6304   3.970   1.667  12.721  0.0493 -1.0898  0.3397
  422TMC3    O1 6305   3.818   1.204  12.495 -0.3812 -0.1155 -0.3714
  422TMC3    O2 6306   4.058   1.747  12.747 -0.4449 -0.2788  0.2755
  423MPD2     C 6307   0.606   2.002   0.696 -0.1601  0.3699  0.4579
  423MPD2    C1 6308   0.492   2.065   0.651 -0.3625  0.3606 -0.0173
  423MPD2    C2 6309   0.467   2.068   0.518  0.3434 -0.5902 -0.1760
  423MPD2    C3 6310   0.560   2.022   0.434  1.2248  0.1026 -0.0172
  423MPD2    C4 6311   0.680   1.971   0.478 -0.1642 -0.3788 -0.3707
  423MPD2    C5 6312   0.705   1.960   0.612 -0.1327 -0.2009 -0.1266
  423MPD2     H 6313   0.375   2.117   0.490  1.0487  0.0729 -1.3423
  423MPD2    H1 6314   0.749   1.921   0.412  0.1069 -0.6018  0.0839
  423MPD2    H2 6315   0.631   1.994   0.801 -1.4507 -0.7389  0.6772
  423MPD2    H3 6316   0.799   1.924   0.651  0.3579  0.7897 -0.3823
  423MPD2     N 6317   0.554   2.023   0.290 -0.3768 -0.9003 -0.6722
  423MPD2    H5 6318   0.638   1.992   0.242  0.7786  0.0343  0.7460
  423MPD2    N1 6319   0.386   2.113   0.739 -0.9184 -0.2223 -0.0358
  423MPD2    H7 6320   0.300   2.147   0.698 -0.7536  0.2770  0.0378
  424TMC3    C1 6321   0.282   2.144   0.947  0.7265  0.7612 -0.1294
  424TMC3    C2 6322   0.302   2.146   1.085 -0.0072 -0.0957 -0.1398
  424TMC3    C3 6323   0.190   2.172   1.162 -0.8178  0.4674 -0.6214
  424TMC3    C4 6324   0.155   2.162   0.890 -0.5100  0.2612  0.3678
  424TMC3    C5 6325   0.049   2.180   0.977 -0.4763  0.0587  0.3552
  424TMC3    C6 6326   0.066   2.199   1.107  0.6154 -0.3532 -0.0112
  424TMC3     C 6327   0.397   2.110   0.872  0.7136  0.7809 -0.0794
  424TMC3     O 6328   0.485   2.070   0.944  0.4172  0.0577 -0.2465
  424TMC3     H 6329   0.398   2.150   1.135 -0.2721 -1.3008  0.4556
  424TMC3    H1 6330   0.138   2.146   0.784  1.4474 -3.0369  0.5286
  424TMC3    H2 6331   4.704   2.214   1.174  0.6172  0.6302 -0.2208
  424TMC3    C7 6332   4.638   2.186   0.926 -0.0166 -0.2031  0.6847
  424TMC3    C8 6333   0.191   2.122   1.291  0.0075  0.1734  0.3835
  424TMC3    O1 6334   4.632   2.173   0.805  0.6550 -0.1328 -0.2785
  424TMC3    O2 6335   0.118   2.175   1.372  0.1510 -0.2283 -0.1886
  425MPD2     C 6336   3.957   1.545  17.543  0.3992  0.0305 -0.3070
  425MPD2    C1 6337   3.889   1.429  17.545  0.6966 -0.3185 -0.9337
  425MPD2    C2 6338   3.757   1.420  17.595  0.1533 -0.4158 -0.3195
  425MPD2    C3 6339   3.690   1.540  17.630 -0.2442 -0.0475 -0.3605
  425MPD2    C4 6340   3.760   1.659  17.618  0.4072 -0.9054 -0.1141
  425MPD2    C5 6341   3.890   1.663  17.571 -0.0184  0.5790  0.2255
  425MPD2     H 6342   3.693   1.334  17.603 -1.6913  1.0550  0.8045
  425MPD2    H1 6343   3.727   1.761  17.638 -1.1640 -1.6200  0.8611
  425MPD2    H2 6344   4.064   1.544  17.530  0.5863 -1.7499  1.4051
  425MPD2    H3 6345   3.950   1.753  17.578  1.1889 -0.2621  0.7698
  425MPD2     N 6346   3.551   1.535  17.664 -0.1321 -0.0069 -0.0484
  425MPD2    H5 6347   3.504   1.446  17.674 -0.6212  0.4696  1.9008
  425MPD2    N1 6348   3.964   1.313  17.518  0.2535  0.0154 -0.0600
  425MPD2    H7 6349   4.062   1.325  17.492 -0.5146  1.2120 -2.3894
  426TMC3    C1 6350   4.013   1.090  17.463  0.5383  0.2681 -0.0441
  426TMC3    C2 6351   3.964   0.983  17.388  0.9248 -0.6455 -0.6132
  426TMC3    C3 6352   4.065   0.903  17.337 -0.1426 -0.1005 -0.0193
  426TMC3    C4 6353   4.142   1.120  17.492  0.5087  0.3732 -0.5599
  426TMC3    C5 6354   4.232   1.033  17.430 -0.4487 -0.0394  0.6517
  426TMC3    C6 6355   4.198   0.931  17.355  0.1292 -0.0339  0.5902
  426TMC3     C 6356   3.915   1.180  17.519 -0.6164  0.3682 -0.1339
  426TMC3     O 6357   3.799   1.141  17.525 -0.1461 -0.0910  0.4752
  426TMC3     H 6358   3.859   0.970  17.364 -0.0066  0.7774  2.6971
  426TMC3    H1 6359   4.174   1.194  17.563  2.7732  0.8951 -2.1357
  426TMC3    H2 6360   4.272   0.861  17.317  0.2884 -0.5617  1.8677
  426TMC3    C7 6361   4.376   1.051  17.451 -0.0039  1.1868 -0.3458
  426TMC3    C8 6362   4.028   0.788  17.258  0.1493  0.2914 -0.0002
  426TMC3    O1 6363   4.451   0.978  17.388  0.0493  0.3525  0.0848
  426TMC3    O2 6364   4.119   0.745  17.189  0.0007  0.0806  0.1776
  427MPD2     C 6365   2.975   3.786  14.895  0.8065 -0.4127  0.5647
  427MPD2    C1 6366   2.930   3.658  14.912 -0.0342  0.3929  0.4638
  427MPD2    C2 6367   2.803   3.623  14.861  0.9250 -0.8797 -0.6796
  427MPD2    C3 6368   2.728   3.715  14.798  0.0774 -0.0144 -0.4316
  427MPD2    C4 6369   2.785   3.843  14.771  0.6948  0.7058 -0.0670
  427MPD2    C5 6370   2.903   3.882  14.823  0.3023  0.1034  0.0267
  427MPD2     H 6371   2.777   3.519  14.877 -0.3434 -0.4494  0.0754
  427MPD2    H1 6372   2.731   3.924  14.723 -0.1232  0.4571  0.4509
  427MPD2    H2 6373   3.068   3.811  14.944  1.0957 -0.4310  0.0121
  427MPD2    H3 6374   2.956   3.976  14.813  3.2596 -1.6973 -1.0354
  427MPD2     N 6375   2.597   3.690  14.748 -0.2886 -0.0308  0.0359
  427MPD2    H5 6376   2.548   3.763  14.698  1.0808  0.4686 -0.5803
  427MPD2    N1 6377   2.999   3.562  14.987  0.4123 -0.5222 -0.4843
  427MPD2    H7 6378   2.945   3.477  14.996 -1.0274  0.6499  1.9481
  428TMC3    C1 6379   3.154   3.490  15.143  1.0396  0.7004 -0.0957
  428TMC3    C2 6380   3.057   3.414  15.202 -0.7471 -0.0555 -0.4856
  428TMC3    C3 6381   3.090   3.354  15.321  0.0460 -0.0059 -0.5670
  428TMC3    C4 6382   3.276   3.509  15.205  0.4292 -0.2336 -0.0209
  428TMC3    C5 6383   3.301   3.451  15.330  0.0366  0.3422  0.2306
  428TMC3    C6 6384   3.205   3.378  15.391  0.3018 -0.9373 -0.7442
  428TMC3     C 6385   3.125   3.574  15.028 -0.1721 -0.4171  0.0445
  428TMC3     O 6386   3.209   3.653  14.991  0.0619 -0.2736 -0.4430
  428TMC3     H 6387   2.955   3.403  15.167 -0.5237 -1.3486 -0.7227
  428TMC3    H1 6388   3.340   3.588  15.169 -0.8793  0.6722 -0.3641
  428TMC3    H2 6389   3.217   3.364  15.497  0.3560 -0.3372 -0.6757
  428TMC3    C7 6390   3.419   3.509  15.405  0.2516  0.2874  0.0896
  428TMC3    C8 6391   2.994   3.258  15.379  0.1694  0.8845  0.0795
  428TMC3    O1 6392   3.397   3.560  15.516  0.3950 -0.3158  0.5869
  428TMC3    O2 6393   2.888   3.265  15.319 -0.8710 -0.0649 -0.0626
  429MPD2     C 6394   3.701   3.707   0.538 -0.2609 -0.1986  0.4373
  429MPD2    C1 6395   3.793   3.616   0.488 -0.4542  0.4503  0.3702
  429MPD2    C2 6396   3.901   3.671   0.421 -0.1721 -0.2625 -0.1038
  429MPD2    C3 6397   3.901   3.809   0.388 -0.0217  0.0860 -0.0484
  429MPD2    C4 6398   3.796   3.890   0.421  0.7186  0.1896 -0.2179
  429MPD2    C5 6399   3.698   3.839   0.497  0.1628  0.4332  0.0159
  429MPD2     H 6400   3.977   3.604   0.383  2.0800  2.0955  0.2171
  429MPD2    H1 6401   3.796   3.992   0.385  0.6457  0.0260 -0.6758
  429MPD2    H2 6402   3.609   3.674   0.586  0.5853 -3.6139 -0.3599
  429MPD2    H3 6403   3.611   3.896   0.526  0.4172  1.0657 -0.4662
  429MPD2     N 6404   4.004   3.847   0.300 -0.1489  0.0493 -0.1821
  429MPD2    H5 6405   4.075   3.777   0.279 -0.9859 -1.3635  1.6784
  429MPD2    N1 6406   3.789   3.476   0.502  0.4664  0.5449  0.2337
  429MPD2    H7 6407   3.873   3.424   0.483 -0.3999  0.1808 -2.5769
  430TMC3    C1 6408   4.129   3.965   0.147 -0.3312 -0.2879 -0.0916
  430TMC3    C2 6409   4.144   4.085   0.084  0.5382 -0.4420  0.4604
  430TMC3    C3 6410   4.240   4.088  17.677  0.0537  0.2907 -0.1665
  430TMC3    C4 6411   4.187   3.846   0.112  0.2908  0.3705  0.4888
  430TMC3    C5 6412   4.266   3.860   0.009  0.1012  1.0263  0.2320
  430TMC3    C6 6413   4.312   3.977  17.653  0.7261  0.0192  0.2147
  430TMC3     C 6414   4.035   3.969   0.251  0.0342  1.2878  0.3326
  430TMC3     O 6415   3.986   4.081   0.284 -0.1220 -0.1397 -0.1264
  430TMC3     H 6416   4.069   4.163   0.092 -0.8201 -1.6430 -0.5214
  430TMC3    H1 6417   4.158   3.744   0.139  0.7274  0.5051  1.4633
  430TMC3    H2 6418   4.378   3.979  17.567  0.7384  0.8658  0.2434
  430TMC3    C7 6419   4.260   3.755  17.598  0.2579 -0.1448 -0.2260
  430TMC3    C8 6420   4.196   4.147  17.557  0.6293  0.1322 -0.1610
  430TMC3    O1 6421   4.254   3.646  17.647 -0.1321 -0.5343 -0.0785
  430TMC3    O2 6422   4.190   4.072  17.464 -0.2019 -0.4080 -0.3426
  431MPD2     C 6423   0.046   3.551  12.542 -0.3201 -0.4690 -0.1443
  431MPD2    C1 6424   0.166   3.591  12.487  0.3246 -0.3023  0.4653
  431MPD2    C2 6425   0.245   3.518  12.396 -0.1461  0.0954 -0.2907
  431MPD2    C3 6426   0.201   3.388  12.362  0.1642 -0.2921 -0.2624
  431MPD2    C4 6427   0.088   3.337  12.426 -0.5368  0.1088  1.0485
  431MPD2    C5 6428   0.007   3.420  12.501 -0.3908  0.2889  0.0038
  431MPD2     H 6429   0.327   3.574  12.353 -1.5081  1.0468 -1.6626
  431MPD2    H1 6430   0.040   3.253  12.377 -0.2231  0.4809  0.1154
  431MPD2    H2 6431   4.694   3.602  12.602 -0.3530 -1.4284  0.6231
  431MPD2    H3 6432   4.632   3.382  12.531  1.3501 -0.9051  4.0794
  431MPD2     N 6433   0.272   3.311  12.267 -0.0301 -0.0718 -0.3923
  431MPD2    H5 6434   0.247   3.213  12.253  0.8534 -0.1473 -1.5045
  431MPD2    N1 6435   0.218   3.713  12.524 -0.4046 -0.0779  0.3120
  431MPD2    H7 6436   0.309   3.744  12.492 -0.5836  0.0270 -0.0900
  432TMC3    C1 6437   0.439   3.249  12.108  0.8094 -0.4204  0.9172
  432TMC3    C2 6438   0.511   3.308  12.005  0.4055 -0.3072 -0.5239
  432TMC3    C3 6439   0.649   3.308  12.000 -0.4776  0.3455  0.0204
  432TMC3    C4 6440   0.514   3.170  12.202 -0.3639  0.0132 -0.1169
  432TMC3    C5 6441   0.651   3.175  12.203  0.4029 -0.3124 -0.4856
  432TMC3    C6 6442   0.719   3.245  12.102  0.5987 -0.0285  0.2155
  432TMC3     C 6443   0.370   3.362  12.183  0.0790  0.1403 -0.2094
  432TMC3     O 6444   0.413   3.475  12.165  0.8680 -0.6131 -0.2707
  432TMC3     H 6445   0.459   3.369  11.932 -0.7962  0.1309  0.6931
  432TMC3    H1 6446   0.452   3.109  12.267 -2.0859  2.5822  0.6471
  432TMC3    H2 6447   0.826   3.259  12.115  0.8323  0.0619 -1.9254
  432TMC3    C7 6448   0.700   3.194  12.332  0.7328  0.5187  0.6006
  432TMC3    C8 6449   0.711   3.423  11.928  0.0760 -0.2903 -0.3628
  432TMC3    O1 6450   0.811   3.152  12.363 -0.1895 -0.0541  0.0761
  432TMC3    O2 6451   0.642   3.486  11.848 -0.9588 -0.4423 -0.0998
  433MPD2     C 6452   4.082   2.298  10.613 -0.2683 -0.0047 -0.1709
  433MPD2    C1 6453   4.058   2.174  10.673  0.2311  0.2113  0.5323
  433MPD2    C2 6454   4.049   2.159  10.812  0.5170  0.5086  0.6459
  433MPD2    C3 6455   4.060   2.282  10.887 -0.2642  0.5033  0.3825
  433MPD2    C4 6456   4.086   2.402  10.823  0.2291 -0.2133 -0.1282
  433MPD2    C5 6457   4.092   2.410  10.686  0.1814  0.9719  0.0787
  433MPD2     H 6458   4.024   2.066  10.860 -0.4952  0.5904  0.2873
  433MPD2    H1 6459   4.118   2.491  10.876  2.1245  0.5821 -2.6367
  433MPD2    H2 6460   4.092   2.311  10.506 -1.3809 -1.3608 -0.4419
  433MPD2    H3 6461   4.118   2.506  10.642  1.9464 -0.1732 -1.3479
  433MPD2     N 6462   4.064   2.267  11.025  0.3914 -0.2799 -0.6180
  433MPD2    H5 6463   4.041   2.174  11.056  0.3631  0.3610  1.3230
  433MPD2    N1 6464   4.027   2.068  10.587 -1.3809 -0.1545 -0.1604
  433MPD2    H7 6465   4.053   2.092  10.491 -0.0673  0.5924  0.3899
  434TMC3    C1 6466   3.964   1.843  10.530 -0.0588  0.2115 -0.8265
  434TMC3    C2 6467   3.908   1.725  10.576  0.9216 -0.0748 -0.0414
  434TMC3    C3 6468   3.940   1.605  10.524  0.0217  0.3856 -0.9124
  434TMC3    C4 6469   4.046   1.845  10.415 -0.5637 -0.3954  0.2573
  434TMC3    C5 6470   4.067   1.726  10.362 -0.1729  0.2033  0.2497
  434TMC3    C6 6471   4.024   1.603  10.416  0.1095  0.1799  0.0843
  434TMC3     C 6472   3.955   1.958  10.618 -0.0805 -0.5592  0.0351
  434TMC3     O 6473   3.893   1.935  10.721 -0.0893  0.5410 -0.2479
  434TMC3     H 6474   3.848   1.729  10.666  1.2290  0.8465  0.1274
  434TMC3    H1 6475   4.090   1.935  10.374  0.6638 -1.6324 -1.1261
  434TMC3    H2 6476   4.059   1.506  10.383  1.6012  0.9343 -0.5365
  434TMC3    C7 6477   4.138   1.713  10.238 -0.0202  0.4547 -0.3360
  434TMC3    C8 6478   3.960   1.502  10.625  0.0271  0.4332  0.5589
  434TMC3    O1 6479   4.210   1.804  10.210  0.7509  0.6067  0.2768
  434TMC3    O2 6480   3.925   1.527  10.738  0.0329 -0.0146 -0.2404
  435MPD2     C 6481   0.808   3.030  15.820  0.0240  0.1209 -0.2124
  435MPD2    C1 6482   0.743   2.902  15.815  0.3350  0.3583  0.4783
  435MPD2    C2 6483   0.817   2.792  15.860  0.3879  0.2731 -0.3542
  435MPD2    C3 6484   0.956   2.799  15.883  0.0110 -0.3753  0.2070
  435MPD2    C4 6485   1.021   2.921  15.876 -0.1540  0.0108  0.3679
  435MPD2    C5 6486   0.942   3.032  15.857 -0.4043  0.3632 -1.0018
  435MPD2     H 6487   0.778   2.691  15.867  1.3185 -0.0643 -0.0695
  435MPD2    H1 6488   1.124   2.924  15.911 -0.8275 -0.3020  2.3611
  435MPD2    H2 6489   0.757   3.125  15.810 -1.0898 -0.3998  0.4672
  435MPD2    H3 6490   0.995   3.126  15.868  0.8461 -0.4269 -0.3204
  435MPD2     N 6491   1.016   2.674  15.902  0.1088  0.0246  0.3751
  435MPD2    H5 6492   0.951   2.605  15.938 -0.4654  0.4608  0.1723
  435MPD2    N1 6493   0.610   2.882  15.804 -0.1121 -0.7844 -0.1838
  435MPD2    H7 6494   0.577   2.787  15.804 -0.1437 -0.7744  0.0735
  436TMC3    C1 6495   0.236   2.803  15.907 -0.8917 -0.0749 -0.1620
  436TMC3    C2 6496   0.360   2.827  15.868 -0.5146 -0.4436  0.5424
  436TMC3    C3 6497   0.379   2.934  15.787  0.0668 -0.6253 -0.3150
  436TMC3    C4 6498   0.126   2.876  15.867  0.6698  0.3113 -0.1906
  436TMC3    C5 6499   0.152   2.981  15.788  0.2310  0.0087  0.8429
  436TMC3    C6 6500   0.281   3.017  15.746 -0.1289  0.2664  0.5634
  436TMC3     C 6501   0.225   2.722  16.034 -0.2745 -0.2193 -0.2251
  436TMC3     O 6502   0.321   2.649  16.055  0.2222 -0.5624 -0.1246
  436TMC3     H 6503   0.440   2.779  15.923  1.1653 -0.4342 -1.9136
  436TMC3    H1 6504   0.029   2.848  15.906  0.6720 -1.4657 -1.4551
  436TMC3    H2 6505   0.312   3.088  15.671  1.2620 -0.3984  0.5125
  436TMC3    C7 6506   0.037   3.059  15.750 -0.2933  0.0113  0.1833
  436TMC3    C8 6507   0.514   2.980  15.782 -0.6210 -0.4392 -0.5936
  436TMC3    O1 6508   4.651   3.014  15.781 -0.4018  0.4386  0.0515
  436TMC3    O2 6509   0.531   3.100  15.751 -0.3958 -0.1012  0.2863
  437TMC3    C1 6510   4.460   4.285  12.714 -0.2522 -0.3822 -0.0902
  437TMC3    C2 6511   4.320   4.296  12.694  0.8808  0.9666  0.5002
  437TMC3    C3 6512   4.273   4.393  12.605  0.8397 -0.6386  0.4195
  437TMC3    C4 6513   4.551   4.349  12.631  0.1585 -0.7646 -0.1846
  437TMC3    C5 6514   4.498   4.448  12.551  0.8879  0.3906 -0.6633
  437TMC3    C6 6515   4.363   4.472  12.544 -0.0585 -0.2056  0.0200
  437TMC3     C 6516   4.498   4.172  12.795 -0.4761  0.3475  0.0934
  437TMC3     O 6517   4.405   4.111  12.851  0.0125 -0.6236  0.5038
  437TMC3     H 6518   4.241   4.254  12.755  0.5498  1.7006  0.5834
  437TMC3    H1 6519   4.650   4.311  12.609  0.6422  0.6856 -0.5117
  437TMC3    H2 6520   4.313   4.550  12.488  0.5332  1.2885  1.6062
  437TMC3    C7 6521   4.589   4.523  12.461 -0.3849  0.3745  0.3060
  437TMC3    C8 6522   4.137   4.446  12.623 -0.1041  1.0660  0.5039
  437TMC3    O1 6523   4.541   4.590  12.369  0.7247 -0.0075  0.1147
  437TMC3    O2 6524   4.118   4.563  12.610  0.3459 -0.8596  0.6252
  438MPD2     C 6525   1.700   4.672  16.855 -0.0198  0.3836 -0.4054
  438MPD2    C1 6526   1.754   0.049  16.932  0.3587  0.2108  0.8867
  438MPD2    C2 6527   1.710   0.057  17.062 -0.3549  0.4908 -0.1914
  438MPD2    C3 6528   1.640   4.677  17.123  0.4821 -0.2320  0.1208
  438MPD2    C4 6529   1.588   4.577  17.039  0.4023 -0.3039  0.4098
  438MPD2    C5 6530   1.615   4.581  16.906 -0.6081 -0.2601 -0.3102
  438MPD2     H 6531   1.754   0.131  17.129 -0.4058 -0.2029  0.6051
  438MPD2    H1 6532   1.517   4.503  17.074 -0.1462 -0.6837 -1.5395
  438MPD2    H2 6533   1.721   4.664  16.749 -0.6230 -0.1079 -0.4865
  438MPD2    H3 6534   1.567   4.505  16.846  0.4040 -0.3014 -1.0818
  438MPD2     N 6535   1.601   4.671  17.261  0.1042  0.4457 -0.4734
  438MPD2    H5 6536   1.538   4.597  17.290 -1.2011  0.3663 -3.4582
  438MPD2    N1 6537   1.859   0.130  16.893 -0.0454 -0.6526 -0.1474
  438MPD2    H7 6538   1.903   0.170  16.975  0.0630  0.4498 -0.7343
  439TMC3    C1 6539   2.038   0.207  16.758 -0.1225  1.0325  0.1668
  439TMC3    C2 6540   2.059   0.269  16.641  0.6054 -0.1402  0.1161
  439TMC3    C3 6541   2.179   0.334  16.626  0.0554 -0.3779 -0.9299
  439TMC3    C4 6542   2.123   0.211  16.867  1.1654  1.1527 -0.2775
  439TMC3    C5 6543   2.241   0.270  16.845  0.5221  0.1613  0.0116
  439TMC3    C6 6544   2.278   0.344  16.726  0.7837 -0.2211  0.0443
  439TMC3     C 6545   1.909   0.143  16.770 -0.2848  0.0920 -0.0240
  439TMC3     O 6546   1.843   0.126  16.666 -0.4044  0.4969 -0.8215
  439TMC3     H 6547   1.995   0.250  16.555  2.6015 -1.6713 -1.0406
  439TMC3    H1 6548   2.101   0.142  16.947  2.0173  2.8520  1.4444
  439TMC3    H2 6549   2.379   0.378  16.706  0.6108  0.4513  0.2991
  439TMC3    C7 6550   2.338   0.247  16.952 -0.1887  0.5001 -0.1964
  439TMC3    C8 6551   2.246   0.348  16.492  0.0461 -0.1482  0.2094
  439TMC3    O1 6552   2.314   0.154  17.032  0.8865 -0.1194 -0.7417
  439TMC3    O2 6553   2.361   0.316  16.497 -0.3763  0.0863  0.0578
  440MPD2     C 6554   0.889   0.719  14.341  0.0607  0.2118 -0.5307
  440MPD2    C1 6555   0.926   0.846  14.383 -0.0034  0.0540 -0.1719
  440MPD2    C2 6556   1.039   0.870  14.453 -0.2908  0.3100  0.0163
  440MPD2    C3 6557   1.123   0.766  14.487 -0.5234 -0.0113 -0.9627
  440MPD2    C4 6558   1.085   0.640  14.444  0.2062  0.0534  0.0381
  440MPD2    C5 6559   0.975   0.617  14.378  0.0933  0.0014  0.2023
  440MPD2     H 6560   1.068   0.965  14.496 -0.7960  0.0449  0.9549
  440MPD2    H1 6561   1.149   0.558  14.477  2.9304  0.6084 -3.7689
  440MPD2    H2 6562   0.802   0.695  14.281 -0.1361 -1.5750  0.4656
  440MPD2    H3 6563   0.956   0.513  14.353  0.6027  0.0986 -0.5890
  440MPD2     N 6564   1.224   0.777  14.586 -0.0939  0.1288 -0.0838
  440MPD2    H5 6565   1.264   0.696  14.631 -0.6497  0.9367  1.8380
  440MPD2    N1 6566   0.852   0.959  14.354  0.1253  0.3233 -0.9133
  440MPD2    H7 6567   0.894   1.051  14.355 -0.2569  0.5385 -3.3392
  441TMC3    C1 6568   1.319   0.858  14.775 -0.7530  0.1677  0.1572
  441TMC3    C2 6569   1.369   0.963  14.840 -0.6171 -0.0419 -1.0985
  441TMC3    C3 6570   1.367   0.970  14.978  0.6132 -0.1094  0.3031
  441TMC3    C4 6571   1.266   0.753  14.847 -0.2679 -0.4374 -0.1693
  441TMC3    C5 6572   1.254   0.761  14.981  0.4030 -0.1579 -0.3058
  441TMC3    C6 6573   1.307   0.871  15.051 -0.3612 -0.3811  0.0182
  441TMC3     C 6574   1.265   0.891  14.646 -0.6882  0.3402  0.5451
  441TMC3     O 6575   1.255   1.010  14.618 -0.0845 -0.1634 -0.1254
  441TMC3     H 6576   1.399   1.047  14.779  0.5363  0.4984  0.2019
  441TMC3    H1 6577   1.205   0.678  14.798  1.2181 -0.9888 -1.2043
  441TMC3    H2 6578   1.310   0.873  15.159 -1.9005  1.0403  0.0339
  441TMC3    C7 6579   1.163   0.667  15.054 -0.0542 -0.3049  0.0742
  441TMC3    C8 6580   1.395   1.088  15.046  0.0427 -0.4695  0.0682
  441TMC3    O1 6581   1.152   0.693  15.173 -0.1450 -0.7024 -0.4923
  441TMC3    O2 6582   1.496   1.144  15.005 -0.5571  0.3864 -0.3299
  442MPD2     C 6583   3.803   1.469  16.811  0.7105 -0.0800 -0.4182
  442MPD2    C1 6584   3.696   1.386  16.834  0.2797 -0.3827 -0.1254
  442MPD2    C2 6585   3.704   1.251  16.801 -0.1288  0.0097 -0.5561
  442MPD2    C3 6586   3.823   1.193  16.756  0.4869  0.0147 -0.5365
  442MPD2    C4 6587   3.928   1.272  16.734 -0.9027  0.3253 -0.0322
  442MPD2    C5 6588   3.917   1.407  16.763  0.0297  0.3657 -0.6178
  442MPD2     H 6589   3.616   1.188  16.811 -0.8314  0.7756 -1.8986
  442MPD2    H1 6590   4.024   1.227  16.713 -0.6013  1.1409 -0.4111
  442MPD2    H2 6591   3.806   1.576  16.827 -0.9431  0.2787 -2.5440
  442MPD2    H3 6592   4.002   1.471  16.748 -0.9327  1.6566 -0.5711
  442MPD2     N 6593   3.841   1.053  16.739 -0.2035  0.3364  0.7384
  442MPD2    H5 6594   3.909   1.030  16.667  1.3564  0.1424  2.2879
  442MPD2    N1 6595   3.569   1.432  16.873  0.2119  0.1731  0.2282
  442MPD2    H7 6596   3.489   1.369  16.876 -2.1215  3.2286  2.2616
  443TMC3    C1 6597   3.412   1.584  16.952  0.0840  0.6819 -0.3753
  443TMC3    C2 6598   3.349   1.700  16.926 -0.2230  0.5412 -0.1440
  443TMC3    C3 6599   3.215   1.699  16.942 -0.0452 -0.3016 -0.8732
  443TMC3    C4 6600   3.352   1.476  17.006 -0.1911  0.3007 -0.0439
  443TMC3    C5 6601   3.221   1.488  17.033  0.7926  0.7285 -0.0046
  443TMC3    C6 6602   3.151   1.598  17.010  0.0026  0.7406  0.1628
  443TMC3     C 6603   3.545   1.565  16.903  0.8470  0.3087 -0.0535
  443TMC3     O 6604   3.610   1.665  16.892  0.6669  0.2007  0.0683
  443TMC3     H 6605   3.402   1.784  16.882 -2.7852  1.4637 -1.4501
  443TMC3    H1 6606   3.401   1.385  17.036  2.8858  1.8846 -0.2886
  443TMC3    H2 6607   3.046   1.605  17.035 -0.2893 -0.2683 -0.7609
  443TMC3    C7 6608   3.167   1.390  17.120  0.6911 -0.4638 -0.1421
  443TMC3    C8 6609   3.137   1.790  16.867 -0.5394  0.3271  0.0125
  443TMC3    O1 6610   3.226   1.284  17.119 -0.4253 -0.2606 -0.3926
  443TMC3    O2 6611   3.036   1.822  16.925 -0.1209 -0.1552  0.4740
  444MPD2     C 6612   4.150   0.613  17.526  0.2254  0.2202  0.4496
  444MPD2    C1 6613   4.072   0.504  17.498 -0.0230 -0.2124  1.1137
  444MPD2    C2 6614   4.112   0.417  17.400 -0.5191 -0.0478  0.4849
  444MPD2    C3 6615   4.233   0.429  17.331 -0.0383 -0.3997 -0.7093
  444MPD2    C4 6616   4.321   0.527  17.374  0.3899 -0.1129  0.0174
  444MPD2    C5 6617   4.271   0.626  17.456  0.2783  0.6761  0.8868
  444MPD2     H 6618   4.053   0.331  17.371  1.3322 -1.8400  2.0469
  444MPD2    H1 6619   4.428   0.528  17.354  0.8058  0.5075  2.2551
  444MPD2    H2 6620   4.112   0.684  17.598 -1.5932  0.7565 -1.0367
  444MPD2    H3 6621   4.334   0.703  17.499  0.4819 -0.3445  2.3969
  444MPD2     N 6622   4.268   0.315  17.254  0.6428 -0.5628 -0.5772
  444MPD2    H5 6623   4.205   0.236  17.248  0.7081 -0.7897  1.7959
  444MPD2    N1 6624   3.945   0.490  17.560  0.1705  0.3714  0.2846
  444MPD2    H7 6625   3.902   0.400  17.539 -2.0668  1.2622  1.1430
  445TMC3    C1 6626   4.423   0.177  17.133  0.1907  0.1407 -0.2508
  445TMC3    C2 6627   4.389   0.075  17.224 -0.0822 -0.4965 -0.5263
  445TMC3    C3 6628   4.464   4.681  17.223  0.4786  0.1610  0.3708
  445TMC3    C4 6629   4.535   0.172  17.055 -0.4798  0.3079  0.6634
  445TMC3    C5 6630   4.613   0.065  17.069 -0.8539 -0.3213  0.3511
  445TMC3    C6 6631   4.575   4.672  17.142 -0.5999  0.2093  0.0884
  445TMC3     C 6632   4.381   0.313  17.177  0.0657 -0.0374 -0.3595
  445TMC3     O 6633   4.443   0.408  17.123  0.0197  0.4527  0.2747
  445TMC3     H 6634   4.321   0.091  17.307  1.1532 -1.5890  0.6995
  445TMC3    H1 6635   4.574   0.256  17.000 -2.1463  0.9259  0.4444
  445TMC3    H2 6636   4.636   4.583  17.149  0.4678  0.9526  0.3465
  445TMC3    C7 6637   4.722   0.053  16.970 -0.0723  0.1622  0.1358
  445TMC3    C8 6638   4.448   4.593  17.336 -0.1444 -0.5266 -0.1627
  445TMC3    O1 6639   4.712   0.125  16.870  0.2877  0.0852  0.0440
  445TMC3    O2 6640   4.408   4.645  17.441 -0.6134 -0.1939 -0.4880
  446MPD2     C 6641   3.725   1.267  11.180 -0.3142  0.8103 -0.9074
  446MPD2    C1 6642   3.711   1.296  11.044 -0.5494  0.2423 -0.7368
  446MPD2    C2 6643   3.806   1.380  10.985 -0.2638 -0.3751  0.3603
  446MPD2    C3 6644   3.907   1.441  11.063 -0.3143  0.6136  0.0375
  446MPD2    C4 6645   3.917   1.403  11.195  0.4672 -0.1502  0.1446
  446MPD2    C5 6646   3.825   1.315  11.251  0.1681  0.5961  0.3500
  446MPD2     H 6647   3.799   1.398  10.879  0.9089  0.8269  0.4778
  446MPD2    H1 6648   3.994   1.440  11.261  0.5029 -1.5797  0.9015
  446MPD2    H2 6649   3.651   1.208  11.234  0.0833 -0.2693 -1.5563
  446MPD2    H3 6650   3.836   1.295  11.357 -0.9875 -1.7230  0.0343
  446MPD2     N 6651   3.987   1.544  11.006 -0.3430  0.5078 -0.2713
  446MPD2    H5 6652   3.973   1.569  10.909 -0.7743 -1.3969 -0.7053
  446MPD2    N1 6653   3.615   1.242  10.962  0.7632 -0.3702 -0.5683
  446MPD2    H7 6654   3.631   1.263  10.864  1.9014  0.5800 -0.1855
  447TMC3    C1 6655   4.159   1.711  10.990  0.4364 -0.4542 -0.6382
  447TMC3    C2 6656   4.165   1.704  10.854 -0.2582 -0.4106  0.2289
  447TMC3    C3 6657   4.222   1.813  10.791  0.1270 -0.3488  0.9455
  447TMC3    C4 6658   4.221   1.811  11.057  0.1291  0.3715 -0.0334
  447TMC3    C5 6659   4.271   1.918  10.986 -0.4523 -0.4287  0.0822
  447TMC3    C6 6660   4.263   1.926  10.854 -0.9881  0.0304 -0.0189
  447TMC3     C 6661   4.097   1.604  11.069  0.0401  0.7231 -0.0813
  447TMC3     O 6662   4.144   1.579  11.182  0.1083 -0.0660  0.5696
  447TMC3     H 6663   4.119   1.626  10.794 -1.7549  0.4034  0.2992
  447TMC3    H1 6664   4.232   1.801  11.165  1.2545 -1.1796 -0.2878
  447TMC3    H2 6665   4.320   2.003  10.802 -0.1095 -1.2973 -1.0165
  447TMC3    C7 6666   4.378   2.004  11.041  0.2198  0.2532 -0.6140
  447TMC3    C8 6667   4.288   1.783  10.660 -0.4504  0.1961 -0.1069
  447TMC3    O1 6668   4.452   2.061  10.964  0.2493 -0.6468 -0.0867
  447TMC3    O2 6669   4.289   1.875  10.586 -0.8789  0.4834 -0.8735
  448TMC3    C1 6670   1.615   2.105  17.287 -0.4223 -0.1481  0.0675
  448TMC3    C2 6671   1.668   2.012  17.193 -0.3771  0.3845  0.3064
  448TMC3    C3 6672   1.668   1.878  17.231 -0.7927  0.0543  0.7730
  448TMC3    C4 6673   1.575   2.068  17.411 -0.6329  0.2460  0.1121
  448TMC3    C5 6674   1.579   1.937  17.441  0.3343 -0.5599  0.2379
  448TMC3    C6 6675   1.630   1.844  17.356 -0.0070 -0.2627 -0.3426
  448TMC3     C 6676   1.618   2.241  17.260  0.1878 -0.1898 -0.5388
  448TMC3     O 6677   1.518   2.308  17.286  0.1614  0.1390  0.0764
  448TMC3     H 6678   1.696   2.040  17.092  1.9038 -0.7570  0.6265
  448TMC3    H1 6679   1.539   2.143  17.481 -0.0700  0.3532  0.2843
  448TMC3    H2 6680   1.627   1.740  17.388  0.4013  0.6678  2.7092
  448TMC3    C7 6681   1.509   1.902  17.565  0.2819 -0.3609 -0.1868
  448TMC3    C8 6682   1.735   1.772  17.153 -0.3205 -0.4530 -0.0706
  448TMC3    O1 6683   1.480   1.996  17.643 -0.0134  0.6557 -0.3215
  448TMC3    O2 6684   1.743   1.663  17.207  0.2033 -0.1899  0.1154
  449MPD2     C 6685   3.534   4.541  13.895  0.6212  0.4335  0.0068
  449MPD2    C1 6686   3.434   4.535  13.807 -0.1760 -0.3630  0.0846
  449MPD2    C2 6687   3.308   4.547  13.856  0.2618 -0.3379  0.3051
  449MPD2    C3 6688   3.282   4.558  13.986 -0.2925 -0.1324  0.1933
  449MPD2    C4 6689   3.383   4.570  14.070 -0.4665 -0.5519 -0.5582
  449MPD2    C5 6690   3.509   4.559  14.027  0.0806  0.4714 -0.2750
  449MPD2     H 6691   3.230   4.552  13.781  0.4329  1.5216  0.2597
  449MPD2    H1 6692   3.370   4.600  14.174  3.9008 -2.1756  0.4766
  449MPD2    H2 6693   3.640   4.545  13.872  0.3778  0.8881 -1.0001
  449MPD2    H3 6694   3.592   4.582  14.094  0.4210 -2.8581  0.4186
  449MPD2     N 6695   3.149   4.569  14.026 -0.0349 -0.9001 -0.1547
  449MPD2    H5 6696   3.083   4.553  13.951 -2.4917  1.3647  1.5263
  449MPD2    N1 6697   3.449   4.524  13.664 -0.0714  0.1546  0.5477
  449MPD2    H7 6698   3.360   4.522  13.616  0.8216  0.7004 -1.1088
  450TMC3    C1 6699   3.521   4.525  13.456  0.0945  0.0673  0.3509
  450TMC3    C2 6700   3.568   4.625  13.379 -0.5498 -0.1607  0.3799
  450TMC3    C3 6701   3.480   4.696  13.301 -0.3164 -0.3585  0.5277
  450TMC3    C4 6702   3.386   4.494  13.449  0.0341  0.0335 -0.6882
  450TMC3    C5 6703   3.300   4.576  13.386  0.8710  0.0669 -0.4231
  450TMC3    C6 6704   3.339   4.685  13.314 -0.4675  0.6127  0.3030
  450TMC3     C 6705   3.563   4.535  13.592  0.2254 -0.5467  0.5426
  450TMC3     O 6706   3.682   4.546  13.621  0.0963  0.1836 -0.4320
  450TMC3     H 6707   3.674   4.648  13.375  0.1886 -4.1540 -3.0342
  450TMC3    H1 6708   3.347   4.394  13.464 -2.5938  0.9101 -1.7448
  450TMC3    H2 6709   3.278   0.009  13.238 -0.3978  0.9931  0.4806
  450TMC3    C7 6710   3.171   4.586  13.458  0.3215  0.9463 -0.0913
  450TMC3    C8 6711   3.526   0.058  13.192 -0.1265  0.2678 -0.0440
  450TMC3    O1 6712   3.159   4.509  13.550  0.4068 -0.0875 -0.4910
  450TMC3    O2 6713   3.452   0.130  13.132 -0.6953 -0.6703 -0.4829
  451MPD2     C 6714   4.594   3.807   1.623 -0.2048 -0.0634 -0.0739
  451MPD2    C1 6715   4.487   3.787   1.535 -0.9700  0.5824 -0.7472
  451MPD2    C2 6716   4.460   3.662   1.505 -0.0644 -0.3547 -0.0819
  451MPD2    C3 6717   4.535   3.560   1.548  0.4746 -0.4204 -0.5330
  451MPD2    C4 6718   4.632   3.583   1.645 -0.3297 -0.3289  0.6514
  451MPD2    C5 6719   4.669   3.710   1.678 -0.7943  0.0670  0.2517
  451MPD2     H 6720   4.387   3.635   1.429  0.1978 -2.6711  0.4993
  451MPD2    H1 6721   4.691   3.497   1.676  0.7566  1.0197  2.3804
  451MPD2    H2 6722   4.617   3.908   1.656  2.2870 -0.6655  0.0570
  451MPD2    H3 6723   0.036   3.732   1.736 -0.6922  0.6994 -0.1538
  451MPD2     N 6724   4.515   3.420   1.519 -0.2796 -0.0815 -0.6197
  451MPD2    H5 6725   4.578   3.359   1.570 -0.2252  0.3120 -0.2144
  451MPD2    N1 6726   4.417   3.889   1.476  0.1472  0.0958  0.3111
  451MPD2    H7 6727   4.454   3.983   1.490  0.5670  0.3175 -2.2172
  452TMC3    C1 6728   4.453   3.228   1.412  0.7316 -0.6532 -0.0234
  452TMC3    C2 6729   4.447   3.159   1.535 -0.8383  0.6287 -0.0311
  452TMC3    C3 6730   4.462   3.020   1.527  0.6065 -0.0701 -0.2136
  452TMC3    C4 6731   4.469   3.168   1.295  0.3989  0.7855  0.2257
  452TMC3    C5 6732   4.476   3.026   1.290  0.1832  0.4204  0.2604
  452TMC3    C6 6733   4.472   2.947   1.409  0.1859 -0.4084  0.1642
  452TMC3     C 6734   4.446   3.372   1.413  0.4742  1.3569 -0.1623
  452TMC3     O 6735   4.424   3.429   1.308 -0.1359 -0.1591 -0.4083
  452TMC3     H 6736   4.428   3.218   1.624  0.0385 -1.9899  1.9059
  452TMC3    H1 6737   4.470   3.223   1.201  0.9145 -1.3105 -0.9802
  452TMC3    H2 6738   4.482   2.839   1.405  2.7942 -0.1035 -2.1978
  452TMC3    C7 6739   4.482   2.959   1.159  0.4842 -0.5753  0.4993
  452TMC3    C8 6740   4.466   2.951   1.653 -0.1636  0.0782  0.4332
  452TMC3    O1 6741   4.536   3.020   1.066  0.6501 -0.1200 -0.1914
  452TMC3    O2 6742   4.439   2.833   1.657 -0.0345 -1.0659  0.4930
  453TMC3    C1 6743   1.562   0.703  11.731  0.2377 -0.5916  0.6144
  453TMC3    C2 6744   1.513   0.633  11.835  0.9521  0.7286  0.1967
  453TMC3    C3 6745   1.492   0.496  11.815 -0.1837  0.7902 -0.0348
  453TMC3    C4 6746   1.588   0.643  11.611  0.1484 -0.0949  0.3960
  453TMC3    C5 6747   1.600   0.503  11.603 -0.1738 -0.6353  0.0583
  453TMC3    C6 6748   1.544   0.433  11.709 -1.0342  1.0729 -0.1660
  453TMC3     C 6749   1.638   0.820  11.757  0.0075 -0.7631  0.6246
  453TMC3     O 6750   1.738   0.834  11.687  0.4440  0.2348  0.1133
  453TMC3     H 6751   1.494   0.670  11.935 -0.1766  1.8686 -0.4521
  453TMC3    H1 6752   1.632   0.701  11.531 -0.4053 -0.0182  0.1506
  453TMC3    H2 6753   1.545   0.325  11.699 -0.9582  1.0641 -0.0644
  453TMC3    C7 6754   1.589   0.431  11.482 -0.6661  0.9515  0.1571
  453TMC3    C8 6755   1.429   0.419  11.918 -0.2795  1.1134 -0.0999
  453TMC3    O1 6756   1.609   0.310  11.482  0.0835  0.1595  0.5079
  453TMC3    O2 6757   1.417   0.470  12.030 -0.3122 -0.0566 -0.6583
  454MPD2     C 6758   4.602   0.564  16.253  0.2476  0.1360  0.3150
  454MPD2    C1 6759   4.552   0.437  16.231  0.0185 -0.5697 -0.3048
  454MPD2    C2 6760   4.469   0.384  16.330 -0.2802  0.3737  0.1063
  454MPD2    C3 6761   4.431   0.454  16.440 -0.1073  0.6580  0.0240
  454MPD2    C4 6762   4.477   0.580  16.463 -0.1946  0.2932  0.8318
  454MPD2    C5 6763   4.564   0.625  16.369  0.5625  0.0514  0.3322
  454MPD2     H 6764   4.432   0.285  16.307  0.5916 -0.0022  0.2947
  454MPD2    H1 6765   4.444   0.644  16.543  1.2542 -0.2209  1.8363
  454MPD2    H2 6766   4.661   0.619  16.181  0.0231  1.6364  1.2824
  454MPD2    H3 6767   4.598   0.727  16.383 -0.4507  0.2272  1.5098
  454MPD2     N 6768   4.325   0.404  16.531 -0.3399  0.0911 -0.1442
  454MPD2    H5 6769   4.292   0.458  16.610  1.1282  0.7115  0.0478
  454MPD2    N1 6770   4.558   0.359  16.111 -0.1033 -0.3629  0.5315
  454MPD2    H7 6771   4.507   0.272  16.105  1.8548 -1.4463 -0.3275
  455TMC3    C1 6772   4.134   0.270  16.581 -0.3037  0.3697  0.4125
  455TMC3    C2 6773   4.107   0.346  16.689  0.2346 -0.4630 -0.1034
  455TMC3    C3 6774   3.989   0.321  16.745  0.3997  0.3169 -0.3925
  455TMC3    C4 6775   4.044   0.182  16.526 -0.4576  0.4749 -0.3357
  455TMC3    C5 6776   3.910   0.195  16.564 -0.2620 -0.5053  0.9908
  455TMC3    C6 6777   3.888   0.253  16.682 -0.1520  0.2097 -0.1653
  455TMC3     C 6778   4.258   0.288  16.514  0.1780  0.4289  0.0222
  455TMC3     O 6779   4.297   0.187  16.453  0.0577 -0.2548 -0.8356
  455TMC3     H 6780   4.192   0.396  16.735 -0.2747  0.3077 -0.0160
  455TMC3    H1 6781   4.069   0.109  16.449  0.1367  0.8403 -0.4917
  455TMC3    H2 6782   3.784   0.262  16.711  0.3457  0.0179  1.7189
  455TMC3    C7 6783   3.805   0.147  16.475  0.2807 -0.3662 -0.1056
  455TMC3    C8 6784   3.956   0.414  16.849  0.1265 -0.3371  0.1923
  455TMC3    O1 6785   3.693   0.128  16.519 -1.0036  0.3354  0.4816
  455TMC3    O2 6786   4.042   0.502  16.856 -0.6714  0.2398  0.1007
  456MPD2     C 6787   2.307   0.709  16.280 -0.5238 -0.2041  0.0166
  456MPD2    C1 6788   2.383   0.701  16.388 -0.0801 -0.3985  0.2798
  456MPD2    C2 6789   2.337   0.740  16.505  0.6987  0.1478  0.1911
  456MPD2    C3 6790   2.214   0.807  16.507  0.1746  0.4038  0.4738
  456MPD2    C4 6791   2.132   0.819  16.402  0.3945  1.0193 -0.0727
  456MPD2    C5 6792   2.185   0.768  16.285  0.2863  0.2312  0.4395
  456MPD2     H 6793   2.384   0.724  16.601 -2.5481 -1.5749  1.4609
  456MPD2    H1 6794   2.035   0.868  16.399 -0.6364 -1.0499 -0.8543
  456MPD2    H2 6795   2.340   0.677  16.182 -0.3284  1.3923 -0.4524
  456MPD2    H3 6796   2.122   0.773  16.196  0.7980 -0.6752  0.0270
  456MPD2     N 6797   2.180   0.866  16.637  0.1185 -0.1821 -0.2074
  456MPD2    H5 6798   2.248   0.837  16.706 -0.3370  2.0117  1.1580
  456MPD2    N1 6799   2.494   0.611  16.382  0.0632  0.2260 -0.6333
  456MPD2    H7 6800   2.525   0.571  16.294  0.3493  1.2465 -0.9899
  457TMC3    C1 6801   2.084   1.014  16.786  0.2069 -0.6878 -0.0668
  457TMC3    C2 6802   2.013   1.132  16.800 -0.3794  0.3279 -1.1335
  457TMC3    C3 6803   2.026   1.194  16.918 -0.2249 -0.1001  0.5384
  457TMC3    C4 6804   2.157   0.958  16.889 -0.0474  0.1111  0.7174
  457TMC3    C5 6805   2.161   1.024  17.006 -0.1164  0.6441 -0.3431
  457TMC3    C6 6806   2.090   1.135  17.028 -0.5745 -0.1385  0.4133
  457TMC3     C 6807   2.076   0.955  16.659  0.2980 -0.0431  0.5318
  457TMC3     O 6808   2.011   1.009  16.573 -0.1037 -0.5922 -0.3373
  457TMC3     H 6809   1.957   1.179  16.719 -1.7309  0.2801 -0.2224
  457TMC3    H1 6810   2.214   0.866  16.877  2.1042  1.6429 -0.7324
  457TMC3    H2 6811   2.074   1.178  17.126  0.4172 -0.7939  0.8660
  457TMC3    C7 6812   2.208   0.947  17.121  1.0526  0.3263  0.3008
  457TMC3    C8 6813   1.956   1.324  16.941 -0.0103  0.8738  0.0266
  457TMC3    O1 6814   2.220   0.823  17.108  0.4167  1.1958  0.1728
  457TMC3    O2 6815   1.925   1.354  17.057 -0.2639 -0.1846  0.4799
  458MPD2     C 6816   0.336   4.718  12.339 -0.7097  0.2110  0.0562
  458MPD2    C1 6817   0.348   4.609  12.427  0.5936 -0.5050  0.0076
  458MPD2    C2 6818   0.236   4.539  12.451 -0.8694  0.0513  0.8518
  458MPD2    C3 6819   0.110   4.582  12.428 -0.0334 -0.3649 -0.4401
  458MPD2    C4 6820   0.099   4.683  12.339  0.1232  0.2593 -0.6587
  458MPD2    C5 6821   0.213   0.019  12.284 -0.4915 -0.6645 -0.0694
  458MPD2     H 6822   0.242   4.445  12.506  0.8763 -0.4938 -0.2669
  458MPD2    H1 6823   0.002   4.720  12.306 -0.1812  1.3123  1.4148
  458MPD2    H2 6824   0.415   0.061  12.302 -1.4164  0.7449 -0.4933
  458MPD2    H3 6825   0.206   0.094  12.205  2.3724  0.9611  1.2281
  458MPD2     N 6826   0.001   4.518  12.493 -0.0302 -0.7927 -0.2002
  458MPD2    H5 6827   0.029   4.451  12.564 -0.9467  0.9487  1.8079
  458MPD2    N1 6828   0.475   4.579  12.476 -0.4562 -0.0468 -0.1255
  458MPD2    H7 6829   0.551   4.635  12.438 -1.8054  1.9995  0.1791
  459TMC3    C1 6830   0.621   4.499  12.652  0.2595  0.4386 -0.1237
  459TMC3    C2 6831   0.739   4.524  12.586  0.0706 -0.0719 -0.2472
  459TMC3    C3 6832   0.846   4.560  12.658 -0.6445 -0.5761  0.6127
  459TMC3    C4 6833   0.615   4.490  12.788  0.8166  0.2491  0.1268
  459TMC3    C5 6834   0.726   4.530  12.855 -0.0096  0.0931  0.3371
  459TMC3    C6 6835   0.841   4.581  12.793  0.1759 -0.0993  0.2477
  459TMC3     C 6836   0.493   4.496  12.587 -0.1065  0.1232 -0.1459
  459TMC3     O 6837   0.414   4.431  12.647 -0.1698  0.3934  0.0825
  459TMC3     H 6838   0.742   4.544  12.479 -0.0057  0.3374 -0.1736
  459TMC3    H1 6839   0.527   4.455  12.840  1.1193 -1.0247 -0.2160
  459TMC3    H2 6840   0.930   4.589  12.855  0.8093  0.5340 -0.7533
  459TMC3    C7 6841   0.724   4.510  12.991 -0.4985 -0.4662 -0.4018
  459TMC3    C8 6842   0.979   4.534  12.602 -0.6117 -0.5981  0.3485
  459TMC3    O1 6843   0.659   4.415  13.027 -0.2207 -0.1337  0.2421
  459TMC3    O2 6844   1.074   4.549  12.680  0.4455  0.2317 -0.0633
  460MPD2     C 6845   4.438   1.461  10.559 -0.8794 -0.2896  0.5943
  460MPD2    C1 6846   4.397   1.592  10.540  0.0571 -0.0141  0.3187
  460MPD2    C2 6847   4.425   1.658  10.422 -0.2827  0.0501 -0.2656
  460MPD2    C3 6848   4.510   1.602  10.326 -0.4223 -0.0888  0.0093
  460MPD2    C4 6849   4.545   1.469  10.346  0.0565  0.1523  0.2314
  460MPD2    C5 6850   4.508   1.404  10.462 -0.4737 -0.0743 -0.2479
  460MPD2     H 6851   4.389   1.758  10.403 -2.4689 -0.4440  1.3396
  460MPD2    H1 6852   4.607   1.411  10.279 -2.1366 -1.0102 -0.7841
  460MPD2    H2 6853   4.423   1.393  10.642  2.7085  0.3704  1.7527
  460MPD2    H3 6854   4.537   1.302  10.485 -0.1510 -0.0763 -0.6540
  460MPD2     N 6855   4.546   1.687  10.224  0.9112 -0.3085 -0.6606
  460MPD2    H5 6856   4.512   1.783  10.229 -0.3434 -0.8717  1.2499
  460MPD2    N1 6857   4.323   1.652  10.644 -0.4364  0.3374  0.1769
  460MPD2    H7 6858   4.325   1.604  10.734 -0.3426  1.3997  0.7442
  461TMC3    C1 6859   4.611   1.757  10.010 -0.2879 -0.5122 -0.3797
  461TMC3    C2 6860   4.676   1.732   9.894 -0.6250 -0.1496 -0.7543
  461TMC3    C3 6861   4.646   1.813   9.789 -0.0702  0.6828  0.0471
  461TMC3    C4 6862   4.532   1.869  10.029  0.0557  0.2564  0.3042
  461TMC3    C5 6863   4.503   1.939   9.915  0.4155 -0.6190  0.2880
  461TMC3    C6 6864   4.556   1.912   9.795  0.3331  0.0671 -0.3093
  461TMC3     C 6865   4.621   1.654  10.113  0.1087 -0.7209  0.2994
  461TMC3     O 6866   4.688   1.562  10.083 -0.2077 -0.2590 -0.2780
  461TMC3     H 6867   0.023   1.650   9.879 -0.5202  0.3231 -2.8796
  461TMC3    H1 6868   4.466   1.878  10.115 -0.1305  1.2387  0.0533
  461TMC3    H2 6869   4.535   1.971   9.706 -0.0002 -0.7769 -0.7837
  461TMC3    C7 6870   4.402   2.034   9.924  0.6384 -0.5533 -0.3270
  461TMC3    C8 6871   0.005   1.789   9.670  0.4582 -0.1675  0.2564
  461TMC3    O1 6872   4.381   2.095  10.025  0.0101 -0.2321 -0.5240
  461TMC3    O2 6873   0.035   1.674   9.658  0.2383 -0.8749 -0.1882
  462TMC3    C1 6874   3.522   3.536   0.843 -1.0415  0.2115  0.6053
  462TMC3    C2 6875   3.647   3.501   0.868 -0.1740  0.2123  0.5928
  462TMC3    C3 6876   3.662   3.372   0.900 -0.0487  0.5030 -0.0161
  462TMC3    C4 6877   3.422   3.446   0.843  0.0135  0.2575  0.0465
  462TMC3    C5 6878   3.454   3.312   0.843 -0.4998  0.3798  0.5449
  462TMC3    C6 6879   3.575   3.267   0.871  0.6591  0.6050  0.0812
  462TMC3     C 6880   3.490   3.676   0.851  0.4197  0.2366  0.5463
  462TMC3     O 6881   3.575   3.747   0.899 -0.4431  0.2246 -0.5570
  462TMC3     H 6882   3.730   3.571   0.868  0.4968 -0.5888  1.3112
  462TMC3    H1 6883   3.322   3.482   0.824  0.1881  0.4325 -0.5533
  462TMC3    H2 6884   3.593   3.170   0.916  0.0897  1.0553  1.2628
  462TMC3    C7 6885   3.362   3.203   0.817  0.0096 -0.2710 -0.0745
  462TMC3    C8 6886   3.798   3.334   0.939 -0.1691  0.5053  0.2009
  462TMC3    O1 6887   3.403   3.093   0.779  0.3237 -0.2168  0.0913
  462TMC3    O2 6888   3.874   3.426   0.973  0.6004 -0.4119  0.4376
  463MPD2     C 6889   4.544   2.061   2.344 -0.9260  0.8246  0.3428
  463MPD2    C1 6890   4.531   2.071   2.203  0.1711  0.6521 -0.9313
  463MPD2    C2 6891   4.575   2.183   2.133 -0.6115 -1.0354  0.3976
  463MPD2    C3 6892   4.653   2.280   2.197 -0.2124  0.2357 -0.2725
  463MPD2    C4 6893   4.671   2.262   2.332  0.4019  0.3709 -0.0995
  463MPD2    C5 6894   4.617   2.161   2.408  0.1699  0.4251 -0.6295
  463MPD2     H 6895   4.550   2.189   2.028 -0.1209  0.4215  0.3625
  463MPD2    H1 6896   0.020   2.320   2.389 -0.6998  0.4010  1.2383
  463MPD2    H2 6897   4.513   1.980   2.408 -0.7968  0.3767 -0.1593
  463MPD2    H3 6898   4.636   2.154   2.515 -1.9874 -0.4543 -0.3132
  463MPD2     N 6899   4.711   2.395   2.139 -0.1365 -1.0104 -0.5115
  463MPD2    H5 6900   0.025   2.456   2.212 -0.4458 -1.8576  0.3517
  463MPD2    N1 6901   4.458   1.973   2.130  0.1429 -0.0030  0.4551
  463MPD2    H7 6902   4.459   1.990   2.030 -0.2880 -1.2022  0.2480
  464TMC3    C1 6903   4.337   1.778   2.078 -0.6257 -0.0267 -0.2860
  464TMC3    C2 6904   4.298   1.832   1.957 -0.1582  0.1867  0.3103
  464TMC3    C3 6905   4.206   1.761   1.888 -0.2917 -0.1526  0.0319
  464TMC3    C4 6906   4.300   1.654   2.123 -0.0764  0.0806  0.0220
  464TMC3    C5 6907   4.239   1.576   2.036 -0.7602 -0.2098  0.0965
  464TMC3    C6 6908   4.184   1.629   1.921  0.0909 -0.6885 -0.1332
  464TMC3     C 6909   4.394   1.862   2.183 -0.3159  0.5202  0.8822
  464TMC3     O 6910   4.384   1.821   2.298  0.0758  0.4328 -0.3977
  464TMC3     H 6911   4.326   1.933   1.930 -2.0585  0.9429  1.1310
  464TMC3    H1 6912   4.335   1.619   2.219 -2.2825  0.3810  0.9220
  464TMC3    H2 6913   4.115   1.564   1.869 -1.0584 -0.2802  0.8802
  464TMC3    C7 6914   4.190   1.448   2.081 -0.6488 -0.1377  0.4706
  464TMC3    C8 6915   4.164   1.802   1.751  0.2775 -1.0005 -0.8618
  464TMC3    O1 6916   4.155   1.441   2.198 -0.7313  0.4142  0.8023
  464TMC3    O2 6917   4.231   1.879   1.681 -0.1581 -0.3224 -0.1509
  465MPD2     C 6918   1.751   0.744  16.437  0.0911 -0.7173 -0.0902
  465MPD2    C1 6919   1.658   0.672  16.510 -0.4346  0.3537 -0.5463
  465MPD2    C2 6920   1.544   0.632  16.454 -0.6488  0.4743  0.1747
  465MPD2    C3 6921   1.518   0.653  16.319  0.0009 -0.3892  0.1861
  465MPD2    C4 6922   1.615   0.722  16.243  0.0319  0.4993  0.5355
  465MPD2    C5 6923   1.725   0.769  16.306  0.2667 -0.3771  0.4251
  465MPD2     H 6924   1.477   0.573  16.515  2.1044 -2.4463  0.3457
  465MPD2    H1 6925   1.601   0.755  16.141  0.9174  0.0201  0.2583
  465MPD2    H2 6926   1.840   0.784  16.485  0.0269  1.3332 -1.7138
  465MPD2    H3 6927   1.808   0.818  16.257  0.9845 -2.0735 -0.0789
  465MPD2     N 6928   1.400   0.591  16.266 -0.6683 -0.3650 -0.0790
  465MPD2    H5 6929   1.327   0.568  16.332  0.0258  0.4154  0.9717
  465MPD2    N1 6930   1.669   0.641  16.647 -0.0546 -0.6254  0.7531
  465MPD2    H7 6931   1.590   0.594  16.690  0.3726 -1.8496  0.2083
  466TMC3    C1 6932   1.036   0.515  16.280 -0.0256  0.7818 -0.3904
  466TMC3    C2 6933   0.966   0.612  16.217 -0.1236 -0.2310 -0.3956
  466TMC3    C3 6934   1.016   0.664  16.105  0.0737  0.3478  0.8379
  466TMC3    C4 6935   1.172   0.496  16.243 -0.2128  0.1512  0.4507
  466TMC3    C5 6936   1.216   0.558  16.125  0.0049  0.3786  0.0600
  466TMC3    C6 6937   1.135   0.629  16.048  0.4374  0.0095 -0.3098
  466TMC3     C 6938   0.997   0.465  16.408  0.0737  0.0714  0.1118
  466TMC3     O 6939   1.091   0.431  16.484  0.2376  0.3304  0.2508
  466TMC3     H 6940   0.865   0.624  16.254 -0.7442  2.0090 -2.8353
  466TMC3    H1 6941   1.221   0.408  16.283  0.5589  0.2649 -0.2456
  466TMC3    H2 6942   1.169   0.673  15.955 -2.8967 -0.2118 -1.6306
  466TMC3    C7 6943   1.344   0.616  16.142  0.0462 -0.2526  0.5061
  466TMC3    C8 6944   0.940   0.778  16.042 -0.4244  0.4424 -0.4997
  466TMC3    O1 6945   1.383   0.682  16.047  0.2744 -0.8379  0.6172
  466TMC3    O2 6946   0.978   0.815  15.929  0.0982  0.1627 -0.8829
  467TMC3    C1 6947   2.156   3.762  13.830  0.2854 -0.1265 -0.1609
  467TMC3    C2 6948   2.222   3.761  13.704 -0.3033 -0.6138 -0.3980
  467TMC3    C3 6949   2.183   3.856  13.610 -0.0477  0.3006  0.5027
  467TMC3    C4 6950   2.051   3.848  13.852  0.0703  0.1793  0.2955
  467TMC3    C5 6951   2.025   3.943  13.762  0.4886 -0.4582 -0.6776
  467TMC3    C6 6952   2.082   3.947  13.641 -0.0355 -0.2048 -0.3841
  467TMC3     C 6953   2.254   3.741  13.941  0.7206 -0.4551 -0.7354
  467TMC3     O 6954   2.261   3.828  14.027 -0.2762  0.2753 -0.9942
  467TMC3     H 6955   2.293   3.685  13.673  0.0705  0.0542 -1.1540
  467TMC3    H1 6956   1.996   3.826  13.943 -0.8532  2.2442  0.2433
  467TMC3    H2 6957   2.052   4.021  13.567  1.1504  1.2524  0.6151
  467TMC3    C7 6958   1.901   4.016  13.769  0.6978 -0.7294  0.1493
  467TMC3    C8 6959   2.282   3.905  13.514  0.5088  0.3049  0.4763
  467TMC3    O1 6960   1.846   4.034  13.663  0.1505  0.1631 -0.0517
  467TMC3    O2 6961   2.242   3.982  13.428  0.2697 -0.1372 -0.0732
  468MPD2     C 6962   1.744   1.987  10.327  0.8434  0.1210  0.1393
  468MPD2    C1 6963   1.699   1.949  10.452 -0.7529 -0.4946 -0.2708
  468MPD2    C2 6964   1.645   1.822  10.470  0.3213  0.7760  0.0341
  468MPD2    C3 6965   1.620   1.739  10.354 -0.4669 -0.1777  0.9072
  468MPD2    C4 6966   1.654   1.782  10.229  0.1832 -1.0702 -0.0582
  468MPD2    C5 6967   1.715   1.903  10.216  0.4077 -0.0413 -0.7038
  468MPD2     H 6968   1.614   1.794  10.570 -0.0010 -0.6855 -0.4666
  468MPD2    H1 6969   1.656   1.713  10.146 -0.6785 -1.0824 -0.0691
  468MPD2    H2 6970   1.806   2.075  10.315 -1.8262  1.7637 -1.6038
  468MPD2    H3 6971   1.754   1.933  10.120  0.9442  2.1548  0.2010
  468MPD2     N 6972   1.596   1.595  10.374  0.1765  0.3045  0.0191
  468MPD2    H5 6973   1.595   1.532  10.294  2.1717  1.7102 -1.1267
  468MPD2    N1 6974   1.728   2.032  10.568 -0.0152 -0.1066  0.7966
  468MPD2    H7 6975   1.690   1.998  10.655 -0.3869 -3.2714 -0.6023
  469TMC3    C1 6976   1.784   2.216  10.705 -0.9590  0.4199 -0.4058
  469TMC3    C2 6977   1.862   2.151  10.805 -0.1652  0.7092 -0.1891
  469TMC3    C3 6978   1.889   2.228  10.912 -0.2872 -0.6931  0.2758
  469TMC3    C4 6979   1.743   2.343  10.725  0.4705  0.2377 -0.0538
  469TMC3    C5 6980   1.762   2.409  10.844  0.3709 -0.1711 -0.3956
  469TMC3    C6 6981   1.835   2.348  10.938 -0.0939  0.6741  0.1663
  469TMC3     C 6982   1.767   2.163  10.570 -0.0702 -0.3760  0.5550
  469TMC3     O 6983   1.775   2.233  10.474  0.1294 -0.4073  0.4137
  469TMC3     H 6984   1.896   2.049  10.793 -2.1860 -0.1263  1.0172
  469TMC3    H1 6985   1.681   2.385  10.646  1.5386  1.1073 -0.4205
  469TMC3    H2 6986   1.856   2.392  11.035  0.1806  0.4428  0.2132
  469TMC3    C7 6987   1.706   2.544  10.861  0.1100  0.7722  0.0516
  469TMC3    C8 6988   2.010   2.184  10.984 -0.0020 -0.0998  0.7238
  469TMC3    O1 6989   1.621   2.581  10.777  0.4710 -0.1328 -0.0677
  469TMC3    O2 6990   2.091   2.113  10.922 -0.1194  0.1747  0.8271
  470TMC3    C1 6991   3.154   2.744   1.131 -0.0198 -0.5176  0.4169
  470TMC3    C2 6992   3.187   2.870   1.116  0.2063  0.2849  0.4309
  470TMC3    C3 6993   3.303   2.916   1.168 -0.3443  0.2055 -0.3194
  470TMC3    C4 6994   3.245   2.653   1.171 -0.2654  0.4769 -0.7762
  470TMC3    C5 6995   3.359   2.692   1.233 -0.2831  0.1578  0.1800
  470TMC3    C6 6996   3.392   2.826   1.226 -0.1691  0.0101  0.0329
  470TMC3     C 6997   3.015   2.708   1.138  0.4958  0.7170 -0.2141
  470TMC3     O 6998   2.984   2.597   1.179 -0.4474 -0.2959 -0.2197
  470TMC3     H 6999   3.110   2.938   1.081 -0.9029 -1.5806 -0.7382
  470TMC3    H1 7000   3.220   2.548   1.185 -1.5318  0.7009 -1.4208
  470TMC3    H2 7001   3.484   2.862   1.271 -1.3669  1.6901  1.1358
  470TMC3    C7 7002   3.437   2.611   1.323 -0.0579  0.0626 -0.0945
  470TMC3    C8 7003   3.326   3.067   1.163 -0.4331  0.5401  0.2076
  470TMC3    O1 7004   3.540   2.664   1.363 -0.2527  0.0825 -0.2756
  470TMC3    O2 7005   3.221   3.126   1.135 -0.0260  0.0395 -0.2920
  471MPD2     C 7006   3.977   4.525  17.280 -0.3296  0.3988  0.2958
  471MPD2    C1 7007   3.962   4.387  17.272 -0.6657 -0.0811  0.3103
  471MPD2    C2 7008   4.035   4.308  17.360 -0.3725  0.5952  0.3438
  471MPD2    C3 7009   4.099   4.362  17.468 -0.2354 -0.1269 -0.0931
  471MPD2    C4 7010   4.084   4.494  17.494  0.2025 -0.6689  0.7832
  471MPD2    C5 7011   4.036   4.575  17.392  0.8202  0.3879 -0.6743
  471MPD2     H 7012   4.029   4.201  17.342  0.6650  0.5389  0.3214
  471MPD2    H1 7013   4.131   4.540  17.580  1.1315  0.7142 -0.4667
  471MPD2    H2 7014   3.952   4.587  17.195 -0.0647 -0.2426 -0.2486
  471MPD2    H3 7015   4.037   4.682  17.402  0.7775  0.4733 -1.5493
  471MPD2     N 7016   4.161   4.282  17.571  0.5173 -0.1502 -0.1772
  471MPD2    H5 7017   4.187   4.333  17.655  0.2682  2.3825 -1.6194
  471MPD2    N1 7018   3.890   4.331  17.165  0.7054 -0.3009 -0.6511
  471MPD2    H7 7019   3.883   4.230  17.168  2.8184 -0.4131 -0.0653
  472TMC3    C1 7020   3.749   4.306  16.970 -0.6611 -0.0453  1.0235
  472TMC3    C2 7021   3.686   4.362  16.866  0.0804 -0.1748 -0.3939
  472TMC3    C3 7022   3.636   4.273  16.773  0.0676  0.7013 -0.3540
  472TMC3    C4 7023   3.755   4.174  16.989  0.5564  0.0679  0.9524
  472TMC3    C5 7024   3.704   4.093  16.892 -0.4946  0.3397 -0.0081
  472TMC3    C6 7025   3.649   4.136  16.779 -0.5107 -0.3483  0.6642
  472TMC3     C 7026   3.822   4.391  17.061  0.1553  0.0776  0.7850
  472TMC3     O 7027   3.822   4.508  17.030 -0.7112  0.2157 -0.1690
  472TMC3     H 7028   3.682   4.470  16.857  1.2478 -0.0900  0.0705
  472TMC3    H1 7029   3.815   4.132  17.068  2.0540  0.2189 -0.0950
  472TMC3    H2 7030   3.605   4.069  16.706 -1.7563  0.4427  0.6904
  472TMC3    C7 7031   3.679   3.953  16.922 -0.1071  0.0471 -0.6685
  472TMC3    C8 7032   3.569   4.325  16.655 -0.5863  0.2288 -0.8787
  472TMC3    O1 7033   3.710   3.919  17.037 -0.4489  0.3474  0.2531
  472TMC3    O2 7034   3.560   4.443  16.645  0.2373  0.6955  0.3428
  473MPD2     C 7035   3.419   1.245  13.860 -0.3556 -0.1982 -0.2842
  473MPD2    C1 7036   3.475   1.356  13.791 -0.6289 -0.2939  0.3249
  473MPD2    C2 7037   3.546   1.458  13.862 -0.4766 -0.0118 -0.6839
  473MPD2    C3 7038   3.551   1.442  14.009 -0.8312 -0.4580 -0.2442
  473MPD2    C4 7039   3.498   1.333  14.073  0.0861 -0.1796 -0.1269
  473MPD2    C5 7040   3.432   1.242  13.994  0.3983 -0.1499 -0.5347
  473MPD2     H 7041   3.582   1.550  13.817  0.3206 -1.0207 -2.0870
  473MPD2    H1 7042   3.489   1.340  14.181  1.4464  1.8038 -0.1430
  473MPD2    H2 7043   3.363   1.165  13.813 -0.6749 -0.1602  0.0304
  473MPD2    H3 7044   3.378   1.164  14.048  0.2789 -1.1736 -2.1335
  473MPD2     N 7045   3.624   1.536  14.087  0.6051  0.4865  0.5906
  473MPD2    H5 7046   3.608   1.527  14.187  1.1414 -0.1227  0.6214
  473MPD2    N1 7047   3.463   1.371  13.655  0.2480  0.8118  0.4975
  473MPD2    H7 7048   3.504   1.457  13.621  0.0829  0.8429  0.3789
  474TMC3    C1 7049   3.743   1.728  14.152 -0.0764  0.1511 -0.3885
  474TMC3    C2 7050   3.797   1.840  14.096 -0.2872 -0.1667 -0.8469
  474TMC3    C3 7051   3.783   1.950  14.179  0.1111 -0.2177  0.5396
  474TMC3    C4 7052   3.677   1.721  14.272 -0.2901 -0.1383  0.1767
  474TMC3    C5 7053   3.683   1.834  14.349  0.3862  0.7178  0.4269
  474TMC3    C6 7054   3.728   1.951  14.307  1.0282  0.1858 -0.1126
  474TMC3     C 7055   3.715   1.633  14.047  0.6933 -0.1399  0.1656
  474TMC3     O 7056   3.754   1.656  13.931 -0.1498 -0.0491 -0.3988
  474TMC3     H 7057   3.834   1.849  13.994 -2.6016  1.4691 -1.5535
  474TMC3    H1 7058   3.646   1.623  14.304 -1.0694 -0.2182 -0.8407
  474TMC3    H2 7059   3.715   2.031  14.380  1.5439 -0.2530  0.4617
  474TMC3    C7 7060   3.624   1.814  14.480 -0.1295 -0.3487  0.0387
  474TMC3    C8 7061   3.810   2.078  14.118 -0.2173 -0.5782 -0.0466
  474TMC3    O1 7062   3.556   1.713  14.500 -0.4071 -0.3039  0.7349
  474TMC3    O2 7063   3.849   2.079  14.000  0.4199  0.2413 -0.0524
  475MPD2     C 7064   3.304   3.719   9.840  0.4620  0.0413 -0.4173
  475MPD2    C1 7065   3.290   3.808   9.946  0.3495  0.7502 -0.3471
  475MPD2    C2 7066   3.163   3.806  10.006  0.0169 -0.1110 -0.0269
  475MPD2    C3 7067   3.057   3.727   9.967  0.0693 -0.4543 -0.6157
  475MPD2    C4 7068   3.074   3.633   9.868 -0.0579  0.5576 -0.3206
  475MPD2    C5 7069   3.196   3.636   9.804  0.5319 -0.1967 -0.1984
  475MPD2     H 7070   3.140   3.880  10.082  0.8493  2.8247 -2.6425
  475MPD2    H1 7071   3.000   3.563   9.832 -1.4304  1.7577  0.1534
  475MPD2    H2 7072   3.390   3.713   9.774  1.0666  2.2365  0.1662
  475MPD2    H3 7073   3.205   3.572   9.717  2.2348 -0.1791 -0.0319
  475MPD2     N 7074   2.933   3.756  10.028  0.0061  0.2154 -0.5191
  475MPD2    H5 7075   2.936   3.828  10.099 -4.3543 -2.4391  2.3218
  475MPD2    N1 7076   3.391   3.906   9.981 -0.0105  0.1527 -0.6714
  475MPD2    H7 7077   3.462   3.931   9.914  0.7205 -0.7813 -0.2580
  476TMC3    C1 7078   3.443   4.100  10.116  0.0663  0.2522  0.0132
  476TMC3    C2 7079   3.420   4.177  10.005  0.0785 -0.1188 -0.0803
  476TMC3    C3 7080   3.335   4.286  10.011 -0.3467  0.3265 -0.1013
  476TMC3    C4 7081   3.398   4.146  10.237  0.7489 -0.3316 -0.4423
  476TMC3    C5 7082   3.302   4.250  10.246  0.2982  0.2670  0.5865
  476TMC3    C6 7083   3.272   4.311  10.128 -0.8377 -0.1810 -0.0075
  476TMC3     C 7084   3.389   3.967  10.104 -0.5228 -0.3145 -0.1473
  476TMC3     O 7085   3.336   3.919  10.204  0.1379  0.6569 -0.5594
  476TMC3     H 7086   3.451   4.145   9.906 -4.4892  1.1536 -1.9581
  476TMC3    H1 7087   3.415   4.086  10.326 -0.7612  0.1393  0.1695
  476TMC3    H2 7088   3.190   4.382  10.118 -1.1362 -0.4851  0.2761
  476TMC3    C7 7089   3.196   4.232  10.344  0.0821 -0.6285  0.2820
  476TMC3    C8 7090   3.241   4.301   9.904  0.9384  0.5154  0.3943
  476TMC3    O1 7091   3.179   4.122  10.394  0.4095 -0.4420 -0.1579
  476TMC3    O2 7092   3.190   4.408   9.882  0.6634 -0.1392 -0.3700
  477MPD2     C 7093   0.143   1.444  11.490  0.7176 -0.6523  0.2007
  477MPD2    C1 7094   0.090   1.318  11.527  0.2284 -0.0286 -0.1727
  477MPD2    C2 7095   0.145   1.238  11.630 -0.1396 -0.0566 -0.0182
  477MPD2    C3 7096   0.250   1.290  11.704  0.4363 -0.2704 -0.5292
  477MPD2    C4 7097   0.305   1.410  11.662 -0.5756  0.5389 -0.3113
  477MPD2    C5 7098   0.252   1.486  11.559  0.2780 -0.2909 -0.4064
  477MPD2     H 7099   0.098   1.144  11.657  0.0478 -0.8408 -2.4242
  477MPD2    H1 7100   0.383   1.455  11.721 -1.9637 -2.0393  3.5054
  477MPD2    H2 7101   0.092   1.501  11.413 -1.0443  0.6018  2.3146
  477MPD2    H3 7102   0.291   1.583  11.530 -1.8471  0.2857 -1.3385
  477MPD2     N 7103   0.304   1.213  11.806  0.1598 -0.6574 -0.0396
  477MPD2    H5 7104   0.276   1.115  11.807 -0.9464 -0.3416 -0.3112
  477MPD2    N1 7105   4.708   1.275  11.443  0.2985  0.4172 -0.1127
  477MPD2    H7 7106   4.692   1.328  11.358  0.0816  1.6072  0.6751
  478TMC3    C1 7107   4.481   1.201  11.402  0.2360  0.2856  0.1199
  478TMC3    C2 7108   4.367   1.228  11.467  1.1296  0.3885 -0.0804
  478TMC3    C3 7109   4.259   1.279  11.402 -0.2553 -0.1896  0.0183
  478TMC3    C4 7110   4.483   1.234  11.267 -0.3263  0.0864 -0.9155
  478TMC3    C5 7111   4.368   1.261  11.200 -0.2178  0.7185 -1.1939
  478TMC3    C6 7112   4.253   1.301  11.266 -0.2319  0.5987 -0.5255
  478TMC3     C 7113   4.601   1.194  11.489 -0.4112  0.6593  0.0318
  478TMC3     O 7114   4.588   1.135  11.597 -0.2305  0.1205 -0.0122
  478TMC3     H 7115   4.364   1.209  11.574  0.8047  3.4815  0.4553
  478TMC3    H1 7116   4.573   1.209  11.212  1.0213 -1.5659  2.0397
  478TMC3    H2 7117   4.161   1.322  11.214 -1.0707 -0.6434  0.4579
  478TMC3    C7 7118   4.368   1.224  11.054 -0.1443  0.9527 -0.4259
  478TMC3    C8 7119   4.170   1.339  11.497  0.0445  0.5598 -0.0453
  478TMC3    O1 7120   4.456   1.141  11.025 -0.2142  0.0757  0.3166
  478TMC3    O2 7121   4.126   1.268  11.591  0.6631  0.1768 -0.1260
  479MPD2     C 7122   3.738   3.600  15.259 -0.0560 -0.0021 -0.3466
  479MPD2    C1 7123   3.647   3.591  15.355  0.1128 -1.3700 -0.5187
  479MPD2    C2 7124   3.674   3.635  15.482 -0.0633 -0.5293  0.1665
  479MPD2    C3 7125   3.782   3.713  15.503 -0.1014  0.1631  0.1844
  479MPD2    C4 7126   3.880   3.730  15.402 -0.7611  0.0653  0.0346
  479MPD2    C5 7127   3.855   3.665  15.287 -0.0890  0.6918  1.4382
  479MPD2     H 7128   3.608   3.613  15.565  0.3492 -0.2768  0.5691
  479MPD2    H1 7129   3.967   3.793  15.415 -0.6286 -0.0576 -0.2502
  479MPD2    H2 7130   3.732   3.567  15.155 -2.0574 -1.0693  0.0881
  479MPD2    H3 7131   3.921   3.678  15.202 -0.7970 -0.3418  0.7472
  479MPD2     N 7132   3.811   3.780  15.631 -0.3450  0.0198 -0.1952
  479MPD2    H5 7133   3.905   3.816  15.633 -0.6805  0.9440 -1.3176
  479MPD2    N1 7134   3.526   3.520  15.316 -0.4218 -0.9175 -0.1397
  479MPD2    H7 7135   3.518   3.473  15.226  1.1900 -0.6410 -0.4348
  480TMC3    C1 7136   3.399   3.736  15.858  0.0893  0.1689 -0.2337
  480TMC3    C2 7137   3.321   3.773  15.750  0.8045  0.8817 -0.0947
  480TMC3    C3 7138   3.386   3.839  15.650 -0.0537 -0.0062  0.2155
  480TMC3    C4 7139   3.534   3.749  15.858  0.2024  0.0861  0.2625
  480TMC3    C5 7140   3.597   3.797  15.747  0.0354 -0.1804 -0.2431
  480TMC3    C6 7141   3.524   3.857  15.648  0.2576  0.0522  0.3256
  480TMC3     C 7142   3.340   3.641  15.951  0.5022  0.1250 -0.0304
  480TMC3     O 7143   3.407   3.621  16.051  0.0668 -0.2273  0.3376
  480TMC3     H 7144   3.215   3.755  15.740  0.6323  3.2976 -2.8194
  480TMC3    H1 7145   3.583   3.698  15.940  1.4532 -0.7219 -0.9962
  480TMC3    H2 7146   3.578   3.914  15.573 -1.0031  0.6817 -0.1081
  480TMC3    C7 7147   3.744   3.797  15.751  0.6082  0.6664 -0.0238
  480TMC3    C8 7148   3.313   3.858  15.525  0.2156  0.4652  0.2180
  480TMC3    O1 7149   3.793   3.814  15.858  0.1752 -0.2402  0.2327
  480TMC3    O2 7150   3.191   3.871  15.533  0.4993 -0.3755  0.8872
  481MPD2     C 7151   0.358   3.295  14.545 -0.2358  0.3819  0.2571
  481MPD2    C1 7152   0.398   3.169  14.507 -0.0117  0.7796  0.1791
  481MPD2    C2 7153   0.394   3.071  14.609  0.0886 -0.4799 -0.1830
  481MPD2    C3 7154   0.371   3.106  14.743  0.7595  0.0236  0.1348
  481MPD2    C4 7155   0.334   3.235  14.777 -0.1129 -0.0371 -0.2155
  481MPD2    C5 7156   0.328   3.325  14.674 -0.5161  0.0762 -0.0420
  481MPD2     H 7157   0.431   2.974  14.577  1.3337  0.3281 -1.1996
  481MPD2    H1 7158   0.322   3.262  14.882 -1.2815 -0.1816 -0.3123
  481MPD2    H2 7159   0.362   3.380  14.478 -0.8051 -1.1395 -1.6810
  481MPD2    H3 7160   0.307   3.429  14.695  0.4189 -0.4167  3.2948
  481MPD2     N 7161   0.368   3.013  14.852  0.5252  0.9487  0.2312
  481MPD2    H5 7162   0.346   3.044  14.946 -0.0855  0.6346  0.1912
  481MPD2    N1 7163   0.424   3.133  14.372 -0.6047  0.0257  0.6343
  481MPD2    H7 7164   0.463   3.040  14.365 -2.1433 -0.5998  0.3216
  482TMC3    C1 7165   0.440   3.156  14.132  0.2505  0.6724 -0.5964
  482TMC3    C2 7166   0.514   3.045  14.121  0.2033 -0.1404  1.1120
  482TMC3    C3 7167   0.503   2.985  14.005  0.1319  0.4123  0.3703
  482TMC3    C4 7168   0.384   3.223  14.030  0.3821  0.7803 -0.2356
  482TMC3    C5 7169   0.398   3.167  13.913  0.0960 -0.5229  0.3380
  482TMC3    C6 7170   0.450   3.040  13.891 -0.5918 -0.5477 -0.3265
  482TMC3     C 7171   0.407   3.216  14.260  0.1484  0.0873  0.9940
  482TMC3     O 7172   0.366   3.334  14.258  0.2442 -0.2430 -0.3779
  482TMC3     H 7173   0.568   3.010  14.208  0.9774 -0.8158  0.3603
  482TMC3    H1 7174   0.323   3.312  14.041  1.0265  1.4128 -1.7678
  482TMC3    H2 7175   0.444   2.998  13.791 -1.7265 -3.3019  0.8853
  482TMC3    C7 7176   0.334   3.233  13.803  0.0192  0.2503 -0.0520
  482TMC3    C8 7177   0.535   2.850  13.987 -0.6678  0.4474  0.1180
  482TMC3    O1 7178   0.307   3.161  13.705  0.2348 -0.5099 -0.4194
  482TMC3    O2 7179   0.566   2.805  13.877 -0.3878  0.7057 -0.4580
  483TMC3    C1 7180   3.085   1.464   1.177 -0.8918 -0.6555 -0.3367
  483TMC3    C2 7181   3.090   1.561   1.078 -0.0939 -0.5411 -0.2334
  483TMC3    C3 7182   3.215   1.591   1.038  0.3423  0.0869 -0.4840
  483TMC3    C4 7183   3.194   1.395   1.218 -0.4089 -0.0613 -0.3197
  483TMC3    C5 7184   3.312   1.425   1.166  0.6503  1.6318 -0.4094
  483TMC3    C6 7185   3.329   1.525   1.072 -0.7195  0.1904 -0.6551
  483TMC3     C 7186   2.953   1.415   1.222  0.1858  0.3782 -0.1709
  483TMC3     O 7187   2.945   1.348   1.320 -0.5233  0.1613  0.0968
  483TMC3     H 7188   3.012   1.629   1.045 -0.4291 -0.7609  0.0995
  483TMC3    H1 7189   3.180   1.310   1.285  0.6472 -1.9181 -2.4418
  483TMC3    H2 7190   3.425   1.535   1.024 -1.0026 -1.1023 -1.4998
  483TMC3    C7 7191   3.435   1.390   1.244  0.0361  0.4518 -0.5837
  483TMC3    C8 7192   3.224   1.727   0.981 -0.0812  0.7723 -0.6662
  483TMC3    O1 7193   3.534   1.429   1.192  0.3115 -0.5660  0.1547
  483TMC3    O2 7194   3.127   1.770   0.923  0.6334  0.0495  0.0257
  484MPD2     C 7195   1.079   4.292  12.356 -0.2262 -0.5814  0.4087
  484MPD2    C1 7196   1.095   4.407  12.423  0.6506 -0.5476 -0.2577
  484MPD2    C2 7197   1.214   4.475  12.418 -0.4355 -0.7924 -0.0759
  484MPD2    C3 7198   1.316   4.428  12.333 -0.6375 -0.5024  0.4173
  484MPD2    C4 7199   1.299   4.310  12.268  0.4868  0.3456 -0.0425
  484MPD2    C5 7200   1.183   4.240  12.281  0.4227 -0.4330  0.1070
  484MPD2     H 7201   1.227   4.568  12.471 -0.0803 -0.4081 -0.8390
  484MPD2    H1 7202   1.380   4.262  12.214  0.6356  0.0486  0.4449
  484MPD2    H2 7203   0.987   4.236  12.367 -1.3455  1.0541 -0.5333
  484MPD2    H3 7204   1.164   4.143  12.236  0.5442 -0.1530 -0.5425
  484MPD2     N 7205   1.447   4.495  12.314  0.1320  0.2775  0.1629
  484MPD2    H5 7206   1.502   4.443  12.247 -1.1292  0.6123 -1.1407
  484MPD2    N1 7207   0.979   4.455  12.488 -0.3585  0.2375  0.4679
  484MPD2    H7 7208   0.885   4.428  12.460 -0.3105 -0.2428  0.7560
  485TMC3    C1 7209   1.602   4.674  12.296  0.2256  0.1102  0.0699
  485TMC3    C2 7210   1.709   4.595  12.266 -0.0399  1.0373  0.3306
  485TMC3    C3 7211   1.821   4.669  12.238 -0.9317 -0.0580 -0.0822
  485TMC3    C4 7212   1.603   0.086  12.280 -0.4910  0.3401  0.3749
  485TMC3    C5 7213   1.711   0.158  12.231  0.4592 -0.3458  0.1102
  485TMC3    C6 7214   1.820   0.084  12.221  0.0358  0.5697 -0.3541
  485TMC3     C 7215   1.481   4.625  12.355  0.2287 -0.4090  0.2406
  485TMC3     O 7216   1.418   4.706  12.426 -0.0412  0.8157  0.4533
  485TMC3     H 7217   1.701   4.497  12.312 -0.6963 -0.1409 -2.3077
  485TMC3    H1 7218   1.508   0.137  12.267 -0.4591  0.4800  0.6939
  485TMC3    H2 7219   1.911   0.140  12.202 -0.4880  1.7989  0.7064
  485TMC3    C7 7220   1.693   0.202  12.096  0.2714 -0.0419  0.2538
  485TMC3    C8 7221   1.911   4.605  12.146 -0.4068 -0.7845  0.2659
  485TMC3    O1 7222   1.648   0.124  12.016 -0.2668 -0.5716  0.5620
  485TMC3    O2 7223   1.997   4.673  12.091 -0.6075 -0.0526 -0.9095
  486MPD2     C 7224   3.109   3.291  13.077  0.1119  0.0822  0.3621
  486MPD2    C1 7225   3.086   3.272  12.948  0.3720  0.2339 -0.0767
  486MPD2    C2 7226   3.081   3.381  12.869  0.2837 -0.6579  0.5476
  486MPD2    C3 7227   3.109   3.511  12.918  0.4009  0.0112 -0.3693
  486MPD2    C4 7228   3.138   3.526  13.052 -0.1234  0.6106 -0.5916
  486MPD2    C5 7229   3.148   3.413  13.127 -0.0357  0.0912  0.6134
  486MPD2     H 7230   3.031   3.374  12.773  0.9196 -2.5509  0.3549
  486MPD2    H1 7231   3.171   3.620  13.096  1.0846 -1.0164  1.9889
  486MPD2    H2 7232   3.107   3.201  13.138  1.1175  0.5290  1.0483
  486MPD2    H3 7233   3.178   3.418  13.231  1.4726  2.6394  0.0568
  486MPD2     N 7234   3.092   3.625  12.833 -0.2175  0.0196 -0.4508
  486MPD2    H5 7235   3.063   3.600  12.739 -0.3963 -2.2758  0.2158
  486MPD2    N1 7236   3.064   3.147  12.904 -0.1176  0.3656 -0.2904
  486MPD2    H7 7237   3.023   3.073  12.961  2.3859 -1.2113 -0.5133
  487TMC3    C1 7238   3.008   3.001  12.736  0.3877  0.8732 -0.4109
  487TMC3    C2 7239   2.876   2.991  12.787  0.0722  0.5829  0.5539
  487TMC3    C3 7240   2.821   2.863  12.802 -0.4602  0.2430  0.5139
  487TMC3    C4 7241   3.073   2.892  12.683  0.3762  0.6950  0.5369
  487TMC3    C5 7242   3.007   2.774  12.679  0.1439  0.8629 -0.1383
  487TMC3    C6 7243   2.887   2.754  12.749 -0.0319 -0.2061  0.6253
  487TMC3     C 7244   3.084   3.116  12.770  0.0085 -0.1210 -0.7949
  487TMC3     O 7245   3.166   3.167  12.691 -0.0464  0.1693  0.3632
  487TMC3     H 7246   2.825   3.074  12.835 -1.3329 -0.5175  0.9547
  487TMC3    H1 7247   3.175   2.902  12.647  0.1181 -0.3309 -0.4599
  487TMC3    H2 7248   2.828   2.666  12.726 -1.4596  1.5373 -2.2985
  487TMC3    C7 7249   3.091   2.662  12.677  0.3086  0.5219  0.2319
  487TMC3    C8 7250   2.781   2.841  12.944  0.6610 -0.0458 -0.1786
  487TMC3    O1 7251   3.208   2.678  12.688  0.0605  0.4194  0.2824
  487TMC3    O2 7252   2.796   2.938  13.013  0.5970  1.0095  0.3296
  488MPD2     C 7253   3.227   0.619  16.820 -0.2403 -0.0142 -0.1837
  488MPD2    C1 7254   3.248   0.742  16.887 -0.6145  0.1739  0.1343
  488MPD2    C2 7255   3.206   0.757  17.023 -0.2715  0.4264  0.0881
  488MPD2    C3 7256   3.148   0.651  17.078 -0.4085 -0.2027 -0.4450
  488MPD2    C4 7257   3.136   0.524  17.017 -0.0711  0.7216 -0.1239
  488MPD2    C5 7258   3.178   0.512  16.884  0.2117  0.0329 -0.3254
  488MPD2     H 7259   3.208   0.854  17.070  1.8826  0.2128  0.4355
  488MPD2    H1 7260   3.119   0.426  17.060 -0.7128  0.9846  0.2181
  488MPD2    H2 7261   3.250   0.607  16.715 -0.8211 -1.2665 -0.1598
  488MPD2    H3 7262   3.156   0.419  16.832  1.1476 -0.0927 -0.4866
  488MPD2     N 7263   3.113   0.663  17.212  0.3779  0.0017  0.1192
  488MPD2    H5 7264   3.135   0.752  17.256  1.3911 -0.8232  1.2816
  488MPD2    N1 7265   3.309   0.851  16.813  0.7522 -0.1387  0.0136
  488MPD2    H7 7266   3.321   0.938  16.865 -2.0181  0.2909 -0.0361
  489TMC3    C1 7267   3.028   0.622  17.421  0.3064 -0.1545  0.1149
  489TMC3    C2 7268   3.011   0.761  17.422 -1.1625 -0.1251 -0.0616
  489TMC3    C3 7269   2.998   0.822  17.543  0.0648  0.1423  0.0423
  489TMC3    C4 7270   3.048   0.553  17.532  0.8943  0.2606  0.1851
  489TMC3    C5 7271   3.019   0.620  17.644 -0.2004 -0.1524 -0.1724
  489TMC3    C6 7272   3.000   0.751  17.655  0.0234 -0.1087  0.4587
  489TMC3     C 7273   3.078   0.560  17.299  0.2851 -1.0420 -0.2253
  489TMC3     O 7274   3.107   0.440  17.301 -0.5711  0.1405 -0.3287
  489TMC3     H 7275   2.981   0.811  17.331  3.2954  4.2004  0.8284
  489TMC3    H1 7276   3.045   0.445  17.527  0.5598  0.1990  1.7166
  489TMC3    H2 7277   2.973   0.794   0.060 -1.4181 -0.0781  0.0429
  489TMC3    C7 7278   3.023   0.550   0.084 -1.1106 -0.3458 -0.0368
  489TMC3    C8 7279   2.947   0.951  17.557 -0.1582  0.2512  0.0766
  489TMC3    O1 7280   3.007   0.615   0.185 -0.5421 -0.0563 -0.4431
  489TMC3    O2 7281   2.894   0.989  17.665 -0.1188 -0.3186  0.2519
  490MPD2     C 7282   3.646   4.605   0.390  0.3679 -0.2326 -0.2097
  490MPD2    C1 7283   3.759   4.577   0.322  0.1370 -0.1773  0.5506
  490MPD2    C2 7284   3.855   4.679   0.312 -0.5291 -0.6675 -0.1617
  490MPD2    C3 7285   3.843   0.091   0.359  0.8225 -0.0212  0.0032
  490MPD2    C4 7286   3.722   0.119   0.420 -0.3342  0.3706 -0.4222
  490MPD2    C5 7287   3.630   0.011   0.433 -0.1812 -0.4009 -0.1193
  490MPD2     H 7288   3.947   4.666   0.256 -1.3317 -2.9473 -0.9298
  490MPD2    H1 7289   3.696   0.216   0.462  1.6972  1.0961 -0.8540
  490MPD2    H2 7290   3.579   4.523   0.414  0.5021 -0.0135  0.9083
  490MPD2    H3 7291   3.542   0.035   0.491 -0.0373 -0.6863  0.2176
  490MPD2     N 7292   3.937   0.189   0.315  0.2698 -0.5077  0.0171
  490MPD2    H5 7293   3.909   0.284   0.334  1.2956 -0.5048  1.5465
  490MPD2    N1 7294   3.755   4.452   0.252 -0.2175  0.5906 -0.3777
  490MPD2    H7 7295   3.672   4.395   0.268 -0.0828  0.7301  0.8506
  491TMC3    C1 7296   3.798   4.315   0.077 -1.2675  0.4928 -0.7060
  491TMC3    C2 7297   3.758   4.201   0.137  0.8242  0.2714 -0.0485
  491TMC3    C3 7298   3.722   4.097   0.055 -0.2354  0.8169  0.4231
  491TMC3    C4 7299   3.805   4.344  17.634 -0.2738 -0.1228 -0.0966
  491TMC3    C5 7300   3.757   4.249  17.552 -0.1630 -1.4300 -0.3764
  491TMC3    C6 7301   3.725   4.120  17.605  0.4453 -0.4092 -0.2912
  491TMC3     C 7302   3.849   4.424   0.159 -0.3040 -0.3584  0.2522
  491TMC3     O 7303   3.937   4.487   0.104  0.5447  0.2163 -0.6699
  491TMC3     H 7304   3.751   4.193   0.245  0.1331 -2.3199 -0.2817
  491TMC3    H1 7305   3.839   4.441  17.599 -1.9068  0.2848 -0.5853
  491TMC3    H2 7306   3.700   4.044  17.532 -0.5380  1.3083 -1.7503
  491TMC3    C7 7307   3.680   4.281  17.438  0.6590 -0.0117  0.6873
  491TMC3    C8 7308   3.612   4.011   0.097 -0.1057  0.3153  0.7527
  491TMC3    O1 7309   3.609   4.192  17.388  0.1610  0.3179  0.4675
  491TMC3    O2 7310   3.547   4.058   0.187 -0.2037 -0.2276 -0.2294
  492MPD2     C 7311   4.573   0.300  11.479 -1.0165  0.0243  0.6080
  492MPD2    C1 7312   4.502   0.210  11.407  0.3418  0.2383 -0.1652
  492MPD2    C2 7313   4.412   0.121  11.469  0.6260 -0.1126  0.2527
  492MPD2    C3 7314   4.409   0.124  11.607 -0.5868  0.7464 -0.1882
  492MPD2    C4 7315   4.490   0.220  11.675 -0.3339  0.5202  0.2110
  492MPD2    C5 7316   4.559   0.312  11.609 -0.0578  0.2681  0.1475
  492MPD2     H 7317   4.358   0.046  11.412 -0.9815  0.3453  1.1920
  492MPD2    H1 7318   4.484   0.223  11.783 -0.4995 -1.2994  0.2471
  492MPD2    H2 7319   4.636   0.375  11.432  0.0482 -1.6102 -0.5502
  492MPD2    H3 7320   4.610   0.395  11.657  2.8238  0.2401 -2.8484
  492MPD2     N 7321   4.317   0.046  11.682 -0.5169  0.3785 -0.1192
  492MPD2    H5 7322   4.326   0.062  11.782  0.9214  0.4718 -0.2576
  492MPD2    N1 7323   4.527   0.199  11.266  0.2571  0.4173  0.5629
  492MPD2    H7 7324   4.582   0.274  11.226 -2.0748  0.1570 -3.1304
  493TMC3    C1 7325   4.535   0.136  11.044 -0.1342 -0.0810 -0.4538
  493TMC3    C2 7326   4.655   0.201  11.036 -0.2684  0.6377  0.2822
  493TMC3    C3 7327   4.674   0.274  10.921  0.2478 -0.1262 -0.1411
  493TMC3    C4 7328   4.451   0.132  10.933 -0.0269 -0.4852 -0.1523
  493TMC3    C5 7329   4.478   0.199  10.818 -0.2321 -0.6405 -0.1265
  493TMC3    C6 7330   4.594   0.273  10.811 -0.7836 -0.2372  0.2452
  493TMC3     C 7331   4.464   0.117  11.178  0.2594  0.1628  0.4398
  493TMC3     O 7332   4.375   0.038  11.195 -0.0520 -0.0425 -0.3196
  493TMC3     H 7333   0.001   0.211  11.120 -0.3349 -0.1414  0.4322
  493TMC3    H1 7334   4.358   0.075  10.938  0.2796 -1.1920 -2.6272
  493TMC3    H2 7335   4.607   0.341  10.728 -1.1298  2.5260  2.4337
  493TMC3    C7 7336   4.416   0.171  10.689  0.0926 -0.8068 -0.8883
  493TMC3    C8 7337   0.046   0.381  10.926  0.3589  0.8672  0.1914
  493TMC3    O1 7338   4.454   0.231  10.591  0.5410 -0.5189 -0.1097
  493TMC3    O2 7339   0.057   0.431  11.036  0.0564 -0.4127 -0.1926
  494TMC3    C1 7340   0.234   1.798   0.561  0.9207  0.7530  0.1981
  494TMC3    C2 7341   0.338   1.720   0.573  0.4895  0.1712  0.4453
  494TMC3    C3 7342   0.430   1.707   0.476  0.2278  0.0556 -0.0116
  494TMC3    C4 7343   0.206   1.862   0.449  0.1126 -0.0048 -0.7902
  494TMC3    C5 7344   0.275   1.817   0.339 -0.2261 -0.3041  0.2817
  494TMC3    C6 7345   0.394   1.751   0.351  0.5221  0.0163 -0.5337
  494TMC3     C 7346   0.145   1.839   0.670  0.6101  0.0253  0.2791
  494TMC3     O 7347   0.047   1.913   0.644  0.0947 -0.4889 -0.4571
  494TMC3     H 7348   0.349   1.678   0.673 -1.0430  0.5264  0.7606
  494TMC3    H1 7349   0.110   1.909   0.434  2.0862  3.7249 -1.7011
  494TMC3    H2 7350   0.452   1.722   0.263 -2.3167 -1.3177 -1.9537
  494TMC3    C7 7351   0.214   1.821   0.210  0.3157  0.0851  0.0529
  494TMC3    C8 7352   0.536   1.617   0.506  0.4203 -0.0053  0.1802
  494TMC3    O1 7353   0.259   1.741   0.128  0.2339 -0.0728 -0.0136
  494TMC3    O2 7354   0.512   1.532   0.591  0.4256  0.0446 -0.4086
  495TMC3    C1 7355   3.720   3.575  14.731 -0.1606 -0.4650  0.4541
  495TMC3    C2 7356   3.656   3.619  14.618 -0.1720 -0.2255  0.3407
  495TMC3    C3 7357   3.614   3.750  14.619  0.0276  0.5030  0.3976
  495TMC3    C4 7358   3.738   3.664  14.833  0.6884  0.8004 -0.5040
  495TMC3    C5 7359   3.696   3.791  14.824  0.3070 -0.4090  0.7353
  495TMC3    C6 7360   3.633   3.844  14.718  0.7475 -0.2268  0.1610
  495TMC3     C 7361   3.699   3.435  14.782 -0.5133  0.7923  0.0063
  495TMC3     O 7362   3.755   3.396  14.885  0.4654  0.2695  0.5691
  495TMC3     H 7363   3.639   3.548  14.538 -0.3071  1.5008 -1.1512
  495TMC3    H1 7364   3.767   3.637  14.934  0.7724  1.2342 -0.4098
  495TMC3    H2 7365   3.585   3.940  14.705 -2.2346 -1.8272 -0.7029
  495TMC3    C7 7366   3.647   3.844  14.951  0.1884 -0.0514  0.1565
  495TMC3    C8 7367   3.526   3.786  14.502  0.1831  0.0749  0.1839
  495TMC3    O1 7368   3.725   3.838  15.045  0.2869 -0.7240 -0.3749
  495TMC3    O2 7369   3.444   3.872  14.526  0.1854 -0.0603 -0.1288
  496MPD2     C 7370   0.644   3.803  15.515  0.5324  0.5105  0.0780
  496MPD2    C1 7371   0.725   3.797  15.628 -0.3311  0.4667 -0.0442
  496MPD2    C2 7372   0.663   3.819  15.752 -0.1640 -0.5716  0.5980
  496MPD2    C3 7373   0.526   3.841  15.761  0.0516 -0.2458 -0.0914
  496MPD2    C4 7374   0.454   3.845  15.646 -0.2817 -0.5681  0.3769
  496MPD2    C5 7375   0.510   3.825  15.524 -0.5682 -0.4797 -0.9220
  496MPD2     H 7376   0.727   3.811  15.839 -0.0502  2.6442  0.8091
  496MPD2    H1 7377   0.346   3.852  15.653 -0.2306  1.1095 -0.3684
  496MPD2    H2 7378   0.684   3.803  15.414  0.9878 -1.1587  0.2655
  496MPD2    H3 7379   0.450   3.832  15.434 -2.3194 -1.1634  0.1922
  496MPD2     N 7380   0.456   3.853  15.880 -0.6655  0.1953 -0.1438
  496MPD2    H5 7381   0.359   3.881  15.868 -1.1010 -1.2842 -0.0389
  496MPD2    N1 7382   0.868   3.773  15.612  0.2549 -0.3706 -0.1310
  496MPD2    H7 7383   0.902   3.777  15.516  1.0140 -1.4557  0.0915
  497TMC3    C1 7384   0.419   3.898  16.112  0.5687 -0.7710  0.0798
  497TMC3    C2 7385   0.289   3.939  16.089  0.6871 -0.0064 -0.0275
  497TMC3    C3 7386   0.205   3.921  16.198  0.0480 -0.4065 -0.8687
  497TMC3    C4 7387   0.464   3.863  16.232  0.3815 -0.2923  0.1614
  497TMC3    C5 7388   0.377   3.870  16.339  0.0942  0.0015  0.0069
  497TMC3    C6 7389   0.245   3.880  16.319  0.1909  0.1830  0.2045
  497TMC3     C 7390   0.522   3.869  16.003 -0.4689  0.1829 -0.0718
  497TMC3     O 7391   0.641   3.863  16.033 -0.3035  0.5392 -0.2418
  497TMC3     H 7392   0.250   3.964  15.992 -2.7671  3.0636  2.1413
  497TMC3    H1 7393   0.558   3.811  16.251 -0.3748 -1.4767  0.6823
  497TMC3    H2 7394   0.179   3.890  16.405  0.9715  3.1578  0.4698
  497TMC3    C7 7395   0.426   3.825  16.472  0.0586  0.4097  0.3885
  497TMC3    C8 7396   0.056   3.925  16.176  0.1927 -0.3227 -0.0817
  497TMC3    O1 7397   0.343   3.792  16.555  0.2598  0.3106  0.0348
  497TMC3    O2 7398   4.707   3.855  16.246  0.3213  0.3993 -0.0335
  498MPD2     C 7399   1.332   4.523  10.017 -0.5811  1.2848  0.5486
  498MPD2    C1 7400   1.380   4.486  10.140  0.5522 -0.4444 -0.4976
  498MPD2    C2 7401   1.283   4.437  10.231  0.4472  0.1910 -0.6341
  498MPD2    C3 7402   1.150   4.418  10.192  0.0961 -0.5561  0.2583
  498MPD2    C4 7403   1.109   4.447  10.066 -0.3397 -0.4303 -0.3629
  498MPD2    C5 7404   1.200   4.505   9.980 -0.7290  0.1108  0.6342
  498MPD2     H 7405   1.323   4.400  10.325 -0.1633 -1.9206 -1.2216
  498MPD2    H1 7406   1.011   4.432  10.023 -1.2310  2.1579  0.7787
  498MPD2    H2 7407   1.403   4.552   9.940  1.0825 -2.8396  0.5369
  498MPD2    H3 7408   1.162   4.536   9.884  0.6682  0.2003  0.1044
  498MPD2     N 7409   1.071   4.360  10.294 -0.0497  0.0989 -0.5281
  498MPD2    H5 7410   1.106   4.343  10.387 -0.4409 -1.7778 -0.7282
  498MPD2    N1 7411   1.509   4.510  10.183  0.0754 -0.3191  0.6544
  498MPD2    H7 7412   1.518   4.498  10.284 -1.6933  1.4163  1.0410
  499TMC3    C1 7413   1.729   4.578  10.198 -0.6060  0.6482  0.4521
  499TMC3    C2 7414   1.761   4.487  10.295  0.3893  0.3647 -0.3525
  499TMC3    C3 7415   1.892   4.480  10.332 -0.3686  0.5043 -0.0383
  499TMC3    C4 7416   1.828   4.658  10.138  0.2880 -0.8436  0.1429
  499TMC3    C5 7417   1.957   4.654  10.185  0.5100  0.3613 -0.0694
  499TMC3    C6 7418   1.993   4.561  10.283 -0.8347 -0.6732  0.2341
  499TMC3     C 7419   1.619   4.552  10.113 -0.1469 -0.0421  0.0268
  499TMC3     O 7420   1.623   4.550   9.992  0.0638 -0.3811 -0.6593
  499TMC3     H 7421   1.687   4.424  10.343 -0.3139  0.6703 -1.0369
  499TMC3    H1 7422   1.794   4.712  10.050 -0.0594  0.7183  1.2340
  499TMC3    H2 7423   2.093   4.563  10.324 -0.5745  0.6062 -0.4703
  499TMC3    C7 7424   2.041   0.040  10.142  0.3544 -0.2514  0.3820
  499TMC3    C8 7425   1.932   4.389  10.435  0.0017 -0.4712 -0.3715
  499TMC3    O1 7426   1.997   0.133  10.080  0.2440  0.4155 -0.1991
  499TMC3    O2 7427   2.054   4.363  10.436  0.2225  0.0076 -0.2580
  500MPD2     C 7428   4.259   0.445   9.985  0.0470 -0.2651  0.6272
  500MPD2    C1 7429   4.193   0.562   9.996 -0.5522 -0.0439  0.7680
  500MPD2    C2 7430   4.076   0.578   9.919  0.0458  0.5164 -0.4890
  500MPD2    C3 7431   4.020   0.477   9.844 -0.2439  0.5289 -1.0396
  500MPD2    C4 7432   4.085   0.350   9.846  0.3353  0.1768  0.7432
  500MPD2    C5 7433   4.203   0.337   9.917  0.7308 -0.3828  0.8376
  500MPD2     H 7434   4.033   0.677   9.918 -1.5959 -0.1839  1.3032
  500MPD2    H1 7435   4.045   0.274   9.780  0.7971  0.1954  0.4412
  500MPD2    H2 7436   4.349   0.425  10.042  0.6286  0.6505  0.0274
  500MPD2    H3 7437   4.257   0.243   9.908 -0.8123 -1.0821 -1.0060
  500MPD2     N 7438   3.903   0.496   9.766  0.0050 -0.7375 -0.5182
  500MPD2    H5 7439   3.881   0.414   9.711  1.0273 -0.5912 -1.1587
  500MPD2    N1 7440   4.247   0.669  10.072 -0.1471 -0.6222  1.0463
  500MPD2    H7 7441   4.204   0.758  10.052 -0.8791 -0.8777  1.4943
  501TMC3    C1 7442   4.392   0.798  10.198  0.1124  0.5838  0.4336
  501TMC3    C2 7443   4.386   0.900  10.107  0.7367  0.7361  0.7351
  501TMC3    C3 7444   4.429   1.026  10.145 -0.1758 -0.4367  0.6530
  501TMC3    C4 7445   4.453   0.816  10.319 -0.6740 -0.4230  0.4584
  501TMC3    C5 7446   4.507   0.940  10.343  0.4609  0.5213  0.3153
  501TMC3    C6 7447   4.495   1.048  10.263  0.0958 -0.3082  0.1299
  501TMC3     C 7448   4.342   0.668  10.170  0.3035  0.3384  0.0100
  501TMC3     O 7449   4.398   0.570  10.218  1.0133  0.4021  0.0938
  501TMC3     H 7450   4.338   0.885  10.011  0.6705  1.4320  0.6548
  501TMC3    H1 7451   4.447   0.740  10.396  4.6615 -1.7005 -0.3102
  501TMC3    H2 7452   4.516   1.149  10.296  0.1848 -0.3114  0.0834
  501TMC3    C7 7453   4.557   0.965  10.477 -0.3873  0.2075 -0.5962
  501TMC3    C8 7454   4.338   1.126  10.117 -0.2410 -0.3401  0.0079
  501TMC3    O1 7455   4.521   0.892  10.570  0.2193  0.1931 -0.1621
  501TMC3    O2 7456   4.247   1.142  10.197  0.2383  0.4577 -0.5844
  502TMC3    C1 7457   2.798   4.143  15.213 -0.0993 -0.4294 -0.1478
  502TMC3    C2 7458   2.762   4.191  15.088 -0.2322 -0.3192 -0.2327
  502TMC3    C3 7459   2.635   4.237  15.070 -0.4954 -0.3545 -1.0048
  502TMC3    C4 7460   2.694   4.114  15.307 -0.3713 -0.0582  0.0205
  502TMC3    C5 7461   2.563   4.138  15.275 -0.5397  0.2899 -0.3542
  502TMC3    C6 7462   2.535   4.203  15.156 -0.0731  0.1393  0.7036
  502TMC3     C 7463   2.907   4.227  15.259 -0.3585 -0.2901  0.2356
  502TMC3     O 7464   3.014   4.219  15.203  0.3271 -0.1255  0.7257
  502TMC3     H 7465   2.844   4.219  15.022  1.6708  0.1156  2.3074
  502TMC3    H1 7466   2.729   4.087  15.406  1.6321  1.0583 -0.3794
  502TMC3    H2 7467   2.435   4.231  15.129 -0.4535 -1.0671  0.8733
  502TMC3    C7 7468   2.505   4.218  15.381  0.0170  0.2412 -0.0424
  502TMC3    C8 7469   2.650   4.389  15.058  0.2009 -0.7586  0.4217
  502TMC3    O1 7470   2.586   4.264  15.464  0.3834  0.5671  0.5683
  502TMC3    O2 7471   2.765   4.432  15.032 -0.0564 -0.1752  0.5101
  503MPD2     C 7472   0.100   0.777  16.698 -1.2070  1.4653 -0.2561
  503MPD2    C1 7473   0.107   0.767  16.836  0.2714 -1.3938 -0.4377
  503MPD2    C2 7474   0.176   0.661  16.890  0.3159 -0.0564 -0.3548
  503MPD2    C3 7475   0.231   0.556  16.813  0.4849 -0.4695  0.5666
  503MPD2    C4 7476   0.207   0.564  16.676  0.0097 -0.3507 -0.0752
  503MPD2    C5 7477   0.150   0.676  16.623 -0.5112  0.2059  0.3182
  503MPD2     H 7478   0.171   0.635  16.995 -0.5034 -0.9128 -0.6029
  503MPD2    H1 7479   0.233   0.484  16.608  0.5751 -0.6346  0.4853
  503MPD2    H2 7480   0.056   0.858  16.643 -1.4544  1.5914  0.1270
  503MPD2    H3 7481   0.120   0.668  16.519  1.1848  1.4580 -0.2602
  503MPD2     N 7482   0.287   0.445  16.881  0.1013  0.2315  0.2293
  503MPD2    H5 7483   0.294   0.456  16.982  1.0525 -2.3580  0.4434
  503MPD2    N1 7484   0.050   0.859  16.924 -0.1790  0.1619 -0.1764
  503MPD2    H7 7485   0.057   0.830  17.021  1.8506 -0.4154 -0.4821
  504TMC3    C1 7486   0.419   0.258  16.920 -0.5954 -0.5077 -0.1902
  504TMC3    C2 7487   0.370   0.245  17.047 -0.4545  0.7003  0.5652
  504TMC3    C3 7488   0.445   0.170  17.131  0.0169  0.0613  0.2012
  504TMC3    C4 7489   0.518   0.178  16.870  0.9965 -0.3933  0.1566
  504TMC3    C5 7490   0.600   0.116  16.957  0.0721 -0.3327  0.5607
  504TMC3    C6 7491   0.566   0.116  17.084 -0.2879  0.4615 -0.5413
  504TMC3     C 7492   0.351   0.341  16.818 -0.0325  0.1128  0.2728
  504TMC3     O 7493   0.368   0.315  16.700 -0.3244 -0.1567 -0.4637
  504TMC3     H 7494   0.272   0.286  17.071 -0.5552  0.5638  0.3811
  504TMC3    H1 7495   0.545   0.204  16.768 -0.6386 -0.7068 -0.3618
  504TMC3    H2 7496   0.632   0.078  17.161 -3.1574 -2.1463  0.6157
  504TMC3    C7 7497   0.721   0.058  16.899  0.1498 -0.3069 -0.7074
  504TMC3    C8 7498   0.417   0.180  17.274  0.8967 -0.1463  0.2373
  504TMC3    O1 7499   0.760   0.109  16.795 -0.0197 -0.4952 -0.3099
  504TMC3    O2 7500   0.362   0.285  17.303 -0.0134 -0.2398  0.1312
  505MPD2     C 7501   0.516   3.481  11.107 -0.7550  0.5030  0.0720
  505MPD2    C1 7502   0.550   3.386  11.009 -0.2756  0.6798  0.3509
  505MPD2    C2 7503   0.684   3.347  10.994 -0.7863 -0.4097  0.0629
  505MPD2    C3 7504   0.779   3.399  11.076 -0.2486 -0.0248 -0.5468
  505MPD2    C4 7505   0.748   3.502  11.163 -0.1293  0.0554 -0.3151
  505MPD2    C5 7506   0.616   3.544  11.177 -0.5149 -0.6171  0.0485
  505MPD2     H 7507   0.715   3.279  10.915  4.5933  1.1827  0.8342
  505MPD2    H1 7508   0.825   3.553  11.220 -0.5743 -1.2938  1.5121
  505MPD2    H2 7509   0.414   3.514  11.121 -0.2188  2.4969 -0.7688
  505MPD2    H3 7510   0.603   3.622  11.250  1.6814 -1.0687  0.8939
  505MPD2     N 7511   0.908   3.343  11.060  0.0757 -0.4115  0.3656
  505MPD2    H5 7512   0.921   3.276  10.985  1.4939  1.3084 -0.9108
  505MPD2    N1 7513   0.448   3.339  10.920 -0.2048  0.0377  0.1704
  505MPD2    H7 7514   0.355   3.377  10.934  0.5034  2.0904 -0.5798
  506TMC3    C1 7515   0.343   3.213  10.756  0.3318 -0.2500  0.0103
  506TMC3    C2 7516   0.294   3.320  10.689 -0.2944 -0.4563  0.1499
  506TMC3    C3 7517   0.262   3.310  10.557 -0.0262  0.3108 -0.1153
  506TMC3    C4 7518   0.359   3.095  10.689  0.1420  0.0007  0.7165
  506TMC3    C5 7519   0.347   3.092  10.550  0.2413  0.7075 -0.3314
  506TMC3    C6 7520   0.289   3.196  10.481 -0.3950  0.0571 -0.5134
  506TMC3     C 7521   0.455   3.227  10.849  0.1338 -0.0264  0.0555
  506TMC3     O 7522   0.547   3.143  10.849  0.0406 -0.2163 -0.3657
  506TMC3     H 7523   0.281   3.412  10.746  3.9002 -0.2698  0.7810
  506TMC3    H1 7524   0.403   3.004  10.727 -0.7027 -0.5412  0.4009
  506TMC3    H2 7525   0.276   3.190  10.374  1.0323 -0.3333 -0.6709
  506TMC3    C7 7526   0.467   3.050  10.480 -0.2093 -0.2824 -0.0637
  506TMC3    C8 7527   0.239   3.427  10.478 -0.0816 -0.1870 -0.0422
  506TMC3    O1 7528   0.463   3.024  10.359  0.1151 -0.1320 -0.8355
  506TMC3    O2 7529   0.170   3.413  10.377  1.1052  0.4813  0.5806
  507TMC3    C1 7530   1.524   0.559  14.474  0.3789  0.0941  0.0044
  507TMC3    C2 7531   1.536   0.437  14.435  0.9908 -0.0047 -0.0191
  507TMC3    C3 7532   1.513   0.406  14.306  0.9944 -0.2320  0.8680
  507TMC3    C4 7533   1.506   0.660  14.396 -0.2788 -0.7152 -0.3758
  507TMC3    C5 7534   1.495   0.631  14.269  0.7608  0.4227  0.0954
  507TMC3    C6 7535   1.505   0.506  14.217 -0.6895  0.3683 -0.9170
  507TMC3     C 7536   1.528   0.586  14.617  0.0508 -0.0353  0.7419
  507TMC3     O 7537   1.549   0.702  14.653 -0.1654  0.2022  0.2051
  507TMC3     H 7538   1.562   0.350  14.493 -0.4047  1.0417  2.1451
  507TMC3    H1 7539   1.484   0.756  14.441  2.3903 -0.5620  0.6336
  507TMC3    H2 7540   1.507   0.490  14.110  2.0182  1.6342 -1.0461
  507TMC3    C7 7541   1.399   0.706  14.193 -0.8324 -0.0953  0.1573
  507TMC3    C8 7542   1.404   0.304  14.290 -0.4664  0.1501  0.1800
  507TMC3    O1 7543   1.343   0.641  14.107 -0.4174 -0.1221 -0.2465
  507TMC3    O2 7544   1.400   0.205  14.362 -0.2223  0.0061 -0.0519
  508MPD2     C 7545   2.012   2.751  16.273 -0.0570 -0.1684  0.0701
  508MPD2    C1 7546   2.145   2.726  16.273 -0.3790 -0.1332  0.1348
  508MPD2    C2 7547   2.200   2.715  16.147 -0.4523 -0.0465 -0.2325
  508MPD2    C3 7548   2.120   2.727  16.034 -0.4136  0.5687  0.0988
  508MPD2    C4 7549   1.981   2.717  16.044 -0.3353 -0.3855 -0.7002
  508MPD2    C5 7550   1.924   2.736  16.167 -0.5502  0.2197 -0.2080
  508MPD2     H 7551   2.306   2.696  16.139 -0.3871 -1.1113  3.1265
  508MPD2    H1 7552   1.910   2.714  15.962  1.1012 -2.5550 -1.8527
  508MPD2    H2 7553   1.974   2.779  16.370 -1.4073  2.0899 -1.0934
  508MPD2    H3 7554   1.818   2.758  16.170 -0.3574  0.9753  1.2050
  508MPD2     N 7555   2.181   2.754  15.906  0.1657 -0.0551 -0.2383
  508MPD2    H5 7556   2.280   2.777  15.905  0.1223  0.1258 -0.3767
  508MPD2    N1 7557   2.218   2.728  16.395  0.0486  0.5360 -0.3338
  508MPD2    H7 7558   2.165   2.708  16.480 -1.4551 -1.8307 -1.8500
  509TMC3    C1 7559   2.180   2.965  15.480 -0.2040  0.2665 -0.1049
  509TMC3    C2 7560   2.300   3.025  15.517 -0.2338  0.4039 -0.3977
  509TMC3    C3 7561   2.359   3.007  15.640 -0.5535  0.2211  0.0427
  509TMC3    C4 7562   2.126   2.872  15.566 -0.1084 -0.1133  0.0064
  509TMC3    C5 7563   2.182   2.857  15.691 -0.2832  0.0891  0.0614
  509TMC3    C6 7564   2.300   2.926  15.734  0.0125  0.8303 -0.4800
  509TMC3     C 7565   2.084   3.031  15.394  0.5448  0.2455 -0.0098
  509TMC3     O 7566   1.965   3.024  15.432  0.4178 -0.1737 -0.0058
  509TMC3     H 7567   2.353   3.093  15.451 -0.1820 -0.1828 -0.9581
  509TMC3    H1 7568   2.029   2.826  15.552 -0.4381  0.9613 -1.2292
  509TMC3    H2 7569   2.351   2.913  15.829  1.2344  0.1187 -1.2469
  509TMC3    C7 7570   2.103   2.782  15.797  0.2426  0.2014  0.3185
  509TMC3    C8 7571   2.474   3.088  15.672 -0.3733  0.0883  0.2742
  509TMC3    O1 7572   1.992   2.746  15.764 -0.0709  0.1078  0.2852
  509TMC3    O2 7573   2.548   3.037  15.756 -0.0105 -0.1914  0.4740
  510MPD2     C 7574   0.100   4.389  14.511  0.3130  0.0586  0.4204
  510MPD2    C1 7575   0.182   4.294  14.576 -0.1196  0.6433 -0.8433
  510MPD2    C2 7576   0.317   4.288  14.537  0.3374  0.1150 -0.2106
  510MPD2    C3 7577   0.372   4.377  14.447  0.5920  0.1038  0.0215
  510MPD2    C4 7578   0.295   4.482  14.403 -0.8592 -0.2682  0.1775
  510MPD2    C5 7579   0.161   4.489  14.435  0.1483 -0.4695 -0.6247
  510MPD2     H 7580   0.383   4.214  14.582 -0.1194  1.8061  3.2339
  510MPD2    H1 7581   0.340   4.562  14.344 -1.4777 -0.0737 -0.0312
  510MPD2    H2 7582   4.719   4.403  14.542  0.1619 -1.0859  0.4377
  510MPD2    H3 7583   0.094   4.558  14.386 -0.1689 -0.4878 -0.2167
  510MPD2     N 7584   0.515   4.361  14.422 -0.4801 -0.1562 -0.6482
  510MPD2    H5 7585   0.566   4.286  14.467  1.8685  1.8909  0.1046
  510MPD2    N1 7586   0.120   4.209  14.672  0.0045  0.2785  0.0542
  510MPD2    H7 7587   0.022   4.231  14.685  0.0212  0.5880 -0.3315
  511TMC3    C1 7588   0.067   4.026  14.808  0.3051  0.7772  0.7372
  511TMC3    C2 7589   4.721   4.103  14.894 -1.3625  0.1068 -0.1842
  511TMC3    C3 7590   4.650   4.037  14.988  0.6605 -0.5277 -0.6705
  511TMC3    C4 7591   0.056   3.890  14.798  0.3881  0.0827  0.2703
  511TMC3    C5 7592   4.712   3.828  14.901 -0.4936  0.4930  1.1473
  511TMC3    C6 7593   4.641   3.898  14.992 -0.4605 -0.2338 -0.0978
  511TMC3     C 7594   0.165   4.087  14.730  0.4053  0.1281  0.3268
  511TMC3     O 7595   0.265   4.013  14.715  0.2516  0.1238  0.3720
  511TMC3     H 7596   4.718   4.211  14.901 -1.3717  0.1738 -1.1391
  511TMC3    H1 7597   0.105   3.840  14.715 -0.2972  0.9049 -0.6308
  511TMC3    H2 7598   4.564   3.851  15.053 -0.8396 -0.2761 -0.6014
  511TMC3    C7 7599   4.665   3.694  14.874 -0.2565 -0.8159  0.3985
  511TMC3    C8 7600   4.596   4.113  15.100  0.3548  0.0228 -0.4529
  511TMC3    O1 7601   4.625   3.664  14.762  0.0716  0.0875  0.2133
  511TMC3    O2 7602   4.547   4.223  15.081 -0.0575 -0.2906 -0.1294
  512TMC3    C1 7603   3.415   3.447  13.543  0.3230  0.2116  0.4575
  512TMC3    C2 7604   3.483   3.395  13.651 -0.3732  0.1118 -0.2050
  512TMC3    C3 7605   3.569   3.301  13.628  0.1581  0.6236  0.1869
  512TMC3    C4 7606   3.422   3.395  13.421  0.1193  0.5996 -0.6173
  512TMC3    C5 7607   3.503   3.286  13.402  0.4349 -0.6574 -0.6624
  512TMC3    C6 7608   3.573   3.234  13.510  0.3148 -0.5550  0.7065
  512TMC3     C 7609   3.327   3.549  13.567 -0.0874 -0.1222  0.4689
  512TMC3     O 7610   3.293   3.553  13.684 -0.3665  0.7925 -0.1063
  512TMC3     H 7611   3.495   3.448  13.744  0.6910 -0.6606  0.0962
  512TMC3    H1 7612   3.372   3.428  13.331 -1.0465  0.6532  0.0405
  512TMC3    H2 7613   3.638   3.148  13.495  0.2428 -0.0281 -2.5122
  512TMC3    C7 7614   3.510   3.228  13.272 -0.7327 -0.5102  0.5538
  512TMC3    C8 7615   3.691   3.293  13.706  0.1331 -0.6829  0.8130
  512TMC3    O1 7616   3.428   3.271  13.190  0.1010  0.1067  0.6515
  512TMC3    O2 7617   3.753   3.191  13.721 -0.4715  0.1765  0.4282
  513MPD2     C 7618   1.149   3.291  13.171 -0.1186  0.5608  0.7941
  513MPD2    C1 7619   1.242   3.391  13.159 -0.3218  0.8046  0.8524
  513MPD2    C2 7620   1.237   3.499  13.246 -0.2967  0.0615  0.1766
  513MPD2    C3 7621   1.149   3.497  13.357 -0.5417 -0.6258  0.8515
  513MPD2    C4 7622   1.054   3.401  13.365  0.5542  0.0728  0.5007
  513MPD2    C5 7623   1.056   3.298  13.268  0.2255 -0.6538  0.6752
  513MPD2     H 7624   1.309   3.579  13.230  0.9440 -1.7041 -3.0073
  513MPD2    H1 7625   0.983   3.402  13.447  1.3897  2.9649  1.1890
  513MPD2    H2 7626   1.145   3.206  13.103 -1.9910 -0.7409  2.5236
  513MPD2    H3 7627   0.986   3.217  13.280  0.4499 -0.8098  0.9260
  513MPD2     N 7628   1.167   3.607  13.446  0.1709  0.1273  0.8275
  513MPD2    H5 7629   1.244   3.672  13.429 -0.0665  0.6148  1.5884
  513MPD2    N1 7630   1.354   3.386  13.077  0.2150 -0.2228 -0.3166
  513MPD2    H7 7631   1.422   3.461  13.078 -0.4452  0.4154 -2.3258
  514TMC3    C1 7632   1.543   3.291  12.962 -1.0326 -0.8171  0.1391
  514TMC3    C2 7633   1.587   3.222  12.857 -0.0713 -0.3623  0.2506
  514TMC3    C3 7634   1.722   3.221  12.844  0.0808  0.6305  0.3053
  514TMC3    C4 7635   1.618   3.358  13.051  0.1212  0.4760 -0.4037
  514TMC3    C5 7636   1.753   3.367  13.031 -0.3543 -0.0856  0.2179
  514TMC3    C6 7637   1.805   3.297  12.925 -0.8531  0.0406  0.0322
  514TMC3     C 7638   1.403   3.275  13.004  0.1150 -0.2357 -0.0978
  514TMC3     O 7639   1.333   3.181  12.970 -0.5445  0.0109  0.8010
  514TMC3     H 7640   1.524   3.165  12.790  0.8807 -0.1194 -0.8475
  514TMC3    H1 7641   1.571   3.389  13.143  3.0096  0.3499  1.1198
  514TMC3    H2 7642   1.910   3.313  12.906 -0.7639 -0.4946  0.0738
  514TMC3    C7 7643   1.833   3.454  13.115  0.1151  0.6464 -0.5268
  514TMC3    C8 7644   1.784   3.152  12.731  0.6328 -0.0125  0.0148
  514TMC3    O1 7645   1.955   3.445  13.114  0.3397  0.1673  0.4210
  514TMC3    O2 7646   1.897   3.117  12.748 -0.3750  0.0932 -0.1915
  515MPD2     C 7647   3.249   0.647  14.806 -0.3906  0.1018  0.1298
  515MPD2    C1 7648   3.364   0.589  14.772  0.5984  0.1694  0.7396
  515MPD2    C2 7649   3.484   0.651  14.799  0.0410  0.3336  0.7997
  515MPD2    C3 7650   3.494   0.773  14.864  0.4610  0.1729 -0.1038
  515MPD2    C4 7651   3.373   0.823  14.913 -0.0138 -0.6461  0.2456
  515MPD2    C5 7652   3.253   0.759  14.889 -0.6300  0.4914  0.0119
  515MPD2     H 7653   3.576   0.614  14.756  0.3572 -1.5580  3.1221
  515MPD2    H1 7654   3.370   0.918  14.966  1.0462 -0.5762  0.1879
  515MPD2    H2 7655   3.155   0.597  14.789 -1.4462  2.1853 -0.1025
  515MPD2    H3 7656   3.162   0.804  14.926 -1.5988 -0.7482 -0.8465
  515MPD2     N 7657   3.612   0.845  14.891  0.2297  1.0890  0.0069
  515MPD2    H5 7658   3.611   0.919  14.961  0.5149  0.8251  0.2906
  515MPD2    N1 7659   3.368   0.472  14.699 -0.8337  0.2996 -0.3177
  515MPD2    H7 7660   3.447   0.409  14.695 -0.9631  0.2323 -1.9167
  516TMC3    C1 7661   3.251   0.320  14.551  0.1054 -0.0792 -0.1049
  516TMC3    C2 7662   3.202   0.309  14.422  0.6493 -0.1245  0.1921
  516TMC3    C3 7663   3.255   0.223  14.333  0.0634  0.2940  1.2534
  516TMC3    C4 7664   3.340   0.227  14.605  0.2541  0.2712  0.6075
  516TMC3    C5 7665   3.375   0.133  14.515 -0.0379 -0.3706  0.0923
  516TMC3    C6 7666   3.348   0.138  14.379  0.7324 -0.1234  0.7208
  516TMC3     C 7667   3.263   0.455  14.601  0.2110  0.0320  0.3267
  516TMC3     O 7668   3.175   0.533  14.572 -0.4532  0.8640  0.0587
  516TMC3     H 7669   3.124   0.379  14.394  0.0466 -1.0747 -0.5344
  516TMC3    H1 7670   3.376   0.227  14.708  0.1492  0.2443  0.6447
  516TMC3    H2 7671   3.380   0.049  14.327 -0.5075 -0.7299  1.0004
  516TMC3    C7 7672   3.465   0.021  14.568  0.2702 -0.0031 -0.5909
  516TMC3    C8 7673   3.205   0.228  14.203  0.4077  0.2716  0.5088
  516TMC3    O1 7674   3.527   4.674  14.492 -0.4702 -0.9042 -0.8423
  516TMC3    O2 7675   3.093   0.278  14.194 -0.2710 -0.4251  0.2412
  517MPD2     C 7676   2.825   2.008   0.044 -0.3499  0.7841  0.0668
  517MPD2    C1 7677   2.935   1.980   0.113  0.2006  0.6217 -0.1441
  517MPD2    C2 7678   2.987   2.073   0.200 -0.4194 -0.0960 -0.0842
  517MPD2    C3 7679   2.920   2.193   0.233  0.7420 -0.0939 -0.3490
  517MPD2    C4 7680   2.797   2.209   0.168  0.8194  0.4540  0.4474
  517MPD2    C5 7681   2.755   2.122   0.070  0.3284 -0.5192 -0.2240
  517MPD2     H 7682   3.076   2.040   0.253 -2.2377 -1.8782  1.8684
  517MPD2    H1 7683   2.740   2.296   0.199 -0.4026 -0.5420  0.9682
  517MPD2    H2 7684   2.789   1.941  17.657 -0.2416  0.0986  0.6120
  517MPD2    H3 7685   2.664   2.132   0.012  0.2218 -2.0771 -0.3396
  517MPD2     N 7686   2.960   2.284   0.333  1.1228 -0.3476  0.3705
  517MPD2    H5 7687   2.895   2.360   0.350  1.2972 -0.1456  0.1427
  517MPD2    N1 7688   3.018   1.872   0.080 -0.0471 -0.1407 -0.3275
  517MPD2    H7 7689   3.115   1.875   0.110  0.3359  1.1603 -1.6900
  518TMC3    C1 7690   3.101   1.667   0.018  0.0884  0.2387  0.1876
  518TMC3    C2 7691   3.058   1.535   0.003 -0.6253  0.4536 -0.9008
  518TMC3    C3 7692   3.158   1.440   0.003 -0.1342 -0.1130  0.0848
  518TMC3    C4 7693   3.228   1.707   0.022 -0.0226  0.4952  0.7583
  518TMC3    C5 7694   3.329   1.609   0.029  0.5807 -0.6889 -0.1179
  518TMC3    C6 7695   3.289   1.475   0.019  0.2954  0.6905 -0.1312
  518TMC3     C 7696   2.985   1.758   0.012  0.3572 -0.5758  0.0892
  518TMC3     O 7697   2.873   1.719  17.680  0.0561 -0.3057 -0.0179
  518TMC3     H 7698   2.954   1.513  17.675 -0.9655  0.7295  0.7531
  518TMC3    H1 7699   3.253   1.812   0.029  3.4753 -0.3838  1.3932
  518TMC3    H2 7700   3.361   1.394   0.011  1.4269  1.6259  0.6839
  518TMC3    C7 7701   3.471   1.643  17.687 -0.1278  0.2759 -0.0481
  518TMC3    C8 7702   3.117   1.316   0.063  0.6718  0.2915  0.1395
  518TMC3    O1 7703   3.498   1.762  17.680 -0.0765  0.1414 -0.6961
  518TMC3    O2 7704   3.035   1.314   0.150 -0.9914  0.2212  0.5504
  519MPD2     C 7705   0.673   0.769  13.550  0.7411  0.0892  0.0507
  519MPD2    C1 7706   0.550   0.724  13.593  0.4039 -0.1840  0.4553
  519MPD2    C2 7707   0.543   0.590  13.636  0.0121  0.6189  0.2763
  519MPD2    C3 7708   0.660   0.511  13.636 -0.4266  0.2941 -0.3255
  519MPD2    C4 7709   0.777   0.560  13.573 -0.4994  0.5693 -0.7540
  519MPD2    C5 7710   0.786   0.692  13.537 -0.7505  0.5085 -0.3975
  519MPD2     H 7711   0.459   0.542  13.684 -1.3314  0.6828 -2.0065
  519MPD2    H1 7712   0.872   0.508  13.565 -1.0821 -0.1928 -2.6397
  519MPD2    H2 7713   0.680   0.875  13.526  1.4695 -0.5743 -2.6245
  519MPD2    H3 7714   0.870   0.733  13.482 -0.1231 -1.1395 -0.6656
  519MPD2     N 7715   0.663   0.387  13.695 -0.4342  0.1950 -0.0754
  519MPD2    H5 7716   0.748   0.334  13.675  0.4019  1.4128  0.2267
  519MPD2    N1 7717   0.441   0.812  13.622  0.6244 -0.7237  0.3628
  519MPD2    H7 7718   0.451   0.909  13.595  1.1330 -0.9918 -0.4216
  520TMC3    C1 7719   0.602   0.180  13.794 -0.2837  0.2836  0.1041
  520TMC3    C2 7720   0.501   0.089  13.810 -0.0205  0.3060  0.3223
  520TMC3    C3 7721   0.523   4.692  13.875  0.6972 -0.0989  0.7489
  520TMC3    C4 7722   0.724   0.166  13.846  0.3666 -0.2035  0.3411
  520TMC3    C5 7723   0.741   0.044  13.908  0.6228 -0.6924  0.0342
  520TMC3    C6 7724   0.647   4.666  13.922  0.3133  0.6084 -0.1621
  520TMC3     C 7725   0.561   0.315  13.753 -0.2960 -0.2105  0.0715
  520TMC3     O 7726   0.442   0.342  13.758  0.0634 -0.0470 -0.3769
  520TMC3     H 7727   0.403   0.117  13.773  0.1513  0.8650  0.2840
  520TMC3    H1 7728   0.800   0.243  13.847  1.0151 -0.8072 -1.5978
  520TMC3    H2 7729   0.670   4.576  13.977 -0.5951 -0.5470 -1.6709
  520TMC3    C7 7730   0.878   4.720  13.951  0.5354  0.2014 -0.4307
  520TMC3    C8 7731   0.413   4.599  13.881 -0.2822 -0.0544  0.7651
  520TMC3    O1 7732   0.889   4.635  14.035 -0.6186 -0.1551 -0.6307
  520TMC3    O2 7733   0.441   4.483  13.902 -0.1673 -0.1172 -0.0366
  521MPD2     C 7734   1.084   2.724   0.266 -0.2643  0.5305 -0.1599
  521MPD2    C1 7735   1.043   2.719   0.138  0.0292 -0.4957 -0.5950
  521MPD2    C2 7736   1.136   2.724   0.036 -0.4840 -1.3704 -1.0181
  521MPD2    C3 7737   1.271   2.721   0.067 -0.2509  0.7637  0.0758
  521MPD2    C4 7738   1.314   2.723   0.198 -0.1355 -0.2308 -0.5228
  521MPD2    C5 7739   1.214   2.720   0.294 -0.2628 -0.0416 -0.3461
  521MPD2     H 7740   1.104   2.724  17.623  0.2142 -1.5448 -1.2352
  521MPD2    H1 7741   1.417   2.703   0.230  0.5100  0.5918 -2.1362
  521MPD2    H2 7742   1.023   2.713   0.354  1.3623  1.5641  1.0908
  521MPD2    H3 7743   1.238   2.715   0.400 -1.1762 -1.2028 -0.1947
  521MPD2     N 7744   1.364   2.723  17.649 -0.1874  0.4459  0.6297
  521MPD2    H5 7745   1.314   2.714  17.561  2.1322 -1.2181 -0.5281
  521MPD2    N1 7746   0.908   2.694   0.113 -0.2779  0.1451  0.1814
  521MPD2    H7 7747   0.840   2.692   0.190 -0.1737  2.3632  0.3205
  522TMC3    C1 7748   1.559   2.709  17.527  0.1119 -0.0720  0.0888
  522TMC3    C2 7749   1.669   2.630  17.508 -0.3087  0.0025 -0.3664
  522TMC3    C3 7750   1.744   2.644  17.394  0.0593  0.3105  0.1918
  522TMC3    C4 7751   1.518   2.795  17.427 -0.0050  0.4116 -0.9662
  522TMC3    C5 7752   1.600   2.814  17.320 -0.0054  0.0323 -0.1128
  522TMC3    C6 7753   1.712   2.737  17.300  0.9527 -0.1900  0.5236
  522TMC3     C 7754   1.502   2.722  17.659 -0.1544 -0.0452  0.3827
  522TMC3     O 7755   1.583   2.715   0.064  0.2114 -0.4374  0.4411
  522TMC3     H 7756   1.694   2.565  17.592  2.4352 -0.8513 -1.8672
  522TMC3    H1 7757   1.445   2.869  17.457 -0.3872  0.4551 -2.0038
  522TMC3    H2 7758   1.773   2.748  17.211  0.2991 -2.4185 -0.1905
  522TMC3    C7 7759   1.592   2.927  17.231  0.2748 -0.6665 -0.5397
  522TMC3    C8 7760   1.872   2.581  17.408  0.0322 -0.5558 -0.4924
  522TMC3    O1 7761   1.692   2.948  17.160  0.1708  0.5337  0.2937
  522TMC3    O2 7762   1.899   2.506  17.502 -0.4474 -0.2888  0.7424
  523MPD2     C 7763   4.103   2.062   9.708 -0.3260 -0.2555 -0.6833
  523MPD2    C1 7764   4.210   2.101   9.789 -0.8134  0.0178 -0.0690
  523MPD2    C2 7765   4.199   2.228   9.842  0.2108  0.5747  0.4724
  523MPD2    C3 7766   4.098   2.318   9.815  0.1085 -0.7504 -0.1922
  523MPD2    C4 7767   3.994   2.277   9.731 -0.9718  0.1228  0.5144
  523MPD2    C5 7768   3.997   2.142   9.680  0.6033  0.7357  0.4460
  523MPD2     H 7769   4.281   2.255   9.907  0.8056 -2.0493  0.8358
  523MPD2    H1 7770   3.908   2.339   9.707 -1.4299 -0.7993 -0.2176
  523MPD2    H2 7771   4.111   1.963   9.666  0.3134 -0.6017  0.2511
  523MPD2    H3 7772   3.913   2.104   9.624  0.4125  1.3493  0.3205
  523MPD2     N 7773   4.109   2.454   9.863 -0.3084 -0.2556  0.4191
  523MPD2    H5 7774   4.202   2.479   9.895  0.4127 -2.2894 -0.0883
  523MPD2    N1 7775   4.321   2.023   9.811  0.6644 -0.7538 -0.1762
  523MPD2    H7 7776   4.340   1.945   9.749  2.1280 -0.3867 -0.2078
  524TMC3    C1 7777   4.054   2.680   9.890 -0.1627  0.6841  0.5133
  524TMC3    C2 7778   4.178   2.707   9.946 -0.0763  0.4964  0.2552
  524TMC3    C3 7779   4.212   2.841   9.947 -0.0453  0.6620  0.6232
  524TMC3    C4 7780   3.966   2.779   9.863 -0.2277  0.4200 -1.1407
  524TMC3    C5 7781   4.003   2.906   9.883 -0.0159  0.3977 -0.5970
  524TMC3    C6 7782   4.122   2.944   9.933 -0.1484  0.3143  0.6349
  524TMC3     C 7783   4.007   2.539   9.870  1.1950  0.2070  0.1781
  524TMC3     O 7784   3.887   2.523   9.848  0.0618 -0.1364  0.4896
  524TMC3     H 7785   4.263   2.640   9.951 -1.5643 -1.4640 -1.0970
  524TMC3    H1 7786   3.871   2.744   9.824 -1.2004  0.6843  0.9527
  524TMC3    H2 7787   4.133   3.047   9.962  0.4100  0.7497 -1.1732
  524TMC3    C7 7788   3.893   3.004   9.850 -0.0736 -0.7856  0.3432
  524TMC3    C8 7789   4.346   2.873   9.973  0.4985 -0.3601 -0.1868
  524TMC3    O1 7790   3.799   2.955   9.785 -0.2923  0.5502 -0.2463
  524TMC3    O2 7791   4.432   2.789   9.950 -0.0413 -0.4798 -0.2877
  525MPD2     C 7792   1.821   4.692  14.516 -0.9801  0.0715  0.1466
  525MPD2    C1 7793   1.948   4.651  14.551 -0.1813  0.3610 -0.6019
  525MPD2    C2 7794   2.050   0.017  14.519  0.3245 -0.5676  0.3017
  525MPD2    C3 7795   2.029   0.144  14.468  0.3814 -0.9793 -0.1576
  525MPD2    C4 7796   1.901   0.186  14.444  0.2537 -0.3438 -0.0969
  525MPD2    C5 7797   1.794   0.099  14.462 -0.5738  0.3494 -0.2651
  525MPD2     H 7798   2.148   4.718  14.560  0.5746  0.9285  0.4578
  525MPD2    H1 7799   1.872   0.284  14.408  1.1227 -0.5352 -1.2826
  525MPD2    H2 7800   1.736   4.634  14.548  0.1257 -0.8050  1.4815
  525MPD2    H3 7801   1.693   0.134  14.446 -0.8360  0.0661  0.7557
  525MPD2     N 7802   2.127   0.241  14.445  0.2341  0.6042 -0.3643
  525MPD2    H5 7803   2.091   0.321  14.394  0.9893  1.1339 -0.0722
  525MPD2    N1 7804   1.982   4.526  14.612  0.2378  0.3581  0.0953
  525MPD2    H7 7805   2.076   4.520  14.651  0.3075 -1.0654 -0.2892
  526TMC3    C1 7806   1.928   4.335  14.756 -0.1345 -0.5172  0.0659
  526TMC3    C2 7807   1.843   4.326  14.863  0.0210 -0.0595  0.9948
  526TMC3    C3 7808   1.899   4.300  14.986  0.1095  0.2170  0.9185
  526TMC3    C4 7809   2.059   4.286  14.764 -0.2149  0.0902  0.2195
  526TMC3    C5 7810   2.107   4.252  14.884 -0.3001 -0.2278 -0.1148
  526TMC3    C6 7811   2.033   4.265  14.998 -0.8045  0.0073  0.6752
  526TMC3     C 7812   1.888   4.427  14.649  0.7736 -0.2104 -0.2816
  526TMC3     O 7813   1.768   4.423  14.625 -0.4432  0.2059 -0.0882
  526TMC3     H 7814   1.736   4.344  14.863 -0.1952 -1.3614 -0.3587
  526TMC3    H1 7815   2.130   4.279  14.683 -1.7992 -1.2812 -1.0696
  526TMC3    H2 7816   2.088   4.267  15.092 -2.4660 -0.0450  1.6532
  526TMC3    C7 7817   2.250   4.294  14.901  0.1687 -0.2113 -0.2579
  526TMC3    C8 7818   1.834   4.347  15.110  0.1819  0.1499 -0.2450
  526TMC3    O1 7819   2.289   4.377  14.984  0.5252  0.0146  0.0354
  526TMC3    O2 7820   1.890   4.335  15.218  0.3894 -0.5570  0.4738
  527MPD2     C 7821   4.131   2.244   0.918  0.0081 -0.3317 -0.9783
  527MPD2    C1 7822   4.161   2.210   1.044  0.0545 -0.1351 -0.4873
  527MPD2    C2 7823   4.294   2.193   1.080  0.6314 -0.1414  0.0067
  527MPD2    C3 7824   4.396   2.208   0.983 -0.6070 -0.3045  0.1586
  527MPD2    C4 7825   4.358   2.242   0.855  0.2128  0.2833  0.4008
  527MPD2    C5 7826   4.228   2.253   0.821  0.1671  0.3727  0.2238
  527MPD2     H 7827   4.328   2.164   1.179 -0.4204  1.8724  0.9420
  527MPD2    H1 7828   4.435   2.270   0.784  1.4908 -2.2543  0.7909
  527MPD2    H2 7829   4.033   2.268   0.879 -0.4008  0.8694  0.7492
  527MPD2    H3 7830   4.205   2.277   0.718  0.9630 -1.4023 -0.3752
  527MPD2     N 7831   4.529   2.176   1.017  0.2751 -0.2744 -0.1915
  527MPD2    H5 7832   4.554   2.153   1.113  1.1557  0.5336 -0.2277
  527MPD2    N1 7833   4.063   2.197   1.143  0.3924  0.5207  0.4813
  527MPD2    H7 7834   4.103   2.175   1.233  0.7338  2.0656  0.7120
  528TMC3    C1 7835   3.859   2.188   1.262 -0.5316 -0.0939  0.1191
  528TMC3    C2 7836   3.931   2.168   1.377  0.5761 -0.1078  0.3345
  528TMC3    C3 7837   3.862   2.104   1.479 -0.1549 -0.3721  0.4260
  528TMC3    C4 7838   3.723   2.167   1.254  0.7256  0.4008  0.1557
  528TMC3    C5 7839   3.661   2.120   1.368 -0.0091 -0.2667  0.1962
  528TMC3    C6 7840   3.727   2.080   1.476 -0.6262  0.4514 -0.4650
  528TMC3     C 7841   3.924   2.207   1.130  0.3288 -0.2895  0.6469
  528TMC3     O 7842   3.848   2.226   1.036  0.1593 -0.1628  0.5716
  528TMC3     H 7843   4.034   2.200   1.389  0.0048  1.7658  0.1474
  528TMC3    H1 7844   3.671   2.173   1.160 -0.5656  1.6894  0.9476
  528TMC3    H2 7845   3.670   2.053   1.564 -1.4394  2.7627 -0.2851
  528TMC3    C7 7846   3.530   2.061   1.353 -0.6483 -0.6792 -0.0419
  528TMC3    C8 7847   3.931   2.109   1.612 -0.0258 -0.1007 -0.5203
  528TMC3    O1 7848   3.498   1.968   1.423 -0.0103 -0.9318 -0.3229
  528TMC3    O2 7849   4.046   2.152   1.612 -0.3498 -0.5811  0.2294
  529MPD2     C 7850   1.019   0.340   0.140 -1.0834  0.3484 -0.4480
  529MPD2    C1 7851   1.115   0.420   0.202 -0.2772  0.3724 -0.0087
  529MPD2    C2 7852   1.122   0.555   0.170  0.4823  0.5998 -0.2937
  529MPD2    C3 7853   1.048   0.606   0.067  0.3520  0.2408 -0.3819
  529MPD2    C4 7854   0.960   0.530  17.687 -0.2718  0.5381 -0.6396
  529MPD2    C5 7855   0.950   0.399   0.040  0.2472 -0.4186  0.1195
  529MPD2     H 7856   1.196   0.616   0.220  0.3505 -0.3372  1.0388
  529MPD2    H1 7857   0.890   0.561  17.610  0.2583 -0.4022 -1.4997
  529MPD2    H2 7858   0.994   0.239   0.171  0.2086 -0.3021 -1.5064
  529MPD2    H3 7859   0.874   0.345  17.673  0.9762  0.7494 -1.9503
  529MPD2     N 7860   1.051   0.747   0.035  0.0261  0.3569  0.0685
  529MPD2    H5 7861   0.989   0.769  17.648  1.7011  0.6206 -1.2114
  529MPD2    N1 7862   1.202   0.376   0.304 -0.5081 -0.1208  0.9837
  529MPD2    H7 7863   1.279   0.436   0.332  0.0848  0.0096 -0.9194
  530TMC3    C1 7864   1.281   0.257   0.492  0.2494  0.2819  0.2425
  530TMC3    C2 7865   1.338   0.372   0.533  0.0631  0.5049 -0.9897
  530TMC3    C3 7866   1.423   0.366   0.643  1.2484 -0.1694 -0.1225
  530TMC3    C4 7867   1.307   0.136   0.553 -0.5187  0.5385 -0.0201
  530TMC3    C5 7868   1.396   0.139   0.659 -0.4465 -0.5944 -0.5743
  530TMC3    C6 7869   1.448   0.253   0.713 -0.3855  0.0566 -0.1423
  530TMC3     C 7870   1.190   0.261   0.377  0.2041  0.0509 -0.0372
  530TMC3     O 7871   1.117   0.161   0.355  0.3801  0.3498 -0.2519
  530TMC3     H 7872   1.307   0.471   0.501 -1.0574  0.3116 -0.4783
  530TMC3    H1 7873   1.253   0.048   0.520  0.0882  0.4841 -0.8597
  530TMC3    H2 7874   1.495   0.252   0.811 -1.2883 -0.2464  0.2909
  530TMC3    C7 7875   1.409   0.010   0.735  0.0463  0.2321  0.7251
  530TMC3    C8 7876   1.473   0.487   0.700  0.5241  0.2072  0.2695
  530TMC3    O1 7877   1.336   4.639   0.692 -0.1451  0.0932 -0.1527
  530TMC3    O2 7878   1.402   0.586   0.693 -0.1013 -0.3098 -0.6998
  531MPD2     C 7879   1.801   3.745  13.530 -0.7394  0.1936  0.0283
  531MPD2    C1 7880   1.679   3.756  13.466  0.9085  0.0776  0.4249
  531MPD2    C2 7881   1.667   3.687  13.349 -0.1254  0.0127 -0.9433
  531MPD2    C3 7882   1.772   3.615  13.294  0.0868 -0.5714 -0.3201
  531MPD2    C4 7883   1.892   3.603  13.357 -0.4858  0.6975  0.1461
  531MPD2    C5 7884   1.904   3.675  13.475  0.0427  0.0666  1.0688
  531MPD2     H 7885   1.572   3.686  13.298 -0.2978 -0.4735 -0.6155
  531MPD2    H1 7886   1.975   3.543  13.322 -1.6088  0.1961 -1.6317
  531MPD2    H2 7887   1.823   3.797  13.623 -0.5201 -3.3022  1.9424
  531MPD2    H3 7888   1.995   3.675  13.533  0.6097 -3.8114  0.1196
  531MPD2     N 7889   1.748   3.543  13.177 -0.1659 -0.6924  0.4190
  531MPD2    H5 7890   1.655   3.551  13.136  0.2762  0.2416 -0.3830
  531MPD2    N1 7891   1.566   3.814  13.532  0.3449  0.3663  0.4624
  531MPD2    H7 7892   1.591   3.870  13.613 -0.2760 -1.0057  1.6028
  532TMC3    C1 7893   1.341   3.867  13.587 -0.4482 -0.4054  0.1521
  532TMC3    C2 7894   1.222   3.820  13.547 -0.2416 -0.5697  0.2990
  532TMC3    C3 7895   1.149   3.737  13.631 -0.7024 -0.3482 -0.6136
  532TMC3    C4 7896   1.382   3.833  13.712  1.1628  0.2380 -0.4615
  532TMC3    C5 7897   1.312   3.752  13.795  0.2554  0.5311 -0.7643
  532TMC3    C6 7898   1.186   3.705  13.759  1.4100  0.0614  0.0778
  532TMC3     C 7899   1.437   3.832  13.485  0.5199 -0.4732  0.1886
  532TMC3     O 7900   1.393   3.768  13.385  0.5851  0.4780 -0.4668
  532TMC3     H 7901   1.175   3.854  13.455  0.5617  1.7353  0.7599
  532TMC3    H1 7902   1.469   3.876  13.761 -0.5118  1.4754  1.4201
  532TMC3    H2 7903   1.136   3.633  13.821  1.2026  0.6682  0.6141
  532TMC3    C7 7904   1.407   3.692  13.895  0.1238  0.1340 -0.8482
  532TMC3    C8 7905   1.095   3.626  13.558  0.1282 -0.1406 -0.0994
  532TMC3    O1 7906   1.391   3.735  14.010  0.4841 -0.5243  0.1483
  532TMC3    O2 7907   1.028   3.544  13.621  0.0078  0.7743 -0.9568
  533TMC3    C1 7908   2.329   0.366  14.470 -0.2856  0.7456 -0.6539
  533TMC3    C2 7909   2.462   0.373  14.452  0.3739 -0.1717 -0.8025
  533TMC3    C3 7910   2.538   0.475  14.507  0.4919  1.1589  0.6135
  533TMC3    C4 7911   2.259   0.465  14.526  0.3873  0.2728 -0.3589
  533TMC3    C5 7912   2.331   0.575  14.563 -0.2477 -0.5502  0.8401
  533TMC3    C6 7913   2.469   0.579  14.557 -0.4350 -0.0796 -0.0360
  533TMC3     C 7914   2.268   0.236  14.471 -0.2923 -0.8947  0.3634
  533TMC3     O 7915   2.346   0.143  14.475  0.3926  0.1344 -0.1192
  533TMC3     H 7916   2.514   0.295  14.397 -0.9823 -0.8597 -1.1359
  533TMC3    H1 7917   2.153   0.455  14.543  0.3421 -0.2077 -0.9603
  533TMC3    H2 7918   2.514   0.672  14.588 -0.9567 -0.0561  0.6685
  533TMC3    C7 7919   2.276   0.641  14.686 -0.1567 -0.5197  0.2349
  533TMC3    C8 7920   2.661   0.444  14.579 -0.2894  0.0887 -0.3058
  533TMC3    O1 7921   2.322   0.749  14.717  0.3183 -0.3725  0.1860
  533TMC3    O2 7922   2.693   0.526  14.666 -0.2332  0.2165  0.1318
  534MPD2     C 7923   3.987   1.216   2.105  0.2863 -0.0836 -0.0535
  534MPD2    C1 7924   4.057   1.253   1.988  0.5127 -0.4874 -0.3431
  534MPD2    C2 7925   4.030   1.187   1.873 -0.6624  0.6186 -0.5795
  534MPD2    C3 7926   3.928   1.094   1.864  0.5255  0.0757  0.0134
  534MPD2    C4 7927   3.849   1.060   1.976  0.3089 -1.2711 -0.7175
  534MPD2    C5 7928   3.882   1.123   2.096  0.1219 -0.0355  0.3101
  534MPD2     H 7929   4.085   1.215   1.783  2.4753  0.2277  1.2229
  534MPD2    H1 7930   3.760   0.999   1.969 -0.2315 -0.8948  2.8976
  534MPD2    H2 7931   3.997   1.260   2.203  0.7677  2.3896 -1.2290
  534MPD2    H3 7932   3.821   1.105   2.183 -2.4436 -2.1084 -1.9222
  534MPD2     N 7933   3.888   1.020   1.744 -0.5073 -0.0732 -0.2701
  534MPD2    H5 7934   3.805   0.963   1.749 -0.1067 -0.7861 -1.7963
  534MPD2    N1 7935   4.151   1.359   1.981  0.6185 -0.1940  0.0262
  534MPD2    H7 7936   4.190   1.382   1.890 -0.1216  0.0984 -0.2161
  535TMC3    C1 7937   3.899   0.954   1.522  0.5564  0.1024  0.3172
  535TMC3    C2 7938   3.776   1.004   1.492 -0.7061  0.6024 -0.5913
  535TMC3    C3 7939   3.736   1.017   1.361 -0.9637 -0.0753 -0.5818
  535TMC3    C4 7940   3.973   0.910   1.418  0.2795  0.7495  0.4607
  535TMC3    C5 7941   3.946   0.933   1.284 -0.5230 -0.2243 -0.2149
  535TMC3    C6 7942   3.825   0.994   1.258  0.2698  0.7213 -0.2923
  535TMC3     C 7943   3.971   1.012   1.637 -0.1185  0.6750  0.4386
  535TMC3     O 7944   4.086   1.051   1.615 -0.4832  0.0505  0.4938
  535TMC3     H 7945   3.717   1.036   1.577  0.0064  0.7903 -0.1681
  535TMC3    H1 7946   4.068   0.863   1.440 -0.1728 -0.7047 -0.7046
  535TMC3    H2 7947   3.789   0.996   1.156  3.3492 -0.7677 -1.4217
  535TMC3    C7 7948   4.055   0.976   1.209  0.3672  0.4944  0.3887
  535TMC3    C8 7949   3.596   1.037   1.333  0.0089  0.4479  0.9371
  535TMC3    O1 7950   4.045   0.974   1.086 -0.4439 -0.4127  0.4088
  535TMC3    O2 7951   3.557   1.032   1.216  0.6307 -0.0611 -0.0815
  536MPD2     C 7952   3.316   4.700  16.486 -0.4242 -0.3604  0.2666
  536MPD2    C1 7953   3.209   4.617  16.489  0.7453  0.7303 -0.0678
  536MPD2    C2 7954   3.102   4.637  16.403 -0.3459 -0.0837  0.4204
  536MPD2    C3 7955   3.102   0.015  16.308  0.0634  0.5331  0.3616
  536MPD2    C4 7956   3.213   0.097  16.303 -0.4400 -0.2735 -0.5246
  536MPD2    C5 7957   3.312   0.073  16.394  0.6449 -0.3189 -0.2630
  536MPD2     H 7958   3.011   4.579  16.418  0.4448 -1.6385 -0.7353
  536MPD2    H1 7959   3.220   0.186  16.241  1.4990  1.8449  2.7487
  536MPD2    H2 7960   3.404   4.687  16.547 -0.3595 -0.2722  0.1915
  536MPD2    H3 7961   3.403   0.131  16.381  0.1830  0.1608 -1.4017
  536MPD2     N 7962   2.997   0.034  16.219 -0.4670 -0.2990 -0.3743
  536MPD2    H5 7963   2.907   4.722  16.251 -1.3580  2.7812  0.3913
  536MPD2    N1 7964   3.217   4.510  16.575 -0.1199  0.1492 -0.0054
  536MPD2    H7 7965   3.298   4.509  16.637 -1.2619 -2.0281  1.4677
  537TMC3    C1 7966   3.150   4.323  16.709 -0.8858  0.4842 -0.0748
  537TMC3    C2 7967   3.241   4.355  16.807  0.6009  0.2287 -0.0649
  537TMC3    C3 7968   3.240   4.271  16.916 -0.3677  0.2675  0.4018
  537TMC3    C4 7969   3.080   4.205  16.713 -0.2233  0.4337  0.6420
  537TMC3    C5 7970   3.108   4.122  16.815 -0.0155 -0.0066  0.6622
  537TMC3    C6 7971   3.191   4.143  16.919 -0.2612  0.4125 -0.2513
  537TMC3     C 7972   3.120   4.413  16.595 -0.6538  0.2055 -0.2680
  537TMC3     O 7973   3.015   4.385  16.535 -0.2449  0.0031  0.7822
  537TMC3     H 7974   3.295   4.449  16.812 -2.6821  2.0885  0.2074
  537TMC3    H1 7975   3.011   4.179  16.633  1.0798  0.5582 -0.5121
  537TMC3    H2 7976   3.212   4.071  16.997 -0.2785 -1.4891 -2.0101
  537TMC3    C7 7977   2.990   4.038  16.838 -0.0730 -0.3370 -0.1994
  537TMC3    C8 7978   3.321   4.310  17.041  0.1661  0.7732  0.1600
  537TMC3    O1 7979   2.884   4.094  16.821 -0.1632  0.0518 -0.2715
  537TMC3    O2 7980   3.364   4.216  17.107  0.5005  0.4993  0.3125
  538TMC3    C1 7981   4.642   3.037  10.621 -0.2112  0.1336  0.0101
  538TMC3    C2 7982   0.010   2.942  10.572 -0.3184 -0.4733 -0.5866
  538TMC3    C3 7983   4.681   2.866  10.470  0.2629  0.3277  0.2483
  538TMC3    C4 7984   4.510   3.045  10.587  0.2112  0.1613 -0.1604
  538TMC3    C5 7985   4.468   2.955  10.491 -0.8385 -0.0653  0.2923
  538TMC3    C6 7986   4.547   2.860  10.433 -0.6590  0.5763 -0.4067
  538TMC3     C 7987   4.669   3.104  10.751  0.0607 -0.0030 -0.3461
  538TMC3     O 7988   4.582   3.182  10.798 -0.3780  0.6095 -0.5239
  538TMC3     H 7989   0.114   2.942  10.603 -0.1249  1.3740 -1.2248
  538TMC3    H1 7990   4.442   3.121  10.624 -1.0465 -0.1988 -1.7107
  538TMC3    H2 7991   4.518   2.799  10.348 -2.1128  0.0609  0.4764
  538TMC3    C7 7992   4.329   2.963  10.451 -0.4721 -0.3253 -0.0486
  538TMC3    C8 7993   0.064   2.810  10.380 -0.1581 -0.0638  0.1078
  538TMC3    O1 7994   4.287   2.870  10.387 -0.4936  0.2858  0.6681
  538TMC3    O2 7995   0.040   2.785  10.262  0.4674  0.0353 -0.9171
  539MPD2     C 7996   4.025   1.544  11.659  0.5352  0.0801 -0.0767
  539MPD2    C1 7997   4.073   1.567  11.530  0.3850  0.2276 -0.0029
  539MPD2    C2 7998   4.075   1.703  11.486  0.5086 -0.1107  0.1079
  539MPD2    C3 7999   4.035   1.801  11.572 -0.2349  0.0211 -0.3582
  539MPD2    C4 8000   3.980   1.770  11.695 -0.5491  0.5707 -0.4420
  539MPD2    C5 8001   3.962   1.641  11.731 -0.1832  0.3065  0.2276
  539MPD2     H 8002   4.122   1.725  11.391 -0.6244  1.9332  0.0307
  539MPD2    H1 8003   3.936   1.843  11.762  1.1024 -0.5638  1.9002
  539MPD2    H2 8004   4.017   1.444  11.699 -0.9385  0.2057 -0.0626
  539MPD2    H3 8005   3.922   1.612  11.827 -2.0102 -1.9627 -1.2097
  539MPD2     N 8006   4.049   1.939  11.543 -0.3676 -0.6319 -0.0793
  539MPD2    H5 8007   3.988   2.002  11.596 -0.1983  1.1627 -1.9886
  539MPD2    N1 8008   4.137   1.466  11.455  0.0074 -0.2194 -0.0856
  539MPD2    H7 8009   4.178   1.501  11.368 -2.4400  3.0125  0.0399
  540TMC3    C1 8010   4.083   2.140  11.407  0.8964 -0.1821  0.0469
  540TMC3    C2 8011   4.104   2.181  11.277 -0.7326 -0.0554  0.5782
  540TMC3    C3 8012   4.073   2.314  11.247  0.5389 -0.5053 -0.2101
  540TMC3    C4 8013   4.034   2.216  11.509  0.6212 -0.0417  0.1914
  540TMC3    C5 8014   4.020   2.346  11.477  0.3638 -0.8488  0.6625
  540TMC3    C6 8015   4.035   2.398  11.346  0.2951  0.3046 -0.3658
  540TMC3     C 8016   4.107   2.001  11.434 -0.6184 -0.3015 -0.2177
  540TMC3     O 8017   4.178   1.946  11.352 -0.1403 -0.7540  0.5288
  540TMC3     H 8018   4.156   2.111  11.213 -1.2705  1.6842 -1.7625
  540TMC3    H1 8019   4.012   2.177  11.608  2.4977  0.2928  0.7453
  540TMC3    H2 8020   3.996   2.497  11.327  1.4051  1.3217  2.7300
  540TMC3    C7 8021   3.937   2.422  11.579  0.9773  0.1211  0.3399
  540TMC3    C8 8022   4.080   2.369  11.115 -0.1753  0.2023  0.3767
  540TMC3    O1 8023   3.893   2.354  11.672  0.5191 -0.3135 -0.0469
  540TMC3    O2 8024   4.086   2.491  11.102  0.0442  0.3124 -0.2877
  541MPD2     C 8025   2.907   3.442  13.581 -0.1999  0.0342  0.1292
  541MPD2    C1 8026   2.845   3.337  13.509  0.4495  0.6737 -0.2958
  541MPD2    C2 8027   2.812   3.367  13.377  0.6927  0.1258 -0.4889
  541MPD2    C3 8028   2.843   3.482  13.321  0.0034  0.5865  0.3517
  541MPD2    C4 8029   2.890   3.590  13.396  0.3109 -0.0893  0.3548
  541MPD2    C5 8030   2.925   3.566  13.527 -0.4584 -0.4115 -0.3332
  541MPD2     H 8031   2.770   3.287  13.317 -1.2703  1.0605 -0.3547
  541MPD2    H1 8032   2.923   3.680  13.347  0.9993  0.4988  1.8926
  541MPD2    H2 8033   2.939   3.427  13.683  1.2898 -0.0410 -0.3358
  541MPD2    H3 8034   2.975   3.637  13.593 -2.8742  0.3457  0.6853
  541MPD2     N 8035   2.803   3.519  13.191  0.1057 -1.0377  0.5084
  541MPD2    H5 8036   2.820   3.613  13.157  2.1781 -0.8998  1.9509
  541MPD2    N1 8037   2.812   3.210  13.565 -0.0036  0.0975  0.4107
  541MPD2    H7 8038   2.780   3.136  13.503  0.8536  1.1508 -1.2932
  542TMC3    C1 8039   2.729   3.491  12.974  0.9264 -0.1768 -0.0041
  542TMC3    C2 8040   2.759   3.425  12.861 -0.1947 -0.3680  0.4903
  542TMC3    C3 8041   2.749   3.495  12.746 -0.1101 -0.0882 -0.0875
  542TMC3    C4 8042   2.681   3.615  12.966 -0.2732 -0.1681 -0.3215
  542TMC3    C5 8043   2.651   3.676  12.851  0.5155  0.5716 -0.4010
  542TMC3    C6 8044   2.684   3.615  12.734  0.6283  0.0559 -0.0634
  542TMC3     C 8045   2.752   3.435  13.099 -0.1904  0.6151 -0.5198
  542TMC3     O 8046   2.749   3.313  13.102 -0.3083  0.3456  1.1332
  542TMC3     H 8047   2.791   3.322  12.862 -2.3063 -1.0301 -0.4575
  542TMC3    H1 8048   2.670   3.665  13.062 -0.8892 -0.2802 -0.3331
  542TMC3    H2 8049   2.661   3.655  12.635  0.5642 -1.6007 -0.7269
  542TMC3    C7 8050   2.607   3.814  12.839 -0.3384 -0.0298 -0.5342
  542TMC3    C8 8051   2.770   3.420  12.618  0.4489 -0.7111 -0.0775
  542TMC3    O1 8052   2.648   3.871  12.739  0.6021  0.2152  0.6095
  542TMC3    O2 8053   2.869   3.347  12.618  0.1479  0.2740 -0.1260
  543TMC3    C1 8054   1.604   4.712  17.488  0.1266 -0.5915  0.4826
  543TMC3    C2 8055   1.590   4.574  17.484 -0.0602 -0.0837 -0.7663
  543TMC3    C3 8056   1.647   4.501  17.589  0.0254  0.3940  0.9049
  543TMC3    C4 8057   1.681   0.046  17.592 -0.2635  0.2547  0.6246
  543TMC3    C5 8058   1.740   4.693   0.000 -0.9623  0.6210 -0.7339
  543TMC3    C6 8059   1.713   4.560   0.010 -0.4773  0.0674 -0.0898
  543TMC3     C 8060   1.637   0.034  17.359 -0.7424 -0.1844  0.3154
  543TMC3     O 8061   1.707   0.135  17.353 -0.0646  0.4092 -0.0472
  543TMC3     H 8062   1.518   4.520  17.423  0.6739  0.0678 -1.7628
  543TMC3    H1 8063   1.701   0.152  17.585  2.3429 -0.1401  2.1555
  543TMC3    H2 8064   1.757   4.490   0.080 -1.1948 -0.2622  0.0282
  543TMC3    C7 8065   1.856   0.023   0.069 -0.3765 -0.0740  0.1666
  543TMC3    C8 8066   1.648   4.357  17.577  0.4234 -0.5001 -0.4546
  543TMC3    O1 8067   1.926   4.659   0.124  0.3491 -0.0725  0.3724
  543TMC3    O2 8068   1.634   4.312  17.466  0.4603  0.1863  0.4101
  544MPD2     C 8069   1.619   3.879   0.061 -0.0493  0.4045  0.9465
  544MPD2    C1 8070   1.652   3.931  17.630  0.7407 -0.4496  0.3581
  544MPD2    C2 8071   1.655   4.067  17.608 -0.4211 -0.5150 -0.6744
  544MPD2    C3 8072   1.628   4.153   0.019 -0.1546 -0.1018  0.8367
  544MPD2    C4 8073   1.607   4.101   0.143 -0.3313  0.2405 -0.4555
  544MPD2    C5 8074   1.597   3.969   0.158 -0.3680 -0.3295 -0.3492
  544MPD2     H 8075   1.673   4.105  17.509  0.4577 -0.5552 -0.5259
  544MPD2    H1 8076   1.597   4.162   0.232  1.4483 -1.3350  0.8180
  544MPD2    H2 8077   1.593   3.778   0.093  1.1188 -0.6012 -1.2830
  544MPD2    H3 8078   1.576   3.931   0.257  1.2724 -0.3595 -0.0111
  544MPD2     N 8079   1.639   4.295   0.009  1.5802  0.0160 -0.4011
  544MPD2    H5 8080   1.615   4.354   0.089  3.5978 -0.6079  0.6646
  544MPD2    N1 8081   1.650   3.835  17.520 -0.4840  0.0296  0.1067
  544MPD2    H7 8082   1.645   3.737  17.548 -3.8824  0.5387  1.2489
  545TMC3    C1 8083   1.694   3.747  17.306  0.9106 -0.7902 -0.4686
  545TMC3    C2 8084   1.804   3.742  17.223 -0.7164 -0.5327 -1.3506
  545TMC3    C3 8085   1.831   3.621  17.170 -0.1802  0.2918 -0.2820
  545TMC3    C4 8086   1.625   3.637  17.341  0.1622 -0.2833  0.2703
  545TMC3    C5 8087   1.658   3.518  17.283  0.6238  1.0428 -0.6019
  545TMC3    C6 8088   1.752   3.507  17.186 -0.2821  0.1541  0.4144
  545TMC3     C 8089   1.687   3.867  17.390  0.2847  0.2694  0.3878
  545TMC3     O 8090   1.744   3.966  17.346  0.0135  0.3955 -0.2911
  545TMC3     H 8091   1.871   3.826  17.210 -1.8822  1.0537  3.0618
  545TMC3    H1 8092   1.543   3.647  17.411 -1.7433 -0.3287 -1.9451
  545TMC3    H2 8093   1.769   3.415  17.131  0.9939  0.7117 -0.1371
  545TMC3    C7 8094   1.604   3.391  17.343 -0.0861 -0.0402 -0.5210
  545TMC3    C8 8095   1.955   3.603  17.100  0.5363 -0.4148  0.0895
  545TMC3    O1 8096   1.500   3.404  17.405 -0.5224  0.2398 -0.0001
  545TMC3    O2 8097   1.991   3.493  17.060 -0.2401 -0.1763  0.2805
  546MPD2     C 8098   3.388   4.467  17.648  0.4395  0.2797 -0.1159
  546MPD2    C1 8099   3.315   4.560  17.579 -0.0957  0.1691  0.4975
  546MPD2    C2 8100   3.338   4.691  17.609  0.3256 -0.5886 -0.2495
  546MPD2    C3 8101   3.439   0.013   0.004  0.3427 -0.0746 -0.3397
  546MPD2    C4 8102   3.495   4.642   0.081 -0.0632  0.2454  0.2655
  546MPD2    C5 8103   3.467   4.509   0.068 -0.5787 -0.6072 -0.1610
  546MPD2     H 8104   3.285   0.051  17.561 -0.5223 -2.0713 -1.8589
  546MPD2    H1 8105   3.562   4.669   0.162  0.6667  0.8056 -0.5269
  546MPD2    H2 8106   3.372   4.360  17.644 -0.4184  0.3755  0.9178
  546MPD2    H3 8107   3.512   4.434   0.131 -0.0796  0.3057  0.5620
  546MPD2     N 8108   3.474   0.152   0.009 -0.2627  0.2810  0.0099
  546MPD2    H5 8109   3.415   0.215  17.645 -0.4029  1.0695  1.0838
  546MPD2    N1 8110   3.218   4.515  17.479  0.1009  0.3331  0.2712
  546MPD2    H7 8111   3.190   4.417  17.481 -1.4464  0.7424 -1.1813
  547TMC3    C1 8112   3.040   4.537  17.323  0.6009 -0.1276 -0.3223
  547TMC3    C2 8113   2.955   4.628  17.267 -0.3970  0.4044 -0.0431
  547TMC3    C3 8114   2.843   4.583  17.204  0.2477  0.2306  0.4148
  547TMC3    C4 8115   3.020   4.400  17.309  0.1817 -0.8898  0.3054
  547TMC3    C5 8116   2.908   4.367  17.246  0.9195 -0.0893  1.2820
  547TMC3    C6 8117   2.821   4.453  17.187 -0.4441  0.3330  0.5635
  547TMC3     C 8118   3.157   4.596  17.387 -0.0304 -0.4247  0.3494
  547TMC3     O 8119   3.176   4.713  17.364 -0.3297  0.0151  0.1206
  547TMC3     H 8120   2.969   0.011  17.287 -0.1160 -0.1890  2.9355
  547TMC3    H1 8121   3.089   4.328  17.352  0.4333 -0.7185  0.1887
  547TMC3    H2 8122   2.730   4.415  17.144  0.0560 -0.3861  0.1362
  547TMC3    C7 8123   2.878   4.228  17.235  0.2574 -0.1333  0.6708
  547TMC3    C8 8124   2.754   4.676  17.150 -0.4748  0.0473  0.1678
  547TMC3    O1 8125   2.969   4.151  17.210 -0.6485 -0.3347  0.1312
  547TMC3    O2 8126   2.636   4.642  17.129  0.4464  0.3111 -0.5092
  548MPD2     C 8127   3.339   0.481  12.768 -0.1189 -0.1325 -0.6034
  548MPD2    C1 8128   3.311   0.364  12.703 -0.4141 -0.4248  0.1922
  548MPD2    C2 8129   3.406   0.292  12.634 -0.9027  0.3387 -0.2600
  548MPD2    C3 8130   3.539   0.339  12.640  0.2859 -0.2820  0.1822
  548MPD2    C4 8131   3.571   0.453  12.709 -0.1186 -0.0550 -0.9200
  548MPD2    C5 8132   3.470   0.520  12.774 -0.5667  0.2434 -0.0645
  548MPD2     H 8133   3.393   0.196  12.585 -1.8650 -0.1356  0.9263
  548MPD2    H1 8134   3.674   0.489  12.717  0.9005 -3.7646  2.4067
  548MPD2    H2 8135   3.272   0.537  12.832 -0.0969 -0.5025 -0.2600
  548MPD2    H3 8136   3.496   0.605  12.835 -3.1610  0.4802  0.7192
  548MPD2     N 8137   3.636   0.258  12.580 -0.1396 -0.1741 -0.1479
  548MPD2    H5 8138   3.601   0.175  12.533 -0.0552 -1.3483  1.8695
  548MPD2    N1 8139   3.171   0.331  12.695 -0.4175  0.5317  0.0213
  548MPD2    H7 8140   3.107   0.405  12.724 -0.1755  0.8634 -0.2934
  549TMC3    C1 8141   2.973   0.229  12.614 -1.0185 -0.7199 -0.3044
  549TMC3    C2 8142   2.923   0.355  12.581  0.6674  0.1468  0.3247
  549TMC3    C3 8143   2.794   0.353  12.532  0.3793 -0.6396  0.4492
  549TMC3    C4 8144   2.912   0.111  12.589 -0.0205 -0.1095  0.2228
  549TMC3    C5 8145   2.792   0.115  12.521 -0.4039 -0.0312 -0.3742
  549TMC3    C6 8146   2.735   0.235  12.491  0.1172  0.5839 -0.0525
  549TMC3     C 8147   3.114   0.220  12.636  0.6072 -0.0458 -0.1573
  549TMC3     O 8148   3.180   0.132  12.586  0.2177 -0.0762 -0.3578
  549TMC3     H 8149   2.981   0.445  12.595 -0.1078  0.9291 -1.5184
  549TMC3    H1 8150   2.970   0.020  12.603 -0.3027 -0.1459  1.1535
  549TMC3    H2 8151   2.633   0.240  12.454 -0.0816  0.7578  0.5182
  549TMC3    C7 8152   2.720   4.720  12.489  0.5898  0.3071 -0.2037
  549TMC3    C8 8153   2.717   0.474  12.541  0.1917  0.3647  0.1899
  549TMC3    O1 8154   2.629   0.004  12.408 -0.3322  0.4656  0.0509
  549TMC3    O2 8155   2.600   0.471  12.501 -0.2610 -0.3186 -0.0386
  550TMC3    C1 8156   2.425   2.803  11.918 -0.0142  0.2991  0.0808
  550TMC3    C2 8157   2.466   2.843  12.046  0.5915  0.4931 -0.3400
  550TMC3    C3 8158   2.470   2.976  12.075  0.7364 -0.4239 -0.1024
  550TMC3    C4 8159   2.407   2.905  11.821  0.3834 -0.3274  0.3466
  550TMC3    C5 8160   2.412   3.041  11.856 -0.6244  0.2704 -0.2026
  550TMC3    C6 8161   2.452   3.071  11.981  1.3750  1.1816 -0.2844
  550TMC3     C 8162   2.459   2.670  11.865 -0.2837  0.0940 -0.3807
  550TMC3     O 8163   2.553   2.609  11.913 -0.0455  0.3563  0.9580
  550TMC3     H 8164   2.483   2.763  12.117 -2.7835 -0.5329 -0.6628
  550TMC3    H1 8165   2.395   2.877  11.717 -2.5961  1.0346  0.3165
  550TMC3    H2 8166   2.461   3.177  12.006 -1.4138  1.0311  1.3711
  550TMC3    C7 8167   2.312   3.128  11.808 -0.3420 -0.8881 -0.5222
  550TMC3    C8 8168   2.409   3.008  12.204  0.1936 -0.4450 -0.0843
  550TMC3    O1 8169   2.278   3.225  11.874  0.2921 -0.1243 -0.5728
  550TMC3    O2 8170   2.416   2.918  12.290  0.6705  0.0687 -0.7955
  551TMC3    C1 8171   4.177   1.710  13.521 -0.3845  0.1397 -0.1846
  551TMC3    C2 8172   4.271   1.764  13.444 -0.3416  0.3410 -0.1472
  551TMC3    C3 8173   4.388   1.799  13.502 -1.3569  0.1378  0.1068
  551TMC3    C4 8174   4.184   1.701  13.658 -0.1927 -0.1105 -0.7758
  551TMC3    C5 8175   4.302   1.733  13.718  0.1307 -0.6194  0.6823
  551TMC3    C6 8176   4.407   1.779  13.638  0.3820  0.3182  0.9432
  551TMC3     C 8177   4.066   1.643  13.460 -0.5717 -0.4864 -0.1254
  551TMC3     O 8178   4.032   1.537  13.515 -0.5706  0.3592  0.5130
  551TMC3     H 8179   4.256   1.761  13.337 -0.6072 -2.5181 -0.0303
  551TMC3    H1 8180   4.105   1.656  13.716  0.6177  0.1861  0.5744
  551TMC3    H2 8181   4.497   1.820  13.682 -0.3320  1.4563  1.3437
  551TMC3    C7 8182   4.312   1.731  13.866  0.4883 -0.0664  0.5174
  551TMC3    C8 8183   4.515   1.797  13.424  0.9942  1.3797  0.6279
  551TMC3    O1 8184   4.241   1.656  13.927 -0.7312  0.7030  0.6671
  551TMC3    O2 8185   4.597   1.712  13.460  0.2544 -0.0408  0.1372
  552MPD2     C 8186   1.109   3.325  14.090  0.0176  0.3128  1.0033
  552MPD2    C1 8187   1.211   3.288  14.009 -0.8026 -0.9056  0.0026
  552MPD2    C2 8188   1.335   3.267  14.065 -1.0367 -0.8764 -0.5145
  552MPD2    C3 8189   1.357   3.261  14.199 -0.3344 -0.2604 -0.5111
  552MPD2    C4 8190   1.250   3.277  14.282 -0.6977  0.3370 -0.3540
  552MPD2    C5 8191   1.127   3.312  14.224  0.3468  0.7589 -0.0931
  552MPD2     H 8192   1.422   3.243  14.006 -0.5868  2.6145 -1.3040
  552MPD2    H1 8193   1.264   3.292  14.388 -1.1602 -2.0845  0.0556
  552MPD2    H2 8194   1.016   3.358  14.044  1.8967  3.2433 -0.7517
  552MPD2    H3 8195   1.048   3.354  14.286 -1.7911 -1.2405 -1.4792
  552MPD2     N 8196   1.477   3.241  14.268  0.5101  0.2619 -0.4880
  552MPD2    H5 8197   1.479   3.227  14.368  2.1099  1.5636 -0.3568
  552MPD2    N1 8198   1.200   3.282  13.867 -0.0630  0.0279 -0.1905
  552MPD2    H7 8199   1.284   3.259  13.815  0.5752 -1.2985  1.4069
  553TMC3    C1 8200   1.094   3.234  13.662  0.7221 -0.1882 -0.1196
  553TMC3    C2 8201   1.213   3.253  13.600 -0.1840 -0.2633  0.4930
  553TMC3    C3 8202   1.256   3.157  13.509  0.2842  0.5534 -0.0099
  553TMC3    C4 8203   1.029   3.112  13.636 -0.3044  0.3159 -0.1892
  553TMC3    C5 8204   1.089   3.009  13.575 -0.0824  0.3196 -0.0426
  553TMC3    C6 8205   1.201   3.029  13.507  0.3022  0.0056 -0.5104
  553TMC3     C 8206   1.079   3.284  13.797  0.0335  0.5668  0.5888
  553TMC3     O 8207   0.967   3.289  13.840  0.3545  0.2023  0.0833
  553TMC3     H 8208   1.270   3.345  13.608  0.0910 -0.1511 -2.4243
  553TMC3    H1 8209   0.943   3.087  13.698  0.6104 -2.2241  0.0258
  553TMC3    H2 8210   1.247   2.939  13.469  2.7455  0.7553  0.7032
  553TMC3    C7 8211   1.079   2.889  13.655 -0.2956 -0.3239 -0.6752
  553TMC3    C8 8212   1.390   3.177  13.450  0.4713 -0.8229  0.6759
  553TMC3    O1 8213   0.978   2.851  13.712  0.1645 -0.0657  0.1477
  553TMC3    O2 8214   1.464   3.269  13.490  0.5547  0.1299  0.0015
  554TMC3    C1 8215   3.713   1.680  11.291 -0.5959 -0.8216  0.0283
  554TMC3    C2 8216   3.658   1.634  11.173 -0.1149  0.4126 -0.1390
  554TMC3    C3 8217   3.691   1.698  11.054  0.5820 -0.7135  0.1883
  554TMC3    C4 8218   3.785   1.792  11.295 -0.6271  0.5286  0.6546
  554TMC3    C5 8219   3.826   1.843  11.172  0.3944  0.1275  0.7928
  554TMC3    C6 8220   3.785   1.794  11.055 -0.3815  0.1451 -0.4021
  554TMC3     C 8221   3.639   1.657  11.416  0.1787  0.1445  0.4703
  554TMC3     O 8222   3.531   1.712  11.432 -0.4077  0.5547  0.1360
  554TMC3     H 8223   3.584   1.555  11.177 -0.5776  0.8429 -0.1239
  554TMC3    H1 8224   3.828   1.829  11.387  2.5017 -0.1207 -0.5487
  554TMC3    H2 8225   3.830   1.844  10.970  1.2732  0.5798  0.7365
  554TMC3    C7 8226   3.855   1.982  11.168  0.4501 -0.4813 -0.1190
  554TMC3    C8 8227   3.611   1.688  10.932 -0.1035 -0.1281 -0.3018
  554TMC3    O1 8228   3.936   2.027  11.088 -0.5019 -0.3226 -0.7215
  554TMC3    O2 8229   3.628   1.774  10.850 -0.1123  0.8806 -0.3944
  555TMC3    C1 8230   2.351   2.094  15.254 -0.1819 -0.0293  0.1388
  555TMC3    C2 8231   2.336   2.165  15.371  0.6823  0.5470 -0.6423
  555TMC3    C3 8232   2.334   2.090  15.486 -0.4003 -0.1537  0.1105
  555TMC3    C4 8233   2.350   1.959  15.232  0.0977  0.5422  0.2620
  555TMC3    C5 8234   2.356   1.894  15.350  0.2311 -0.4167 -0.3320
  555TMC3    C6 8235   2.337   1.949  15.476 -0.2387 -0.7233  0.0234
  555TMC3     C 8236   2.343   2.178  15.127 -0.4531  0.3036 -0.5667
  555TMC3     O 8237   2.431   2.259  15.106  0.7683  0.2511  0.2792
  555TMC3     H 8238   2.336   2.272  15.386 -0.8408  0.5817 -0.9122
  555TMC3    H1 8239   2.381   1.916  15.137  0.1627  3.5051 -1.0659
  555TMC3    H2 8240   2.329   1.888  15.565 -2.3824  0.6225  0.7718
  555TMC3    C7 8241   2.322   1.757  15.353  0.4317  0.5539  0.1258
  555TMC3    C8 8242   2.307   2.166  15.605 -0.2849  1.0913  0.1213
  555TMC3    O1 8243   2.216   1.719  15.305 -0.3480 -0.2154 -0.0175
  555TMC3    O2 8244   2.260   2.278  15.596  0.5285 -0.1669  0.5215
  556MPD2     C 8245   1.134   3.003  11.314  1.1895  0.0723  0.7540
  556MPD2    C1 8246   1.004   3.014  11.282 -0.3244  1.1387 -0.3904
  556MPD2    C2 8247   0.953   2.932  11.188  0.4121  0.3730 -0.9512
  556MPD2    C3 8248   1.033   2.847  11.110  0.5878  0.4971  0.1529
  556MPD2    C4 8249   1.162   2.833  11.155 -0.2285 -0.3349  0.4133
  556MPD2    C5 8250   1.208   2.908  11.256 -0.1350  0.1875 -0.8082
  556MPD2     H 8251   0.847   2.924  11.167 -0.0303  1.2351  0.9603
  556MPD2    H1 8252   1.234   2.761  11.119 -0.1112 -0.6640  1.3093
  556MPD2    H2 8253   1.167   3.067  11.395 -1.6652  2.0443  0.3742
  556MPD2    H3 8254   1.307   2.886  11.295 -1.1552 -0.4652  1.4165
  556MPD2     N 8255   0.966   2.781  11.005 -0.2416  0.6131  0.0160
  556MPD2    H5 8256   0.867   2.793  10.989 -0.0176  1.5972 -0.6205
  556MPD2    N1 8257   0.912   3.103  11.341 -0.4263 -0.3729  0.2646
  556MPD2    H7 8258   0.814   3.098  11.318 -0.2093  2.3917 -1.2580
  557TMC3    C1 8259   0.947   2.608  10.840  0.5227 -0.0647 -0.4064
  557TMC3    C2 8260   1.011   2.499  10.787  0.4725 -0.0867 -0.1123
  557TMC3    C3 8261   0.950   2.435  10.674 -0.8937  0.5182  0.0571
  557TMC3    C4 8262   0.829   2.658  10.793  0.3815 -0.5746 -0.5722
  557TMC3    C5 8263   0.768   2.584  10.687  0.2876  0.3886 -0.9055
  557TMC3    C6 8264   0.828   2.475  10.627  0.3679  0.0272  0.7261
  557TMC3     C 8265   1.031   2.685  10.923 -0.2825  0.5185 -0.4302
  557TMC3     O 8266   1.149   2.651  10.936  0.4879 -0.0682 -0.8918
  557TMC3     H 8267   1.113   2.476  10.816  1.5151  2.7595 -1.4858
  557TMC3    H1 8268   0.786   2.748  10.837  3.9615  0.3270  1.0650
  557TMC3    H2 8269   0.782   2.410  10.553 -0.0849  1.1020  0.0762
  557TMC3    C7 8270   0.646   2.643  10.635  0.3150 -0.2337  0.3004
  557TMC3    C8 8271   1.018   2.322  10.619 -0.3188 -0.0983  0.6238
  557TMC3    O1 8272   0.588   2.731  10.698  0.7065 -0.3825  0.0721
  557TMC3    O2 8273   1.141   2.317  10.627  0.1021  0.2847  0.0160
  558TMC3    C1 8274   3.693   0.570   9.700  0.4211  0.0784  0.2155
  558TMC3    C2 8275   3.649   0.457   9.760 -0.2623  0.2216  0.1346
  558TMC3    C3 8276   3.520   0.447   9.800 -0.8597 -0.2663  0.3027
  558TMC3    C4 8277   3.609   0.670   9.669 -0.3803  0.2062 -0.2249
  558TMC3    C5 8278   3.477   0.658   9.697  0.1378 -0.3440 -0.4651
  558TMC3    C6 8279   3.431   0.543   9.764  0.0023 -0.1295 -0.6371
  558TMC3     C 8280   3.830   0.604   9.738 -0.6868 -0.4071  0.1741
  558TMC3     O 8281   3.852   0.719   9.776 -0.0147  0.9268  0.2244
  558TMC3     H 8282   3.712   0.375   9.792 -0.4644  0.2216  0.5320
  558TMC3    H1 8283   3.649   0.763   9.631 -1.3462  1.2029  1.2525
  558TMC3    H2 8284   3.324   0.524   9.768 -0.2192  1.4911  0.9622
  558TMC3    C7 8285   3.392   0.763   9.654 -0.9058  0.0989 -0.6775
  558TMC3    C8 8286   3.482   0.324   9.870  0.5597  0.1736  0.5709
  558TMC3    O1 8287   3.428   0.824   9.553  0.5352 -0.0420 -0.5975
  558TMC3    O2 8288   3.563   0.232   9.860 -0.3514 -0.4900  0.2069
  559MPD2     C 8289   3.138   1.465  10.159 -0.4002 -0.0012  0.3467
  559MPD2    C1 8290   3.047   1.396  10.227  0.5337  0.2503 -0.1999
  559MPD2    C2 8291   3.092   1.317  10.325 -1.0044 -0.0894 -0.0464
  559MPD2    C3 8292   3.221   1.307  10.365 -0.2103 -0.2049 -0.0509
  559MPD2    C4 8293   3.318   1.373  10.288  0.0900 -0.3282 -0.1704
  559MPD2    C5 8294   3.279   1.451  10.181 -0.3651  0.3229 -0.2484
  559MPD2     H 8295   3.022   1.264  10.388 -2.8592  0.1592 -1.9091
  559MPD2    H1 8296   3.421   1.371  10.322 -0.3208 -1.8592  0.9773
  559MPD2    H2 8297   3.106   1.534  10.082 -1.5996  0.0763  0.9025
  559MPD2    H3 8298   3.337   1.520  10.121 -1.3219 -1.5405 -3.3214
  559MPD2     N 8299   3.250   1.233  10.483 -0.9598  0.2574  0.1488
  559MPD2    H5 8300   3.166   1.202  10.532 -0.3957 -1.1919  0.1961
  559MPD2    N1 8301   2.911   1.408  10.191 -0.1134 -0.2279 -0.2386
  559MPD2    H7 8302   2.886   1.475  10.119 -1.7490  0.9245  1.4225
  560TMC3    C1 8303   3.347   1.163  10.671  0.3815  0.4108  0.4175
  560TMC3    C2 8304   3.235   1.092  10.694 -0.1536 -0.5481  0.1877
  560TMC3    C3 8305   3.211   1.055  10.830 -0.2625 -0.2529 -0.6905
  560TMC3    C4 8306   3.433   1.200  10.768  0.4006  0.0996 -0.9969
  560TMC3    C5 8307   3.403   1.161  10.897 -0.5535  0.0015 -0.4490
  560TMC3    C6 8308   3.291   1.095  10.928 -0.0793  0.1566  0.6384
  560TMC3     C 8309   3.368   1.213  10.539  0.3659 -0.5179 -0.7691
  560TMC3     O 8310   3.483   1.236  10.503 -0.0043 -0.1279 -0.4609
  560TMC3     H 8311   3.180   1.046  10.613 -1.6298  1.0944  0.2374
  560TMC3    H1 8312   3.526   1.249  10.740  1.5281 -1.4655  0.0571
  560TMC3    H2 8313   3.272   1.056  11.027 -2.6603  1.8747  0.8132
  560TMC3    C7 8314   3.495   1.194  11.005 -0.1631  0.3579 -0.0420
  560TMC3    C8 8315   3.153   0.926  10.846  0.1502  0.3271 -0.0082
  560TMC3    O1 8316   3.452   1.192  11.121 -0.0864  0.2623 -0.5400
  560TMC3    O2 8317   3.122   0.866  10.743  0.4699  0.0726  0.7787
  561TMC3    C1 8318   1.017   0.549  11.107 -0.1220 -0.4053  0.8487
  561TMC3    C2 8319   0.949   0.498  11.211  0.0585 -0.0182  0.1628
  561TMC3    C3 8320   0.934   0.577  11.326  0.2444 -0.1087 -0.2958
  561TMC3    C4 8321   1.086   0.664  11.108  0.3488  0.6059 -0.1077
  561TMC3    C5 8322   1.063   0.748  11.218 -0.0776  0.2094  0.3716
  561TMC3    C6 8323   0.999   0.702  11.333  0.7067  0.2705 -0.2851
  561TMC3     C 8324   1.037   0.457  10.985  0.0166 -0.2493 -0.3709
  561TMC3     O 8325   1.080   0.497  10.873 -0.5559  0.4388  0.0885
  561TMC3     H 8326   0.892   0.406  11.203 -0.5662  0.3284  0.5215
  561TMC3    H1 8327   1.147   0.690  11.023 -0.8601 -0.6907 -1.3767
  561TMC3    H2 8328   0.989   0.767  11.419  2.0479  0.4266 -0.2491
  561TMC3    C7 8329   1.111   0.883  11.228  0.7240  0.4284  0.7711
  561TMC3    C8 8330   0.881   0.521  11.444  0.8869  0.1703 -0.3711
  561TMC3    O1 8331   1.080   0.946  11.326  0.2610  0.2738 -0.5566
  561TMC3    O2 8332   0.889   0.397  11.452 -0.1631 -0.7671  0.4192
  562TMC3    C1 8333   1.981   2.115  16.284 -0.1113  0.0941 -0.1037
  562TMC3    C2 8334   1.929   2.243  16.257  0.5562  0.9665 -0.4855
  562TMC3    C3 8335   1.895   2.270  16.127  0.2358  0.3406  0.9827
  562TMC3    C4 8336   1.988   2.018  16.186 -0.6867 -0.3417 -0.0373
  562TMC3    C5 8337   1.956   2.050  16.056 -0.4996 -0.5321 -0.0722
  562TMC3    C6 8338   1.914   2.179  16.030  0.3003 -0.3115 -0.0397
  562TMC3     C 8339   2.016   2.074  16.417  0.2125  0.8748  0.2512
  562TMC3     O 8340   1.996   1.952  16.441 -0.6427  0.0692 -0.4553
  562TMC3     H 8341   1.907   2.312  16.337 -2.7591  0.2393 -0.7732
  562TMC3    H1 8342   2.030   1.922  16.214 -2.7484 -1.2981 -0.2274
  562TMC3    H2 8343   1.893   2.192  15.924  0.1169  0.6655  0.1163
  562TMC3    C7 8344   1.990   1.965  15.947  0.5847  0.0864  0.0787
  562TMC3    C8 8345   1.827   2.397  16.112 -0.4790  0.1028  0.1653
  562TMC3    O1 8346   1.979   2.004  15.831  0.4822 -0.1959  0.2176
  562TMC3    O2 8347   1.809   2.459  16.212  0.0079 -0.1775 -0.0781
  563MPD2     C 8348   4.171   3.774  15.870  1.1512 -0.5056 -0.4140
  563MPD2    C1 8349   4.128   3.646  15.906 -0.0061  1.0372 -0.3309
  563MPD2    C2 8350   4.223   3.547  15.915  0.7028 -0.4922 -0.7355
  563MPD2    C3 8351   4.357   3.570  15.893  0.6359 -0.4418  0.1439
  563MPD2    C4 8352   4.395   3.692  15.842  0.0492  0.4140 -0.2103
  563MPD2    C5 8353   4.300   3.791  15.831 -0.1647  0.8876 -0.9344
  563MPD2     H 8354   4.201   3.446  15.948  1.2784 -0.4769 -0.3032
  563MPD2    H1 8355   4.502   3.709  15.841  0.2214 -0.6385  0.9285
  563MPD2    H2 8356   4.100   3.855  15.862  0.2878 -1.2461 -0.3196
  563MPD2    H3 8357   4.325   3.890  15.795  0.6149  0.3108 -1.9815
  563MPD2     N 8358   4.439   3.464  15.934 -0.7298  0.5149  0.4561
  563MPD2    H5 8359   4.393   3.389  15.984 -3.5584  0.3165 -2.3799
  563MPD2    N1 8360   4.002   3.625  15.937 -0.6667 -0.0068 -0.5739
  563MPD2    H7 8361   3.937   3.698  15.912  1.3757  2.1056  0.2982
  564TMC3    C1 8362   3.808   3.535  16.024  0.0159 -0.7578 -0.4781
  564TMC3    C2 8363   3.739   3.429  15.987 -0.1458 -0.3201 -0.3424
  564TMC3    C3 8364   3.680   3.353  16.094  0.8548  0.4476  0.3335
  564TMC3    C4 8365   3.802   3.597  16.150  0.7934  0.2840 -0.6393
  564TMC3    C5 8366   3.773   3.508  16.245 -0.1822 -0.8085  0.1502
  564TMC3    C6 8367   3.684   3.402  16.222 -0.7720  0.1978  0.0773
  564TMC3     C 8368   3.947   3.513  15.989  0.3084  0.0373  0.3314
  564TMC3     O 8369   3.986   3.396  15.983 -0.4914  0.7767 -0.6266
  564TMC3     H 8370   3.762   3.386  15.891  1.4608 -2.7593  1.1273
  564TMC3    H1 8371   3.869   3.679  16.171 -0.1417  0.8590  0.0585
  564TMC3    H2 8372   3.663   3.331  16.301  1.6339 -0.8970 -0.2641
  564TMC3    C7 8373   3.851   3.481  16.363 -0.0028  0.4273 -0.0254
  564TMC3    C8 8374   3.689   3.214  16.095 -0.3467  0.4927  0.1526
  564TMC3    O1 8375   3.826   3.377  16.427 -0.4596 -0.2461 -0.1153
  564TMC3    O2 8376   3.604   3.157  16.161 -0.4004 -0.2962 -0.3244
  565TMC3    C1 8377   0.312   4.378  10.374 -0.2490  0.9102  0.2122
  565TMC3    C2 8378   0.304   4.297  10.485 -0.2223 -0.4851  0.5479
  565TMC3    C3 8379   0.195   4.222  10.516 -0.7875 -0.6624  0.6173
  565TMC3    C4 8380   0.194   4.399  10.301  0.3315  0.0286 -0.3496
  565TMC3    C5 8381   0.070   4.347  10.343 -0.3982  0.8059  0.3529
  565TMC3    C6 8382   0.072   4.257  10.452 -0.0533  0.1555 -0.1197
  565TMC3     C 8383   0.427   4.473  10.366 -0.2623  0.5590 -0.2391
  565TMC3     O 8384   0.423   4.550  10.273  0.7947 -0.1388  0.4394
  565TMC3     H 8385   0.397   4.267  10.533  0.0898  0.3375  0.4561
  565TMC3    H1 8386   0.195   4.465  10.215 -0.3894 -0.1889 -0.5246
  565TMC3    H2 8387   4.712   4.187  10.462  0.3946 -0.7924 -2.9663
  565TMC3    C7 8388   4.670   4.361  10.269  0.2018 -0.0407 -0.2337
  565TMC3    C8 8389   0.188   4.164  10.650 -0.1823  0.4793  0.3934
  565TMC3    O1 8390   4.577   4.298  10.320 -0.3502 -0.7288 -0.1685
  565TMC3    O2 8391   0.282   4.192  10.721  0.7576 -0.1420  0.2425
  566MPD2     C 8392   1.499   1.569  14.006  0.2563 -0.5530  0.6827
  566MPD2    C1 8393   1.528   1.658  13.899  0.2653 -0.2798  0.4191
  566MPD2    C2 8394   1.492   1.614  13.771  0.5932 -0.2369 -0.0972
  566MPD2    C3 8395   1.454   1.483  13.753 -0.0067  0.5382  0.5351
  566MPD2    C4 8396   1.449   1.392  13.853  0.4409 -0.7498  0.5834
  566MPD2    C5 8397   1.462   1.436  13.981  0.3369 -0.3483  0.4831
  566MPD2     H 8398   1.503   1.684  13.689 -3.8144  0.3269 -0.1916
  566MPD2    H1 8399   1.425   1.287  13.840 -2.7111 -0.2064  1.8505
  566MPD2    H2 8400   1.524   1.588  14.110  1.0933 -1.8928  0.7294
  566MPD2    H3 8401   1.453   1.369  14.066 -1.3312  0.5775  1.0492
  566MPD2     N 8402   1.408   1.438  13.620  0.0122 -0.4901 -0.1427
  566MPD2    H5 8403   1.392   1.339  13.609 -1.5066 -0.1704 -0.8037
  566MPD2    N1 8404   1.592   1.772  13.935 -0.4477 -0.4358  0.2838
  566MPD2    H7 8405   1.618   1.783  14.033  4.2683  0.0712 -1.0597
  567TMC3    C1 8406   1.714   1.983  13.906  0.0505  0.4434  0.3672
  567TMC3    C2 8407   1.789   2.046  13.813 -0.0486 -0.1822 -0.1641
  567TMC3    C3 8408   1.906   2.105  13.862 -0.0813  0.0621 -0.2158
  567TMC3    C4 8409   1.738   1.989  14.045  0.6565 -0.5159  0.2955
  567TMC3    C5 8410   1.837   2.074  14.086  0.7786  0.4252  0.3204
  567TMC3    C6 8411   1.929   2.120  14.001  0.3311  0.1093  0.1703
  567TMC3     C 8412   1.633   1.877  13.851 -0.0159 -0.0105  0.3861
  567TMC3     O 8413   1.610   1.882  13.730  0.0030  0.7889  0.6427
  567TMC3     H 8414   1.772   2.026  13.708 -1.2954  1.2760 -0.2258
  567TMC3    H1 8415   1.664   1.945  14.109  0.1790 -2.2266 -1.4295
  567TMC3    H2 8416   2.021   2.173  14.022  0.6319 -1.1995  2.1038
  567TMC3    C7 8417   1.884   2.068  14.222  0.1416 -0.7180  0.2540
  567TMC3    C8 8418   2.003   2.108  13.757 -0.0686 -0.1318  0.5927
  567TMC3    O1 8419   2.003   2.045  14.237 -0.4203 -0.3492  0.6805
  567TMC3    O2 8420   1.952   2.124  13.647 -0.0826 -0.4293 -0.6509
  568MPD2     C 8421   4.119   1.922  16.915 -0.0885  0.0669  0.2142
  568MPD2    C1 8422   3.985   1.945  16.953  0.1877  0.2857  0.3183
  568MPD2    C2 8423   3.917   2.042  16.877 -0.0145  0.6078 -0.0095
  568MPD2    C3 8424   3.978   2.107  16.769  0.3114  0.6061 -0.9435
  568MPD2    C4 8425   4.112   2.089  16.739 -0.8820  0.0687 -0.6754
  568MPD2    C5 8426   4.173   1.991  16.811  0.5738 -0.5080 -0.6835
  568MPD2     H 8427   3.812   2.062  16.898  0.3233 -0.1148  2.3657
  568MPD2    H1 8428   4.162   2.132  16.652  2.1721  0.4839  1.3061
  568MPD2    H2 8429   4.173   1.846  16.971  1.9297  1.0101 -0.4586
  568MPD2    H3 8430   4.272   1.958  16.783  0.4767 -0.3146 -1.2545
  568MPD2     N 8431   3.901   2.205  16.701 -0.5741  0.7800 -0.2480
  568MPD2    H5 8432   3.814   2.232  16.746 -2.9934  0.6412 -4.7701
  568MPD2    N1 8433   3.922   1.859  17.049  0.0305  0.2712 -0.1159
  568MPD2    H7 8434   3.972   1.775  17.075  0.6465  1.3980  2.3683
  569TMC3    C1 8435   3.861   2.377  16.541 -0.2203  0.0989  0.4617
  569TMC3    C2 8436   3.803   2.440  16.643 -0.4974  0.2857  0.2486
  569TMC3    C3 8437   3.756   2.566  16.619 -0.3898  0.5531 -0.1531
  569TMC3    C4 8438   3.860   2.418  16.416 -0.4031 -0.5410 -0.0412
  569TMC3    C5 8439   3.817   2.544  16.392  0.4553 -0.7831  0.4903
  569TMC3    C6 8440   3.761   2.622  16.495 -0.2043  0.2581  0.5515
  569TMC3     C 8441   3.938   2.258  16.581 -0.2897 -0.1389  0.0080
  569TMC3     O 8442   4.007   2.201  16.493  0.3938 -0.0567  0.5346
  569TMC3     H 8443   3.800   2.406  16.746 -0.0418  0.4274  0.3093
  569TMC3    H1 8444   3.910   2.361  16.339  0.2625 -0.7052  0.5106
  569TMC3    H2 8445   3.726   2.724  16.479  0.5848  0.4869  0.2543
  569TMC3    C7 8446   3.875   2.621  16.281  0.2038 -0.0498 -0.4889
  569TMC3    C8 8447   3.725   2.649  16.729  0.5376 -0.0788  0.3518
  569TMC3    O1 8448   3.942   2.551  16.203  0.2824  0.0942  0.1116
  569TMC3    O2 8449   3.749   2.765  16.698 -0.3029 -0.2980  0.0803
  570TMC3    C1 8450   3.410   0.979  16.643  0.7839  0.6774 -0.4429
  570TMC3    C2 8451   3.480   0.968  16.528  0.0806 -0.0241 -0.3175
  570TMC3    C3 8452   3.474   1.069  16.436 -0.1696  0.0340  0.4492
  570TMC3    C4 8453   3.332   1.088  16.665  0.4974  0.0863  0.2258
  570TMC3    C5 8454   3.337   1.194  16.578 -0.0044 -0.8704  0.2215
  570TMC3    C6 8455   3.416   1.188  16.464  0.3347 -0.7844  0.0454
  570TMC3     C 8456   3.366   0.845  16.687 -0.0125  0.1605 -0.3165
  570TMC3     O 8457   3.378   0.755  16.600 -0.5426 -0.6549  0.3304
  570TMC3     H 8458   3.543   0.882  16.508 -0.2031 -0.3818  0.3386
  570TMC3    H1 8459   3.264   1.093  16.749 -0.5497 -0.7968 -0.5801
  570TMC3    H2 8460   3.419   1.274  16.398  0.3152 -0.1659  0.8480
  570TMC3    C7 8461   3.307   1.330  16.625  0.5296 -1.3372 -0.2790
  570TMC3    C8 8462   3.568   1.075  16.329  0.9938  0.0469  0.5103
  570TMC3    O1 8463   3.300   1.345  16.746 -0.0213 -0.1783 -0.3429
  570TMC3    O2 8464   3.591   1.184  16.278 -0.3461 -0.5817 -0.4121
  571MPD2     C 8465   1.650   2.313   0.006 -1.0300 -0.0840 -0.9880
  571MPD2    C1 8466   1.520   2.362   0.031  0.1756  0.7501 -0.4077
  571MPD2    C2 8467   1.495   2.410   0.158 -0.3850 -0.5749 -0.7984
  571MPD2    C3 8468   1.593   2.413   0.255  0.4067 -0.2455 -0.1061
  571MPD2    C4 8469   1.725   2.376   0.221  0.3051  0.4444 -0.0034
  571MPD2    C5 8470   1.744   2.320   0.102 -0.9147 -0.3304 -0.4999
  571MPD2     H 8471   1.406   2.466   0.183  0.6137  0.6919 -0.0982
  571MPD2    H1 8472   1.817   2.373   0.279  0.5388  1.1471 -0.3461
  571MPD2    H2 8473   1.676   2.277  17.598  0.8093 -0.5731 -0.3324
  571MPD2    H3 8474   1.848   2.311   0.073 -0.6945 -1.2870  0.5864
  571MPD2     N 8475   1.574   2.476   0.379 -0.2696 -0.2279 -0.2682
  571MPD2    H5 8476   1.655   2.522   0.418 -0.2187 -0.4869 -0.0737
  571MPD2    N1 8477   1.423   2.353  17.624 -0.4206  0.2225  0.1065
  571MPD2    H7 8478   1.457   2.315  17.536 -0.0353  1.6710 -0.3717
  572TMC3    C1 8479   1.456   2.579   0.552 -0.5142  0.2509  0.2920
  572TMC3    C2 8480   1.388   2.548   0.662 -0.7885  0.2712 -0.2068
  572TMC3    C3 8481   1.363   2.640   0.764 -0.2158 -0.0893  0.1084
  572TMC3    C4 8482   1.486   2.714   0.527  0.5781  0.7980 -0.0976
  572TMC3    C5 8483   1.449   2.810   0.626  1.0606 -0.0445  0.0508
  572TMC3    C6 8484   1.400   2.767   0.750  0.0608  0.8046  0.6741
  572TMC3     C 8485   1.452   2.483   0.439  1.1518  0.6182  0.3623
  572TMC3     O 8486   1.361   2.401   0.431  0.3426 -0.3360 -0.4676
  572TMC3     H 8487   1.387   2.442   0.683  0.9130  0.6593  1.9083
  572TMC3    H1 8488   1.523   2.758   0.435 -1.9920  0.7712 -1.1466
  572TMC3    H2 8489   1.378   2.836   0.831 -0.9092  2.3954 -0.9292
  572TMC3    C7 8490   1.377   2.923   0.570  0.8027 -0.2993  0.5513
  572TMC3    C8 8491   1.235   2.628   0.833 -0.2556  0.2510  0.1203
  572TMC3    O1 8492   1.421   2.970   0.464 -0.6705 -0.3707 -0.1231
  572TMC3    O2 8493   1.166   2.728   0.830 -0.1288  0.1634  0.5345
  573MPD2     C 8494   2.352   3.463   0.576 -1.3713 -0.0659  0.0431
  573MPD2    C1 8495   2.254   3.369   0.567  0.0262 -0.9181  0.4732
  573MPD2    C2 8496   2.256   3.272   0.466  0.0785  0.1705  0.5358
  573MPD2    C3 8497   2.352   3.280   0.368 -0.2828  0.6175  1.1516
  573MPD2    C4 8498   2.444   3.385   0.372  0.0274  0.3521  0.0565
  573MPD2    C5 8499   2.443   3.475   0.472 -1.0230  0.4210  0.2592
  573MPD2     H 8500   2.186   3.190   0.458 -1.5690  1.6209  0.2996
  573MPD2    H1 8501   2.519   3.400   0.294  0.8620 -3.1370  0.1955
  573MPD2    H2 8502   2.367   3.532   0.658 -0.3927  1.4655 -1.4356
  573MPD2    H3 8503   2.525   3.546   0.474 -0.2389 -0.4825  0.1107
  573MPD2     N 8504   2.364   3.191   0.260 -0.0988  0.7666 -0.7632
  573MPD2    H5 8505   2.427   3.217   0.185  0.4082  0.6118 -0.3969
  573MPD2    N1 8506   2.163   3.356   0.673 -0.3630 -0.4143 -0.5512
  573MPD2    H7 8507   2.183   3.423   0.746 -1.5822  1.0424 -1.5556
  574TMC3    C1 8508   2.288   3.027   0.106  0.6066  0.6345 -0.0252
  574TMC3    C2 8509   2.196   2.924   0.083  0.0461 -0.4888 -0.8629
  574TMC3    C3 8510   2.157   2.902  17.646 -0.5968  0.1525 -0.5228
  574TMC3    C4 8511   2.349   3.091   0.001 -0.0271  0.0910  0.4842
  574TMC3    C5 8512   2.319   3.052  17.563  0.6808 -0.1322 -0.1854
  574TMC3    C6 8513   2.221   2.959  17.536  0.0916  0.6293 -0.2030
  574TMC3     C 8514   2.283   3.078   0.238 -0.1370  0.4622  0.1988
  574TMC3     O 8515   2.212   3.018   0.316  0.7515 -0.5189 -0.1284
  574TMC3     H 8516   2.139   2.884   0.166  0.6449 -1.6170 -0.9892
  574TMC3    H1 8517   2.395   3.188   0.013 -0.5700  0.6352 -1.8205
  574TMC3    H2 8518   2.196   2.933  17.433  1.9677 -0.0245 -0.4892
  574TMC3    C7 8519   2.378   3.121  17.444  0.7923 -0.0985  0.7436
  574TMC3    C8 8520   2.014   2.880  17.636 -0.4022  0.1821 -0.4332
  574TMC3    O1 8521   2.329   3.088  17.337  0.2643 -0.0391  0.1730
  574TMC3    O2 8522   1.947   2.838   0.040 -0.1102  1.1870 -0.2007
  575TMC3    C1 8523   0.274   4.328  11.502  0.0496 -0.3220 -0.6550
  575TMC3    C2 8524   0.234   4.244  11.599  0.2019 -0.1037  0.2482
  575TMC3    C3 8525   0.201   4.118  11.555 -0.0005 -0.4022  1.3453
  575TMC3    C4 8526   0.262   4.301  11.366  0.2427 -0.3834 -0.4881
  575TMC3    C5 8527   0.212   4.178  11.331 -0.0831 -0.9052 -0.2746
  575TMC3    C6 8528   0.183   4.082  11.425  0.3002  0.5783  0.0829
  575TMC3     C 8529   0.351   4.450  11.548 -0.1167  0.3004  0.0863
  575TMC3     O 8530   0.341   4.486  11.661 -0.2198 -0.3419 -0.2450
  575TMC3     H 8531   0.245   4.268  11.704 -1.6761  0.7023  0.2637
  575TMC3    H1 8532   0.285   4.373  11.289  0.0874  1.5103  1.2262
  575TMC3    H2 8533   0.175   3.981  11.389  0.9121  0.3092  0.6916
  575TMC3    C7 8534   0.186   4.157  11.189  0.6090  0.4231  0.0684
  575TMC3    C8 8535   0.166   4.016  11.657 -0.1568  0.5586 -0.4878
  575TMC3    O1 8536   0.267   4.211  11.110 -0.4907 -1.1570  0.3252
  575TMC3    O2 8537   0.113   3.915  11.612  0.4372  0.3150  0.0935
  576MPD2     C 8538   0.039   1.072  12.523 -0.3418  0.3708  0.5149
  576MPD2    C1 8539   0.093   1.190  12.475 -0.4567  0.4830  0.7934
  576MPD2    C2 8540   0.046   1.303  12.531  0.6723 -0.6657 -0.0005
  576MPD2    C3 8541   4.656   1.304  12.621 -0.3063  0.1402  0.3423
  576MPD2    C4 8542   4.589   1.185  12.649 -0.4960  0.4251  0.4896
  576MPD2    C5 8543   4.645   1.076  12.588  0.2151 -0.2564 -0.5963
  576MPD2     H 8544   0.086   1.399  12.501 -0.4268 -0.2688 -0.2167
  576MPD2    H1 8545   4.491   1.179  12.695 -0.7964  1.8043  0.0280
  576MPD2    H2 8546   0.072   0.976  12.487 -2.6643 -0.2049 -0.0999
  576MPD2    H3 8547   4.585   0.986  12.593 -0.7264  0.4257  0.4099
  576MPD2     N 8548   4.609   1.426  12.675  0.9320  0.6730 -0.7237
  576MPD2    H5 8549   4.651   1.515  12.648  2.3691  0.8280  1.9938
  576MPD2    N1 8550   0.204   1.188  12.377 -0.0908 -0.4865 -0.1331
  576MPD2    H7 8551   0.251   1.276  12.359  0.4853 -0.3200  2.2232
  577TMC3    C1 8552   0.348   1.082  12.216 -0.1487 -0.3815  0.0431
  577TMC3    C2 8553   0.396   0.958  12.180 -0.1230 -0.3028  0.5911
  577TMC3    C3 8554   0.452   0.935  12.056 -0.3333 -0.0474 -0.1991
  577TMC3    C4 8555   0.342   1.182  12.129  0.3402  0.1321  0.4733
  577TMC3    C5 8556   0.389   1.155  12.003 -0.3545 -0.6423  0.5854
  577TMC3    C6 8557   0.445   1.039  11.963  0.5147 -0.0629 -0.4259
  577TMC3     C 8558   0.249   1.072  12.317 -0.4349  0.2641 -0.1889
  577TMC3     O 8559   0.217   0.956  12.336 -0.0665  0.0320 -0.5696
  577TMC3     H 8560   0.408   0.881  12.255  2.3868  0.5942  1.1189
  577TMC3    H1 8561   0.283   1.271  12.149 -0.7881 -0.8978  1.7507
  577TMC3    H2 8562   0.487   1.028  11.864 -1.3858 -1.4723 -1.0814
  577TMC3    C7 8563   0.383   1.255  11.905 -0.5596 -0.3302  0.7571
  577TMC3    C8 8564   0.518   0.805  12.021  0.7445  0.2794 -0.1273
  577TMC3    O1 8565   0.413   1.372  11.934 -0.1815  0.0899  0.2538
  577TMC3    O2 8566   0.548   0.730  12.116 -0.0857  0.6854  0.1858
  578MPD2     C 8567   2.728   1.687   0.676 -0.3558  0.6833  0.4745
  578MPD2    C1 8568   2.624   1.594   0.654 -0.6188 -0.2740 -0.2372
  578MPD2    C2 8569   2.646   1.459   0.680 -0.0708  0.0301  0.1942
  578MPD2    C3 8570   2.757   1.415   0.745 -0.0609 -0.0262 -0.0508
  578MPD2    C4 8571   2.856   1.506   0.766  0.0980 -0.5310  0.0234
  578MPD2    C5 8572   2.847   1.634   0.734  0.1321  0.1156 -0.0514
  578MPD2     H 8573   2.566   1.393   0.648 -0.8155  0.3353  1.3989
  578MPD2    H1 8574   2.954   1.483   0.806  0.0685  1.2934  1.1417
  578MPD2    H2 8575   2.708   1.792   0.656 -1.3622  0.5102  0.5544
  578MPD2    H3 8576   2.937   1.693   0.753 -0.6743  0.6483  2.1752
  578MPD2     N 8577   2.760   1.279   0.784 -0.4711  0.3340 -0.2516
  578MPD2    H5 8578   2.675   1.224   0.789  0.3171 -1.2729 -3.9601
  578MPD2    N1 8579   2.505   1.637   0.595  0.4138  0.9137 -0.2396
  578MPD2    H7 8580   2.487   1.737   0.592 -2.7339  0.4235  2.8577
  579TMC3    C1 8581   2.844   1.107   0.937 -0.1196 -0.1123 -0.2074
  579TMC3    C2 8582   2.927   1.091   1.045  0.4345 -0.2631 -0.3200
  579TMC3    C3 8583   2.878   1.010   1.138 -0.0709 -0.4009  0.4425
  579TMC3    C4 8584   2.729   1.032   0.917  0.5477 -1.2065  0.6415
  579TMC3    C5 8585   2.684   0.944   1.009 -0.4081  0.5506 -0.3628
  579TMC3    C6 8586   2.762   0.938   1.123  0.2682  0.2341 -0.0690
  579TMC3     C 8587   2.868   1.223   0.857 -0.3489 -0.2628  0.0095
  579TMC3     O 8588   2.978   1.271   0.877  0.0528 -0.6019  0.1041
  579TMC3     H 8589   3.005   1.163   1.067 -1.2389  1.6749 -0.6243
  579TMC3    H1 8590   2.682   1.043   0.820  0.1204 -0.8881  0.8854
  579TMC3    H2 8591   2.737   0.863   1.197 -0.9318  2.6517  2.0106
  579TMC3    C7 8592   2.641   0.814   0.959  0.7549  0.0772 -0.4774
  579TMC3    C8 8593   2.936   1.007   1.265 -0.0221  0.4690  0.1032
  579TMC3    O1 8594   2.706   0.712   0.980 -0.2161  0.1733  0.1020
  579TMC3    O2 8595   2.871   0.974   1.359 -0.0952 -0.0852 -0.1212
  580TMC3    C1 8596   2.533   4.563  11.900  0.0775 -0.8894 -0.6186
  580TMC3    C2 8597   2.526   4.526  11.767 -0.2324 -0.0986 -0.1682
  580TMC3    C3 8598   2.551   4.394  11.728 -0.4903 -0.1239  0.3004
  580TMC3    C4 8599   2.562   4.469  11.996  0.5820 -0.4376  0.2064
  580TMC3    C5 8600   2.575   4.339  11.954  1.0098  0.2158 -0.0065
  580TMC3    C6 8601   2.581   4.300  11.821  0.8353 -0.0390 -0.0027
  580TMC3     C 8602   2.598   4.687  11.923 -0.4045 -0.5204 -0.2140
  580TMC3     O 8603   2.604   0.042  11.825  0.2608 -0.0976 -0.0481
  580TMC3     H 8604   2.500   4.603  11.696 -0.9445 -0.4820 -0.3311
  580TMC3    H1 8605   2.541   4.490  12.101  0.0219 -0.9534  0.1975
  580TMC3    H2 8606   2.640   4.213  11.797 -0.5337 -1.2205  0.9109
  580TMC3    C7 8607   2.591   4.241  12.051 -0.1375 -0.0516 -0.7049
  580TMC3    C8 8608   2.632   4.392  11.609  0.8300  0.3807  0.6557
  580TMC3    O1 8609   2.624   4.289  12.158 -0.4668 -0.5135 -0.0922
  580TMC3    O2 8610   2.641   4.287  11.551  0.8068  0.1363  0.1989
  581MPD2     C 8611   0.372   4.649  14.671 -0.8268 -0.1357  0.2070
  581MPD2    C1 8612   0.255   4.625  14.734  0.3123 -0.0372 -0.2311
  581MPD2    C2 8613   0.145   4.706  14.696  0.6113 -0.1624  0.0581
  581MPD2    C3 8614   0.158   0.084  14.599 -0.4103 -0.2374  1.1297
  581MPD2    C4 8615   0.274   0.101  14.529  0.3646 -0.2468 -0.3784
  581MPD2    C5 8616   0.381   0.019  14.574  0.1675 -0.3849 -0.0924
  581MPD2     H 8617   0.052   4.692  14.749  0.2240 -1.8499 -1.0871
  581MPD2    H1 8618   0.283   0.168  14.444 -0.7373 -1.7493 -1.6749
  581MPD2    H2 8619   0.458   4.583  14.679 -0.8719 -0.2314 -0.1132
  581MPD2    H3 8620   0.472   0.015  14.515 -0.1245 -1.1123 -0.4941
  581MPD2     N 8621   0.049   0.164  14.576  0.1537 -1.0315  0.7297
  581MPD2    H5 8622   4.686   0.130  14.620 -2.5047 -0.1584 -3.8396
  581MPD2    N1 8623   0.254   4.544  14.844 -0.5973 -0.0117  1.0834
  581MPD2    H7 8624   0.340   4.494  14.864  0.0789  0.7888  0.1803
  582TMC3    C1 8625   0.179   4.442  15.037  0.9949 -0.7802 -0.1260
  582TMC3    C2 8626   0.305   4.447  15.084  0.2981  0.2927  0.4332
  582TMC3    C3 8627   0.318   4.413  15.218 -0.1396  0.0082  0.0395
  582TMC3    C4 8628   0.077   4.400  15.109  0.1966  0.3692  0.0937
  582TMC3    C5 8629   0.095   4.347  15.232 -0.3465  0.7900  0.6836
  582TMC3    C6 8630   0.222   4.355  15.292  0.0174 -0.6345 -0.4885
  582TMC3     C 8631   0.144   4.518  14.923  0.2016 -0.4093 -0.1960
  582TMC3     O 8632   0.025   4.545  14.901  0.3480  0.0433  0.0914
  582TMC3     H 8633   0.386   4.487  15.023  0.9560  1.0019  1.7866
  582TMC3    H1 8634   4.700   4.389  15.067  0.3007 -0.7276  0.1208
  582TMC3    H2 8635   0.230   4.330  15.397  1.0307  0.3620 -0.3359
  582TMC3    C7 8636   4.712   4.374  15.324  0.2919 -0.4293 -0.0158
  582TMC3    C8 8637   0.441   4.452  15.288 -0.5340  0.9292  0.5111
  582TMC3    O1 8638   4.722   4.305  15.422  0.1862 -0.5505  0.4954
  582TMC3    O2 8639   0.538   4.490  15.224 -0.7154 -0.1182  0.1524
  583MPD2     C 8640   0.387   1.435  16.506 -0.2626 -0.3936  0.2288
  583MPD2    C1 8641   0.394   1.567  16.476 -0.1416  0.4857 -0.6840
  583MPD2    C2 8642   0.358   1.662  16.574  0.0623  0.0210 -0.7296
  583MPD2    C3 8643   0.332   1.623  16.704  0.1785  0.8839 -0.2784
  583MPD2    C4 8644   0.335   1.488  16.735  0.4662  0.4985 -0.2730
  583MPD2    C5 8645   0.357   1.394  16.636  0.0789  0.8383  0.0609
  583MPD2     H 8646   0.369   1.768  16.552 -0.1838  0.1412 -0.2867
  583MPD2    H1 8647   0.325   1.446  16.834 -4.1838 -0.3866 -1.1232
  583MPD2    H2 8648   0.397   1.352  16.436  1.2528 -0.7550  0.8620
  583MPD2    H3 8649   0.360   1.287  16.652 -2.9039  1.0110  1.8743
  583MPD2     N 8650   0.302   1.728  16.794 -0.5308 -0.3744 -0.4902
  583MPD2    H5 8651   0.295   1.820  16.751  0.8549 -1.1448 -2.3579
  583MPD2    N1 8652   0.442   1.619  16.353  0.6901  0.2844 -0.3069
  583MPD2    H7 8653   0.468   1.717  16.346 -1.0265  0.5681 -2.5351
  584TMC3    C1 8654   0.223   1.830  17.004  0.2752 -0.1565 -0.3490
  584TMC3    C2 8655   0.199   1.955  16.947 -0.1720 -0.5809 -0.2454
  584TMC3    C3 8656   0.148   2.052  17.027  0.4746 -0.4124  0.0290
  584TMC3    C4 8657   0.205   1.810  17.146  0.6039 -1.0878 -0.5719
  584TMC3    C5 8658   0.149   1.913  17.224 -0.0747 -1.1108 -0.3960
  584TMC3    C6 8659   0.121   2.038  17.167 -0.5392  0.2038 -0.0156
  584TMC3     C 8660   0.261   1.711  16.926  0.5461  0.0080 -0.0659
  584TMC3     O 8661   0.262   1.607  16.987 -0.6966  0.6561  0.2086
  584TMC3     H 8662   0.214   1.962  16.840  0.4525 -0.0203 -0.1237
  584TMC3    H1 8663   0.186   1.709  17.180 -0.0584 -1.3377 -1.6697
  584TMC3    H2 8664   0.068   2.110  17.229 -0.2012  0.7347 -0.3361
  584TMC3    C7 8665   0.130   1.872  17.354 -0.1832 -0.2362 -0.5133
  584TMC3    C8 8666   0.171   2.193  16.993 -1.1445  0.5953 -0.3928
  584TMC3    O1 8667   0.216   1.813  17.411 -0.5377 -0.0191 -0.2970
  584TMC3    O2 8668   0.187   2.209  16.873 -0.6611 -0.6217  0.0530
  585MPD2     C 8669   4.067   0.976   0.592 -0.7251  0.5998 -0.2288
  585MPD2    C1 8670   4.179   0.963   0.519  0.1268 -0.7590 -0.1327
  585MPD2    C2 8671   4.204   0.862   0.434 -0.4588 -0.5430 -0.0845
  585MPD2    C3 8672   4.108   0.762   0.426 -0.2362 -0.5609 -0.0475
  585MPD2    C4 8673   3.980   0.783   0.485  0.2077  0.2013  0.5932
  585MPD2    C5 8674   3.962   0.885   0.573 -0.5333 -0.3883  0.4762
  585MPD2     H 8675   4.300   0.855   0.384 -0.7756 -3.5557 -0.2828
  585MPD2    H1 8676   3.898   0.716   0.463 -1.0937  2.1573 -0.4968
  585MPD2    H2 8677   4.049   1.054   0.666  1.3848  0.3551  0.5183
  585MPD2    H3 8678   3.875   0.895   0.637 -1.8556 -0.8247 -1.2687
  585MPD2     N 8679   4.123   0.654   0.345 -0.1830 -0.0483 -0.3177
  585MPD2    H5 8680   4.037   0.600   0.340 -0.2834  0.0634  0.2204
  585MPD2    N1 8681   4.283   1.059   0.546 -0.0689  0.3090  0.1162
  585MPD2    H7 8682   4.271   1.112   0.632 -0.2396  0.0527  0.2513
  586TMC3    C1 8683   4.210   0.495   0.192  0.0331 -0.3178  0.0197
  586TMC3    C2 8684   4.305   0.453   0.098 -0.0338 -0.1226 -0.0883
  586TMC3    C3 8685   4.292   0.328   0.043  0.0481 -0.0548 -0.3142
  586TMC3    C4 8686   4.105   0.411   0.234 -0.1281  0.4195 -0.0350
  586TMC3    C5 8687   4.101   0.283   0.178 -0.6975  0.3012 -0.2892
  586TMC3    C6 8688   4.194   0.241   0.084 -0.5187  0.3045  0.3079
  586TMC3     C 8689   4.234   0.614   0.270 -0.3321 -0.2287 -0.3813
  586TMC3     O 8690   4.345   0.666   0.267 -0.1582  0.3535 -0.1819
  586TMC3     H 8691   4.376   0.528   0.065  1.0743 -0.3093  1.8875
  586TMC3    H1 8692   4.042   0.434   0.319  3.1324 -0.9899  2.7460
  586TMC3    H2 8693   4.195   0.138   0.050 -0.6611  0.3262  0.2353
  586TMC3    C7 8694   4.060   0.167   0.256  0.1162  0.1941 -0.2306
  586TMC3    C8 8695   4.404   0.255  17.682 -0.6010 -0.3816 -0.4974
  586TMC3    O1 8696   4.129   0.065   0.256 -0.0833 -1.3206  0.2852
  586TMC3    O2 8697   4.434   0.151   0.045 -0.3808 -0.0046 -0.1076
  587TMC3    C1 8698   2.203   3.943  16.198  0.0035  0.0443 -0.1556
  587TMC3    C2 8699   2.183   4.071  16.235  0.1241  0.0429 -0.0633
  587TMC3    C3 8700   2.284   4.154  16.194  0.2942  0.1081 -0.5123
  587TMC3    C4 8701   2.302   3.899  16.120 -0.0737  0.2379 -0.1569
  587TMC3    C5 8702   2.404   3.984  16.086  0.2820  0.4009 -0.3922
  587TMC3    C6 8703   2.397   4.113  16.127 -1.1052 -0.3172  0.1311
  587TMC3     C 8704   2.104   3.842  16.240 -0.4786  0.2062 -0.2376
  587TMC3     O 8705   2.132   3.727  16.209  0.2262 -0.2983  0.4637
  587TMC3     H 8706   2.150   4.088  16.337 -0.2318  0.2929 -0.2200
  587TMC3    H1 8707   2.295   3.799  16.080  0.0842  0.3983 -0.5890
  587TMC3    H2 8708   2.477   4.181  16.101 -1.4991  0.5171  1.0806
  587TMC3    C7 8709   2.505   3.924  16.006  0.1519 -0.9161 -0.1685
  587TMC3    C8 8710   2.270   4.298  16.184 -0.1745  0.4992  0.2907
  587TMC3    O1 8711   2.492   3.806  15.982  0.3643 -0.6167  1.1684
  587TMC3    O2 8712   2.363   4.367  16.146 -0.0455  0.0812  0.0130
  588TMC3    C1 8713   0.418   1.686   9.661  0.2506 -0.8145  0.4070
  588TMC3    C2 8714   0.382   1.565   9.622 -0.0063 -0.1239  0.0503
  588TMC3    C3 8715   0.322   1.484   9.715  0.2816  0.2538 -0.2028
  588TMC3    C4 8716   0.410   1.726   9.790  0.0835  0.4883  0.8180
  588TMC3    C5 8717   0.348   1.649   9.883  0.8902  0.0755  0.1240
  588TMC3    C6 8718   0.309   1.520   9.843 -0.1347  0.5109 -0.2910
  588TMC3     C 8719   0.517   1.749   9.573 -0.6357  0.4005 -0.1688
  588TMC3     O 8720   0.578   1.674   9.499 -0.2177 -0.0073  0.3113
  588TMC3     H 8721   0.388   1.533   9.518 -0.0130 -0.8780  0.2788
  588TMC3    H1 8722   0.446   1.821   9.828 -1.2254  0.4985  2.0241
  588TMC3    H2 8723   0.266   1.455   9.919 -0.6479 -0.5688 -1.5103
  588TMC3    C7 8724   0.361   1.676  10.024 -0.2527  0.5820  0.3230
  588TMC3    C8 8725   0.281   1.348   9.671  0.0231 -0.2519  0.3767
  588TMC3    O1 8726   0.288   1.621  10.102 -0.3760 -0.6568 -0.6020
  588TMC3    O2 8727   0.258   1.340   9.551 -0.1765 -0.0072 -0.2321
  589TMC3    C1 8728   3.046   3.885   1.051 -0.9216 -0.0760  0.1769
  589TMC3    C2 8729   3.099   3.984   1.134  0.2834  0.0502  0.1556
  589TMC3    C3 8730   3.214   3.953   1.205  0.0734  0.2092  0.4500
  589TMC3    C4 8731   3.098   3.760   1.040 -0.4104 -0.1610  0.3758
  589TMC3    C5 8732   3.215   3.737   1.114  0.3795  0.5467 -0.3329
  589TMC3    C6 8733   3.272   3.831   1.193 -0.2078  1.1437  0.2854
  589TMC3     C 8734   2.927   3.917   0.970 -0.6336 -0.3814 -0.5430
  589TMC3     O 8735   2.882   3.830   0.896  0.1486 -0.3534  0.4823
  589TMC3     H 8736   3.063   4.086   1.135  2.0828  0.7020 -1.5838
  589TMC3    H1 8737   3.048   3.682   0.984 -0.2071 -0.3231  0.4157
  589TMC3    H2 8738   3.344   3.809   1.271 -0.2941 -0.6437 -0.1541
  589TMC3    C7 8739   3.258   3.598   1.130 -1.0744  0.5548 -0.1376
  589TMC3    C8 8740   3.283   4.055   1.271 -0.1070 -0.7788 -0.5950
  589TMC3    O1 8741   3.197   3.510   1.068  0.7944 -0.0346  0.2787
  589TMC3    O2 8742   3.212   4.147   1.304 -0.8898 -0.8835 -0.2947
  590MPD2     C 8743   2.964   2.504  16.825 -1.0175 -0.9042 -0.0891
  590MPD2    C1 8744   2.917   2.622  16.775 -0.4094  0.5290 -0.1572
  590MPD2    C2 8745   3.007   2.706  16.711  0.0596  0.7915  0.4783
  590MPD2    C3 8746   3.136   2.662  16.685 -0.3965 -0.1044 -0.1747
  590MPD2    C4 8747   3.187   2.562  16.765  0.3305 -0.6788  0.2591
  590MPD2    C5 8748   3.093   2.485  16.834  0.6967 -0.9339 -0.0992
  590MPD2     H 8749   2.976   2.790  16.650 -0.6100 -1.7561 -2.6838
  590MPD2    H1 8750   3.288   2.526  16.778  0.6886  0.3236  0.2259
  590MPD2    H2 8751   2.893   2.441  16.878  0.7740 -1.9659  1.0350
  590MPD2    H3 8752   3.116   2.398  16.894  2.0552 -0.6774 -0.2418
  590MPD2     N 8753   3.207   2.732  16.590 -0.9474  0.3522  0.1712
  590MPD2    H5 8754   3.156   2.805  16.542 -0.4802  1.4698  1.3535
  590MPD2    N1 8755   2.776   2.645  16.778 -0.1189  0.7018  0.8001
  590MPD2    H7 8756   2.731   2.565  16.822  0.8110  0.0198  0.5067
  591TMC3    C1 8757   3.371   2.777  16.422 -0.1223 -0.1455  0.8691
  591TMC3    C2 8758   3.454   2.715  16.333  0.3446  0.1971  0.1705
  591TMC3    C3 8759   3.486   2.790  16.225  0.7958  0.0922 -0.2820
  591TMC3    C4 8760   3.305   2.896  16.402  0.3950  0.5166 -0.0913
  591TMC3    C5 8761   3.349   2.967  16.294 -0.3834 -0.3837  0.1603
  591TMC3    C6 8762   3.432   2.910  16.199 -0.1750  0.2476  0.8185
  591TMC3     C 8763   3.331   2.695  16.532  0.1540 -0.5150 -0.1589
  591TMC3     O 8764   3.396   2.594  16.554 -0.0673 -0.6729  0.4250
  591TMC3     H 8765   3.495   2.616  16.350  2.6679  1.3715  1.5482
  591TMC3    H1 8766   3.268   2.958  16.483  0.3005 -0.7819  0.8439
  591TMC3    H2 8767   3.438   2.980  16.117 -1.9391 -1.7107 -0.9670
  591TMC3    C7 8768   3.242   3.052  16.246  0.0940  0.3220  0.0593
  591TMC3    C8 8769   3.538   2.713  16.115 -0.2101  0.4228 -0.1633
  591TMC3    O1 8770   3.136   2.996  16.263  0.1115 -0.1666  0.3703
  591TMC3    O2 8771   3.569   2.597  16.136 -0.2586  0.0569  0.2178
  592MPD2     C 8772   3.638   0.009  11.483 -0.7472  0.2845  0.0228
  592MPD2    C1 8773   3.666   0.008  11.619 -0.6476 -0.9503  0.2818
  592MPD2    C2 8774   3.592   4.640  11.695  0.0440  0.5938  0.3031
  592MPD2    C3 8775   3.505   4.546  11.631  0.1426 -0.9813 -0.9124
  592MPD2    C4 8776   3.473   4.560  11.493  0.4699  0.2852 -0.1877
  592MPD2    C5 8777   3.541   4.655  11.424  0.1044 -0.8120  0.1411
  592MPD2     H 8778   3.613   4.632  11.801 -0.5632 -0.9875  0.3042
  592MPD2    H1 8779   3.407   4.501  11.431  2.1113 -0.0678 -1.6085
  592MPD2    H2 8780   3.692   0.076  11.417 -0.7351  0.1254 -0.1307
  592MPD2    H3 8781   3.536   4.671  11.317  2.0746 -2.6256 -0.2401
  592MPD2     N 8782   3.440   4.448  11.712  0.1986  0.0959  0.3395
  592MPD2    H5 8783   3.464   4.444  11.811 -0.6572  0.0848  0.5513
  592MPD2    N1 8784   3.759   0.097  11.665  0.2360  0.3119 -0.6187
  592MPD2    H7 8785   3.805   0.155  11.596  1.3367 -1.2025 -1.1667
  593TMC3    C1 8786   3.921   0.188  11.814 -0.5744  0.0016 -0.2779
  593TMC3    C2 8787   3.935   0.238  11.941 -0.1007 -0.5258 -0.2412
  593TMC3    C3 8788   4.021   0.343  11.959  0.8124  0.7447  0.0946
  593TMC3    C4 8789   3.997   0.235  11.709  0.0044  0.2750 -0.1418
  593TMC3    C5 8790   4.065   0.349  11.731 -0.2002  0.5548 -0.2298
  593TMC3    C6 8791   4.079   0.406  11.854  0.7818  0.0328  0.5656
  593TMC3     C 8792   3.811   0.100  11.795  0.9504 -0.4729  0.2838
  593TMC3     O 8793   3.764   0.051  11.894 -0.2448  0.0081 -0.1758
  593TMC3     H 8794   3.876   0.196  12.021 -0.7296 -0.7959 -0.8506
  593TMC3    H1 8795   3.985   0.192  11.611  2.7146  0.1372 -0.4162
  593TMC3    H2 8796   4.131   0.501  11.864  0.6942  0.3232 -1.8028
  593TMC3    C7 8797   4.157   0.394  11.625  0.8243 -0.2567 -0.0759
  593TMC3    C8 8798   4.011   0.416  12.084 -0.1644  0.7543  0.2982
  593TMC3    O1 8799   4.246   0.469  11.666 -0.3574 -0.2948 -0.1700
  593TMC3    O2 8800   3.903   0.427  12.134 -0.0765 -0.5720 -0.9863
  594MPD2     C 8801   2.378   3.187  14.482  0.0308 -0.3646 -0.4145
  594MPD2    C1 8802   2.296   3.271  14.420 -0.0421 -0.1574  0.5069
  594MPD2    C2 8803   2.348   3.387  14.371 -0.4261  0.4835  0.1591
  594MPD2    C3 8804   2.483   3.413  14.381  0.1034  0.5141  0.4088
  594MPD2    C4 8805   2.559   3.333  14.465 -0.5370 -0.4962 -0.2997
  594MPD2    C5 8806   2.507   3.216  14.511  0.5252 -0.3171 -0.1889
  594MPD2     H 8807   2.290   3.455  14.310  2.2981  2.3457 -0.4042
  594MPD2    H1 8808   2.659   3.350  14.502 -1.3170  1.7327  0.7695
  594MPD2    H2 8809   2.340   3.099  14.533 -2.6648  1.7172  1.1423
  594MPD2    H3 8810   2.566   3.147  14.570 -0.6134 -0.5295  0.7156
  594MPD2     N 8811   2.541   3.519  14.319  0.4207  0.0367  0.1279
  594MPD2    H5 8812   2.470   3.582  14.284 -0.1561 -0.2211  0.8238
  594MPD2    N1 8813   2.158   3.237  14.424 -0.7343  0.1228  0.3983
  594MPD2    H7 8814   2.139   3.139  14.445  2.3841 -0.1510  1.9424
  595TMC3    C1 8815   2.911   3.805  14.332  0.8960  0.2683 -0.4033
  595TMC3    C2 8816   2.844   3.703  14.282  0.1680  0.7122  0.1279
  595TMC3    C3 8817   2.707   3.685  14.283  0.1662  0.8478 -0.1103
  595TMC3    C4 8818   2.843   3.904  14.392 -0.3755  0.2137  0.1404
  595TMC3    C5 8819   2.705   3.891  14.399  0.4734  1.2502  0.2212
  595TMC3    C6 8820   2.636   3.783  14.350 -0.1646  0.4205 -0.1356
  595TMC3     C 8821   3.056   3.810  14.323 -0.2930  0.6214 -0.0732
  595TMC3     O 8822   3.101   3.900  14.394 -0.5589  0.0419  0.3686
  595TMC3     H 8823   2.892   3.625  14.225 -1.0522 -0.0422  0.1286
  595TMC3    H1 8824   2.896   3.991  14.430 -1.5836  0.8984  0.2429
  595TMC3    H2 8825   2.533   3.769  14.382 -0.6257  2.3950 -0.7557
  595TMC3    C7 8826   2.624   3.971  14.489 -0.5446  0.3353  0.1945
  595TMC3    C8 8827   2.671   3.545  14.300  0.7143  0.3096  0.8855
  595TMC3    O1 8828   2.538   3.906  14.545  0.3445 -0.2455 -0.0078
  595TMC3    O2 8829   2.765   3.465  14.309  0.3012  0.4981 -0.5688
  596MPD2     C 8830   1.063   1.454  16.517 -0.5836  0.1395 -0.1027
  596MPD2    C1 8831   1.117   1.573  16.489  0.1244  0.3205  0.3916
  596MPD2    C2 8832   1.155   1.598  16.357  0.2222  0.6549 -0.5358
  596MPD2    C3 8833   1.141   1.507  16.254 -0.7885 -0.2865 -0.0896
  596MPD2    C4 8834   1.081   1.393  16.290  0.5267  0.2163  0.1369
  596MPD2    C5 8835   1.046   1.363  16.419  0.6134  0.3948 -0.1364
  596MPD2     H 8836   1.197   1.696  16.336  0.1428  0.4002 -1.8988
  596MPD2    H1 8837   1.059   1.318  16.216 -3.3178  1.6898 -0.2244
  596MPD2    H2 8838   1.040   1.419  16.617  0.0996 -0.2712 -0.0928
  596MPD2    H3 8839   1.005   1.264  16.440  0.0513  0.3020 -1.7046
  596MPD2     N 8840   1.159   1.542  16.123  0.5903 -0.6776 -0.3437
  596MPD2    H5 8841   1.134   1.471  16.055  0.6087 -1.7615  0.7977
  596MPD2    N1 8842   1.140   1.683  16.578 -0.1962  0.3582  0.0235
  596MPD2    H7 8843   1.186   1.764  16.538  3.3687 -2.7699 -2.1451
  597TMC3    C1 8844   1.132   1.816  16.774  0.0063  0.1708  0.7388
  597TMC3    C2 8845   1.210   1.913  16.708 -0.4336 -0.4774  0.3398
  597TMC3    C3 8846   1.201   2.038  16.769  0.0426  0.0241  0.8700
  597TMC3    C4 8847   1.060   1.844  16.883  0.1692 -0.2057  0.1483
  597TMC3    C5 8848   1.045   1.977  16.923  0.4594  0.0739  0.1675
  597TMC3    C6 8849   1.115   2.076  16.867 -0.2029  0.0904  0.2981
  597TMC3     C 8850   1.100   1.690  16.706  0.4514 -0.0077 -0.0145
  597TMC3     O 8851   1.025   1.611  16.770  0.4391  0.2097  0.1373
  597TMC3     H 8852   1.280   1.881  16.632  0.5342 -0.7829  1.3439
  597TMC3    H1 8853   1.002   1.770  16.938  0.5713 -1.4025 -1.0134
  597TMC3    H2 8854   1.108   2.180  16.899  3.1100  0.3986 -0.0081
  597TMC3    C7 8855   0.949   2.005  17.029 -0.6192  0.0390  0.4489
  597TMC3    C8 8856   1.262   2.150  16.702 -0.2578  0.6631  0.1446
  597TMC3    O1 8857   0.928   1.914  17.112 -0.3302  0.0367 -0.0942
  597TMC3    O2 8858   1.265   2.253  16.771  0.7690  0.2804  0.0990
  598TMC3    C1 8859   0.108   2.905  15.424  0.1740  0.0764  0.4986
  598TMC3    C2 8860   0.044   2.813  15.502 -0.0242  0.0314 -0.3306
  598TMC3    C3 8861   4.630   2.841  15.521 -0.4668  0.1700 -0.7266
  598TMC3    C4 8862   0.044   3.008  15.365  0.5465 -0.2868  0.3544
  598TMC3    C5 8863   4.636   3.036  15.397 -0.1146  0.4472 -0.1471
  598TMC3    C6 8864   4.564   2.952  15.478  0.0579  0.8397 -0.1517
  598TMC3     C 8865   0.251   2.911  15.406  0.0350  0.8801 -0.2715
  598TMC3     O 8866   0.302   3.017  15.376  0.4160 -0.0611  0.1748
  598TMC3     H 8867   0.089   2.725  15.547 -0.5443  0.3419  0.7882
  598TMC3    H1 8868   0.088   3.079  15.295 -0.3917 -0.8362 -0.7864
  598TMC3    H2 8869   4.462   2.984  15.495  0.1061  0.8072  0.1930
  598TMC3    C7 8870   4.561   3.114  15.301  0.0257 -0.5639  0.4190
  598TMC3    C8 8871   4.565   2.747  15.605  0.5997 -0.5472  0.3787
  598TMC3    O1 8872   4.447   3.075  15.282  0.5026 -0.0298  0.7065
  598TMC3    O2 8873   4.638   2.669  15.664 -0.0128  0.3908 -0.1803
  599MPD2     C 8874   4.347   0.794  16.164 -0.1868 -0.1606 -0.9280
  599MPD2    C1 8875   4.255   0.697  16.141 -0.3154 -0.7921 -0.2548
  599MPD2    C2 8876   4.143   0.678  16.225  0.1754 -0.1845 -0.0992
  599MPD2    C3 8877   4.146   0.756  16.344 -0.5993  0.0606 -0.1213
  599MPD2    C4 8878   4.241   0.854  16.360 -0.8061  0.4096  0.0066
  599MPD2    C5 8879   4.341   0.871  16.274  0.1321 -0.3778 -0.0150
  599MPD2     H 8880   4.064   0.604  16.215  0.2521  0.0637 -2.4943
  599MPD2    H1 8881   4.244   0.909  16.453  1.4461  0.2889  0.0143
  599MPD2    H2 8882   4.435   0.798  16.101  0.0109 -1.4678 -0.7447
  599MPD2    H3 8883   4.417   0.940  16.307 -0.2978  0.7800 -1.4521
  599MPD2     N 8884   4.043   0.753  16.443 -0.8441  0.4674  0.0310
  599MPD2    H5 8885   4.053   0.811  16.525  0.7651  0.7403 -0.3570
  599MPD2    N1 8886   4.280   0.619  16.028  0.8203 -0.8933 -0.0737
  599MPD2    H7 8887   4.371   0.638  15.987  1.3025 -2.0036  0.4824
  600TMC3    C1 8888   3.836   0.701  16.538 -0.4633  0.6377 -0.1229
  600TMC3    C2 8889   3.750   0.597  16.568  0.5359 -0.5572  0.2317
  600TMC3    C3 8890   3.685   0.618  16.685  0.0041  0.3548 -0.4974
  600TMC3    C4 8891   3.841   0.825  16.599  0.5771  0.1932 -0.4574
  600TMC3    C5 8892   3.767   0.830  16.716  0.3476  0.8313  0.0666
  600TMC3    C6 8893   3.689   0.726  16.764 -0.0431 -0.6963  0.0512
  600TMC3     C 8894   3.941   0.663  16.445 -0.0417  0.4667 -0.0929
  600TMC3     O 8895   3.929   0.553  16.391 -0.5416 -0.3762 -0.0060
  600TMC3     H 8896   3.760   0.498  16.524 -1.0535  0.0073 -1.4262
  600TMC3    H1 8897   3.898   0.904  16.551  0.1408  0.7985  0.0171
  600TMC3    H2 8898   3.623   0.724  16.850  0.8093  1.2284  0.7435
  600TMC3    C7 8899   3.753   0.958  16.783  0.2790  0.0543 -0.0313
  600TMC3    C8 8900   3.589   0.516  16.721  0.3731 -0.4465  0.9316
  600TMC3    O1 8901   3.684   0.970  16.884  0.1256 -0.2913  0.1528
  600TMC3    O2 8902   3.565   0.511  16.841  0.4489 -0.3730  0.1654
  601MPD2     C 8903   0.909   3.116   0.448 -0.3998 -0.2947 -0.3513
  601MPD2    C1 8904   1.033   3.125   0.381 -0.2183 -0.9703  0.9799
  601MPD2    C2 8905   1.141   3.064   0.435 -0.3964  0.2653 -0.4927
  601MPD2    C3 8906   1.135   2.990   0.557  0.0575 -0.2289 -0.3248
  601MPD2    C4 8907   1.014   2.978   0.615  0.3361 -1.3927 -0.1935
  601MPD2    C5 8908   0.904   3.039   0.566 -0.0582 -0.3103  0.5829
  601MPD2     H 8909   1.233   3.060   0.378 -0.2342 -0.8655 -0.1481
  601MPD2    H1 8910   1.004   2.915   0.703  0.1824  0.3421  1.0178
  601MPD2    H2 8911   0.816   3.162   0.417  0.1605  1.8078  1.0560
  601MPD2    H3 8912   0.810   3.018   0.616 -0.3336  2.7085  1.3677
  601MPD2     N 8913   1.243   2.923   0.616 -0.3938 -0.3043 -0.9212
  601MPD2    H5 8914   1.218   2.858   0.690 -0.3092  1.5595  0.7433
  601MPD2    N1 8915   1.039   3.187   0.252  0.6880 -0.3420  0.2273
  601MPD2    H7 8916   1.126   3.186   0.199 -0.0662 -0.9248 -1.0024
  602TMC3    C1 8917   0.959   3.319   0.060  0.0666  0.5114  0.6318
  602TMC3    C2 8918   1.040   3.431   0.079 -0.8882  0.3859  0.6733
  602TMC3    C3 8919   1.008   3.539  17.690  0.0501 -0.2738  0.3069
  602TMC3    C4 8920   0.844   3.325  17.670 -0.0154 -0.1442  0.3242
  602TMC3    C5 8921   0.815   3.439  17.605 -0.2207 -0.9063 -0.2129
  602TMC3    C6 8922   0.899   3.542  17.605 -0.3950  0.2365 -0.4936
  602TMC3     C 8923   0.927   3.243   0.184 -0.2832  0.3896 -0.0102
  602TMC3     O 8924   0.807   3.234   0.205  0.3312  0.1953  0.1038
  602TMC3     H 8925   1.136   3.428   0.129  0.5391 -3.0527 -2.2354
  602TMC3    H1 8926   0.761   3.255  17.673 -1.8629  2.0201 -0.3098
  602TMC3    H2 8927   0.875   3.628  17.545  1.2604 -0.1131 -1.6657
  602TMC3    C7 8928   0.689   3.447  17.536  0.4211 -0.1196  0.8839
  602TMC3    C8 8929   1.106   3.644  17.677  0.1138  0.3358 -0.4442
  602TMC3    O1 8930   0.589   3.402  17.588 -0.5269 -0.8572 -0.1835
  602TMC3    O2 8931   1.184   3.660   0.079  0.1547 -0.0596  0.4539
  603TMC3    C1 8932   4.308   3.974  11.237  0.2376 -0.6935  0.4235
  603TMC3    C2 8933   4.338   3.949  11.366 -0.0566 -0.5128 -0.7588
  603TMC3    C3 8934   4.421   4.042  11.428  1.3855  0.3907 -0.6484
  603TMC3    C4 8935   4.334   4.096  11.179 -1.0070 -0.3847  0.8636
  603TMC3    C5 8936   4.429   4.174  11.242  0.1007 -0.6595 -0.7491
  603TMC3    C6 8937   4.482   4.147  11.364  0.1483 -1.0597 -0.6179
  603TMC3     C 8938   4.229   3.881  11.158  0.3352 -0.0756  0.6205
  603TMC3     O 8939   4.254   3.871  11.039  0.6256  0.2125  0.2397
  603TMC3     H 8940   4.304   3.863  11.423  2.5600 -1.6657 -0.9187
  603TMC3    H1 8941   4.315   4.108  11.073 -0.7589  2.6729  1.1832
  603TMC3    H2 8942   4.553   4.215  11.411 -1.7050  0.5850 -0.2214
  603TMC3    C7 8943   4.491   4.281  11.162  0.9889  0.1583  0.0562
  603TMC3    C8 8944   4.461   4.013  11.558 -0.4339 -0.3242  0.2267
  603TMC3    O1 8945   4.596   4.328  11.202  0.0850 -0.2057  0.3153
  603TMC3    O2 8946   4.450   3.895  11.593 -0.0193  0.6882 -0.2839
  604MPD2     C 8947   0.056   2.618  16.512  0.1862 -0.2861 -0.0273
  604MPD2    C1 8948   4.696   2.711  16.460 -0.5758 -0.1254 -0.1691
  604MPD2    C2 8949   0.002   2.749  16.333 -0.0676  1.1157  0.3531
  604MPD2    C3 8950   0.099   2.698  16.251  0.1835 -0.3329  0.7288
  604MPD2    C4 8951   0.176   2.603  16.307  0.3082 -0.2809 -0.2607
  604MPD2    C5 8952   0.159   2.570  16.438  0.6843  0.6292  0.3716
  604MPD2     H 8953   4.666   2.827  16.284 -0.8234  0.2041 -0.2065
  604MPD2    H1 8954   0.251   2.543  16.258 -0.4470  0.5616 -2.4382
  604MPD2    H2 8955   0.042   2.587  16.615 -2.6676 -1.8050 -0.8836
  604MPD2    H3 8956   0.223   2.497  16.487  0.1824 -0.9229 -1.2647
  604MPD2     N 8957   0.113   2.745  16.118 -0.1484  0.4784  0.3991
  604MPD2    H5 8958   0.036   2.802  16.085 -0.3770 -0.0396  0.0290
  604MPD2    N1 8959   4.605   2.772  16.550 -0.1086  0.0479  0.0041
  604MPD2    H7 8960   4.603   2.746  16.648  0.2426  1.6483  0.4438
  605TMC3    C1 8961   4.470   2.952  16.625 -0.4296  0.0655 -0.0880
  605TMC3    C2 8962   4.560   2.978  16.731  0.5358 -0.4627 -0.2169
  605TMC3    C3 8963   4.516   3.075  16.820  0.2829 -0.5613 -0.3616
  605TMC3    C4 8964   4.349   3.018  16.610 -0.4044 -0.0675  0.6410
  605TMC3    C5 8965   4.317   3.115  16.703 -0.2153  0.7343  0.6298
  605TMC3    C6 8966   4.392   3.137  16.813  0.2534 -0.5220 -0.5692
  605TMC3     C 8967   4.518   2.876  16.506 -0.4476 -0.6849  0.0026
  605TMC3     O 8968   4.472   2.899  16.397 -0.2518  0.0651 -0.4698
  605TMC3     H 8969   4.645   2.913  16.744 -0.1424 -1.6849 -1.7920
  605TMC3    H1 8970   4.284   2.993  16.526  1.1084  0.8842 -0.8162
  605TMC3    H2 8971   4.361   3.208  16.889  0.1303  0.0108 -1.1271
  605TMC3    C7 8972   4.218   3.214  16.652 -0.0627  0.0806  0.7036
  605TMC3    C8 8973   4.597   3.098  16.942  0.9981  0.2196 -0.0117
  605TMC3    O1 8974   4.159   3.176  16.553  0.0685 -0.2392 -0.0764
  605TMC3    O2 8975   4.538   3.141  17.039  0.0047 -0.1099 -0.1132
  606TMC3    C1 8976   1.432   1.445  16.697  0.3168  0.4235 -0.2191
  606TMC3    C2 8977   1.320   1.433  16.771  0.2669 -0.6626  0.1053
  606TMC3    C3 8978   1.285   1.299  16.800  0.0080 -0.0913 -0.0818
  606TMC3    C4 8979   1.509   1.342  16.657  0.3995 -0.7532 -0.6665
  606TMC3    C5 8980   1.470   1.216  16.688 -0.4256  0.1520  0.1340
  606TMC3    C6 8981   1.356   1.197  16.761 -0.0799  0.0139  0.3474
  606TMC3     C 8982   1.478   1.578  16.658 -0.0184 -0.4758 -0.3947
  606TMC3     O 8983   1.454   1.669  16.737  0.2900  0.5999  0.6761
  606TMC3     H 8984   1.277   1.522  16.815  0.3041 -0.5886 -0.0084
  606TMC3    H1 8985   1.608   1.357  16.615  0.6079  0.6837  0.3223
  606TMC3    H2 8986   1.307   1.102  16.780  0.8869 -0.7771 -1.1086
  606TMC3    C7 8987   1.577   1.137  16.757 -0.0781 -0.3868 -0.5325
  606TMC3    C8 8988   1.198   1.272  16.909 -0.7643  0.1900 -0.6369
  606TMC3    O1 8989   1.676   1.191  16.788 -0.0328  0.4931 -0.1524
  606TMC3    O2 8990   1.232   1.181  16.984  0.3186  0.6530 -0.3925
  607MPD2     C 8991   3.672   4.196  11.820  0.0136  0.0596  0.7021
  607MPD2    C1 8992   3.721   4.266  11.924  0.0719 -0.1040 -0.4807
  607MPD2    C2 8993   3.689   4.221  12.050  0.3347  0.0261 -0.4010
  607MPD2    C3 8994   3.611   4.112  12.080 -0.3109  0.2299  1.2306
  607MPD2    C4 8995   3.567   4.045  11.971  0.8436 -0.5936  0.4792
  607MPD2    C5 8996   3.597   4.078  11.845 -0.0322 -0.2903  0.9678
  607MPD2     H 8997   3.714   4.284  12.134  0.3211 -1.0796  0.4342
  607MPD2    H1 8998   3.505   3.956  11.973  0.0898 -0.0683  0.2826
  607MPD2    H2 8999   3.678   4.232  11.718 -1.8788 -0.8534  0.2684
  607MPD2    H3 9000   3.561   4.019  11.761 -1.3209 -0.1155  1.3951
  607MPD2     N 9001   3.597   4.071  12.215  0.3343 -0.0373 -0.0490
  607MPD2    H5 9002   3.650   4.123  12.284  0.8827 -1.3960  0.5667
  607MPD2    N1 9003   3.793   4.387  11.910  0.9230 -0.2527  0.5117
  607MPD2    H7 9004   3.824   4.441  11.990  1.6679  1.0839 -0.6896
  608TMC3    C1 9005   3.961   4.526  11.823 -0.4727  0.0038 -0.5808
  608TMC3    C2 9006   4.010   4.532  11.954  0.2152  0.3414 -0.1400
  608TMC3    C3 9007   4.150   4.555  11.967  0.0452  0.2612 -0.8204
  608TMC3    C4 9008   4.040   4.564  11.717  0.0553 -0.2989  0.1008
  608TMC3    C5 9009   4.173   4.592  11.737 -0.1400  0.5317 -0.2462
  608TMC3    C6 9010   4.234   4.589  11.862  0.2021 -0.0354  0.3635
  608TMC3     C 9011   3.852   4.433  11.794  0.1775  0.7266  0.7061
  608TMC3     O 9012   3.832   4.404  11.677 -0.6569 -0.2104  0.3793
  608TMC3     H 9013   3.944   4.511  12.037 -0.1781 -0.2103 -0.5963
  608TMC3    H1 9014   3.998   4.564  11.617  0.2591 -0.7834  0.0105
  608TMC3    H2 9015   4.341   4.591  11.879  0.4834  2.0394 -1.6029
  608TMC3    C7 9016   4.234   4.674  11.635 -0.1794  0.2268 -0.6039
  608TMC3    C8 9017   4.212   4.470  12.064 -1.1376  0.2502  0.4210
  608TMC3    O1 9018   4.184   4.669  11.523 -0.4187 -0.0891 -0.2315
  608TMC3    O2 9019   4.319   4.423  12.025 -0.2918 -0.5179  0.0038
  609TMC3    C1 9020   3.148   3.007   9.102  0.5899  0.9378 -0.6160
  609TMC3    C2 9021   3.232   3.111   9.066  0.8267 -0.3525  0.3177
  609TMC3    C3 9022   3.365   3.076   9.053  1.0546  0.3198 -0.2390
  609TMC3    C4 9023   3.193   2.875   9.112  0.1779 -0.1114  0.1850
  609TMC3    C5 9024   3.320   2.852   9.069 -0.0319 -0.6908  0.3364
  609TMC3    C6 9025   3.408   2.949   9.041 -0.5964 -0.7987  0.4565
  609TMC3     C 9026   3.009   3.029   9.140 -0.0587  0.0334 -0.1588
  609TMC3     O 9027   2.932   2.930   9.162 -0.3570  0.1511  0.1246
  609TMC3     H 9028   3.202   3.214   9.057  2.3269  0.1490  1.0292
  609TMC3    H1 9029   3.135   2.795   9.157 -2.1212  1.8106  0.6831
  609TMC3    H2 9030   3.510   2.928   9.011 -0.2249 -0.3086  1.3740
  609TMC3    C7 9031   3.380   2.725   9.101 -0.2398 -0.1995 -0.0802
  609TMC3    C8 9032   3.457   3.183   9.026  0.0753 -0.1198  0.9119
  609TMC3    O1 9033   3.478   2.725   9.174 -0.8215  0.1472  0.0273
  609TMC3    O2 9034   3.403   3.280   8.973  0.1267  0.0318  0.3808
  610TMC3    C1 9035   3.790   3.299  12.725  0.0377  0.1612 -0.1765
  610TMC3    C2 9036   3.702   3.405  12.744 -0.0450 -0.3614  0.0119
  610TMC3    C3 9037   3.758   3.527  12.774  0.0484  0.6088  0.0893
  610TMC3    C4 9038   3.927   3.307  12.748 -0.4301 -1.3052 -0.9582
  610TMC3    C5 9039   3.976   3.430  12.799  0.0869 -0.1981  0.2693
  610TMC3    C6 9040   3.892   3.539  12.806 -0.3967  0.3378 -0.2306
  610TMC3     C 9041   3.716   3.171  12.701 -0.5798 -0.1506 -0.2005
  610TMC3     O 9042   3.600   3.176  12.663 -0.4966  0.2703 -0.7904
  610TMC3     H 9043   3.595   3.396  12.731 -0.1414 -0.6490  1.0434
  610TMC3    H1 9044   3.996   3.230  12.715  1.3243  0.0995 -0.6086
  610TMC3    H2 9045   3.933   3.631  12.846  1.1719 -0.3379 -0.2663
  610TMC3    C7 9046   4.115   3.469  12.799 -0.0174  0.3567  0.2414
  610TMC3    C8 9047   3.672   3.647  12.805 -0.0112  0.3353 -0.8512
  610TMC3    O1 9048   4.185   3.414  12.877 -0.1908  0.6400 -0.2239
  610TMC3    O2 9049   3.715   3.735  12.878  0.1381 -0.1089  0.2475
  611MPD2     C 9050   3.562   4.061  10.570 -0.6603  0.4448 -0.3392
  611MPD2    C1 9051   3.648   4.023  10.473  0.5952 -0.4241 -0.4457
  611MPD2    C2 9052   3.749   4.104  10.433  0.7095 -0.0540 -0.3573
  611MPD2    C3 9053   3.776   4.220  10.506 -0.2300 -0.1437 -0.0043
  611MPD2    C4 9054   3.699   4.248  10.614  0.1066 -0.1900  0.5337
  611MPD2    C5 9055   3.587   4.173  10.642  0.3662 -0.5095  0.3033
  611MPD2     H 9056   3.821   4.068  10.360  0.5467  1.3186 -1.2020
  611MPD2    H1 9057   3.733   4.335  10.670  0.1434  0.4547 -0.4848
  611MPD2    H2 9058   3.477   4.003  10.602 -1.7688  2.5658  0.5585
  611MPD2    H3 9059   3.520   4.193  10.724  2.4417  0.0515  1.8572
  611MPD2     N 9060   3.889   4.300  10.473  0.2583  0.0898  0.0851
  611MPD2    H5 9061   3.940   4.349  10.545 -1.2568  0.7793  0.6945
  611MPD2    N1 9062   3.648   3.884  10.456 -0.8868  0.1416  0.0433
  611MPD2    H7 9063   3.569   3.833  10.495  0.3698 -2.5136 -0.9077
  612TMC3    C1 9064   4.045   4.392  10.325  0.5985 -0.4799  0.1358
  612TMC3    C2 9065   4.148   4.395  10.418  0.2043 -0.7338 -0.4200
  612TMC3    C3 9066   4.248   4.485  10.392 -0.0803  0.4944  0.4815
  612TMC3    C4 9067   4.035   4.475  10.221  0.2163  0.6991 -0.9641
  612TMC3    C5 9068   4.146   4.558  10.203 -0.7921 -0.0149  0.5395
  612TMC3    C6 9069   4.257   4.561  10.287 -0.1288 -0.2137  0.2791
  612TMC3     C 9070   3.932   4.305  10.342 -0.2549 -0.2834 -0.5431
  612TMC3     O 9071   3.871   4.263  10.241 -0.6669 -0.0551 -0.3427
  612TMC3     H 9072   4.151   4.315  10.491  0.5411 -1.6492 -1.4254
  612TMC3    H1 9073   3.945   4.470  10.161 -0.5414  2.6024  0.0602
  612TMC3    H2 9074   4.339   4.631  10.271 -0.8024  0.5285  0.0804
  612TMC3    C7 9075   4.160   4.638  10.079  0.0282  0.3440 -1.1902
  612TMC3    C8 9076   4.368   4.482  10.472 -0.2353 -0.7831 -0.0468
  612TMC3    O1 9077   4.248   4.720  10.074 -0.4194 -0.3239 -0.0422
  612TMC3    O2 9078   4.464   4.551  10.443 -0.5504 -0.4779 -0.2462
  613MPD2     C 9079   2.344   1.384  16.819  0.1627  0.6744  0.5254
  613MPD2    C1 9080   2.310   1.456  16.710  0.2687 -0.1618 -0.0335
  613MPD2    C2 9081   2.282   1.391  16.590 -0.4708 -0.5623 -0.5934
  613MPD2    C3 9082   2.287   1.255  16.574 -0.1432 -0.2861 -0.0328
  613MPD2    C4 9083   2.331   1.180  16.677 -0.0121 -0.5759  0.0474
  613MPD2    C5 9084   2.352   1.246  16.798  0.8222 -0.1495 -0.2484
  613MPD2     H 9085   2.250   1.450  16.505  0.4624  0.3135 -0.3359
  613MPD2    H1 9086   2.350   1.074  16.664 -0.0417 -0.7241  1.2011
  613MPD2    H2 9087   2.358   1.423  16.919 -0.3673  0.3577  0.7222
  613MPD2    H3 9088   2.382   1.188  16.885  0.3664  0.6720  0.4558
  613MPD2     N 9089   2.272   1.184  16.454 -0.3659 -1.0593 -0.3900
  613MPD2    H5 9090   2.303   1.088  16.452 -0.6803 -1.2502  2.6255
  613MPD2    N1 9091   2.315   1.596  16.722  0.5363  0.0187 -0.3082
  613MPD2    H7 9092   2.377   1.634  16.793 -0.8192  0.5610  0.5767
  614TMC3    C1 9093   2.391   1.781  16.618  0.0467  0.0377 -0.0643
  614TMC3    C2 9094   2.511   1.725  16.583 -0.1470  0.4008 -0.0164
  614TMC3    C3 9095   2.562   1.758  16.459  0.1386  0.3125  0.0754
  614TMC3    C4 9096   2.338   1.884  16.539 -0.4630 -0.0795 -0.1726
  614TMC3    C5 9097   2.407   1.924  16.422  0.1445 -0.0371  0.2496
  614TMC3    C6 9098   2.518   1.859  16.373  0.0780 -0.2554  0.3097
  614TMC3     C 9099   2.285   1.683  16.618  0.6848 -0.0061 -0.2530
  614TMC3     O 9100   2.219   1.667  16.512  0.6804 -0.1999  0.4070
  614TMC3     H 9101   2.543   1.639  16.639 -0.1405  0.5701  0.2375
  614TMC3    H1 9102   2.237   1.920  16.556 -0.7062  0.1399 -2.1603
  614TMC3    H2 9103   2.564   1.886  16.279 -0.2777  1.5569  0.6615
  614TMC3    C7 9104   2.359   2.033  16.336 -0.5388  0.0201 -0.1836
  614TMC3    C8 9105   2.621   1.640  16.390  0.6216 -0.1887 -0.4696
  614TMC3    O1 9106   2.307   2.129  16.390  0.2042 -0.2898 -0.1360
  614TMC3    O2 9107   2.603   1.530  16.444  0.3756 -0.4175  0.3218
  615MPD2     C 9108   2.136   3.209  16.612  0.2888 -0.3791 -0.4081
  615MPD2    C1 9109   2.106   3.317  16.524 -0.0782 -0.0042 -1.3750
  615MPD2    C2 9110   2.127   3.298  16.387  0.0329 -0.1904  0.2217
  615MPD2    C3 9111   2.156   3.168  16.342  0.0881  0.7877 -0.3077
  615MPD2    C4 9112   2.170   3.064  16.432 -0.1771 -0.1326 -0.5664
  615MPD2    C5 9113   2.160   3.083  16.562  0.3989  0.4438 -0.2643
  615MPD2     H 9114   2.126   3.384  16.321  0.7123 -0.6356 -0.3796
  615MPD2    H1 9115   2.199   2.966  16.395 -1.0765 -0.1761 -1.1717
  615MPD2    H2 9116   2.142   3.221  16.719  0.0857 -1.4573 -0.2770
  615MPD2    H3 9117   2.181   3.010  16.639 -0.2570  1.1889  0.6286
  615MPD2     N 9118   2.176   3.141  16.206  0.1763 -0.4034 -0.1615
  615MPD2    H5 9119   2.178   3.042  16.182  2.3721 -0.0692 -1.2890
  615MPD2    N1 9120   2.075   3.450  16.563 -0.2967  0.6932  0.0542
  615MPD2    H7 9121   2.088   3.528  16.499 -1.2264  1.1580  0.4337
  616TMC3    C1 9122   2.016   3.635  16.696 -0.3326 -0.3507 -0.1192
  616TMC3    C2 9123   2.092   3.723  16.631  0.3477 -0.5009 -0.1234
  616TMC3    C3 9124   2.058   3.853  16.635  0.7417  0.4828 -0.0532
  616TMC3    C4 9125   1.905   3.675  16.766  0.3446 -0.2960  0.5507
  616TMC3    C5 9126   1.873   3.809  16.770 -0.1960  0.1633 -0.2767
  616TMC3    C6 9127   1.952   3.903  16.704 -0.5053 -0.7770  0.6704
  616TMC3     C 9128   2.041   3.490  16.689 -0.2185 -0.6231 -0.4882
  616TMC3     O 9129   1.995   3.419  16.781  0.2360 -0.7145  0.1137
  616TMC3     H 9130   2.175   3.679  16.577  0.0766 -0.6793 -0.3978
  616TMC3    H1 9131   1.849   3.597  16.815  1.5260 -1.2522  0.3910
  616TMC3    H2 9132   1.931   4.010  16.706 -1.2032 -0.9316  1.9548
  616TMC3    C7 9133   1.769   3.863  16.851 -0.4247 -0.1147 -0.0165
  616TMC3    C8 9134   2.165   3.958  16.610 -0.9109  0.1155  0.2071
  616TMC3    O1 9135   1.750   3.985  16.850  0.7093 -0.6788 -0.2110
  616TMC3    O2 9136   2.156   4.063  16.669  0.0599 -0.0913 -0.5051
  617MPD2     C 9137   0.361   1.479  13.485  0.2301 -0.0040 -0.8171
  617MPD2    C1 9138   0.356   1.359  13.552 -0.7518  0.2580 -0.5423
  617MPD2    C2 9139   0.242   1.282  13.573 -0.5497  0.0678  0.0722
  617MPD2    C3 9140   0.117   1.338  13.536 -0.2657 -0.2100  0.0282
  617MPD2    C4 9141   0.114   1.461  13.472 -0.3221 -0.3164  0.1907
  617MPD2    C5 9142   0.234   1.527  13.445  0.6782 -0.0280  0.0450
  617MPD2     H 9143   0.234   1.184  13.618  0.5643 -0.3708 -0.6890
  617MPD2    H1 9144   0.022   1.501  13.430 -0.8627 -0.6303  1.0723
  617MPD2    H2 9145   0.447   1.542  13.472  1.1269 -0.3253  3.8174
  617MPD2    H3 9146   0.243   1.624  13.398 -0.2248  0.0507  0.0229
  617MPD2     N 9147   4.716   1.281  13.568  0.3299  0.4168 -0.7309
  617MPD2    H5 9148   4.633   1.308  13.517 -0.2960 -2.2236 -1.1345
  617MPD2    N1 9149   0.482   1.326  13.608  0.1076 -0.0675 -0.4370
  617MPD2    H7 9150   0.549   1.401  13.620 -0.9551  0.6803  0.7562
  618TMC3    C1 9151   0.654   1.230  13.699  0.0412 -0.0131 -0.1767
  618TMC3    C2 9152   0.760   1.160  13.634 -0.0510  0.7436  0.2266
  618TMC3    C3 9153   0.886   1.217  13.624  0.6009 -0.0479 -0.4872
  618TMC3    C4 9154   0.681   1.358  13.746  0.0230 -0.0774 -0.0058
  618TMC3    C5 9155   0.810   1.413  13.729  0.5645  0.5123 -0.8576
  618TMC3    C6 9156   0.917   1.336  13.675 -0.1400 -0.4512  1.0245
  618TMC3     C 9157   0.518   1.205  13.648  0.2491 -0.4490 -0.0725
  618TMC3     O 9158   0.478   1.097  13.611  0.3783  0.1373  0.7129
  618TMC3     H 9159   0.740   1.074  13.572 -0.7507 -0.0924  1.6110
  618TMC3    H1 9160   0.598   1.414  13.788 -0.2785 -0.1961 -0.4470
  618TMC3    H2 9161   1.020   1.370  13.662 -0.2811  0.3990  2.1235
  618TMC3    C7 9162   0.791   1.521  13.636  0.0383  0.3022 -0.4236
  618TMC3    C8 9163   0.968   1.172  13.515  0.0243  0.6912  0.1179
  618TMC3    O1 9164   0.672   1.544  13.614  0.0122 -0.0578  0.2698
  618TMC3    O2 9165   0.950   1.058  13.479 -0.3260 -0.2092 -0.0746
  619MPD2     C 9166   1.965   2.664  13.757 -0.0523  0.3436 -0.3617
  619MPD2    C1 9167   1.902   2.773  13.696 -0.1039 -0.3640  0.4833
  619MPD2    C2 9168   1.772   2.758  13.639  0.5693  0.0872 -0.1759
  619MPD2    C3 9169   1.701   2.639  13.649 -0.1585 -0.4891  0.2783
  619MPD2    C4 9170   1.766   2.533  13.708  0.3721  0.0585  0.0860
  619MPD2    C5 9171   1.893   2.547  13.765 -0.0692 -0.0175  0.0992
  619MPD2     H 9172   1.719   2.840  13.593  1.5006  1.8890  1.9662
  619MPD2    H1 9173   1.715   2.437  13.706  2.0734 -0.9621  4.3430
  619MPD2    H2 9174   2.067   2.661  13.792 -0.1532  1.1065  0.0011
  619MPD2    H3 9175   1.944   2.458  13.801 -0.9034 -0.6837 -0.3920
  619MPD2     N 9176   1.583   2.601  13.569 -0.1635 -0.4735 -0.1007
  619MPD2    H5 9177   1.549   2.507  13.587  0.0580 -0.3835  0.7814
  619MPD2    N1 9178   1.966   2.898  13.682 -0.8689 -0.4760  0.5981
  619MPD2    H7 9179   1.910   2.965  13.631  1.3038  1.5241  0.8687
  620TMC3    C1 9180   2.121   3.059  13.635  0.6326  0.6427 -0.5038
  620TMC3    C2 9181   2.091   3.077  13.507 -0.2021  0.2394 -0.5549
  620TMC3    C3 9182   2.061   3.212  13.476 -0.6628  0.2342 -0.1080
  620TMC3    C4 9183   2.141   3.160  13.720 -0.8476  0.4482  0.2391
  620TMC3    C5 9184   2.117   3.291  13.680  0.9927 -0.2573  0.4590
  620TMC3    C6 9185   2.075   3.321  13.556 -0.5023 -1.6524  0.0967
  620TMC3     C 9186   2.103   2.925  13.689  0.7244 -0.6938 -0.2070
  620TMC3     O 9187   2.188   2.865  13.754  0.5616  0.5492  0.4792
  620TMC3     H 9188   2.078   2.993  13.440 -0.9243  0.1741 -0.3301
  620TMC3    H1 9189   2.159   3.141  13.826  1.1197  0.1001 -0.1668
  620TMC3    H2 9190   2.049   3.421  13.523 -2.8548 -2.1081  0.5528
  620TMC3    C7 9191   2.071   3.390  13.776 -0.4986  0.3569  0.2540
  620TMC3    C8 9192   1.921   3.224  13.432  0.3616 -0.2256  0.4602
  620TMC3    O1 9193   2.160   3.424  13.852 -0.3816  0.0081  0.5463
  620TMC3    O2 9194   1.842   3.290  13.501  0.0855  0.5493 -0.4554
  621MPD2     C 9195   2.641   2.095  10.000  0.2524  0.3122 -0.1673
  621MPD2    C1 9196   2.681   2.116   9.867 -0.0172  0.0505  0.1795
  621MPD2    C2 9197   2.810   2.143   9.837 -0.5954  0.9232 -0.2939
  621MPD2    C3 9198   2.904   2.174   9.934 -0.6392 -0.3641  0.8578
  621MPD2    C4 9199   2.855   2.169  10.062 -0.4073  0.1689  0.3047
  621MPD2    C5 9200   2.734   2.124  10.097 -0.3784  0.1687  0.7479
  621MPD2     H 9201   2.843   2.147   9.734  0.4802 -0.4593 -0.0008
  621MPD2    H1 9202   2.918   2.191  10.148  0.4449  1.2692 -0.6078
  621MPD2    H2 9203   2.543   2.063  10.033  1.0272 -2.2474 -0.3184
  621MPD2    H3 9204   2.714   2.115  10.203  0.6106  0.5933  0.9700
  621MPD2     N 9205   3.037   2.206   9.917 -0.1037  0.6568 -0.1102
  621MPD2    H5 9206   3.098   2.240   9.990  0.4954 -2.3945  0.8103
  621MPD2    N1 9207   2.588   2.101   9.758  0.6741 -0.5135  0.1760
  621MPD2    H7 9208   2.630   2.113   9.666  2.2004  1.0244  1.0653
  622TMC3    C1 9209   2.398   2.030   9.634 -1.1992 -0.7578 -0.3924
  622TMC3    C2 9210   2.266   2.027   9.641  0.3143 -0.2452 -0.2278
  622TMC3    C3 9211   2.201   1.962   9.539  0.4761 -0.6949 -0.4388
  622TMC3    C4 9212   2.471   2.002   9.523 -0.7267 -0.3706 -0.1029
  622TMC3    C5 9213   2.406   1.933   9.430 -0.3082 -0.5976  0.6458
  622TMC3    C6 9214   2.272   1.911   9.431  0.2290  0.0012 -0.2827
  622TMC3     C 9215   2.458   2.062   9.765 -0.2830 -1.0900 -0.4527
  622TMC3     O 9216   2.394   2.033   9.861  0.3962  0.4019 -0.2598
  622TMC3     H 9217   2.208   2.066   9.724 -2.8750 -2.1428 -1.5638
  622TMC3    H1 9218   2.579   1.997   9.512 -0.8612  0.9488 -2.1660
  622TMC3    H2 9219   2.222   1.844   9.362 -0.3902 -1.0104  1.1503
  622TMC3    C7 9220   2.474   1.894   9.311 -0.3942  0.1452 -0.2702
  622TMC3    C8 9221   2.089   1.879   9.575 -0.0743  0.0101 -0.7964
  622TMC3    O1 9222   2.594   1.869   9.322 -0.3863 -0.0882  0.1544
  622TMC3    O2 9223   2.098   1.760   9.551 -0.2881 -0.1775 -0.3855
  623MPD2     C 9224   0.520   3.183  16.089  0.0619  0.0691 -0.6049
  623MPD2    C1 9225   0.434   3.162  16.191 -0.2606 -0.1552 -0.4159
  623MPD2    C2 9226   0.487   3.134  16.318 -0.0724  0.3156  0.2608
  623MPD2    C3 9227   0.620   3.125  16.337 -0.7339 -0.5557  0.3800
  623MPD2    C4 9228   0.705   3.167  16.240 -0.3028  0.6500  0.6906
  623MPD2    C5 9229   0.656   3.186  16.115 -0.3179  0.2482  0.5624
  623MPD2     H 9230   0.416   3.105  16.394  1.1771 -0.7576  1.0134
  623MPD2    H1 9231   0.812   3.149  16.245 -0.6649 -2.2045 -1.5449
  623MPD2    H2 9232   0.490   3.200  15.986 -1.6906 -2.0156 -0.4385
  623MPD2    H3 9233   0.723   3.220  16.037  0.2836  1.5368  1.6349
  623MPD2     N 9234   0.668   3.091  16.466  0.3564 -0.2799  0.3849
  623MPD2    H5 9235   0.595   3.064  16.531 -1.2693  0.5461 -1.1218
  623MPD2    N1 9236   0.290   3.170  16.182 -0.4168 -0.5984 -0.1617
  623MPD2    H7 9237   0.235   3.164  16.267  1.1564 -0.6890  0.8442
  624TMC3    C1 9238   0.878   3.067  16.863  0.2043  0.2347 -0.3217
  624TMC3    C2 9239   0.755   3.039  16.911 -0.8582  0.2759  0.2068
  624TMC3    C3 9240   0.660   2.986  16.830  0.5899  0.1691  0.6217
  624TMC3    C4 9241   0.899   3.061  16.732 -0.0256 -0.4821  0.0702
  624TMC3    C5 9242   0.794   3.031  16.650  0.1289  0.1890 -0.0147
  624TMC3    C6 9243   0.676   2.979  16.694  0.0344  0.4972  0.0484
  624TMC3     C 9244   0.994   3.051  16.950  0.2450 -0.0642 -0.2268
  624TMC3     O 9245   0.981   2.976  17.046 -0.4959  0.4177  0.7247
  624TMC3     H 9246   0.735   3.054  17.017 -1.1681  2.1559 -0.1183
  624TMC3    H1 9247   0.982   3.117  16.689 -1.5658  0.4473 -1.6778
  624TMC3    H2 9248   0.594   2.945  16.631 -2.0251  3.1990  1.2659
  624TMC3    C7 9249   0.798   3.080  16.513 -1.0561  0.0263  0.7541
  624TMC3    C8 9250   0.520   3.023  16.853 -0.2372  0.7925  0.3221
  624TMC3    O1 9251   0.898   3.123  16.463 -0.3934  0.3031  0.3736
  624TMC3    O2 9252   0.454   3.059  16.755 -0.0958  0.0983 -0.4461
  625MPD2     C 9253   0.462   3.761   0.383  0.6893 -0.0545  0.4170
  625MPD2    C1 9254   0.552   3.847   0.431  0.1714  0.4747  0.5647
  625MPD2    C2 9255   0.595   3.823   0.558 -0.8139 -0.0290 -0.1856
  625MPD2    C3 9256   0.561   3.718   0.635 -0.3825 -0.4630 -0.5739
  625MPD2    C4 9257   0.465   3.630   0.585 -0.4230  0.0663  0.5512
  625MPD2    C5 9258   0.409   3.661   0.463 -0.0664  0.4288 -0.4490
  625MPD2     H 9259   0.662   3.898   0.599  2.6442 -2.2245 -1.8281
  625MPD2    H1 9260   0.426   3.553   0.651 -2.7108  0.3843 -0.4549
  625MPD2    H2 9261   0.414   3.771   0.287  0.6636 -0.5954  0.3706
  625MPD2    H3 9262   0.322   3.607   0.427 -1.1594  1.6896  0.2718
  625MPD2     N 9263   0.616   3.703   0.769 -0.3798  0.0076 -0.1328
  625MPD2    H5 9264   0.593   3.621   0.825  0.7795 -0.8288 -0.8737
  625MPD2    N1 9265   0.601   3.960   0.362 -0.7678 -0.4804  1.1247
  625MPD2    H7 9266   0.675   4.007   0.413  0.1593 -1.2269  0.4820
  626TMC3    C1 9267   0.578   4.157   0.252 -0.1782  0.6104  0.0022
  626TMC3    C2 9268   0.572   4.238   0.137  0.1892 -0.4072  0.2201
  626TMC3    C3 9269   0.611   4.372   0.147 -0.2310  0.2523  0.1766
  626TMC3    C4 9270   0.625   4.213   0.373 -0.4522 -1.0239  0.5829
  626TMC3    C5 9271   0.662   4.347   0.370 -0.1159  0.1306 -0.9272
  626TMC3    C6 9272   0.655   4.429   0.265 -0.7971 -0.0834 -0.6468
  626TMC3     C 9273   0.536   4.022   0.255 -0.3225  0.5460 -0.1355
  626TMC3     O 9274   0.446   3.993   0.175  0.0119 -0.4482  0.0084
  626TMC3     H 9275   0.535   4.192   0.046  3.6109 -2.5906 -0.0936
  626TMC3    H1 9276   0.611   4.170   0.472  0.6718 -0.2610  1.0762
  626TMC3    H2 9277   0.680   4.534   0.268 -1.6132  0.1531 -2.2975
  626TMC3    C7 9278   0.702   4.392   0.503 -0.5537  0.1886  0.3536
  626TMC3    C8 9279   0.584   4.457   0.035  0.5204 -0.9587 -0.7117
  626TMC3    O1 9280   0.750   4.314   0.587 -0.4036 -0.3904  0.4166
  626TMC3    O2 9281   0.607   4.423  17.611 -0.7343  0.6367 -0.2151
  627MPD2     C 9282   4.096   0.067  14.302  0.0370 -0.6000 -0.4993
  627MPD2    C1 9283   4.200   0.029  14.377 -0.7062 -0.1559 -0.1391
  627MPD2    C2 9284   4.206   4.618  14.429 -0.2154  0.1278  0.6253
  627MPD2    C3 9285   4.101   4.531  14.423  0.3234 -0.1378  0.0551
  627MPD2    C4 9286   3.989   4.577  14.359  0.1710 -0.4938  0.4029
  627MPD2    C5 9287   3.987   4.701  14.304  0.5392  0.4014  0.4522
  627MPD2     H 9288   4.300   4.593  14.477  0.5822 -1.1421 -1.6129
  627MPD2    H1 9289   3.904   4.509  14.351  2.0385 -2.7674 -0.1046
  627MPD2    H2 9290   4.107   0.159  14.246  0.9571  1.2677  2.7902
  627MPD2    H3 9291   3.896   0.006  14.251 -0.8854 -1.7318  1.7862
  627MPD2     N 9292   4.117   4.405  14.488  0.1454 -0.5231  0.7377
  627MPD2    H5 9293   4.207   4.395  14.533  1.5658 -1.7578 -2.3543
  627MPD2    N1 9294   4.308   0.116  14.409 -0.6082 -0.4231  0.3830
  627MPD2    H7 9295   4.388   0.067  14.449  1.3622  1.0062 -1.8041
  628TMC3    C1 9296   4.422   0.330  14.443 -0.0886  0.4458 -0.3100
  628TMC3    C2 9297   4.538   0.266  14.474 -0.2830  0.4823 -0.6100
  628TMC3    C3 9298   4.639   0.343  14.522  0.1159 -0.1522 -0.0665
  628TMC3    C4 9299   4.403   0.469  14.461  0.9053  0.3359 -0.1962
  628TMC3    C5 9300   4.509   0.541  14.514 -0.3438  0.2011  0.1434
  628TMC3    C6 9301   4.631   0.475  14.524 -0.5735 -0.4362  0.0517
  628TMC3     C 9302   4.309   0.256  14.389 -0.3896  0.5049  0.0508
  628TMC3     O 9303   4.215   0.329  14.360  0.0539  0.2347  0.4084
  628TMC3     H 9304   4.550   0.160  14.452  1.0245  0.6420 -0.6233
  628TMC3    H1 9305   4.310   0.523  14.459  1.3689  1.0863 -1.7673
  628TMC3    H2 9306   4.708   0.538  14.567  0.0232 -0.7182 -0.6079
  628TMC3    C7 9307   4.502   0.683  14.521  0.2949  0.1187 -0.1613
  628TMC3    C8 9308   0.051   0.290  14.522  0.0330  0.0485  0.0864
  628TMC3    O1 9309   4.579   0.735  14.590  0.7793  0.0629  0.6857
  628TMC3    O2 9310   0.148   0.354  14.478 -0.1780  0.0950  0.0779
  629MPD2     C 9311   2.609   4.129  16.422 -0.3444 -0.4204  0.2233
  629MPD2    C1 9312   2.602   3.993  16.399  0.0636 -0.5240  0.1145
  629MPD2    C2 9313   2.487   3.924  16.429 -0.1661  1.2152  0.0442
  629MPD2    C3 9314   2.384   3.989  16.501  0.2613 -0.0557  0.0372
  629MPD2    C4 9315   2.393   4.123  16.521  0.2827 -0.0338 -0.5317
  629MPD2    C5 9316   2.505   4.191  16.483  0.2303  0.6678 -0.4838
  629MPD2     H 9317   2.471   3.831  16.376  0.0379  1.2044  0.0037
  629MPD2    H1 9318   2.315   4.180  16.569 -2.0951 -2.1599 -1.8271
  629MPD2    H2 9319   2.705   4.176  16.404  0.1975 -1.7809 -0.4107
  629MPD2    H3 9320   2.527   4.294  16.509 -2.7169  1.8939 -2.8476
  629MPD2     N 9321   2.273   3.908  16.541  0.0183  0.0466  0.5493
  629MPD2    H5 9322   2.271   3.811  16.511  0.2836 -0.1636  1.2221
  629MPD2    N1 9323   2.708   3.947  16.321 -0.4570  0.2015 -0.0008
  629MPD2    H7 9324   2.788   4.007  16.304 -0.4327 -0.4795 -2.2896
  630TMC3    C1 9325   2.863   3.783  16.268 -0.0895  0.3978 -0.1678
  630TMC3    C2 9326   2.965   3.878  16.261  0.7822 -0.0665  0.4214
  630TMC3    C3 9327   3.099   3.835  16.248  0.1032 -0.0358 -0.1712
  630TMC3    C4 9328   2.893   3.649  16.290  0.1016  0.4792 -0.5766
  630TMC3    C5 9329   3.028   3.609  16.293 -0.2955  0.4040 -0.1898
  630TMC3    C6 9330   3.127   3.700  16.260  1.0733  0.5371  0.4577
  630TMC3     C 9331   2.724   3.815  16.295  0.2801  0.0984  0.3650
  630TMC3     O 9332   2.644   3.725  16.316  0.8729  0.3117 -0.0338
  630TMC3     H 9333   2.944   3.983  16.248  0.7131 -0.0690  0.5153
  630TMC3    H1 9334   2.816   3.573  16.296  1.7607 -1.1978 -0.5836
  630TMC3    H2 9335   3.232   3.674  16.275  1.2855  0.5118 -1.1169
  630TMC3    C7 9336   3.059   3.494  16.366 -0.1104 -0.1916  0.3041
  630TMC3    C8 9337   3.202   3.926  16.298  0.4571 -0.1149  0.3709
  630TMC3    O1 9338   2.961   3.429  16.398  0.0410  0.5433  0.5914
  630TMC3    O2 9339   3.296   3.875  16.362  0.2117 -0.0802 -0.1719
  631MPD2     C 9340   1.345   3.244  15.842 -0.1713 -0.1043  0.3210
  631MPD2    C1 9341   1.421   3.352  15.803  0.9844 -0.5708  0.9110
  631MPD2    C2 9342   1.553   3.339  15.793  0.2503  0.2635 -0.3528
  631MPD2    C3 9343   1.609   3.221  15.839  0.2901  0.3536 -0.1563
  631MPD2    C4 9344   1.532   3.114  15.880  1.1541  0.3916  0.2406
  631MPD2    C5 9345   1.402   3.128  15.893  0.0911 -0.3703  0.0882
  631MPD2     H 9346   1.617   3.417  15.754  0.1789  0.2512 -0.4956
  631MPD2    H1 9347   1.567   3.013  15.897  0.7951  0.1667 -0.3422
  631MPD2    H2 9348   1.237   3.244  15.843 -0.1854  1.8206  0.0330
  631MPD2    H3 9349   1.340   3.047  15.928 -1.6811  0.7578 -0.3987
  631MPD2     N 9350   1.750   3.216  15.850  0.4053  0.2980  0.1654
  631MPD2    H5 9351   1.804   3.295  15.817  0.5560  0.5592  1.0226
  631MPD2    N1 9352   1.351   3.468  15.765  0.3265  0.0087  0.1143
  631MPD2    H7 9353   1.256   3.477  15.799 -0.6834  0.8031 -2.8267
  632TMC3    C1 9354   1.312   3.685  15.669  0.9645 -0.4548 -0.0169
  632TMC3    C2 9355   1.181   3.679  15.715  0.5269  0.7417 -0.2711
  632TMC3    C3 9356   1.089   3.757  15.651  0.3643 -0.1453 -0.2742
  632TMC3    C4 9357   1.355   3.775  15.578 -0.8112 -0.7272 -0.2748
  632TMC3    C5 9358   1.255   3.852  15.524  0.5707 -0.2661  1.1514
  632TMC3    C6 9359   1.127   3.841  15.546 -0.4380 -0.4395  0.5435
  632TMC3     C 9360   1.407   3.575  15.698  0.1939  0.1177 -0.1974
  632TMC3     O 9361   1.496   3.577  15.615  0.3291 -0.0157  0.0628
  632TMC3     H 9362   1.139   3.612  15.789  1.1241 -0.0423 -0.6451
  632TMC3    H1 9363   1.459   3.774  15.548 -0.8294 -1.3391 -0.3081
  632TMC3    H2 9364   1.056   3.897  15.486  0.8778 -0.6568 -1.2266
  632TMC3    C7 9365   1.284   3.884  15.390 -0.7142  0.2880 -0.2679
  632TMC3    C8 9366   0.959   3.761  15.710 -0.6932  0.4012  0.0341
  632TMC3    O1 9367   1.215   3.856  15.296 -0.9270  0.3108 -0.2113
  632TMC3    O2 9368   0.938   3.733  15.829 -0.6206  0.4924  0.0417
  633MPD2     C 9369   0.639   1.155  17.216  0.0547  0.2008  0.1656
  633MPD2    C1 9370   0.709   1.106  17.103 -0.3127  0.6781 -0.4508
  633MPD2    C2 9371   0.767   0.978  17.105 -0.3224 -0.4823  0.0989
  633MPD2    C3 9372   0.785   0.907  17.220 -0.3197  0.4140 -0.0185
  633MPD2    C4 9373   0.742   0.970  17.335 -0.0674 -1.2654  0.4574
  633MPD2    C5 9374   0.665   1.083  17.332  0.3488  0.5330 -0.1433
  633MPD2     H 9375   0.796   0.935  17.010 -1.7891 -1.0111 -0.1100
  633MPD2    H1 9376   0.766   0.930  17.434  3.6903  0.0237  0.0849
  633MPD2    H2 9377   0.586   1.249  17.218 -1.5544 -0.6888 -0.5401
  633MPD2    H3 9378   0.630   1.120  17.428 -1.2920  0.7343 -0.8323
  633MPD2     N 9379   0.865   0.787  17.219  0.2631 -1.0236 -0.1109
  633MPD2    H5 9380   0.878   0.748  17.126 -0.4079 -1.1424 -0.1608
  633MPD2    N1 9381   0.709   1.173  16.981 -0.1812 -0.3396 -0.1730
  633MPD2    H7 9382   0.767   1.127  16.911 -0.3419 -2.1662  0.8869
  634TMC3    C1 9383   0.679   1.340  16.821 -0.0877 -0.5877 -0.1306
  634TMC3    C2 9384   0.701   1.253  16.709 -0.0119 -0.4251  0.0428
  634TMC3    C3 9385   0.721   1.317  16.585  0.3939 -0.3990 -0.5456
  634TMC3    C4 9386   0.676   1.475  16.809 -0.0584  0.3075  0.0067
  634TMC3    C5 9387   0.701   1.530  16.682  0.1380 -0.5095 -0.1435
  634TMC3    C6 9388   0.721   1.452  16.568 -0.3282 -0.2160 -0.0932
  634TMC3     C 9389   0.641   1.287  16.951  0.9406 -0.4865  0.5793
  634TMC3     O 9390   0.566   1.354  17.017 -0.0632  0.0015 -0.0940
  634TMC3     H 9391   0.722   1.147  16.708 -1.7618 -0.7582  0.0656
  634TMC3    H1 9392   0.675   1.535  16.900 -1.5284 -0.4545  0.4883
  634TMC3    H2 9393   0.748   1.498  16.473  0.2522 -0.9271 -0.2751
  634TMC3    C7 9394   0.697   1.671  16.663 -0.2023  0.3202  0.0023
  634TMC3    C8 9395   0.740   1.222  16.473 -0.0936  0.8210  0.3317
  634TMC3    O1 9396   0.727   1.722  16.556  0.0737  0.4947  0.6491
  634TMC3    O2 9397   0.827   1.135  16.501  0.5111 -0.6753 -0.4077
  635TMC3    C1 9398   1.203   2.341  17.538  0.1755  0.1039 -0.4323
  635TMC3    C2 9399   1.233   2.229  17.465  0.0343 -0.2033  0.1284
  635TMC3    C3 9400   1.122   2.158  17.443 -0.3630 -0.3005  0.4217
  635TMC3    C4 9401   1.078   2.385  17.577  0.4147  0.5068  0.0183
  635TMC3    C5 9402   0.976   2.300  17.557 -0.0823  0.1477 -0.6148
  635TMC3    C6 9403   0.998   2.184  17.494  0.3055  0.5810 -0.4858
  635TMC3     C 9404   1.291   2.372  17.644  0.0822 -0.0496  0.2994
  635TMC3     O 9405   1.228   2.387   0.056 -0.2374  0.6635 -0.3796
  635TMC3     H 9406   1.336   2.204  17.440 -0.3900 -0.8451 -0.9868
  635TMC3    H1 9407   1.061   2.481  17.625 -0.3021 -0.1922  1.1504
  635TMC3    H2 9408   0.917   2.114  17.473 -0.8025  1.6895  0.1014
  635TMC3    C7 9409   0.882   2.283  17.669  0.7756 -0.3935 -0.1126
  635TMC3    C8 9410   1.137   2.025  17.386 -0.3928  0.5244 -0.3417
  635TMC3    O1 9411   0.787   2.206  17.658 -0.6993  0.3969 -0.6433
  635TMC3    O2 9412   1.075   1.930  17.435  0.1278  0.4891 -0.9924
  636MPD2     C 9413   2.073   1.744  15.771  0.0868  0.0033  0.1101
  636MPD2    C1 9414   2.057   1.730  15.906 -0.2436  0.0348 -0.3221
  636MPD2    C2 9415   2.094   1.615  15.965  0.2308 -0.1830 -0.3610
  636MPD2    C3 9416   2.140   1.505  15.891 -0.1444  0.1588  0.2393
  636MPD2    C4 9417   2.155   1.516  15.756  0.8298  0.6089  0.7151
  636MPD2    C5 9418   2.114   1.633  15.695  0.3381  0.5062 -0.2641
  636MPD2     H 9419   2.095   1.608  16.074 -2.4410 -0.1061 -0.3397
  636MPD2    H1 9420   2.194   1.434  15.696 -0.7651 -0.1206  0.6745
  636MPD2    H2 9421   2.048   1.833  15.714 -0.2343  1.1297  1.9741
  636MPD2    H3 9422   2.128   1.641  15.588  0.7622  1.5355 -0.1303
  636MPD2     N 9423   2.157   1.382  15.962  0.3022 -0.1939 -1.1081
  636MPD2    H5 9424   2.132   1.379  16.060  2.0833 -1.0649 -0.6771
  636MPD2    N1 9425   2.017   1.836  15.989  0.4908 -0.1590 -0.0229
  636MPD2    H7 9426   2.009   1.816  16.088  0.0442 -1.5603 -0.3397
  637TMC3    C1 9427   2.255   1.179  16.010  0.1630  0.1163  0.2522
  637TMC3    C2 9428   2.177   1.185  16.122 -0.3638 -0.5320 -0.7024
  637TMC3    C3 9429   2.235   1.135  16.234 -0.3536 -0.5681 -0.5111
  637TMC3    C4 9430   2.377   1.125  16.000  0.0282  0.0170  0.2601
  637TMC3    C5 9431   2.440   1.080  16.117 -0.0113 -0.2562 -0.4455
  637TMC3    C6 9432   2.361   1.076  16.231 -0.1110  0.4404  0.1375
  637TMC3     C 9433   2.217   1.276  15.900  0.2236  0.2218  0.1666
  637TMC3     O 9434   2.263   1.256  15.788 -0.5083  0.0277 -0.4489
  637TMC3     H 9435   2.082   1.237  16.124  0.8006  1.5962 -0.1277
  637TMC3    H1 9436   2.423   1.142  15.904 -1.8121 -2.2458 -1.0175
  637TMC3    H2 9437   2.409   1.040  16.321 -0.9583 -2.0087 -0.3901
  637TMC3    C7 9438   2.561   1.157  16.157 -0.4801  0.9578 -0.6761
  637TMC3    C8 9439   2.211   1.226  16.341 -0.2965 -0.1226 -0.8094
  637TMC3    O1 9440   2.578   1.174  16.275  0.1986 -0.3027  0.3150
  637TMC3    O2 9441   2.134   1.316  16.313  0.1682 -0.4603  0.6444
  638MPD2     C 9442   2.147   0.695  14.949  0.7290 -0.2948  0.2793
  638MPD2    C1 9443   2.138   0.580  14.885  0.0933  0.3441  0.5961
  638MPD2    C2 9444   2.044   0.484  14.926 -0.3059  0.4937 -0.3467
  638MPD2    C3 9445   1.982   0.509  15.050 -0.1506  0.1021  0.5213
  638MPD2    C4 9446   1.994   0.630  15.116 -0.1066 -0.5332 -0.1940
  638MPD2    C5 9447   2.075   0.730  15.066 -0.0165 -0.0976 -0.7090
  638MPD2     H 9448   2.025   0.394  14.869  0.4931 -1.5506  2.6271
  638MPD2    H1 9449   1.950   0.645  15.214 -0.3961 -0.5308 -0.3233
  638MPD2    H2 9450   2.214   0.773  14.915 -0.6824  0.0190 -1.7349
  638MPD2    H3 9451   2.092   0.823  15.118 -0.2400  0.0041 -0.8174
  638MPD2     N 9452   1.911   0.401  15.099  0.2810  0.0046 -0.4603
  638MPD2    H5 9453   1.905   0.314  15.046  0.8905 -0.6291  0.5095
  638MPD2    N1 9454   2.200   0.547  14.762 -0.0617  0.9060  0.1260
  638MPD2    H7 9455   2.183   0.454  14.726  2.0704 -0.5856  2.9358
  639TMC3    C1 9456   1.781   0.267  15.231 -0.2688 -0.6290  0.1420
  639TMC3    C2 9457   1.745   0.205  15.113 -0.2884 -0.5787 -0.2731
  639TMC3    C3 9458   1.774   0.077  15.096 -0.3643 -0.0338  0.2760
  639TMC3    C4 9459   1.863   0.198  15.316  0.6358  0.2192  0.1547
  639TMC3    C5 9460   1.893   0.065  15.292 -0.2963  0.3774  0.1563
  639TMC3    C6 9461   1.849   0.002  15.182  0.9122 -0.3862  0.2748
  639TMC3     C 9462   1.827   0.402  15.202 -0.0596 -0.4214  1.2171
  639TMC3     O 9463   1.806   0.488  15.290  1.1971 -0.3055 -0.2374
  639TMC3     H 9464   1.694   0.257  15.033 -1.2499 -1.3162 -0.1317
  639TMC3    H1 9465   1.901   0.251  15.402  0.1033  2.0342 -0.7321
  639TMC3    H2 9466   1.860   4.621  15.154  2.0665  0.1298 -1.1404
  639TMC3    C7 9467   1.964   4.703  15.389 -0.0095  0.7352 -0.7430
  639TMC3    C8 9468   1.713   0.008  14.984  0.0255  0.4797  0.6289
  639TMC3    O1 9469   1.949   0.019  15.505  0.0312 -0.0036  0.3998
  639TMC3    O2 9470   1.790   4.671  14.914 -0.4554  0.5037 -0.1738
  640MPD2     C 9471   3.345   3.049   9.434  0.2346 -0.0216  0.1937
  640MPD2    C1 9472   3.386   3.182   9.452  0.1933  0.1852 -0.2567
  640MPD2    C2 9473   3.286   3.274   9.458 -0.5155  0.4329 -0.3255
  640MPD2    C3 9474   3.148   3.231   9.452 -0.5360  0.0301  0.0842
  640MPD2    C4 9475   3.111   3.098   9.443  0.5354 -0.2930 -0.3496
  640MPD2    C5 9476   3.215   3.009   9.437 -0.1411  0.1322  0.2964
  640MPD2     H 9477   3.318   3.377   9.472  1.8553 -0.4809  0.9885
  640MPD2    H1 9478   3.006   3.068   9.447  0.3495  0.7650  2.2686
  640MPD2    H2 9479   3.424   2.974   9.429 -0.1491 -0.3746 -0.7016
  640MPD2    H3 9480   3.199   2.902   9.449  1.9043  0.0541  2.4679
  640MPD2     N 9481   3.039   3.316   9.477 -0.9962  0.3020 -0.3511
  640MPD2    H5 9482   2.949   3.269   9.474 -1.6713  1.4989  1.4184
  640MPD2    N1 9483   3.527   3.210   9.453  0.1687 -0.7758  0.3458
  640MPD2    H7 9484   3.589   3.130   9.450  1.1531 -0.0148  0.3790
  641TMC3    C1 9485   3.741   3.324   9.464  0.0615 -0.4621 -0.3506
  641TMC3    C2 9486   3.801   3.215   9.419 -0.6676 -0.1145 -0.2027
  641TMC3    C3 9487   3.938   3.198   9.443  0.3620 -0.4321 -0.0982
  641TMC3    C4 9488   3.801   3.437   9.511  0.1308  0.0619  0.5885
  641TMC3    C5 9489   3.936   3.411   9.540  0.9909  0.6019 -0.1838
  641TMC3    C6 9490   4.006   3.293   9.518 -0.0621 -0.2728 -0.4106
  641TMC3     C 9491   3.588   3.332   9.466 -1.0185 -0.2568 -0.0315
  641TMC3     O 9492   3.537   3.443   9.497 -0.1720  0.1942 -0.0650
  641TMC3     H 9493   3.748   3.142   9.360  0.0199 -0.8601  0.0937
  641TMC3    H1 9494   3.737   3.505   9.565 -0.4679  0.5789 -0.7761
  641TMC3    H2 9495   4.112   3.282   9.535 -0.0115 -1.4990 -1.4991
  641TMC3    C7 9496   4.017   3.512   9.606 -0.1701  0.3793  0.3676
  641TMC3    C8 9497   3.985   3.061   9.438 -0.3619  0.4941  0.1103
  641TMC3    O1 9498   4.121   3.470   9.660  0.3668 -0.2275 -0.0757
  641TMC3    O2 9499   3.924   2.991   9.359 -0.1867  0.7597  0.4710
  642TMC3    C1 9500   3.839   0.167  12.491  0.8397 -0.1203  0.1188
  642TMC3    C2 9501   3.946   0.207  12.412 -0.3228  0.8256 -0.2576
  642TMC3    C3 9502   3.992   0.111  12.332 -0.3346  0.1818  0.2929
  642TMC3    C4 9503   3.788   0.036  12.493 -0.5030 -0.2426  0.4564
  642TMC3    C5 9504   3.854   4.665  12.420  0.2664  0.3473 -0.4266
  642TMC3    C6 9505   3.954   4.707  12.339  0.1161 -0.2946  0.4275
  642TMC3     C 9506   3.769   0.274  12.559 -0.5849  0.8132  0.8588
  642TMC3     O 9507   3.830   0.375  12.566 -0.0341  0.1298 -0.5875
  642TMC3     H 9508   3.973   0.312  12.404 -2.2060  1.6685  4.4843
  642TMC3    H1 9509   3.700   0.015  12.552  0.8262  0.5277  2.7272
  642TMC3    H2 9510   4.014   4.627  12.295 -0.6306 -2.3383  3.0848
  642TMC3    C7 9511   3.772   4.560  12.365 -0.0405  0.4602 -0.8500
  642TMC3    C8 9512   4.117   0.128  12.271 -0.4007  0.1915  0.1777
  642TMC3    O1 9513   3.800   4.522  12.253  0.4263  0.2495  0.4815
  642TMC3    O2 9514   4.145   0.068  12.164  0.2079  0.2909  0.7937
  643TMC3    C1 9515   2.099   4.117   0.046  0.3218 -0.3368  0.5784
  643TMC3    C2 9516   1.992   4.148  17.663  0.0325  0.5630 -0.0277
  643TMC3    C3 9517   1.991   4.111  17.526 -0.5063 -0.0597  0.6159
  643TMC3    C4 9518   2.203   4.042  17.685  0.1049  0.0919 -0.0994
  643TMC3    C5 9519   2.197   4.001  17.556  0.1226 -0.6549  0.1883
  643TMC3    C6 9520   2.094   4.036  17.478 -0.7794 -0.0983  0.1312
  643TMC3     C 9521   2.149   4.240   0.104  0.0005  0.4825  0.1158
  643TMC3     O 9522   2.099   4.341   0.062 -0.5983 -0.2356  0.3361
  643TMC3     H 9523   1.903   4.200   0.006 -0.0677 -0.4025  1.2199
  643TMC3    H1 9524   2.287   4.005   0.052  0.6260  0.6977 -0.4861
  643TMC3    H2 9525   2.107   4.020  17.372 -2.4947  3.0588 -0.5376
  643TMC3    C7 9526   2.326   4.026  17.504  1.1288 -0.4032  0.1229
  643TMC3    C8 9527   1.961   4.219  17.436 -0.4273  0.0024  0.0355
  643TMC3    O1 9528   2.394   4.105  17.562 -0.5155  0.5038 -0.1827
  643TMC3    O2 9529   1.967   4.197  17.317 -0.6066 -0.2928 -0.4087
  644MPD2     C 9530   3.699   4.424  10.010 -0.2850 -0.5827  0.0614
  644MPD2    C1 9531   3.705   4.314   9.932  0.6142  0.0143  0.2733
  644MPD2    C2 9532   3.651   4.311   9.806 -0.8029  0.6671 -0.4216
  644MPD2    C3 9533   3.565   4.412   9.765 -0.3756  0.0732 -0.4814
  644MPD2    C4 9534   3.556   4.526   9.843  0.3065  0.4905  0.1640
  644MPD2    C5 9535   3.628   4.533   9.960  0.5799 -0.2302 -0.1545
  644MPD2     H 9536   3.661   4.221   9.747  1.6712  0.9399 -0.4221
  644MPD2    H1 9537   3.494   4.613   9.824 -0.3348 -0.4184 -1.8528
  644MPD2    H2 9538   3.751   4.427  10.104  0.6054  2.6654 -0.5374
  644MPD2    H3 9539   3.631   4.626  10.015 -1.6703 -0.6577  0.7081
  644MPD2     N 9540   3.466   4.402   9.669 -0.4080  0.6174 -0.3095
  644MPD2    H5 9541   3.402   4.480   9.665 -0.9987  0.4501  5.6571
  644MPD2    N1 9542   3.759   4.198   9.996  0.4084 -0.5535  0.1928
  644MPD2    H7 9543   3.815   4.217  10.079 -3.9164  1.0640  2.7720
  645TMC3    C1 9544   3.320   4.260   9.527  0.5135  0.7759 -0.0735
  645TMC3    C2 9545   3.220   4.354   9.542  0.0954 -0.4630 -0.8543
  645TMC3    C3 9546   3.105   4.345   9.465 -0.1756 -0.2595 -0.6822
  645TMC3    C4 9547   3.299   4.158   9.442  0.0693  0.5985 -0.4011
  645TMC3    C5 9548   3.177   4.144   9.376  0.6581 -0.5154  1.0096
  645TMC3    C6 9549   3.077   4.243   9.379  0.2374 -0.1810 -0.4756
  645TMC3     C 9550   3.455   4.293   9.577  0.1928  0.1210 -0.5520
  645TMC3     O 9551   3.539   4.212   9.553 -0.3821  0.2829  0.2439
  645TMC3     H 9552   3.235   4.451   9.588 -0.5937 -1.1016  0.6885
  645TMC3    H1 9553   3.373   4.079   9.436 -1.1975 -0.4504 -2.1318
  645TMC3    H2 9554   3.010   4.261   9.296 -0.8845 -0.2131  0.4317
  645TMC3    C7 9555   3.148   4.020   9.302 -0.1592 -0.2322  0.2625
  645TMC3    C8 9556   3.009   4.461   9.468  0.3661  0.0603 -0.3320
  645TMC3    O1 9557   3.242   3.950   9.274  0.5281  0.3146 -0.1914
  645TMC3    O2 9558   2.924   4.473   9.380 -0.9185  0.6242  0.2402
  646MPD2     C 9559   2.267   4.108  14.443  0.3721  0.2725  0.3801
  646MPD2    C1 9560   2.170   4.026  14.498  0.1163  0.5914  0.2974
  646MPD2    C2 9561   2.041   4.065  14.476 -0.9006 -0.1931 -0.5462
  646MPD2    C3 9562   2.011   4.182  14.406  0.4403  0.4964 -0.0755
  646MPD2    C4 9563   2.109   4.265  14.377 -0.8148 -0.5886 -0.2248
  646MPD2    C5 9564   2.240   4.229  14.387  0.7582 -0.0603  0.2887
  646MPD2     H 9565   1.957   4.003  14.504 -1.2593 -0.2507 -1.7594
  646MPD2    H1 9566   2.087   4.355  14.322 -2.7943 -2.1812 -2.0588
  646MPD2    H2 9567   2.373   4.086  14.441  0.6876  1.8116  0.2322
  646MPD2    H3 9568   2.322   4.294  14.358  1.5740 -0.9493  0.5879
  646MPD2     N 9569   1.878   4.207  14.375  0.1456 -0.1108 -0.2534
  646MPD2    H5 9570   1.802   4.166  14.428  2.2217 -0.5706  2.3840
  646MPD2    N1 9571   2.213   3.899  14.546  0.2621 -0.1541  1.0220
  646MPD2    H7 9572   2.313   3.879  14.536  0.0050 -1.0639  0.2184
  647TMC3    C1 9573   2.202   3.686  14.626 -0.4083  0.9226 -0.4406
  647TMC3    C2 9574   2.129   3.568  14.635 -0.7974  0.7338  1.0909
  647TMC3    C3 9575   2.187   3.457  14.686  0.1387 -0.1090 -0.1514
  647TMC3    C4 9576   2.337   3.686  14.662 -0.0337 -0.3011 -0.7663
  647TMC3    C5 9577   2.396   3.571  14.708 -0.1079 -0.9452 -0.4776
  647TMC3    C6 9578   2.322   3.458  14.713 -0.4657 -0.1934  0.2046
  647TMC3     C 9579   2.131   3.800  14.584 -0.3946  0.3153 -0.0274
  647TMC3     O 9580   2.010   3.802  14.600 -0.2908 -0.4406  0.1201
  647TMC3     H 9581   2.036   3.557  14.581 -0.1900 -2.9883  0.8209
  647TMC3    H1 9582   2.392   3.777  14.684 -0.1309  0.2567 -2.7815
  647TMC3    H2 9583   2.357   3.360  14.741  0.3877  0.5554  1.7074
  647TMC3    C7 9584   2.527   3.574  14.776 -0.7172 -0.5915  0.1226
  647TMC3    C8 9585   2.098   3.359  14.731  0.2876 -0.2437  0.2274
  647TMC3    O1 9586   2.561   3.474  14.832  0.4352  0.2374 -0.4616
  647TMC3    O2 9587   1.989   3.366  14.674 -0.3283  0.7855 -0.3676
  648TMC3    C1 9588   1.212   1.661  15.925  0.1220 -0.3617  0.0090
  648TMC3    C2 9589   1.224   1.546  15.854 -0.4172 -0.3054 -0.0835
  648TMC3    C3 9590   1.174   1.542  15.729  0.2144 -0.3085  0.2371
  648TMC3    C4 9591   1.146   1.769  15.876  0.1296  0.0701  0.9422
  648TMC3    C5 9592   1.082   1.752  15.752  0.0039 -0.3454 -0.1849
  648TMC3    C6 9593   1.099   1.645  15.671  0.3661 -1.6285  0.5007
  648TMC3     C 9594   1.228   1.649  16.068  0.5579 -0.3467  0.0785
  648TMC3     O 9595   1.277   1.745  16.126  0.1678 -0.1061 -0.4707
  648TMC3     H 9596   1.286   1.466  15.891 -2.3954  0.6461  5.3612
  648TMC3    H1 9597   1.124   1.849  15.946 -0.4322 -0.7317  1.6845
  648TMC3    H2 9598   1.057   1.637  15.572 -1.2517  0.4164  1.0174
  648TMC3    C7 9599   0.989   1.857  15.707 -0.2285 -0.2687 -0.3501
  648TMC3    C8 9600   1.169   1.418  15.660  0.7522 -0.1975 -0.7689
  648TMC3    O1 9601   0.979   1.887  15.587  0.6763  0.1800  0.1080
  648TMC3    O2 9602   1.069   1.369  15.610 -0.2604 -0.5897  0.0468
  649TMC3    C1 9603   0.646   2.815  12.630 -0.1046  0.0768 -0.2429
  649TMC3    C2 9604   0.756   2.898  12.608 -0.1587 -0.2802 -0.4098
  649TMC3    C3 9605   0.847   2.894  12.709  0.4931  0.5730 -0.2533
  649TMC3    C4 9606   0.615   2.736  12.735  0.0870 -0.6276 -0.9685
  649TMC3    C5 9607   0.707   2.742  12.837  0.4961  0.1682 -0.0203
  649TMC3    C6 9608   0.824   2.817  12.820 -0.2312 -0.4529 -0.0708
  649TMC3     C 9609   0.538   2.821  12.530 -0.3083  0.3351 -0.4905
  649TMC3     O 9610   0.421   2.794  12.558 -0.3149  0.1497 -0.1967
  649TMC3     H 9611   0.755   2.976  12.533 -0.4662 -0.2205 -0.3459
  649TMC3    H1 9612   0.525   2.676  12.735 -1.3825  1.5648 -0.9418
  649TMC3    H2 9613   0.896   2.817  12.901  0.9079  2.3349 -1.0978
  649TMC3    C7 9614   0.689   2.641  12.946 -0.5205 -0.5698 -0.1054
  649TMC3    C8 9615   0.982   2.955  12.693 -0.1770  0.9069  0.2563
  649TMC3    O1 9616   0.577   2.604  12.965 -0.4803  0.8546  0.6677
  649TMC3    O2 9617   1.039   2.954  12.800  0.3510  0.2505 -0.3683
  650TMC3    C1 9618   3.035   3.838  12.759  0.2133  0.6759  0.2514
  650TMC3    C2 9619   3.030   3.972  12.787 -0.2994 -0.0268 -0.0440
  650TMC3    C3 9620   2.966   4.058  12.698 -0.2482 -0.4056 -0.3454
  650TMC3    C4 9621   2.971   3.782  12.649  0.5872 -0.5145  0.6942
  650TMC3    C5 9622   2.904   3.871  12.570 -0.8178 -0.1757  0.4895
  650TMC3    C6 9623   2.907   4.010  12.592  0.6487 -0.4706 -0.4965
  650TMC3     C 9624   3.093   3.757  12.867 -0.5330 -0.5184  0.6285
  650TMC3     O 9625   3.122   3.816  12.972 -0.4118  0.0537 -0.1010
  650TMC3     H 9626   3.090   4.017  12.865 -1.0012  1.5035 -0.3881
  650TMC3    H1 9627   2.948   3.676  12.643 -0.4952 -0.0709 -2.6572
  650TMC3    H2 9628   2.879   4.086  12.520  4.1627  0.1223 -1.2563
  650TMC3    C7 9629   2.847   3.822  12.451 -0.0321 -0.0089  0.1675
  650TMC3    C8 9630   2.916   4.188  12.734 -0.0031 -0.0802  0.3576
  650TMC3    O1 9631   2.855   3.698  12.437 -0.2865  0.1929 -0.1813
  650TMC3    O2 9632   2.992   4.283  12.727  0.1925 -0.1213 -0.2562
  651MPD2     C 9633   1.896   1.029  10.107  0.3848  0.1151  0.3048
  651MPD2    C1 9634   1.909   1.138  10.185  1.1364  0.5289 -0.0776
  651MPD2    C2 9635   2.027   1.211  10.191 -0.1388  0.0078 -0.1017
  651MPD2    C3 9636   2.135   1.180  10.110  0.5399  0.7649 -0.3662
  651MPD2    C4 9637   2.114   1.075  10.018 -0.7539  0.1127 -0.4287
  651MPD2    C5 9638   1.998   1.001  10.020  0.4428  0.3803 -0.1391
  651MPD2     H 9639   2.032   1.304  10.248  0.9415  0.3059 -0.6935
  651MPD2    H1 9640   2.193   1.045   9.951 -0.8070  0.5790 -0.7018
  651MPD2    H2 9641   1.802   0.976  10.103  0.0575  0.5654  1.9499
  651MPD2    H3 9642   1.976   0.918   9.953 -0.7896 -0.2493  1.0562
  651MPD2     N 9643   2.249   1.262  10.118 -0.1972  0.6112  0.5353
  651MPD2    H5 9644   2.243   1.338  10.186  0.9339  0.6275  0.6233
  651MPD2    N1 9645   1.806   1.188  10.268  0.3179 -0.2269  0.3988
  651MPD2    H7 9646   1.827   1.271  10.323 -0.9123  1.1385 -1.1651
  652TMC3    C1 9647   2.692   1.370  10.173 -0.0976  0.4887 -0.1776
  652TMC3    C2 9648   2.602   1.280  10.137  0.0223 -0.2050  0.5054
  652TMC3    C3 9649   2.479   1.322  10.097 -0.4902  0.1539 -0.6353
  652TMC3    C4 9650   2.667   1.512  10.181 -0.6330  0.1823 -0.3902
  652TMC3    C5 9651   2.540   1.558  10.141 -0.8661 -0.3336  0.5717
  652TMC3    C6 9652   2.452   1.459  10.102 -0.9054  0.1158  0.0287
  652TMC3     C 9653   2.811   1.321  10.225  0.2397 -0.1206 -0.2601
  652TMC3     O 9654   2.821   1.206  10.276 -0.3568 -0.7873  0.3436
  652TMC3     H 9655   2.637   1.178  10.148  1.0867  0.3825  2.7021
  652TMC3    H1 9656   2.744   1.572  10.229  0.3146 -0.8053 -0.6649
  652TMC3    H2 9657   2.358   1.500  10.068 -1.6654 -1.4883  0.1594
  652TMC3    C7 9658   2.475   1.678  10.199 -0.1022  0.6387  0.0765
  652TMC3    C8 9659   2.372   1.230  10.061  0.0540  0.1399 -0.4039
  652TMC3    O1 9660   2.355   1.685  10.179  0.4790 -0.2051 -0.2122
  652TMC3    O2 9661   2.405   1.121  10.016  0.5255  0.1191 -0.1950
  653MPD2     C 9662   0.506   1.437  17.558  0.1082 -0.4416 -0.3250
  653MPD2    C1 9663   0.415   1.523  17.503 -0.5989 -0.3044  0.4702
  653MPD2    C2 9664   0.312   1.475  17.424 -0.0246 -0.2009 -0.0459
  653MPD2    C3 9665   0.293   1.333  17.420 -0.3113 -0.3131  0.7822
  653MPD2    C4 9666   0.382   1.249  17.484 -0.1535 -0.3816 -0.2622
  653MPD2    C5 9667   0.483   1.307  17.556 -0.2306  0.3075  0.2138
  653MPD2     H 9668   0.255   1.556  17.380 -0.2471 -0.4403 -0.1959
  653MPD2    H1 9669   0.373   1.141  17.491 -1.2063 -0.2642  0.3301
  653MPD2    H2 9670   0.601   1.470  17.596  1.2015 -1.5423 -2.0976
  653MPD2    H3 9671   0.549   1.232  17.599 -2.1538 -0.6964  1.4231
  653MPD2     N 9672   0.180   1.284  17.345  0.0147 -0.6207 -0.5223
  653MPD2    H5 9673   0.112   1.349  17.306  2.2838  0.7123 -2.2907
  653MPD2    N1 9674   0.436   1.666  17.515 -0.1107 -0.0448 -0.0396
  653MPD2    H7 9675   0.362   1.720  17.471  0.5862  0.5020 -0.5344
  654TMC3    C1 9676   0.049   1.144  17.220 -0.0567 -0.4115  0.4151
  654TMC3    C2 9677   4.649   1.204  17.247 -0.3378  0.2402  0.5593
  654TMC3    C3 9678   4.561   1.211  17.145 -0.1183  0.4455  0.2744
  654TMC3    C4 9679   0.068   1.056  17.112 -0.2431 -0.5831  0.0562
  654TMC3    C5 9680   4.689   1.061  17.022 -0.5015  0.0460  0.3247
  654TMC3    C6 9681   4.580   1.144  17.030  0.7005  0.1599  0.1731
  654TMC3     C 9682   0.165   1.153  17.305  0.5376 -0.5544  0.3561
  654TMC3     O 9683   0.250   1.065  17.309  0.6084 -0.2352 -0.2183
  654TMC3     H 9684   4.625   1.243  17.345  0.9592  2.2802  0.0597
  654TMC3    H1 9685   0.157   0.997  17.091 -0.6154 -0.7804 -0.9393
  654TMC3    H2 9686   4.510   1.152  16.947  0.0182  1.0302  0.8241
  654TMC3    C7 9687   4.696   0.978  16.902 -0.3838  0.3696 -0.5298
  654TMC3    C8 9688   4.424   1.246  17.181 -0.3383 -0.2172  0.1595
  654TMC3    O1 9689   4.651   1.024  16.799  0.2780 -0.1839 -0.5600
  654TMC3    O2 9690   4.400   1.335  17.259 -0.1654 -0.3087  0.5303
  655MPD2     C 9691   1.611   2.261  15.552  0.2438  0.3463 -0.0245
  655MPD2    C1 9692   1.478   2.285  15.549  0.0625  0.4843  0.1439
  655MPD2    C2 9693   1.412   2.279  15.420  0.3322  0.2252  0.7541
  655MPD2    C3 9694   1.476   2.232  15.307 -0.2372 -0.0091 -0.4984
  655MPD2    C4 9695   1.609   2.229  15.316  0.1417  0.2127  0.1324
  655MPD2    C5 9696   1.673   2.260  15.430  0.1995 -0.0601  0.7599
  655MPD2     H 9697   1.305   2.295  15.422  0.4768  1.3664 -1.5401
  655MPD2    H1 9698   1.667   2.217  15.225 -2.5478 -2.0928 -1.2810
  655MPD2    H2 9699   1.675   2.272  15.640 -1.5356  2.2552  1.0395
  655MPD2    H3 9700   1.781   2.274  15.428  0.4008 -1.5290  1.3760
  655MPD2     N 9701   1.415   2.203  15.187 -0.4130  0.3723 -0.1932
  655MPD2    H5 9702   1.483   2.181  15.115 -1.3455 -2.4406 -0.1977
  655MPD2    N1 9703   1.404   2.308  15.666  0.6289 -0.2472  0.6020
  655MPD2    H7 9704   1.317   2.355  15.642  1.6605  0.8693 -1.0014
  656TMC3    C1 9705   1.367   2.366  15.878  0.3916 -0.1798  0.3145
  656TMC3    C2 9706   1.328   2.305  15.997 -0.3759  0.3488 -0.0922
  656TMC3    C3 9707   1.210   2.343  16.051 -0.0738  0.2905  0.0106
  656TMC3    C4 9708   1.298   2.466  15.827  0.5246  0.2477 -0.1248
  656TMC3    C5 9709   1.190   2.508  15.891  0.4974 -0.9388 -0.3330
  656TMC3    C6 9710   1.138   2.447  16.003  0.3657  0.0672 -0.0313
  656TMC3     C 9711   1.455   2.293  15.794  0.2091 -0.2278  0.1621
  656TMC3     O 9712   1.545   2.222  15.833 -0.2549  0.0639  0.6774
  656TMC3     H 9713   1.395   2.228  16.033  3.7966  3.5573 -0.9833
  656TMC3    H1 9714   1.335   2.518  15.739  0.2629 -0.1671 -0.4775
  656TMC3    H2 9715   1.037   2.457  16.042  0.5976 -0.7470  0.7756
  656TMC3    C7 9716   1.145   2.643  15.859 -0.2274 -0.3927  0.8711
  656TMC3    C8 9717   1.139   2.244  16.115 -0.1807  0.1511  0.4564
  656TMC3    O1 9718   1.234   2.712  15.818  0.1446  0.1903 -0.1652
  656TMC3    O2 9719   1.170   2.129  16.071 -0.5945  0.0062 -0.0936
  657TMC3    C1 9720   0.663   1.077  14.274 -0.0791  0.3935  0.0362
  657TMC3    C2 9721   0.530   1.089  14.280 -0.0574 -0.0543 -0.4880
  657TMC3    C3 9722   0.467   1.194  14.222  0.0762  0.4918 -0.4779
  657TMC3    C4 9723   0.741   1.170  14.217  0.6865  0.0142  0.2851
  657TMC3    C5 9724   0.679   1.281  14.158 -0.2934  0.2338  0.0739
  657TMC3    C6 9725   0.541   1.288  14.161 -0.4891  0.0333  0.2083
  657TMC3     C 9726   0.720   0.951  14.307 -0.7922  0.3073 -0.2681
  657TMC3     O 9727   0.642   0.857  14.314  0.4509  0.2721 -0.2862
  657TMC3     H 9728   0.471   1.016  14.333 -0.3303 -0.2238 -1.0332
  657TMC3    H1 9729   0.844   1.144  14.198  0.4981  0.8944 -1.9785
  657TMC3    H2 9730   0.487   1.374  14.124  0.1869 -0.2145 -1.3690
  657TMC3    C7 9731   0.754   1.400  14.118 -0.2669 -0.5632  0.6252
  657TMC3    C8 9732   0.330   1.222  14.265 -0.1280  0.4383  1.0151
  657TMC3    O1 9733   0.699   1.495  14.061 -0.2527  0.2892 -0.7463
  657TMC3    O2 9734   0.304   1.228  14.383  0.0732 -0.2307 -0.0497
  658MPD2     C 9735   1.758   2.036  14.723 -0.7879  0.1925  0.2862
  658MPD2    C1 9736   1.638   2.063  14.647 -0.3438  0.4340  0.4132
  658MPD2    C2 9737   1.648   2.080  14.512 -0.1310 -0.1271  0.4000
  658MPD2    C3 9738   1.775   2.060  14.450  0.3928  0.0451  0.1191
  658MPD2    C4 9739   1.886   2.031  14.525 -0.3612 -0.1255 -0.3302
  658MPD2    C5 9740   1.877   2.019  14.660 -0.1447  0.0067  0.1764
  658MPD2     H 9741   1.561   2.106  14.454 -0.3691 -1.5940  0.0851
  658MPD2    H1 9742   1.984   2.021  14.482 -1.3486  2.2470 -3.1176
  658MPD2    H2 9743   1.761   2.024  14.831  0.6971  2.7582  0.5034
  658MPD2    H3 9744   1.967   1.991  14.714 -0.6696 -2.3963 -0.2296
  658MPD2     N 9745   1.779   2.076  14.307  0.0755 -0.3862  0.3782
  658MPD2    H5 9746   1.688   2.096  14.269 -0.1219  0.1555  1.1231
  658MPD2    N1 9747   1.529   2.074  14.739 -0.2163 -0.1682 -0.4692
  658MPD2    H7 9748   1.543   2.061  14.839  2.6285 -1.4722 -1.0370
  659TMC3    C1 9749   1.307   2.103  14.812 -0.4897  0.0936 -0.1992
  659TMC3    C2 9750   1.352   2.156  14.934  0.3606 -0.3026 -0.1936
  659TMC3    C3 9751   1.252   2.197  15.021 -0.4411  0.8830 -1.1231
  659TMC3    C4 9752   1.173   2.092  14.781  0.0777  0.7435  0.5359
  659TMC3    C5 9753   1.084   2.153  14.864  0.2709 -0.3601  0.4837
  659TMC3    C6 9754   1.118   2.205  14.984 -0.9747 -0.3652  0.5795
  659TMC3     C 9755   1.400   2.086  14.698  0.2580 -0.0126  0.2134
  659TMC3     O 9756   1.366   2.106  14.580  0.4770  0.3882 -0.0102
  659TMC3     H 9757   1.458   2.171  14.954  0.3288 -0.5430  0.1648
  659TMC3    H1 9758   1.142   2.050  14.685  1.9613  1.9403 -0.5904
  659TMC3    H2 9759   1.049   2.258  15.048 -0.4869  1.1503 -0.1576
  659TMC3    C7 9760   0.944   2.127  14.860 -0.3652  0.0295 -0.2162
  659TMC3    C8 9761   1.277   2.210  15.160 -0.4076  0.7235 -0.6821
  659TMC3    O1 9762   0.890   2.125  14.971  0.5688  0.6362  0.0037
  659TMC3    O2 9763   1.183   2.233  15.232 -0.5408 -0.0982 -0.5697
  660MPD2     C 9764   0.303   0.158  12.699  0.0548  0.0471  0.4189
  660MPD2    C1 9765   0.187   0.227  12.702 -0.5239  0.5474 -0.0716
  660MPD2    C2 9766   0.077   0.157  12.746 -0.6267 -0.3510  0.1094
  660MPD2    C3 9767   0.092   0.033  12.795  0.6385  0.3860 -0.2427
  660MPD2    C4 9768   0.216   4.702  12.821 -0.5250  0.2003 -0.4821
  660MPD2    C5 9769   0.321   0.043  12.768 -0.7398  0.1291  0.1892
  660MPD2     H 9770   4.703   0.201  12.727 -0.3884 -0.3946 -1.2442
  660MPD2    H1 9771   0.236   4.610  12.876 -0.6330 -0.3388 -1.3442
  660MPD2    H2 9772   0.392   0.204  12.656 -0.2525 -0.8213 -1.1317
  660MPD2    H3 9773   0.420   4.722  12.781 -0.2522  1.0203 -0.4953
  660MPD2     N 9774   4.703   4.680  12.850 -0.2665  0.5031 -0.3745
  660MPD2    H5 9775   0.006   4.587  12.883  1.7030  0.5479 -1.7323
  660MPD2    N1 9776   0.184   0.355  12.648 -0.0546 -0.6681 -0.3106
  660MPD2    H7 9777   0.272   0.391  12.612 -0.3953 -2.2725 -2.7604
  661TMC3    C1 9778   0.106   0.558  12.581 -0.3765  0.3045  0.3880
  661TMC3    C2 9779   0.152   0.545  12.453 -0.5411 -0.4267 -0.0240
  661TMC3    C3 9780   0.110   0.641  12.359 -0.1932 -0.3368  0.5538
  661TMC3    C4 9781   0.017   0.656  12.611 -0.2377 -0.1722 -0.0717
  661TMC3    C5 9782   4.673   0.719  12.508  0.2762  1.3413 -0.2066
  661TMC3    C6 9783   0.001   0.725  12.382 -0.2481 -0.7288  0.4039
  661TMC3     C 9784   0.088   0.446  12.663 -0.5076  0.4575 -0.8885
  661TMC3     O 9785   4.708   0.441  12.733  0.0581 -0.3985  0.0347
  661TMC3     H 9786   0.223   0.467  12.428  0.8416  0.3864  1.3893
  661TMC3    H1 9787   4.699   0.671  12.711 -1.8622  1.2321 -0.9311
  661TMC3    H2 9788   4.691   0.799  12.310  0.2449  0.1993  1.1439
  661TMC3    C7 9789   4.526   0.713  12.534  0.2313  0.1188 -0.3369
  661TMC3    C8 9790   0.158   0.621  12.226 -0.0928 -0.5762  0.8001
  661TMC3    O1 9791   4.485   0.743  12.646 -0.3461 -0.4392 -0.0232
  661TMC3    O2 9792   0.196   0.515  12.179 -0.0508 -0.4300  0.3567
  662MPD2     C 9793   0.056   0.174  17.331 -0.4086  0.4010  0.1246
  662MPD2    C1 9794   4.721   0.087  17.430 -0.1214 -0.1442  0.0550
  662MPD2    C2 9795   4.620   0.135  17.506 -0.5876 -0.4814 -0.1465
  662MPD2    C3 9796   4.572   0.261  17.499 -0.4272 -0.0200 -0.0047
  662MPD2    C4 9797   4.626   0.344  17.404  0.0910 -0.7628 -0.7988
  662MPD2    C5 9798   0.005   0.304  17.323  0.1826  0.1176 -0.7172
  662MPD2     H 9799   4.573   0.059  17.568 -2.9008 -0.0416 -1.3622
  662MPD2    H1 9800   4.603   0.450  17.397  2.2372 -0.3310 -1.4326
  662MPD2    H2 9801   0.140   0.141  17.272 -2.0555 -0.5061 -1.7246
  662MPD2    H3 9802   0.040   0.381  17.255  1.3228 -1.0227 -1.4184
  662MPD2     N 9803   4.457   0.309  17.569 -0.0578 -0.0315 -0.0882
  662MPD2    H5 9804   4.421   0.396  17.531  1.1790  0.2760 -0.5534
  662MPD2    N1 9805   0.042   4.676  17.454 -0.0360  0.2385 -0.0495
  662MPD2    H7 9806   0.007   4.622  17.533  0.0704 -1.3730 -1.0872
  663TMC3    C1 9807   0.181   4.485  17.437 -1.1009  0.1461 -0.3317
  663TMC3    C2 9808   0.163   4.476  17.568  0.8576  0.0301  0.1366
  663TMC3    C3 9809   0.154   4.356  17.635  0.0830 -0.4059 -0.1261
  663TMC3    C4 9810   0.211   4.385  17.355  0.0388 -0.7249  0.0355
  663TMC3    C5 9811   0.210   4.265  17.419  0.4760 -0.1153  0.0434
  663TMC3    C6 9812   0.181   4.247  17.558  0.0846  0.0177  0.5998
  663TMC3     C 9813   0.131   4.613  17.379  0.5624  0.5721 -0.1710
  663TMC3     O 9814   0.171   4.637  17.264 -0.5664  0.5787  0.4402
  663TMC3     H 9815   0.178   4.570  17.620 -2.9651  1.6255 -1.6239
  663TMC3    H1 9816   0.220   4.402  17.249 -0.9492 -0.6365 -0.0256
  663TMC3    H2 9817   0.156   4.156  17.612  0.3850 -0.1358  0.4815
  663TMC3    C7 9818   0.196   4.151  17.333  0.1950 -0.2821  0.0641
  663TMC3    C8 9819   0.223   4.341   0.076  0.8561 -0.2351  0.1078
  663TMC3    O1 9820   0.180   4.183  17.214  0.1487 -0.0230  0.5938
  663TMC3    O2 9821   0.287   4.237   0.088 -0.3724  0.4554  0.1964
  664MPD2     C 9822   2.560   2.879  17.261 -0.0864 -0.0523 -0.7954
  664MPD2    C1 9823   2.670   2.950  17.313 -0.8265  0.1241  0.4969
  664MPD2    C2 9824   2.706   2.945  17.444 -0.4352  0.4268 -0.1543
  664MPD2    C3 9825   2.642   2.853  17.524 -0.4044 -0.0047  0.1205
  664MPD2    C4 9826   2.536   2.783  17.478  0.2636  0.4233  0.1312
  664MPD2    C5 9827   2.501   2.787  17.344 -0.0806 -0.3696 -0.4428
  664MPD2     H 9828   2.779   3.011  17.488  0.0075 -0.2248  0.0737
  664MPD2    H1 9829   2.481   2.705  17.531 -1.3437  1.9775  0.7412
  664MPD2    H2 9830   2.523   2.872  17.159 -1.1171 -1.9048 -0.2942
  664MPD2    H3 9831   2.417   2.735  17.300 -0.5250 -0.0458  0.0204
  664MPD2     N 9832   2.675   2.855  17.663  0.0740  0.2152  0.2534
  664MPD2    H5 9833   2.757   2.908   0.000  0.9595 -1.1406  0.2415
  664MPD2    N1 9834   2.749   3.029  17.232  0.0623 -0.0208  0.2880
  664MPD2    H7 9835   2.829   3.079  17.270 -0.9701  0.6079  1.6037
  665TMC3    C1 9836   2.623   2.851   0.206  1.0924  0.3248 -0.5650
  665TMC3    C2 9837   2.578   2.780   0.313  0.3998 -0.0226  0.5302
  665TMC3    C3 9838   2.605   2.837   0.439  0.4701  0.5431 -0.5027
  665TMC3    C4 9839   2.681   2.971   0.222  0.4545  0.2640  0.0020
  665TMC3    C5 9840   2.685   3.034   0.348 -0.2143 -0.3104 -0.7714
  665TMC3    C6 9841   2.660   2.963   0.458 -0.2734 -0.4975  0.0692
  665TMC3     C 9842   2.592   2.803   0.074 -0.1204  0.1613  0.4950
  665TMC3     O 9843   2.506   2.717   0.072  0.3329 -0.5080  0.3189
  665TMC3     H 9844   2.536   2.682   0.297 -0.9320  1.0513 -2.6894
  665TMC3    H1 9845   2.696   3.037   0.138  2.0387 -1.5463 -1.1227
  665TMC3    H2 9846   2.684   3.002   0.557  1.2719 -2.6359  0.5460
  665TMC3    C7 9847   2.738   3.170   0.355 -0.1677 -0.2157 -0.0752
  665TMC3    C8 9848   2.527   2.775   0.548 -0.4026 -0.1562  0.3550
  665TMC3    O1 9849   2.783   3.211   0.249  0.0478  0.4528  0.4234
  665TMC3    O2 9850   2.505   2.656   0.544  0.1558 -0.3362  0.5216
  666TMC3    C1 9851   3.216   2.293   9.806 -0.0648  0.3308 -0.4102
  666TMC3    C2 9852   3.296   2.248   9.906  0.3188  0.5462 -0.4928
  666TMC3    C3 9853   3.402   2.326   9.953  0.2964  0.2299  0.2293
  666TMC3    C4 9854   3.238   2.413   9.749  0.5230 -0.0131  0.5605
  666TMC3    C5 9855   3.350   2.487   9.789  0.0561  0.2974 -0.0962
  666TMC3    C6 9856   3.442   2.441   9.881  0.1211  0.1403  0.1755
  666TMC3     C 9857   3.086   2.231   9.791 -0.7500  0.0156  0.2580
  666TMC3     O 9858   3.034   2.223   9.682 -0.5083 -0.0206 -0.1770
  666TMC3     H 9859   3.277   2.152   9.954  0.0961  0.1276 -1.4134
  666TMC3    H1 9860   3.174   2.465   9.679  2.8072  1.2939 -0.5802
  666TMC3    H2 9861   3.525   2.504   9.913  2.4514 -1.0460 -3.4412
  666TMC3    C7 9862   3.361   2.625   9.770  0.6576 -0.8406  0.1666
  666TMC3    C8 9863   3.371   2.351  10.093 -0.7691 -0.0330  0.0638
  666TMC3    O1 9864   3.472   2.672   9.758 -0.7604  0.1139 -0.1356
  666TMC3    O2 9865   3.287   2.281  10.142 -0.3441  0.8382 -0.2086
  667MPD2     C 9866   3.978   3.081  14.972  0.1665 -0.8766 -0.1530
  667MPD2    C1 9867   3.988   3.014  15.093 -0.9635 -0.2028 -1.2354
  667MPD2    C2 9868   3.931   2.888  15.097  0.4192  0.0672 -0.0904
  667MPD2    C3 9869   3.868   2.835  14.986  0.1455  0.3279  0.4018
  667MPD2    C4 9870   3.867   2.898  14.868  0.3211  0.7749  0.6019
  667MPD2    C5 9871   3.922   3.023  14.862  0.6587  0.2211  0.3169
  667MPD2     H 9872   3.928   2.827  15.187  0.3569  1.0269  0.5515
  667MPD2    H1 9873   3.818   2.858  14.780  1.5543 -1.1182  0.7964
  667MPD2    H2 9874   4.017   3.179  14.948 -1.1803 -0.2566  0.2331
  667MPD2    H3 9875   3.911   3.085  14.773  1.4331 -0.3905 -0.2042
  667MPD2     N 9876   3.811   2.706  14.986  0.2272  0.0245  0.2714
  667MPD2    H5 9877   3.791   2.678  14.890  1.4129 -0.8407  0.2750
  667MPD2    N1 9878   4.041   3.069  15.210 -0.4995 -0.6032 -0.0481
  667MPD2    H7 9879   4.049   3.013  15.293  0.5112 -2.5273 -1.4484
  668TMC3    C1 9880   4.114   3.239  15.356  0.2510 -0.1211  0.3326
  668TMC3    C2 9881   4.192   3.347  15.368 -0.0270  0.8094  0.3994
  668TMC3    C3 9882   4.166   3.444  15.449 -0.2558 -0.5491 -0.7881
  668TMC3    C4 9883   4.006   3.224  15.438  0.5157 -0.8427  0.2822
  668TMC3    C5 9884   3.980   3.330  15.520  0.1163  0.9050  0.1115
  668TMC3    C6 9885   4.053   3.442  15.530 -0.2970 -0.1846  0.6277
  668TMC3     C 9886   4.096   3.197  15.218  0.1419  0.9548  0.5647
  668TMC3     O 9887   4.095   3.286  15.133 -0.7369 -0.7399 -0.4178
  668TMC3     H 9888   4.277   3.353  15.300  0.2477  1.2430  0.7809
  668TMC3    H1 9889   3.948   3.132  15.432 -1.3455  0.3248  0.2914
  668TMC3    H2 9890   4.027   3.532  15.584 -0.8027 -0.0833  0.2119
  668TMC3    C7 9891   3.858   3.342  15.598  0.4375  0.7671  0.4367
  668TMC3    C8 9892   4.196   3.579  15.405 -0.2739 -0.5281 -0.1448
  668TMC3    O1 9893   3.852   3.426  15.687  0.2950 -0.3316 -0.2441
  668TMC3    O2 9894   4.193   3.665  15.491  0.4735  0.2993 -0.1664
  669TMC3    C1 9895   1.801   3.089  14.482  0.3140 -0.0667 -0.2376
  669TMC3    C2 9896   1.693   3.127  14.403 -0.0896 -0.3742 -0.0874
  669TMC3    C3 9897   1.710   3.209  14.298  0.7231 -0.9588  0.7985
  669TMC3    C4 9898   1.917   3.148  14.462 -0.1610 -0.4682  0.5827
  669TMC3    C5 9899   1.934   3.236  14.363  0.3974 -0.0456  0.0338
  669TMC3    C6 9900   1.831   3.269  14.278 -0.3917 -0.7958  0.0846
  669TMC3     C 9901   1.787   3.016  14.612 -0.3055  0.6427  1.0589
  669TMC3     O 9902   1.676   2.998  14.661  0.2544 -0.4124  0.0897
  669TMC3     H 9903   1.599   3.074  14.404 -0.6400  0.5999 -0.3614
  669TMC3    H1 9904   1.992   3.142  14.540 -0.0798 -0.6462  0.4907
  669TMC3    H2 9905   1.837   3.348  14.204  0.6959 -1.0824 -0.1248
  669TMC3    C7 9906   2.060   3.308  14.363 -0.2052 -0.5961  0.1888
  669TMC3    C8 9907   1.604   3.232  14.203  0.1068 -0.4497 -1.0138
  669TMC3    O1 9908   2.079   3.410  14.299 -0.3217  0.5673 -0.2063
  669TMC3    O2 9909   1.634   3.251  14.086  0.0720  0.2342 -0.0409
  670MPD2     C 9910   0.038   1.301  12.966  0.5451  0.1171 -0.5038
  670MPD2    C1 9911   0.143   1.329  13.054 -0.1898 -0.8426 -0.2985
  670MPD2    C2 9912   0.157   1.260  13.172  0.1159 -0.2702 -0.1294
  670MPD2    C3 9913   0.068   1.158  13.202 -0.7649  0.1057  0.5851
  670MPD2    C4 9914   4.690   1.128  13.112 -0.5099  0.2128  0.2177
  670MPD2    C5 9915   4.668   1.210  13.002 -0.0188  0.3224  0.4942
  670MPD2     H 9916   0.241   1.282  13.238  1.6051  0.7293 -2.3785
  670MPD2    H1 9917   4.610   1.062  13.142  1.8914 -2.9360 -0.2434
  670MPD2    H2 9918   0.010   1.361  12.880  0.4903  0.3930 -0.2938
  670MPD2    H3 9919   4.574   1.200  12.949  0.4253  0.2359 -0.2786
  670MPD2     N 9920   0.095   1.087  13.322 -0.1910 -0.3934  0.2438
  670MPD2    H5 9921   0.182   1.115  13.366  0.6676 -0.0997 -1.6430
  670MPD2    N1 9922   0.232   1.435  13.034  0.2515  0.2342 -0.1783
  670MPD2    H7 9923   0.297   1.442  13.111 -0.9829 -1.0115  0.9845
  671TMC3    C1 9924   0.061   0.921  13.491  0.2173  0.0840  0.4139
  671TMC3    C2 9925   0.196   0.930  13.528 -0.5609 -0.4858 -0.3879
  671TMC3    C3 9926   0.222   0.880  13.654  0.5475 -0.1937  0.7891
  671TMC3    C4 9927   4.685   0.874  13.576  0.2679 -0.0421  0.5565
  671TMC3    C5 9928   4.717   0.851  13.705 -0.4584  0.5390 -0.2991
  671TMC3    C6 9929   0.125   0.859  13.749  0.8539 -0.2571 -0.8450
  671TMC3     C 9930   0.020   0.972  13.360 -0.2498  0.2994 -0.1518
  671TMC3     O 9931   4.630   0.932  13.317  0.6154 -0.6984  1.1619
  671TMC3     H 9932   0.278   0.913  13.460 -1.5638 -1.6541 -1.3155
  671TMC3    H1 9933   4.583   0.882  13.538  0.6417  0.5776 -0.3150
  671TMC3    H2 9934   0.156   0.825  13.846 -1.1721  0.1566 -0.0556
  671TMC3    C7 9935   4.617   0.786  13.798  0.0767 -0.3897 -0.0233
  671TMC3    C8 9936   0.318   0.776  13.663 -0.1615  0.0894  0.6656
  671TMC3    O1 9937   4.510   0.749  13.752  0.4239 -0.1105 -0.4954
  671TMC3    O2 9938   0.277   0.677  13.717  0.7267  0.0585  0.1144
  672MPD2     C 9939   0.163   0.853   0.780  0.0570  0.3054 -0.1732
  672MPD2    C1 9940   0.288   0.903   0.769  1.1845 -0.5280  0.1976
  672MPD2    C2 9941   0.349   0.958   0.878  0.0247 -0.6040  0.4305
  672MPD2    C3 9942   0.291   0.971   1.002  0.6789  0.6779  0.0108
  672MPD2    C4 9943   0.161   0.925   1.012  0.3958 -0.6856  0.4288
  672MPD2    C5 9944   0.101   0.863   0.901  0.9452 -0.0437  0.1040
  672MPD2     H 9945   0.451   0.992   0.868  0.1375 -1.1261 -0.2053
  672MPD2    H1 9946   0.100   0.945   1.100 -0.3923  0.0381 -0.2705
  672MPD2    H2 9947   0.114   0.807   0.695 -0.9663 -1.7799  1.5667
  672MPD2    H3 9948   4.721   0.824   0.907  0.6259  0.5842 -1.2860
  672MPD2     N 9949   0.347   1.043   1.112  0.2073  0.2873 -0.4083
  672MPD2    H5 9950   0.289   1.073   1.191  2.8755  1.5561  1.0696
  672MPD2    N1 9951   0.365   0.915   0.653 -0.4914  0.3587  0.0004
  672MPD2    H7 9952   0.458   0.951   0.669 -0.1581  0.3004 -1.9091
  673TMC3    C1 9953   0.445   0.848   0.441 -0.7840 -0.0887  0.8628
  673TMC3    C2 9954   0.475   0.726   0.387  0.5870  0.1532 -0.4201
  673TMC3    C3 9955   0.605   0.710   0.342  0.0412  0.1169 -0.1131
  673TMC3    C4 9956   0.536   0.955   0.443 -0.1383 -0.2972 -0.1462
  673TMC3    C5 9957   0.664   0.934   0.399 -0.3199  0.5328  0.1678
  673TMC3    C6 9958   0.696   0.815   0.338 -0.1203  0.0101 -0.0657
  673TMC3     C 9959   0.333   0.868   0.528  0.5141 -0.2350 -0.4375
  673TMC3     O 9960   0.235   0.806   0.487 -0.3466 -0.0710 -0.1955
  673TMC3     H 9961   0.406   0.643   0.398  0.1819  0.5630  0.1358
  673TMC3    H1 9962   0.507   1.053   0.481 -0.1314 -0.3120 -0.1028
  673TMC3    H2 9963   0.797   0.790   0.309  0.4085 -0.0274  1.8528
  673TMC3    C7 9964   0.754   1.045   0.379  0.2872  0.1744  0.1335
  673TMC3    C8 9965   0.666   0.584   0.375  0.1514 -0.6208 -0.3679
  673TMC3    O1 9966   0.838   1.017   0.291  0.0441 -0.1840  0.6650
  673TMC3    O2 9967   0.616   0.481   0.335  0.3364  0.7092  0.2163
  674MPD2     C 9968   0.492   1.084   0.127  0.4642 -0.0437  0.4733
  674MPD2    C1 9969   0.398   0.984   0.132  0.3358  0.2509 -0.2692
  674MPD2    C2 9970   0.290   1.007   0.212 -0.0028 -0.1520  0.3661
  674MPD2    C3 9971   0.276   1.113   0.297 -0.3492 -0.0262  0.6468
  674MPD2    C4 9972   0.369   1.213   0.290 -0.5547 -0.0415 -0.0123
  674MPD2    C5 9973   0.473   1.197   0.206 -0.6878 -0.3229 -0.0613
  674MPD2     H 9974   0.207   0.937   0.205  0.8976 -1.2994  1.0867
  674MPD2    H1 9975   0.369   1.307   0.345 -0.3505 -0.2600  0.3591
  674MPD2    H2 9976   0.585   1.069   0.073 -0.7354  1.8110 -2.0655
  674MPD2    H3 9977   0.543   1.280   0.205 -2.3801  1.0888  0.2247
  674MPD2     N 9978   0.160   1.121   0.379  0.5223 -0.1593  0.2433
  674MPD2    H5 9979   0.090   1.048   0.367 -0.1632  0.2944  1.5438
  674MPD2    N1 9980   0.396   0.870   0.049 -0.0479 -0.4487 -0.3290
  674MPD2    H7 9981   0.313   0.812   0.048 -1.6500  1.8583 -0.0564
  675TMC3    C1 9982   0.485   0.722  17.570  0.1557  0.1599  0.0882
  675TMC3    C2 9983   0.362   0.665  17.567  0.8380 -0.4498 -0.4062
  675TMC3    C3 9984   0.347   0.528  17.568 -0.2447  0.0603  0.1181
  675TMC3    C4 9985   0.598   0.644  17.548 -0.0768  0.0976 -0.3078
  675TMC3    C5 9986   0.584   0.514  17.560  0.1925 -0.0712  0.6898
  675TMC3    C6 9987   0.459   0.451  17.579  0.2832 -1.0594 -0.3945
  675TMC3     C 9988   0.503   0.840  17.655 -0.3422 -0.1343  0.8791
  675TMC3     O 9989   0.617   0.884  17.661 -0.4475  0.2964  0.1366
  675TMC3     H 9990   0.277   0.732  17.560  1.4029  0.5126  2.1522
  675TMC3    H1 9991   0.697   0.687  17.536  0.4308 -0.4147  2.1817
  675TMC3    H2 9992   0.454   0.343  17.592 -0.2337 -1.0394 -0.4204
  675TMC3    C7 9993   0.668   0.435  17.476 -0.3834 -0.0776 -0.3139
  675TMC3    C8 9994   0.218   0.489  17.617  0.2432 -0.1166 -0.2075
  675TMC3    O1 9995   0.711   0.488  17.374  0.0176  0.1792  0.0379
  675TMC3    O2 9996   0.118   0.529  17.559  0.1442  0.1130 -0.8117
  676MPD2     C 9997   3.260   4.019  11.070 -0.1499  0.6665  0.3948
  676MPD2    C1 9998   3.196   3.920  11.140 -0.5871  0.0737 -0.2861
  676MPD2    C2 9999   3.209   3.789  11.108 -0.1937  0.2945  0.0789
  676MPD2    C310000   3.291   3.753  11.000 -0.4121 -0.0316  0.0219
  676MPD2    C410001   3.371   3.849  10.939 -0.0090 -0.1778 -0.0656
  676MPD2    C510002   3.353   3.980  10.974 -0.5707 -0.5522 -0.2908
  676MPD2     H10003   3.139   3.720  11.153  0.5510  0.3137  1.2722
  676MPD2    H110004   3.423   3.829  10.846  0.2754 -0.4503  0.1540
  676MPD2    H210005   3.247   4.125  11.093 -4.0506 -0.0367  1.5079
  676MPD2    H310006   3.407   4.051  10.912  2.0648 -0.8243  1.6720
  676MPD2     N10007   3.299   3.627  10.946  0.2797  0.0124  0.1109
  676MPD2    H510008   3.345   3.612  10.856 -0.1265 -0.6192  0.0073
  676MPD2    N110009   3.105   3.943  11.244 -0.4231  0.5976 -0.8798
  676MPD2    H710010   3.053   3.863  11.279  0.3841  0.6319  0.4026
  677TMC3    C110011   2.959   4.073  11.381  0.3881  0.2625  0.1774
  677TMC3    C210012   2.866   3.970  11.379 -0.0616 -0.2944 -0.4725
  677TMC3    C310013   2.798   3.943  11.493 -0.0838  0.4250  0.0858
  677TMC3    C410014   2.978   4.150  11.492 -1.2635 -0.7469 -1.0320
  677TMC3    C510015   2.889   4.123  11.600  0.3299 -0.0376 -0.1443
  677TMC3    C610016   2.793   4.032  11.594  0.3968  0.2189  0.2411
  677TMC3     C10017   3.081   4.065  11.299 -0.0867  0.1524 -0.2419
  677TMC3     O10018   3.146   4.168  11.305 -0.4028 -0.4181 -0.5655
  677TMC3     H10019   2.850   3.898  11.300 -2.3606  0.5042 -0.7368
  677TMC3    H110020   3.047   4.233  11.487  0.4968 -2.1488 -0.2111
  677TMC3    H210021   2.731   4.008  11.679  0.1382  0.3464  0.0891
  677TMC3    C710022   2.904   4.195  11.722  0.5707 -0.8215  0.0396
  677TMC3    C810023   2.721   3.816  11.498 -0.9541 -0.4058 -0.3906
  677TMC3    O110024   2.855   4.152  11.824  0.0384 -0.0173 -0.1689
  677TMC3    O210025   2.671   3.784  11.390 -0.4499 -0.1458  0.1814
  678MPD2     C10026   3.707   4.295   1.448 -0.2873 -0.0199  0.0906
  678MPD2    C110027   3.749   4.191   1.372 -0.7795 -0.0548  0.3711
  678MPD2    C210028   3.657   4.113   1.309  1.0867 -0.0311  0.1451
  678MPD2    C310029   3.519   4.138   1.317 -0.8108  0.4340 -0.1252
  678MPD2    C410030   3.484   4.250   1.393 -0.4811 -0.1463 -1.1774
  678MPD2    C510031   3.575   4.316   1.462 -0.9764 -0.8041  0.3200
  678MPD2     H10032   3.702   4.032   1.253  0.1182 -0.7447  0.3917
  678MPD2    H110033   3.379   4.274   1.405 -0.2497  0.3060 -0.0279
  678MPD2    H210034   3.769   4.364   1.503  0.8722 -2.4894  1.8417
  678MPD2    H310035   3.530   4.392   1.525  1.4383  2.0353 -1.4258
  678MPD2     N10036   3.424   4.046   1.265  0.2400  0.6261  0.2531
  678MPD2    H510037   3.457   3.961   1.220 -0.1661  0.4939  0.2102
  678MPD2    N110038   3.881   4.161   1.349  0.1359  0.0997 -0.3775
  678MPD2    H710039   3.903   4.079   1.294 -0.2132 -0.6265  0.5612
  679TMC3    C110040   4.268   4.008   1.354 -0.0947 -0.0459  0.4744
  679TMC3    C210041   4.136   4.051   1.354  0.1561  0.2449  0.5267
  679TMC3    C310042   4.115   4.187   1.365 -0.1718  0.5216 -0.5298
  679TMC3    C410043   4.372   4.094   1.335 -0.1970 -0.3206 -0.0265
  679TMC3    C510044   4.344   4.232   1.335 -0.2080 -0.6453 -0.1924
  679TMC3    C610045   4.216   4.276   1.354 -0.6408 -0.8101 -0.3866
  679TMC3     C10046   4.301   3.882   1.402  0.0134  0.3594  0.0241
  679TMC3     O10047   4.229   3.787   1.389 -0.1296  0.0358  0.3547
  679TMC3     H10048   4.054   3.981   1.359  1.3716 -1.1261  1.2153
  679TMC3    H110049   4.472   4.061   1.312  0.4998  0.0422  2.5248
  679TMC3    H210050   4.190   4.381   1.356  1.5142 -0.2344 -2.7560
  679TMC3    C710051   4.441   4.336   1.301  0.4804  0.2810 -0.3216
  679TMC3    C810052   3.984   4.242   1.397  0.0354 -0.4069  0.3025
  679TMC3    O110053   4.398   4.452   1.289 -0.2345 -0.2043 -0.5343
  679TMC3    O210054   3.985   4.341   1.475  0.2865  0.4897 -0.2255
  680MPD2     C10055   0.522   2.363  14.150  0.1229  0.3064 -0.2011
  680MPD2    C110056   0.519   2.414  14.018  1.2598 -0.8528 -0.8158
  680MPD2    C210057   0.509   2.548  14.001  0.0368 -0.5099 -0.6810
  680MPD2    C310058   0.523   2.635  14.109 -0.2641 -0.5267 -0.1807
  680MPD2    C410059   0.532   2.575  14.231  0.8165  0.3214  0.2013
  680MPD2    C510060   0.527   2.445  14.256 -0.0855  0.2653 -0.3708
  680MPD2     H10061   0.507   2.590  13.901 -1.1505  0.7771 -0.1163
  680MPD2    H110062   0.513   2.629  14.323  0.6647 -1.4380  1.1955
  680MPD2    H210063   0.528   2.257  14.169  2.8267  0.5676  0.4162
  680MPD2    H310064   0.517   2.407  14.357 -2.5557  1.1120 -0.3071
  680MPD2     N10065   0.522   2.777  14.103 -0.0041 -0.6656 -0.5211
  680MPD2    H510066   0.494   2.825  14.188  1.6811 -2.6181  1.1448
  680MPD2    N110067   0.524   2.332  13.905 -0.1398  0.7270  0.5606
  680MPD2    H710068   0.521   2.374  13.813 -0.0549 -1.2337 -0.3417
  681TMC3    C110069   0.486   2.158  13.767 -0.7264  0.5029  0.4118
  681TMC3    C210070   0.351   2.148  13.727 -0.6002  0.3877  0.1150
  681TMC3    C310071   0.311   2.212  13.607 -0.3699  0.1966 -0.5240
  681TMC3    C410072   0.580   2.213  13.681  0.2002  0.4521  0.7111
  681TMC3    C510073   0.538   2.252  13.557 -0.3157 -0.6225 -0.1402
  681TMC3    C610074   0.408   2.252  13.515  0.5406 -0.6267  0.1389
  681TMC3     C10075   0.503   2.196  13.905  0.3111  0.4239  0.2870
  681TMC3     O10076   0.470   2.118  13.993 -1.0866  0.0959 -0.6522
  681TMC3     H10077   0.281   2.097  13.792  0.7866  0.1384  1.4139
  681TMC3    H110078   0.683   2.222  13.712  0.4873 -2.6655  0.6987
  681TMC3    H210079   0.386   2.279  13.412  3.6511  0.3896 -0.2400
  681TMC3    C710080   0.641   2.235  13.458  0.2798 -0.0135 -0.1064
  681TMC3    C810081   0.171   2.216  13.568 -0.8500  0.1578  0.2720
  681TMC3    O110082   0.721   2.144  13.478 -0.2327 -0.0956  0.0257
  681TMC3    O210083   0.143   2.229  13.449 -0.6261 -0.0815  0.2359
  682MPD2     C10084   2.817   3.755  10.448 -0.9077  0.6630 -0.6099
  682MPD2    C110085   2.738   3.643  10.478 -0.5566 -0.5765 -0.5566
  682MPD2    C210086   2.656   3.655  10.586 -0.4792  0.2583 -0.1371
  682MPD2    C310087   2.650   3.765  10.663 -0.1088 -0.1178  0.3626
  682MPD2    C410088   2.724   3.871  10.635  0.2743  0.4258 -0.5178
  682MPD2    C510089   2.804   3.867  10.523 -0.0132 -0.0477 -0.3207
  682MPD2     H10090   2.592   3.570  10.610  0.1990 -0.1853  0.0887
  682MPD2    H110091   2.710   3.963  10.690  0.1457 -0.0904  0.3064
  682MPD2    H210092   2.888   3.761  10.365 -0.1762  1.2614  0.0599
  682MPD2    H310093   2.857   3.959  10.499  1.6481 -0.5083  1.5388
  682MPD2     N10094   2.560   3.773  10.768  0.5397 -0.2874  0.6371
  682MPD2    H510095   2.565   3.861  10.819 -0.1219 -0.0222  0.2434
  682MPD2    N110096   2.742   3.521  10.412  0.2666 -0.1380 -0.0696
  682MPD2    H710097   2.659   3.467  10.432  1.0974 -2.2034 -2.1725
  683TMC3    C110098   2.286   3.909  11.038 -0.1050 -0.3016 -0.4668
  683TMC3    C210099   2.200   3.823  11.103  0.6582 -0.2834 -0.2001
  683TMC3    C310100   2.208   3.692  11.064  0.4934 -0.4061  0.1621
  683TMC3    C410101   2.380   3.868  10.952 -0.6376 -0.1850 -0.1192
  683TMC3    C510102   2.381   3.734  10.916 -0.4733 -0.1980  0.0069
  683TMC3    C610103   2.290   3.644  10.970  0.1428 -0.7315 -0.1633
  683TMC3     C10104   2.275   4.050  11.081  0.8056 -0.0975  0.0669
  683TMC3     O10105   2.230   4.065  11.195  0.5334  0.1750  0.2085
  683TMC3     H10106   2.124   3.865  11.169  0.9067 -1.3679  0.7678
  683TMC3    H110107   2.452   3.939  10.913 -0.3673 -0.6623 -0.4839
  683TMC3    H210108   2.283   3.543  10.932  1.5526 -0.6628 -0.5905
  683TMC3    C710109   2.463   3.683  10.812 -0.5098  0.2847  0.1694
  683TMC3    C810110   2.093   3.609  11.109 -0.0712 -0.2603 -0.1367
  683TMC3    O110111   2.454   3.565  10.785 -0.5047 -0.2528 -0.1015
  683TMC3    O210112   2.002   3.668  11.162  0.4571  0.0423 -0.1835
  684MPD2     C10113   4.568   3.405  16.634 -0.6148 -0.6359  0.2374
  684MPD2    C110114   4.532   3.468  16.516  0.1502 -0.8779 -0.6208
  684MPD2    C210115   4.518   3.602  16.509  0.0250  0.3034 -0.1635
  684MPD2    C310116   4.560   3.674  16.621 -0.4510 -0.3637 -0.2822
  684MPD2    C410117   4.605   3.618  16.747 -0.0163 -0.0766  0.7162
  684MPD2    C510118   4.603   3.479  16.741  1.0326  0.1365  0.2700
  684MPD2     H10119   4.482   3.654  16.421 -0.5865 -1.6546 -1.0593
  684MPD2    H110120   4.632   3.669  16.838  0.8351 -1.8996  1.4869
  684MPD2    H210121   4.589   3.301  16.652 -2.3243 -1.2066 -0.9645
  684MPD2    H310122   4.638   3.434  16.833  0.9318 -0.5017 -0.0035
  684MPD2     N10123   4.560   3.814  16.621  0.1298  0.3325  0.2235
  684MPD2    H510124   4.598   3.864  16.700  1.2903 -3.3756  1.9899
  684MPD2    N110125   4.526   3.392  16.397 -0.3350  0.3357  0.0294
  684MPD2    H710126   4.496   3.447  16.317 -2.2275  0.8393  1.1022
  685TMC3    C110127   4.628   3.259  16.240 -0.3161  0.4820 -0.0703
  685TMC3    C210128   4.559   3.327  16.144 -0.1720  0.0382  0.1488
  685TMC3    C310129   4.617   3.348  16.023 -0.0942 -0.5629 -0.1035
  685TMC3    C410130   0.021   3.197  16.217 -0.2350  0.2496  0.0249
  685TMC3    C510131   0.084   3.239  16.099  0.2077  0.1566  0.0158
  685TMC3    C610132   0.026   3.317  16.005  0.4501 -0.3084 -0.4107
  685TMC3     C10133   4.580   3.269  16.379  0.8794  0.9752  0.3467
  685TMC3     O10134   4.634   3.191  16.457 -0.0270  0.0580  0.4884
  685TMC3     H10135   4.456   3.356  16.160 -1.2098 -2.2331 -2.3023
  685TMC3    H110136   0.074   3.138  16.291 -0.2487  0.1807 -0.0199
  685TMC3    H210137   0.070   3.341  15.910 -2.2802 -1.0950 -1.8745
  685TMC3    C710138   0.223   3.211  16.073 -0.0029  0.5351  0.0572
  685TMC3    C810139   4.570   3.460  15.939 -0.0553  0.1859 -0.3317
  685TMC3    O110140   0.274   3.241  15.968 -0.0970  0.4678 -0.0870
  685TMC3    O210141   4.661   3.534  15.901 -0.2401 -0.6430 -0.2358
  686MPD2     C10142   1.729   3.735  15.961  0.2733 -0.0766  0.2045
  686MPD2    C110143   1.733   3.605  16.019  0.5527  0.3279  0.5101
  686MPD2    C210144   1.851   3.534  16.005 -1.0023 -0.0412  0.0157
  686MPD2    C310145   1.938   3.570  15.901  0.8979 -0.4679 -0.5191
  686MPD2    C410146   1.920   3.687  15.825 -0.9239 -0.6142 -0.2184
  686MPD2    C510147   1.816   3.771  15.858  1.2698 -0.1254  0.7427
  686MPD2     H10148   1.869   3.434  16.042 -2.2423 -1.0858 -2.2089
  686MPD2    H110149   1.993   3.706  15.747 -0.2871 -0.0880  0.5090
  686MPD2    H210150   1.643   3.798  15.981 -0.5432 -1.3928  0.8717
  686MPD2    H310151   1.809   3.868  15.810  0.0037 -2.4561 -3.7676
  686MPD2     N10152   2.049   3.487  15.881 -0.1567 -0.8335  0.1467
  686MPD2    H510153   2.081   3.440  15.965 -0.0300 -0.3629  0.3621
  686MPD2    N110154   1.623   3.565  16.099 -0.6407 -0.4862  0.1798
  686MPD2    H710155   1.536   3.615  16.112 -0.8714 -1.4997  2.6256
  687TMC3    C110156   2.113   3.307  15.784  0.1697 -0.2872 -0.4105
  687TMC3    C210157   1.996   3.234  15.769  0.0649 -0.6008 -0.3239
  687TMC3    C310158   1.966   3.132  15.866  0.1674 -0.2396  0.4653
  687TMC3    C410159   2.203   3.285  15.888 -0.4394  0.0629  0.2937
  687TMC3    C510160   2.168   3.181  15.976 -0.7640  1.0497 -0.9782
  687TMC3    C610161   2.053   3.099  15.967 -0.1590  0.4129  0.3119
  687TMC3     C10162   2.091   3.449  15.761  0.1997 -0.6015  0.7042
  687TMC3     O10163   2.049   3.476  15.648  0.0553  0.7361  0.3435
  687TMC3     H10164   1.933   3.236  15.681  1.4881  0.5985 -1.3130
  687TMC3    H110165   2.279   3.358  15.914 -1.0976  0.9206 -0.2029
  687TMC3    H210166   2.027   3.026  16.043 -0.6612  0.5387  0.2627
  687TMC3    C710167   2.177   3.239  16.109  0.0530 -0.2393 -0.5103
  687TMC3    C810168   1.825   3.107  15.884  0.4062  0.1931  0.3048
  687TMC3    O110169   2.182   3.360  16.119 -0.6653  1.3262  0.5498
  687TMC3    O210170   1.798   2.992  15.918 -0.0365 -0.2397 -0.4240
  688MPD2     C10171   0.658   2.343  17.284  0.1077 -0.0984 -0.1143
  688MPD2    C110172   0.672   2.208  17.297  0.2401 -0.1575 -0.3196
  688MPD2    C210173   0.762   2.141  17.225  0.5477 -0.3227  0.1986
  688MPD2    C310174   0.846   2.208  17.136 -0.1691  0.0811  0.7173
  688MPD2    C410175   0.840   2.347  17.129  0.1864 -0.3349  0.4157
  688MPD2    C510176   0.734   2.413  17.194 -0.6107  0.8751 -0.5846
  688MPD2     H10177   0.764   2.033  17.232 -1.2073 -0.3514  0.1713
  688MPD2    H110178   0.918   2.397  17.074  0.0308  0.5419  0.9955
  688MPD2    H210179   0.572   2.396  17.322 -0.2539 -0.8561  0.1128
  688MPD2    H310180   0.716   2.518  17.173 -0.1337  1.4789  2.0016
  688MPD2     N10181   0.927   2.141  17.042 -0.3513 -0.4422 -0.1834
  688MPD2    H510182   0.975   2.201  16.975  1.3136 -0.8199  0.6873
  688MPD2    N110183   0.587   2.136  17.379  0.4458 -0.3676 -0.1152
  688MPD2    H710184   0.597   2.035  17.376 -0.7062 -0.5199  1.0490
  689TMC3    C110185   0.432   2.083  17.543  0.2722  0.4126 -0.2996
  689TMC3    C210186   0.429   2.123  17.670 -0.3497  0.1125  0.2069
  689TMC3    C310187   0.477   2.045   0.083 -0.9444 -1.1025 -0.5138
  689TMC3    C410188   0.461   1.956  17.511  0.0986  0.7374 -0.3891
  689TMC3    C510189   0.516   1.875  17.611 -0.9401  0.3332  0.2231
  689TMC3    C610190   0.520   1.923   0.049  0.1780  0.5951 -0.2902
  689TMC3     C10191   0.487   2.186  17.457  0.7828  0.2611 -0.0875
  689TMC3     O10192   0.457   2.297  17.488  0.1524 -0.2944  0.1185
  689TMC3     H10193   0.406   2.228  17.687  1.0102  0.3631  0.5039
  689TMC3    H110194   0.459   1.929  17.406  0.9405  0.0972 -0.2361
  689TMC3    H210195   0.549   1.846   0.120  0.9726  3.0982  2.0474
  689TMC3    C710196   0.533   1.732  17.592  0.1432  1.0248 -0.7174
  689TMC3    C810197   0.459   2.082   0.212  0.5350  0.4423 -0.0390
  689TMC3    O110198   0.618   1.681  17.670  0.4502 -0.2176  0.3499
  689TMC3    O210199   0.358   2.145   0.244  0.3350 -0.0443 -0.3476
  690MPD2     C10200   2.907   4.391  15.901  0.0645  0.9028 -0.0129
  690MPD2    C110201   2.912   4.338  15.771 -0.3213 -0.1683 -0.0358
  690MPD2    C210202   3.023   4.371  15.693  0.7501 -0.0460 -0.3885
  690MPD2    C310203   3.122   4.453  15.742  0.4275 -0.5404  0.4642
  690MPD2    C410204   3.113   4.504  15.872 -0.2818 -0.1452  0.0576
  690MPD2    C510205   3.008   4.470  15.949  0.0043  0.4954 -0.2840
  690MPD2     H10206   3.037   4.335  15.591  1.1255  1.4956 -0.8862
  690MPD2    H110207   3.183   4.579  15.905  0.6959 -0.5911 -0.9898
  690MPD2    H210208   2.835   4.364  15.978 -1.7517  1.1450 -1.6230
  690MPD2    H310209   2.996   4.505  16.051  1.2455 -0.7244  0.2781
  690MPD2     N10210   3.224   4.481  15.657  0.1491  0.2491 -1.1934
  690MPD2    H510211   3.213   4.446  15.562  0.7213 -0.9281 -0.8274
  690MPD2    N110212   2.824   4.245  15.718  0.1238  0.3039 -0.4181
  690MPD2    H710213   2.840   4.203  15.627  0.6434  1.6293 -0.9291
  691TMC3    C110214   2.614   4.117  15.712  0.2544  0.3071 -0.4443
  691TMC3    C210215   2.479   4.123  15.737  0.2482 -0.6356 -0.1863
  691TMC3    C310216   2.401   4.019  15.684  0.3122  0.0275  0.4249
  691TMC3    C410217   2.675   4.013  15.647  0.2142  0.1367  0.7092
  691TMC3    C510218   2.599   3.911  15.616 -0.3127  0.0366 -0.1450
  691TMC3    C610219   2.469   3.909  15.630 -0.3257  0.0847  0.5551
  691TMC3     C10220   2.691   4.228  15.768  1.1150 -0.9464 -0.8767
  691TMC3     O10221   2.648   4.287  15.867  0.1699 -0.4942 -0.9202
  691TMC3     H10222   2.441   4.209  15.791 -2.2494 -1.3180 -0.8976
  691TMC3    H110223   2.783   4.009  15.636  0.2370  1.1426  0.5617
  691TMC3    H210224   2.403   3.845  15.572  0.1305 -1.5226  1.8227
  691TMC3    C710225   2.668   3.785  15.597  0.1230  0.9266  0.3229
  691TMC3    C810226   2.271   4.012  15.729 -0.1484 -0.0871  0.3585
  691TMC3    O110227   2.790   3.787  15.576 -0.1593  0.4660 -0.0578
  691TMC3    O210228   2.214   3.903  15.715 -0.3693 -0.2436 -0.2702
  692TMC3    C110229   4.274   0.417  15.893  0.2194  1.2014 -0.0280
  692TMC3    C210230   4.409   0.445  15.873 -0.3870 -0.8030  0.2768
  692TMC3    C310231   4.496   0.338  15.903 -0.2125  0.7586  0.1387
  692TMC3    C410232   4.218   0.296  15.908 -0.5750  0.3856 -0.3139
  692TMC3    C510233   4.308   0.197  15.926  0.1155 -0.2462 -0.2642
  692TMC3    C610234   4.442   0.222  15.945  0.6847 -0.1153  0.1047
  692TMC3     C10235   4.208   0.510  15.985 -0.4371  0.0554 -1.0680
  692TMC3     O10236   4.103   0.464  16.027  0.0335  0.1433 -0.0857
  692TMC3     H10237   4.450   0.544  15.863 -1.2443 -0.2020  2.6545
  692TMC3    H110238   4.111   0.283  15.918 -0.5608  2.1546  2.2471
  692TMC3    H210239   4.514   0.142  15.934  1.3293  0.4225  0.4360
  692TMC3    C710240   4.254   0.068  15.936  0.4065  0.0695  0.9444
  692TMC3    C810241   4.592   0.404  15.986 -0.4953  0.0535 -0.2926
  692TMC3    O110242   4.149   0.059  15.875 -0.2378 -0.3016  0.3796
  692TMC3    O210243   4.643   0.509  15.953 -0.7665  0.3127 -0.0895
  693MPD2     C10244   3.858   3.109  10.570  0.1439  0.5151 -0.5028
  693MPD2    C110245   3.917   2.987  10.553  0.3318 -0.0920  0.0648
  693MPD2    C210246   4.052   2.983  10.521  0.2588  1.6374 -0.4882
  693MPD2    C310247   4.128   3.091  10.512  0.1145  0.5380  0.3883
  693MPD2    C410248   4.064   3.210  10.532 -0.2937 -0.6761  0.2542
  693MPD2    C510249   3.937   3.222  10.577  0.6320  0.4194  0.1336
  693MPD2     H10250   4.100   2.886  10.519 -0.4796  1.3241 -2.9259
  693MPD2    H110251   4.119   3.303  10.526 -2.8922  0.7465 -1.7343
  693MPD2    H210252   3.755   3.117  10.603  0.1258  0.6070 -0.5811
  693MPD2    H310253   3.889   3.315  10.606 -0.3710  0.4330 -1.5646
  693MPD2     N10254   4.265   3.088  10.474 -0.0492 -0.3702  0.1817
  693MPD2    H510255   4.327   3.167  10.489  0.9154 -1.2674  0.9285
  693MPD2    N110256   3.837   2.879  10.569  0.0905  0.2238 -0.5771
  693MPD2    H710257   3.743   2.895  10.603  0.8904  0.6418  1.4269
  694TMC3    C110258   3.795   2.647  10.570  0.1095  0.7683  0.2379
  694TMC3    C210259   3.795   2.538  10.491 -0.9613  0.2112  0.3797
  694TMC3    C310260   3.755   2.422  10.553  0.5815  0.1334 -0.1657
  694TMC3    C410261   3.764   2.655  10.706  0.5803 -0.0577  1.4339
  694TMC3    C510262   3.727   2.542  10.763 -0.7315 -0.0834  0.5411
  694TMC3    C610263   3.726   2.416  10.690 -0.0855 -0.7155 -0.2984
  694TMC3     C10264   3.871   2.755  10.513 -0.4092  0.4213 -0.1224
  694TMC3     O10265   3.947   2.731  10.423  0.4670 -0.1537 -0.7595
  694TMC3     H10266   3.804   2.546  10.383  0.3577 -0.7767  0.4129
  694TMC3    H110267   3.770   2.743  10.769 -0.9271  0.1369  1.2985
  694TMC3    H210268   3.678   2.325  10.722 -1.4569  0.8156  2.0094
  694TMC3    C710269   3.695   2.543  10.906 -0.4707 -0.1961 -0.3927
  694TMC3    C810270   3.723   2.304  10.472 -0.3362 -0.5394  0.3213
  694TMC3    O110271   3.670   2.641  10.973  0.5177 -0.9081  0.1889
  694TMC3    O210272   3.672   2.209  10.531  0.1403 -0.3747  0.7442
  695MPD2     C10273   0.149   4.466  13.877  0.2736 -0.4846  0.8049
  695MPD2    C110274   0.166   4.601  13.875 -0.3038  0.4993 -0.8437
  695MPD2    C210275   0.054   4.677  13.862 -0.1140 -0.4897  0.3323
  695MPD2    C310276   4.652   4.620  13.852  0.0437  0.1796 -0.0933
  695MPD2    C410277   4.633   4.486  13.866 -0.1983 -0.5958 -0.5003
  695MPD2    C510278   0.022   4.408  13.879  0.1632 -1.0236  0.6139
  695MPD2     H10279   0.074   0.062  13.857 -0.0005 -0.7151 -3.5611
  695MPD2    H110280   4.533   4.443  13.867 -0.7734  0.7483 -0.4499
  695MPD2    H210281   0.232   4.399  13.890 -0.4305 -1.7913 -1.5560
  695MPD2    H310282   0.022   4.300  13.888 -0.3368 -1.0173  0.6793
  695MPD2     N10283   4.538   4.705  13.832 -0.0729  0.5359 -0.0677
  695MPD2    H510284   4.555   0.083  13.828  1.5463  0.2741  0.3957
  695MPD2    N110285   0.289   4.666  13.889  0.8659 -0.1789  0.4392
  695MPD2    H710286   0.282   0.045  13.898 -0.0860 -0.3421  1.5506
  696TMC3    C110287   4.326   0.063  13.807  0.1919  0.3074 -0.2286
  696TMC3    C210288   4.318   0.126  13.932  0.0020 -0.0979  0.4787
  696TMC3    C310289   4.244   0.240  13.936 -0.4679  0.0216  0.5120
  696TMC3    C410290   4.276   0.112  13.687  0.1677  0.2337 -0.0790
  696TMC3    C510291   4.188   0.212  13.705  0.2139  0.3014  0.0542
  696TMC3    C610292   4.175   0.280  13.825 -0.1191 -0.1211 -0.2873
  696TMC3     C10293   4.413   4.668  13.795  0.0889  0.3121  0.1758
  696TMC3     O10294   4.377   4.563  13.742  0.4119  0.0026  0.5596
  696TMC3     H10295   4.367   0.095  14.023  3.1166  0.4176 -1.0216
  696TMC3    H110296   4.294   0.067  13.590  1.7880  0.6532  0.0264
  696TMC3    H210297   4.105   0.362  13.831 -2.4578 -2.0903 -0.7040
  696TMC3    C710298   4.163   0.295  13.594  0.0889  0.1522  0.5283
  696TMC3    C810299   4.319   0.358  13.959  0.3293  0.4151 -0.1263
  696TMC3    O110300   4.145   0.243  13.485 -0.0865  0.1669 -0.4028
  696TMC3    O210301   4.279   0.461  13.911  0.2256 -0.5468 -0.3763
  697MPD2     C10302   4.084   1.962  15.813 -0.6743 -0.0179 -0.1045
  697MPD2    C110303   4.053   1.890  15.705  0.1855  0.5717 -0.0741
  697MPD2    C210304   4.047   1.953  15.582 -0.0974  0.4631  0.3618
  697MPD2    C310305   4.087   2.083  15.570  0.0771 -0.2254  0.0502
  697MPD2    C410306   4.124   2.160  15.680  0.3031 -0.9147 -0.2703
  697MPD2    C510307   4.127   2.095  15.800 -0.0247  0.3233 -0.5399
  697MPD2     H10308   4.004   1.897  15.500  1.0017 -0.4694  0.4198
  697MPD2    H110309   4.154   2.264  15.674 -0.0408 -0.8087 -0.1644
  697MPD2    H210310   4.098   1.921  15.913  0.5873 -1.6578 -0.9525
  697MPD2    H310311   4.151   2.151  15.890 -0.5282  1.0084 -0.8273
  697MPD2     N10312   4.081   2.135  15.445  0.5851  0.0212  0.4821
  697MPD2    H510313   4.036   2.070  15.381 -1.6220  1.4958  0.5500
  697MPD2    N110314   4.019   1.751  15.709  0.1311  1.0266 -0.1775
  697MPD2    H710315   4.016   1.701  15.621 -1.7409  0.2551  0.3279
  698TMC3    C110316   4.106   2.277  15.265  0.3588  0.3485  0.1191
  698TMC3    C210317   4.129   2.400  15.219  0.3049 -0.4850  0.2720
  698TMC3    C310318   4.093   2.426  15.090 -0.2394 -0.2692  0.4076
  698TMC3    C410319   4.059   2.173  15.181  0.3303  0.0137  0.7171
  698TMC3    C510320   4.023   2.209  15.057 -0.3651  0.0177 -0.8337
  698TMC3    C610321   4.043   2.331  15.003  0.1785  0.2907 -0.1833
  698TMC3     C10322   4.119   2.260  15.407  0.0299 -0.3695 -0.3477
  698TMC3     O10323   4.163   2.355  15.477  0.1123  0.1339  0.2790
  698TMC3     H10324   4.165   2.483  15.280 -0.4848  1.4133 -1.8528
  698TMC3    H110325   4.060   2.066  15.201 -0.0326  0.0037  0.6779
  698TMC3    H210326   4.012   2.350  14.901 -2.0936  1.9888  0.8049
  698TMC3    C710327   3.949   2.118  14.966 -0.1276 -0.4515  0.0662
  698TMC3    C810328   4.131   2.544  15.026 -0.2506 -0.1289  1.1428
  698TMC3    O110329   3.985   2.124  14.850  0.0829 -0.1079  0.2575
  698TMC3    O210330   4.098   2.575  14.911 -0.8509 -0.7943 -0.1616
  699TMC3    C110331   4.481   4.628  12.926 -0.2660  0.1935 -0.0665
  699TMC3    C210332   4.520   4.514  12.989  0.1530 -0.4449 -0.5665
  699TMC3    C310333   4.427   4.413  13.017 -0.3192 -0.3513  0.2689
  699TMC3    C410334   4.351   4.652  12.904  0.5463 -0.0664 -0.2801
  699TMC3    C510335   4.263   4.559  12.936  0.5950  0.3671 -0.2877
  699TMC3    C610336   4.298   4.437  12.991  0.9604  0.0783 -0.7364
  699TMC3     C10337   4.574   4.722  12.863 -0.0014  0.6840  0.1691
  699TMC3     O10338   4.532   0.114  12.839  0.1835 -0.2799  0.3242
  699TMC3     H10339   4.620   4.520  13.030 -1.6397  2.2867  3.3358
  699TMC3    H110340   4.316   0.021  12.856  0.5243 -0.7454 -1.5477
  699TMC3    H210341   4.223   4.359  13.001 -2.9577  3.8567 -0.2980
  699TMC3    C710342   4.129   4.591  12.971 -0.1737  0.3366  0.1059
  699TMC3    C810343   4.432   4.333  13.137 -0.1317 -0.1607 -0.6359
  699TMC3    O110344   4.084   4.518  13.056  0.2112  0.4055  0.3922
  699TMC3    O210345   4.330   4.277  13.172 -0.6448 -0.1380  0.8758
  700TMC3    C110346   2.946   2.512  17.589  0.3194  0.1467 -0.3777
  700TMC3    C210347   3.015   2.394  17.552 -0.4186 -0.8028  0.1396
  700TMC3    C310348   3.106   2.345  17.637 -0.1645  0.0425 -0.1199
  700TMC3    C410349   2.994   2.585   0.007 -0.8276  0.3323  0.8093
  700TMC3    C510350   3.097   2.531   0.082  0.7832 -0.2797 -0.8663
  700TMC3    C610351   3.148   2.407   0.062 -0.0114 -0.5105 -0.5444
  700TMC3     C10352   2.892   2.579  17.466 -0.0966  0.2410  0.1425
  700TMC3     O10353   2.835   2.507  17.385 -0.0882 -0.1548 -0.2779
  700TMC3     H10354   3.009   2.350  17.453  0.2212  0.4913 -0.4676
  700TMC3    H110355   2.946   2.680   0.026  1.5252  1.7750 -0.4348
  700TMC3    H210356   3.224   2.364   0.126  2.3573  0.0658 -3.0007
  700TMC3    C710357   3.150   2.614   0.191 -0.0670  1.0645  0.0059
  700TMC3    C810358   3.166   2.218  17.593 -0.1320 -0.2951  0.6673
  700TMC3    O110359   3.258   2.579   0.239  0.6637  0.2406  0.3670
  700TMC3    O210360   3.284   2.201  17.623 -0.2873  0.0475 -0.3025
  701TMC3    C110361   3.416   1.050  15.980 -0.6463  0.2942  0.0108
  701TMC3    C210362   3.451   0.954  15.881  0.4143  0.1579 -0.1576
  701TMC3    C310363   3.559   0.987  15.807  0.3192 -0.1669  0.1469
  701TMC3    C410364   3.478   1.172  15.995 -0.1153 -0.9344 -0.3344
  701TMC3    C510365   3.585   1.197  15.914 -0.1257  0.4161  0.2773
  701TMC3    C610366   3.628   1.104  15.825 -0.6552 -0.8508  0.4899
  701TMC3     C10367   3.316   1.013  16.082 -0.1401  0.6950 -0.0936
  701TMC3     O10368   3.279   1.109  16.149 -0.2652  0.3441  0.6781
  701TMC3     H10369   3.402   0.858  15.865 -2.2644  1.8115 -1.7962
  701TMC3    H110370   3.435   1.247  16.061 -1.2293 -3.4278  1.7733
  701TMC3    H210371   3.715   1.131  15.767 -0.1066 -1.5754  0.9822
  701TMC3    C710372   3.638   1.333  15.905  0.4128 -0.1960  0.6126
  701TMC3    C810373   3.604   0.907  15.692 -0.2849 -0.1918 -1.2750
  701TMC3    O110374   3.667   1.372  15.790 -0.5421 -0.0789 -0.7129
  701TMC3    O210375   3.709   0.946  15.648  0.3243  0.1570  0.4454
  702MPD2     C10376   3.433   3.032  10.360 -1.0244  0.0602  0.5335
  702MPD2    C110377   3.476   3.136  10.436 -0.0583 -0.3230 -0.1223
  702MPD2    C210378   3.588   3.205  10.404 -0.3743 -0.6955 -0.9421
  702MPD2    C310379   3.652   3.160  10.286 -0.5290 -0.1042  0.9191
  702MPD2    C410380   3.615   3.049  10.218 -0.1327  1.1524  0.0344
  702MPD2    C510381   3.492   2.992  10.247 -0.6681 -0.2377  0.1070
  702MPD2     H10382   3.633   3.284  10.463 -2.6471 -0.2473  0.2021
  702MPD2    H110383   3.663   3.016  10.126 -0.7553  2.9004 -0.9120
  702MPD2    H210384   3.341   2.976  10.378 -2.3833  2.2520  0.4067
  702MPD2    H310385   3.456   2.905  10.193  1.2078 -0.4916 -0.7313
  702MPD2     N10386   3.770   3.222  10.241  0.6490  0.2738 -0.1302
  702MPD2    H510387   3.824   3.161  10.180  0.6705 -2.1323  2.3074
  702MPD2    N110388   3.396   3.169  10.553  0.1119  0.1634  0.6665
  702MPD2    H710389   3.306   3.130  10.582  0.7782 -2.2629 -0.5286
  703TMC3    C110390   3.732   3.466  10.272  0.1380  0.4065  0.9323
  703TMC3    C210391   3.614   3.465  10.207  0.0976 -0.0406  0.1446
  703TMC3    C310392   3.533   3.576  10.209 -0.3109 -0.0670  0.7036
  703TMC3    C410393   3.776   3.575  10.344 -0.0120 -0.2737  0.4669
  703TMC3    C510394   3.694   3.684  10.336  0.8768 -0.1639 -0.0339
  703TMC3    C610395   3.581   3.688  10.266  0.2005  0.3853  0.7197
  703TMC3     C10396   3.819   3.349  10.267 -0.1247 -0.0925  0.0390
  703TMC3     O10397   3.937   3.380  10.267  0.3315 -0.3353 -0.4530
  703TMC3     H10398   3.592   3.378  10.145 -0.7630  0.5217 -0.3341
  703TMC3    H110399   3.874   3.580  10.389 -0.5167  2.3526  1.2872
  703TMC3    H210400   3.518   3.777  10.269 -0.7346 -0.3148  1.6637
  703TMC3    C710401   3.750   3.812  10.386 -0.4292 -0.1043 -0.0905
  703TMC3    C810402   3.407   3.542  10.277  0.4396  0.1283  0.1957
  703TMC3    O110403   3.870   3.828  10.381  0.0077 -0.4879  0.0946
  703TMC3    O210404   3.366   3.623  10.354  0.2588 -0.0666  0.2286
  704TMC3    C110405   0.862   1.735  12.123  0.0600  0.0821  0.7085
  704TMC3    C210406   0.988   1.749  12.067  0.7659  0.4207 -0.3594
  704TMC3    C310407   1.075   1.645  12.084 -0.2789 -0.1718 -0.0185
  704TMC3    C410408   0.819   1.616  12.185  0.3834 -0.0708 -1.0368
  704TMC3    C510409   0.903   1.510  12.178 -0.6855 -0.3219 -0.7555
  704TMC3    C610410   1.030   1.527  12.128  0.3484 -0.3260  0.7596
  704TMC3     C10411   0.766   1.835  12.109  0.3243 -0.5640 -0.1479
  704TMC3     O10412   0.669   1.830  12.184  0.5410 -0.5155 -0.1161
  704TMC3     H10413   1.031   1.842  12.031 -0.5730  0.6975 -1.2529
  704TMC3    H110414   0.713   1.605  12.204  0.6919 -0.7821  0.2507
  704TMC3    H210415   1.103   1.447  12.141  0.7370 -0.3089 -1.2989
  704TMC3    C710416   0.862   1.367  12.191 -0.8437 -0.0481 -0.9522
  704TMC3    C810417   1.195   1.644  12.007 -0.2739  0.2566 -0.1736
  704TMC3    O110418   0.929   1.293  12.121 -0.6147 -0.6003 -0.1308
  704TMC3    O210419   1.194   1.673  11.890  0.0218  0.1621 -0.5466
  705MPD2     C10420   0.435   4.580  16.760 -0.5031  0.3422  0.7234
  705MPD2    C110421   0.316   4.637  16.696  0.7781 -0.4774  0.0841
  705MPD2    C210422   0.199   4.659  16.771  0.3035 -0.0214  0.2702
  705MPD2    C310423   0.201   4.638  16.912  0.3808  0.5890 -0.8579
  705MPD2    C410424   0.311   4.576  16.968 -0.1468  0.5621 -0.5172
  705MPD2    C510425   0.420   4.540  16.888 -0.1090  0.3012  0.6524
  705MPD2     H10426   0.109   4.706  16.733  1.7067  2.4080 -0.0635
  705MPD2    H110427   0.317   4.557  17.075  0.1547  3.2603 -0.0575
  705MPD2    H210428   0.526   4.546  16.712 -1.1676 -1.7572  0.9688
  705MPD2    H310429   0.508   4.502  16.938  0.4227  2.3341  1.2534
  705MPD2     N10430   0.095   4.677  16.998  0.4710  0.0199 -0.5401
  705MPD2    H510431   0.094   4.639  17.092  2.4655  0.3627 -0.3672
  705MPD2    N110432   0.311   4.667  16.557  0.0541  0.7512  0.2708
  705MPD2    H710433   0.227   4.715  16.524 -0.3666  0.3831  0.8214
  706TMC3    C110434   0.456   4.646  16.099 -0.1112  0.2019  0.1791
  706TMC3    C210435   0.375   0.021  16.062  0.0253  0.0870  0.3273
  706TMC3    C310436   0.300   0.077  16.159 -0.3234  0.0239  0.7792
  706TMC3    C410437   0.471   4.593  16.224  0.3821 -0.0883  0.1879
  706TMC3    C510438   0.390   4.653  16.319  0.0015 -0.1050 -0.5168
  706TMC3    C610439   0.302   0.034  16.288 -0.3146  0.5522  0.0365
  706TMC3     C10440   0.531   4.577  16.003  0.0739  0.0732  0.4753
  706TMC3     O10441   0.641   4.527  16.035  0.7302 -0.0939 -0.0924
  706TMC3     H10442   0.361   0.059  15.961 -1.0874 -0.8517  0.1228
  706TMC3    H110443   0.541   4.518  16.260 -1.4906 -1.0224  1.9002
  706TMC3    H210444   0.234   0.066  16.366  0.3418 -2.2202  1.7403
  706TMC3    C710445   0.415   4.630  16.466  0.6390  0.5723  0.7091
  706TMC3    C810446   0.255   0.213  16.129 -0.1621  0.2132  0.9092
  706TMC3    O110447   0.513   4.567  16.487 -0.7484 -0.0254  0.1996
  706TMC3    O210448   0.225   0.239  16.014 -0.4653 -0.3017  0.3632
  707TMC3    C110449   1.212   2.740   1.184 -0.7802 -0.0463  0.0414
  707TMC3    C210450   1.286   2.628   1.208 -0.6893 -0.2306  0.0977
  707TMC3    C310451   1.221   2.506   1.202 -0.1541  0.1565  0.1882
  707TMC3    C410452   1.075   2.745   1.184 -0.3382 -0.1183 -0.0452
  707TMC3    C510453   1.008   2.624   1.194  0.3450 -0.1730 -0.2265
  707TMC3    C610454   1.079   2.504   1.193  0.7350  0.0770 -0.7125
  707TMC3     C10455   1.283   2.863   1.150  0.7128  0.4447 -0.1103
  707TMC3     O10456   1.392   2.874   1.200  0.5207 -0.0141 -0.5932
  707TMC3     H10457   1.394   2.631   1.220 -0.4719  0.1241 -1.8837
  707TMC3    H110458   1.023   2.838   1.166 -2.0005 -0.6084  2.2151
  707TMC3    H210459   1.032   2.408   1.210  0.8568 -0.2071 -2.0169
  707TMC3    C710460   0.874   2.618   1.239  0.2342 -0.5136  0.5950
  707TMC3    C810461   1.278   2.379   1.240 -0.3672 -0.6003  0.2265
  707TMC3    O110462   0.833   2.517   1.293  0.3418  0.5351  0.3322
  707TMC3    O210463   1.202   2.289   1.268  0.7527 -0.3515  0.5664
  708MPD2     C10464   3.154   2.253  13.957  0.1793 -0.1126  0.0882
  708MPD2    C110465   3.186   2.370  13.877  0.3345 -0.3690  0.2029
  708MPD2    C210466   3.270   2.463  13.923 -0.0184  0.2027 -0.0752
  708MPD2    C310467   3.318   2.454  14.048 -0.1003 -0.9105  0.2209
  708MPD2    C410468   3.285   2.350  14.133  0.0208 -1.0159  0.3597
  708MPD2    C510469   3.197   2.255  14.086  0.3130  0.5306  1.6593
  708MPD2     H10470   3.292   2.545  13.855 -1.4864  2.6556  2.3943
  708MPD2    H110471   3.322   2.358  14.235 -0.1720  2.0835  0.1979
  708MPD2    H210472   3.084   2.177  13.925 -0.5847  0.9142 -0.6829
  708MPD2    H310473   3.157   2.166  14.134  0.9597  0.0860  1.3720
  708MPD2     N10474   3.403   2.555  14.090  0.1007  0.2745  0.1194
  708MPD2    H510475   3.413   2.632  14.025  0.1546  1.4352  1.4925
  708MPD2    N110476   3.132   2.392  13.749  0.3933 -0.1949 -0.0526
  708MPD2    H710477   3.146   2.484  13.706  2.9676 -0.1572  0.8974
  709TMC3    C110478   3.010   2.383  13.567  0.4061 -0.3833  0.1689
  709TMC3    C210479   3.037   2.312  13.452  0.1140  0.3402 -0.7056
  709TMC3    C310480   3.080   2.383  13.347  0.4388  0.2572 -0.9149
  709TMC3    C410481   3.020   2.521  13.574 -0.2006 -0.9555  1.1112
  709TMC3    C510482   3.068   2.589  13.468  0.3349  0.5906  0.1270
  709TMC3    C610483   3.100   2.522  13.353  0.9951  0.1994  0.4127
  709TMC3     C10484   3.045   2.315  13.685  0.2926  0.2537  0.2119
  709TMC3     O10485   3.053   2.191  13.686  0.3236  0.2443  0.2729
  709TMC3     H10486   3.022   2.206  13.467  0.5322  0.1874 -1.3653
  709TMC3    H110487   2.980   2.583  13.654 -1.9194  1.0638 -1.3355
  709TMC3    H210488   3.115   2.584  13.265 -1.0892  0.8848  0.5407
  709TMC3    C710489   3.171   2.668  13.523 -0.6045  0.3917 -0.0512
  709TMC3    C810490   3.084   2.301  13.229 -0.2162 -0.8347 -0.7608
  709TMC3    O110491   3.235   2.611  13.611  0.4859  0.4712 -0.4439
  709TMC3    O210492   3.039   2.186  13.247 -0.0971  0.4691  0.7439
  710TMC3    C110493   4.601   0.265   0.740  0.8511  0.4284  0.4560
  710TMC3    C210494   4.698   0.227   0.647 -0.1385  0.0317 -0.2137
  710TMC3    C310495   0.034   0.103   0.661 -0.0875  0.0437  0.2709
  710TMC3    C410496   4.575   0.190   0.852 -0.1533 -0.5194  0.2128
  710TMC3    C510497   4.641   0.070   0.873 -0.1801 -0.8401 -0.2535
  710TMC3    C610498   4.716   0.023   0.769 -0.3127  0.6174 -0.2307
  710TMC3     C10499   4.563   0.407   0.748 -0.2345 -0.2950  0.2096
  710TMC3     O10500   4.633   0.484   0.679 -0.5122  0.0630  0.2359
  710TMC3     H10501   0.010   0.296   0.570  1.4821  1.7049  1.9953
  710TMC3    H110502   4.511   0.232   0.929  0.5461  1.6297 -0.3726
  710TMC3    H210503   0.040   4.648   0.784 -0.8422  0.9110  3.1242
  710TMC3    C710504   4.621   4.714   0.988 -0.3951  0.8831  0.4262
  710TMC3    C810505   0.123   0.059   0.555  0.9330 -0.9157 -0.3185
  710TMC3    O110506   4.510   4.712   1.045 -0.3610 -0.8638 -0.4996
  710TMC3    O210507   0.127   0.117   0.448  0.1486 -0.0594 -0.0064
  711TMC3    C110508   3.841   0.869  14.906  0.1182  0.5766  0.2824
  711TMC3    C210509   3.828   0.914  15.033 -0.1189 -0.8665 -0.3703
  711TMC3    C310510   3.943   0.974  15.090 -0.7606  0.8910  0.8862
  711TMC3    C410511   3.957   0.884  14.837 -0.1492  0.1790 -0.5042
  711TMC3    C510512   4.067   0.935  14.898  0.3071  0.5381  0.2356
  711TMC3    C610513   4.064   0.971  15.028 -0.3387  0.6387  0.8809
  711TMC3     C10514   3.732   0.805  14.839 -0.1246  0.2765  0.2734
  711TMC3     O10515   3.766   0.749  14.736 -0.7333 -0.1153 -0.1243
  711TMC3     H10516   3.752   0.876  15.100 -0.6777  0.6813 -0.1184
  711TMC3    H110517   3.967   0.855  14.733  0.9593  0.2628 -0.4236
  711TMC3    H210518   4.147   1.024  15.073  0.2788 -1.8325  2.6507
  711TMC3    C710519   4.188   0.880  14.848 -0.0873 -0.4472  0.1633
  711TMC3    C810520   3.948   0.962  15.235  0.4341 -0.0107 -0.3628
  711TMC3    O110521   4.286   0.926  14.902 -0.0356  0.7793  0.2635
  711TMC3    O210522   3.842   0.940  15.292 -0.0779  0.1439  0.0036
  712MPD2     C10523   1.104   1.934  13.698  0.4248 -0.2764  0.2558
  712MPD2    C110524   1.004   2.017  13.649  0.0469  0.2093 -0.6198
  712MPD2    C210525   1.040   2.135  13.597  0.3335  0.4643  0.0982
  712MPD2    C310526   1.173   2.181  13.590  0.2387 -0.0398  0.4886
  712MPD2    C410527   1.271   2.093  13.642  0.5498 -0.7493 -0.9219
  712MPD2    C510528   1.239   1.972  13.693 -0.5673  0.6611  0.1959
  712MPD2     H10529   0.964   2.193  13.546 -0.0436  0.0938  0.2379
  712MPD2    H110530   1.377   2.111  13.626  0.0082  0.7400 -2.8730
  712MPD2    H210531   1.088   1.832  13.733 -1.9748  1.2745  3.6524
  712MPD2    H310532   1.316   1.906  13.731 -1.4456  0.2424  1.2538
  712MPD2     N10533   1.214   2.307  13.549 -0.0776  0.1284 -0.2275
  712MPD2    H510534   1.316   2.312  13.553 -0.1002 -0.3093  1.1210
  712MPD2    N110535   0.871   1.979  13.650  0.0729 -0.1322 -0.0444
  712MPD2    H710536   0.808   2.023  13.583 -1.4530  1.3865  2.3934
  713TMC3    C110537   1.196   2.523  13.470 -0.4477 -0.1517 -0.6436
  713TMC3    C210538   1.322   2.539  13.503 -0.6061 -0.3619 -0.1195
  713TMC3    C310539   1.391   2.638  13.430 -0.9141  0.0332 -0.2609
  713TMC3    C410540   1.129   2.605  13.383 -0.1988 -0.3717 -0.8159
  713TMC3    C510541   1.198   2.699  13.310 -0.4943  0.0652 -0.0164
  713TMC3    C610542   1.330   2.709  13.327 -0.2989  0.3271  0.0805
  713TMC3     C10543   1.124   2.418  13.530 -0.0125  0.0553  0.3442
  713TMC3     O10544   1.004   2.418  13.534 -0.0534 -0.3541  0.1714
  713TMC3     H10545   1.364   2.506  13.597 -0.9661  0.1144  0.2094
  713TMC3    H110546   1.022   2.599  13.366 -0.4329 -0.5655  0.7346
  713TMC3    H210547   1.394   2.765  13.259  1.0583 -1.9541 -0.4986
  713TMC3    C710548   1.134   2.811  13.245 -0.6881  0.2480  0.5495
  713TMC3    C810549   1.515   2.686  13.479  0.2425  0.7128 -0.3177
  713TMC3    O110550   1.210   2.905  13.218 -0.1151  0.1815  0.6490
  713TMC3    O210551   1.553   2.800  13.451  0.1131 -0.3521  0.2142
  714MPD2     C10552   1.839   0.744   0.940  0.1477 -0.2932  0.0080
  714MPD2    C110553   1.891   0.619   0.910 -0.6017  0.5009  0.3758
  714MPD2    C210554   1.803   0.532   0.843  0.1909  0.6613  0.3280
  714MPD2    C310555   1.674   0.569   0.810  0.0847 -0.4003 -0.1085
  714MPD2    C410556   1.620   0.695   0.853 -0.4213  0.1272 -0.0814
  714MPD2    C510557   1.709   0.781   0.920  0.2487  0.2891  0.2072
  714MPD2     H10558   1.835   0.439   0.798 -1.8685  0.4982 -0.8052
  714MPD2    H110559   1.520   0.730   0.830 -0.9807  0.4068  2.7685
  714MPD2    H210560   1.899   0.813   0.999  0.6314  1.0547 -2.0501
  714MPD2    H310561   1.674   0.877   0.956  1.8801  1.0328 -0.1634
  714MPD2     N10562   1.601   0.473   0.742  0.3656  0.6175 -0.4120
  714MPD2    H510563   1.648   0.384   0.726  0.0228  0.4717 -0.6052
  714MPD2    N110564   2.023   0.592   0.938  0.3068 -0.6215  0.6530
  714MPD2    H710565   2.075   0.676   0.962  1.6830 -0.9060 -1.3397
  715TMC3    C110566   2.216   0.471   0.966  0.0308 -0.3239 -0.2031
  715TMC3    C210567   2.296   0.371   0.924  0.3412  0.6557  0.2802
  715TMC3    C310568   2.426   0.371   0.963  0.5373 -0.1798 -0.4121
  715TMC3    C410569   2.264   0.565   1.053 -0.0268 -0.3790 -0.9392
  715TMC3    C510570   2.391   0.559   1.092 -0.4716 -0.0773  0.5265
  715TMC3    C610571   2.473   0.458   1.058  0.1019 -0.1898  0.3420
  715TMC3     C10572   2.082   0.469   0.932 -0.5344 -0.8107 -0.3310
  715TMC3     O10573   2.033   0.366   0.892 -0.1838 -0.1728  0.1214
  715TMC3     H10574   2.252   0.307   0.848  0.8903 -0.7800  1.1866
  715TMC3    H110575   2.204   0.635   1.110  0.2072 -2.2634  1.6477
  715TMC3    H210576   2.573   0.475   1.095  0.7093 -1.9783 -0.4673
  715TMC3    C710577   2.434   0.650   1.194 -0.2637 -0.3807  0.5893
  715TMC3    C810578   2.505   0.248   0.935 -0.3972  0.3549 -0.6104
  715TMC3    O110579   2.500   0.601   1.285 -0.3480  0.8756  0.6078
  715TMC3    O210580   2.471   0.179   0.835 -0.5801  0.4733 -0.4416
  716MPD2     C10581   4.302   2.928   9.537 -0.4214  0.0457 -0.4668
  716MPD2    C110582   4.175   2.921   9.484  0.8509  0.4992 -0.3238
  716MPD2    C210583   4.113   2.801   9.457  0.2537  0.1804  0.4254
  716MPD2    C310584   4.180   2.685   9.473 -0.0941 -0.0681 -0.1678
  716MPD2    C410585   4.318   2.694   9.514  0.5433 -0.1167  0.1250
  716MPD2    C510586   4.375   2.810   9.546  0.2926 -0.4079 -0.3124
  716MPD2     H10587   4.007   2.798   9.433  0.0878 -1.4036  1.3325
  716MPD2    H110588   4.377   2.605   9.536  0.1987 -0.4602 -0.3280
  716MPD2    H210589   4.349   3.020   9.568 -3.5932  0.7153  2.3406
  716MPD2    H310590   4.479   2.812   9.575 -0.6960  1.9424  3.0920
  716MPD2     N10591   4.114   2.571   9.435 -0.0501  0.2005 -0.5823
  716MPD2    H510592   4.015   2.582   9.415 -0.0986 -1.8267 -1.5364
  716MPD2    N110593   4.116   3.054   9.472 -0.1485  0.0584 -0.0897
  716MPD2    H710594   4.175   3.127   9.511 -0.4859  0.8038 -0.9802
  717TMC3    C110595   4.059   2.343   9.425  0.1401  0.1176  0.3836
  717TMC3    C210596   3.933   2.386   9.393  0.2140 -0.8675 -0.4213
  717TMC3    C310597   3.846   2.293   9.335  0.9058 -0.6434 -0.0965
  717TMC3    C410598   4.106   2.216   9.388  0.2448  0.5732 -0.0083
  717TMC3    C510599   4.022   2.131   9.327 -0.7412  0.3698  0.1118
  717TMC3    C610600   3.891   2.166   9.301 -0.1361 -0.3070  0.0368
  717TMC3     C10601   4.161   2.443   9.449  0.0459 -0.0498 -0.3602
  717TMC3     O10602   4.270   2.403   9.467 -0.3865  0.2541  0.1682
  717TMC3     H10603   3.887   2.479   9.426 -0.4094 -0.1198 -3.4343
  717TMC3    H110604   4.201   2.177   9.424 -0.1599  0.3524  0.8399
  717TMC3    H210605   3.836   2.106   9.230  1.3938 -0.5789 -0.9207
  717TMC3    C710606   4.072   1.999   9.284 -0.4627  0.1803  0.2851
  717TMC3    C810607   3.730   2.353   9.267 -0.0816 -0.0420  0.1406
  717TMC3    O110608   3.999   1.922   9.224  0.2413 -0.1389 -0.0024
  717TMC3    O210609   3.747   2.469   9.239  0.0009  0.2571 -0.3837
  718MPD2     C10610   2.378   1.457  12.299 -0.1321 -0.1318  0.2243
  718MPD2    C110611   2.434   1.583  12.320 -1.2632  0.2568  0.3147
  718MPD2    C210612   2.374   1.676  12.408 -0.3346 -0.2802  0.1524
  718MPD2    C310613   2.255   1.647  12.467 -0.4927  0.8080  0.3747
  718MPD2    C410614   2.206   1.511  12.464 -0.2120  0.4574 -0.0994
  718MPD2    C510615   2.270   1.414  12.383 -0.0278  0.1793 -0.9365
  718MPD2     H10616   2.405   1.779  12.413 -1.1245 -0.0331 -0.1718
  718MPD2    H110617   2.109   1.486  12.505 -0.3610 -1.1461 -1.4563
  718MPD2    H210618   2.429   1.385  12.236 -0.2447  1.0234 -1.1981
  718MPD2    H310619   2.234   1.312  12.379  1.2008 -0.2554 -0.7574
  718MPD2     N10620   2.184   1.749  12.532  0.1970  0.1916  0.2145
  718MPD2    H510621   2.216   1.844  12.516 -0.5606  0.6077  1.1482
  718MPD2    N110622   2.546   1.617  12.245  0.4165  0.0994 -0.4686
  718MPD2    H710623   2.560   1.572  12.155  1.7788 -1.3269  0.4663
  719TMC3    C110624   2.704   1.776  12.177 -0.5218 -0.0067 -0.3463
  719TMC3    C210625   2.613   1.807  12.075  0.2949 -0.2852  0.3176
  719TMC3    C310626   2.625   1.933  12.011 -0.2006  0.5970  0.0062
  719TMC3    C410627   2.803   1.859  12.211  0.4345  0.0069 -0.0779
  719TMC3    C510628   2.819   1.969  12.128 -0.4258  0.0707  0.1478
  719TMC3    C610629   2.731   2.014  12.041  0.1754  0.8331  0.1387
  719TMC3     C10630   2.635   1.714  12.285  0.0325  0.2107  0.0608
  719TMC3     O10631   2.669   1.757  12.397  0.4218 -0.0583  0.2518
  719TMC3     H10632   2.528   1.743  12.056  1.5501 -1.1816 -2.2103
  719TMC3    H110633   2.872   1.832  12.291  0.2235  0.1335  0.1473
  719TMC3    H210634   2.735   2.114  12.000 -1.2899  0.3836 -1.0922
  719TMC3    C710635   2.930   2.059  12.162 -0.5371  0.5677  0.3531
  719TMC3    C810636   2.496   1.993  11.973  1.4192 -0.2513 -0.2961
  719TMC3    O110637   2.905   2.179  12.167 -0.3513 -0.1793  0.3780
  719TMC3    O210638   2.398   1.921  11.967 -0.5820 -0.2259  0.0178
  720MPD2     C10639   0.681   4.044  14.300 -0.6468 -0.1403 -0.9324
  720MPD2    C110640   0.792   4.039  14.218 -0.5251  0.2052 -0.0582
  720MPD2    C210641   0.925   4.032  14.270  0.0969 -0.0599 -0.3816
  720MPD2    C310642   0.950   4.026  14.405  0.1476 -0.0052 -0.4282
  720MPD2    C410643   0.841   4.035  14.489 -0.2055 -0.2729  0.1222
  720MPD2    C510644   0.712   4.053  14.437 -0.4919  0.3178  0.0359
  720MPD2     H10645   1.006   4.036  14.198 -3.0979 -0.3994 -3.9608
  720MPD2    H110646   0.847   4.035  14.598 -2.0327  0.0712  0.2218
  720MPD2    H210647   0.577   4.053  14.272 -0.5319  0.5507 -1.1362
  720MPD2    H310648   0.629   4.060  14.506 -0.3496 -0.8314  0.3257
  720MPD2     N10649   1.086   4.004  14.446  1.0026 -0.6331  0.3492
  720MPD2    H510650   1.148   3.996  14.366  1.8236 -0.6185  0.9837
  720MPD2    N110651   0.778   4.060  14.077  0.5764  0.1579  0.5199
  720MPD2    H710652   0.857   4.031  14.020  0.1762  1.0078 -0.4580
  721TMC3    C110653   1.281   3.981  14.566 -0.7898  0.2306  0.8004
  721TMC3    C210654   1.354   3.988  14.681  0.0117 -0.3950  0.4907
  721TMC3    C310655   1.493   3.981  14.681  0.1946 -0.1294  0.5929
  721TMC3    C410656   1.346   3.977  14.444  0.0125  0.1228  0.1847
  721TMC3    C510657   1.483   3.964  14.454  1.1272  0.0989  0.2154
  721TMC3    C610658   1.561   3.974  14.566  0.3535 -0.0362 -0.2928
  721TMC3     C10659   1.139   3.995  14.567 -0.5426  0.2987 -0.3627
  721TMC3     O10660   1.081   3.974  14.674  0.2576  0.1135  0.1638
  721TMC3     H10661   1.307   3.967  14.776  0.1600  0.5078  0.7645
  721TMC3    H110662   1.289   3.979  14.351  0.9343  1.9597 -0.3357
  721TMC3    H210663   1.668   3.961  14.558  0.1846 -1.7601  0.2633
  721TMC3    C710664   1.560   3.973  14.327 -0.4480 -0.0293  0.0573
  721TMC3    C810665   1.573   3.986  14.798 -0.2593  1.2525  0.5346
  721TMC3    O110666   1.677   3.993  14.350 -0.3366  0.4815 -0.8721
  721TMC3    O210667   1.674   4.058  14.784  0.3456  0.1081 -0.2456
  722MPD2     C10668   4.707   2.427  13.251  0.7523 -0.6029  0.4363
  722MPD2    C110669   4.641   2.546  13.246 -0.4854 -0.2405 -0.3253
  722MPD2    C210670   4.502   2.550  13.245  0.4038 -0.5668  0.1355
  722MPD2    C310671   4.432   2.428  13.231 -0.4786 -0.2512 -0.3124
  722MPD2    C410672   4.503   2.309  13.223  0.2953  0.2478  0.0513
  722MPD2    C510673   4.639   2.309  13.244 -0.4101 -0.1388  0.0328
  722MPD2     H10674   4.441   2.639  13.253 -1.5961 -1.9512  0.2991
  722MPD2    H110675   4.465   2.208  13.213 -0.6819  0.7197 -1.0662
  722MPD2    H210676   0.093   2.434  13.262  0.6151  0.5806  0.9667
  722MPD2    H310677   4.696   2.217  13.249 -2.0610 -1.1614  0.2495
  722MPD2     N10678   4.295   2.443  13.210  0.8967  0.1433 -0.0586
  722MPD2    H510679   4.265   2.540  13.213 -0.6619 -0.4097  2.1917
  722MPD2    N110680   4.702   2.673  13.251  0.2564 -0.2343 -0.2050
  722MPD2    H710681   4.638   2.749  13.274 -1.2273 -1.3514 -0.6682
  723TMC3    C110682   4.065   2.396  13.156  0.1881 -0.8153  0.5465
  723TMC3    C210683   4.002   2.303  13.086  0.0449  0.1933  0.1802
  723TMC3    C310684   3.884   2.349  13.026  0.1437 -0.2848  0.1399
  723TMC3    C410685   4.037   2.532  13.164 -0.3877 -0.6393 -0.1441
  723TMC3    C510686   3.928   2.576  13.098  0.1407 -0.0717  0.2560
  723TMC3    C610687   3.850   2.484  13.033 -0.0202  0.1645  0.3559
  723TMC3     C10688   4.202   2.344  13.188 -0.0495  1.1859  0.4099
  723TMC3     O10689   4.233   2.223  13.170  0.3800 -0.0137  0.2766
  723TMC3     H10690   4.026   2.197  13.094  0.2277  0.1789 -0.6144
  723TMC3    H110691   4.114   2.607  13.182  0.3830 -1.3785 -0.3655
  723TMC3    H210692   3.761   2.517  12.980  0.6868 -0.6608 -1.3326
  723TMC3    C710693   3.889   2.711  13.108  0.7569 -0.5102  0.1327
  723TMC3    C810694   3.798   2.268  12.947 -0.2067 -0.0433  0.4752
  723TMC3    O110695   3.931   2.776  13.202  0.1537  0.2102  0.3084
  723TMC3    O210696   3.697   2.324  12.904  0.0746 -0.4508 -0.3976
  724TMC3    C110697   0.571   0.244  10.582  0.4453 -0.1198 -0.1613
  724TMC3    C210698   0.564   0.246  10.445 -0.5124 -0.4447  0.2289
  724TMC3    C310699   0.669   0.302  10.383  0.0813  0.5578  0.1816
  724TMC3    C410700   0.659   0.320  10.651 -0.4557  0.1615 -0.7169
  724TMC3    C510701   0.766   0.367  10.584 -0.2394 -0.1658  0.0096
  724TMC3    C610702   0.780   0.346  10.444  0.0218  0.5341 -0.4312
  724TMC3     C10703   0.462   0.178  10.644  0.5770 -0.1360  0.7443
  724TMC3     O10704   0.474   0.151  10.764 -0.2944 -0.3054 -0.3185
  724TMC3     H10705   0.503   0.172  10.395 -0.3553 -1.1160  1.0317
  724TMC3    H110706   0.656   0.326  10.759  1.2095  0.4075 -0.6796
  724TMC3    H210707   0.864   0.377  10.383  0.8167 -2.0405 -0.6236
  724TMC3    C710708   0.839   0.486  10.633 -1.1574 -0.5430  0.2339
  724TMC3    C810709   0.651   0.298  10.238  0.1738  0.0122 -0.5475
  724TMC3    O110710   0.931   0.520  10.557 -0.1082 -0.2397 -0.2177
  724TMC3    O210711   0.552   0.241  10.196  0.4899 -0.3008 -0.1176
  725TMC3    C110712   1.924   3.881  12.372 -0.0240  0.0689 -0.5758
  725TMC3    C210713   1.791   3.868  12.399 -0.3591 -0.6248  0.3293
  725TMC3    C310714   1.737   3.742  12.426  0.3639  0.0814 -0.2633
  725TMC3    C410715   2.003   3.769  12.346  0.2230 -0.4967  0.3783
  725TMC3    C510716   1.946   3.647  12.365 -0.7386 -0.0390 -0.4392
  725TMC3    C610717   1.820   3.633  12.408 -0.1708 -0.0440 -0.2776
  725TMC3     C10718   1.989   4.004  12.406 -0.0945  0.3917  0.2837
  725TMC3     O10719   1.942   4.071  12.499  0.0451  0.3653 -0.0220
  725TMC3     H10720   1.735   3.960  12.418  0.6680  0.4164 -1.6982
  725TMC3    H110721   2.111   3.778  12.332  0.0719 -0.0351 -0.4730
  725TMC3    H210722   1.777   3.534  12.420 -1.2175  0.5797  1.0663
  725TMC3    C710723   2.023   3.534  12.331 -0.2831  0.6558 -0.6116
  725TMC3    C810724   1.594   3.720  12.388 -0.6764 -0.1267 -0.1089
  725TMC3    O110725   2.078   3.543  12.223 -0.2149 -0.1316 -0.0890
  725TMC3    O210726   1.528   3.637  12.452 -0.4522  0.0783  0.3804
  726MPD2     C10727   4.385   0.497  10.599  0.2376 -0.5023  0.0698
  726MPD2    C110728   4.449   0.587  10.687  0.2280  0.7884 -0.2326
  726MPD2    C210729   4.369   0.654  10.779  0.5834 -0.2253 -0.4615
  726MPD2    C310730   4.230   0.634  10.781  0.1683  0.0207 -0.0762
  726MPD2    C410731   4.171   0.542  10.697  0.2240 -0.6437  0.6451
  726MPD2    C510732   4.243   0.474  10.602  0.2188  0.4212 -0.1631
  726MPD2     H10733   4.422   0.717  10.849  2.3686  0.6913 -2.6379
  726MPD2    H110734   4.069   0.508  10.708  0.0780 -0.3324  0.2374
  726MPD2    H210735   4.431   0.449  10.513 -0.1860 -1.0636  0.1543
  726MPD2    H310736   4.193   0.405  10.535  0.3736  0.6312 -0.4964
  726MPD2     N10737   4.137   0.693  10.874  0.0634 -0.1073  0.2126
  726MPD2    H510738   4.039   0.670  10.856 -0.4834  2.6927 -0.2911
  726MPD2    N110739   4.579   0.621  10.680  0.1245 -0.0426  0.6519
  726MPD2    H710740   4.596   0.706  10.733  2.0357  0.3545 -0.5820
  727TMC3    C110741   0.030   0.680  10.524  0.5189  0.1978 -0.0605
  727TMC3    C210742   0.111   0.750  10.603  0.7471 -0.7449  0.9771
  727TMC3    C310743   0.213   0.821  10.543  0.3607  0.2263 -0.1202
  727TMC3    C410744   0.038   0.683  10.390  0.3873 -1.3437  0.0055
  727TMC3    C510745   0.137   0.752  10.330  0.2311  0.3294 -0.0604
  727TMC3    C610746   0.230   0.824  10.408 -0.0112  0.0384  0.0113
  727TMC3     C10747   4.664   0.577  10.576 -0.0457  0.3344  0.0967
  727TMC3     O10748   4.660   0.475  10.509  0.4213 -1.5544 -0.4053
  727TMC3     H10749   0.091   0.746  10.709  0.1801  1.6616  0.9658
  727TMC3    H110750   4.680   0.638  10.332 -3.0085  0.7891  3.0239
  727TMC3    H210751   0.323   0.858  10.364 -0.5406  2.2238  0.5849
  727TMC3    C710752   0.096   0.818  10.208 -0.1898  0.2594  0.6573
  727TMC3    C810753   0.297   0.925  10.622 -0.0487 -0.8454  0.5361
  727TMC3    O110754   0.004   0.773  10.135 -0.0202 -0.2470  0.3707
  727TMC3    O210755   0.369   0.996  10.552  0.2968  0.3771  0.2266
  728TMC3    C110756   3.418   4.605  15.584 -0.3941 -0.5051 -0.3620
  728TMC3    C210757   3.529   4.675  15.628 -0.3553 -0.0892  0.2878
  728TMC3    C310758   3.621   4.709  15.526  0.4750  0.1009 -0.2424
  728TMC3    C410759   3.393   4.574  15.452  0.1834  0.4227 -1.5647
  728TMC3    C510760   3.497   4.606  15.365 -0.2372  0.0753 -0.4959
  728TMC3    C610761   3.609   4.676  15.395  0.2419 -1.0122 -0.3257
  728TMC3     C10762   3.335   4.559  15.696  0.7432  0.3124  0.5086
  728TMC3     O10763   3.364   4.601  15.803 -0.3217  0.0735 -0.3151
  728TMC3     H10764   3.560   4.686  15.731 -1.3395 -1.2815  0.7089
  728TMC3    H110765   3.315   4.510  15.412 -0.4197  0.9061 -1.1570
  728TMC3    H210766   3.667   4.719  15.315 -1.2579 -1.6085 -1.7265
  728TMC3    C710767   3.465   4.589  15.222  0.4104  0.0001  0.1403
  728TMC3    C810768   3.700   0.105  15.554  0.3768  0.5274 -0.1009
  728TMC3    O110769   3.351   4.566  15.180  0.3244 -0.3495 -0.4306
  728TMC3    O210770   3.779   0.128  15.466 -0.0033  0.3067  1.4088
  729MPD2     C10771   0.662   0.459  16.553 -0.3931 -0.3226  0.1096
  729MPD2    C110772   0.796   0.450  16.553  0.1103 -0.0660  0.1500
  729MPD2    C210773   0.865   0.458  16.677  0.3668  0.3754 -1.4568
  729MPD2    C310774   0.795   0.477  16.797 -0.0910  0.1009 -0.4387
  729MPD2    C410775   0.655   0.492  16.786  0.2415 -0.4100  0.0898
  729MPD2    C510776   0.589   0.490  16.663  0.5767 -0.2918  0.6653
  729MPD2     H10777   0.973   0.468  16.672  0.3169 -0.9716 -5.3539
  729MPD2    H110778   0.594   0.516  16.872 -1.2071 -1.6566 -0.5937
  729MPD2    H210779   0.600   0.465  16.464  2.0860  3.2167 -1.4012
  729MPD2    H310780   0.481   0.504  16.656  0.1796 -3.0402  1.1854
  729MPD2     N10781   0.851   0.482  16.924  0.2523  0.0480 -0.1459
  729MPD2    H510782   0.782   0.497  16.998 -0.4845 -0.1888 -0.7833
  729MPD2    N110783   0.862   0.466  16.427 -0.4360 -0.0083 -0.5539
  729MPD2    H710784   0.804   0.476  16.344 -0.4177  0.6212 -0.4902
  730TMC3    C110785   1.031   0.489  17.080  0.1192  0.2318 -0.1509
  730TMC3    C210786   1.170   0.477  17.111  0.3572  0.0691 -0.0727
  730TMC3    C310787   1.214   0.550  17.218 -0.3198  0.0713 -0.5224
  730TMC3    C410788   0.941   0.551  17.161 -0.2843  0.5987 -0.1823
  730TMC3    C510789   0.992   0.611  17.273 -0.3131  0.3757 -0.2662
  730TMC3    C610790   1.127   0.606  17.307  0.6756 -0.4723 -0.3724
  730TMC3     C10791   0.985   0.449  16.951 -0.1058 -0.4994 -0.6085
  730TMC3     O10792   1.065   0.402  16.871 -0.8517  0.0646 -0.2301
  730TMC3     H10793   1.244   0.447  17.038  0.1282  0.2510 -0.3785
  730TMC3    H110794   0.840   0.573  17.130 -0.9460 -0.7555  1.0241
  730TMC3    H210795   1.159   0.676  17.383  0.7912 -1.2142  0.2606
  730TMC3    C710796   0.920   0.723  17.321 -0.0094  0.1618 -0.1409
  730TMC3    C810797   1.336   0.627  17.208  0.1050 -0.7750 -0.7813
  730TMC3    O110798   0.931   0.751  17.440 -0.1096  0.0277  0.6711
  730TMC3    O210799   1.397   0.643  17.314  0.2730  0.7542  0.0444
  731MPD2     C10800   1.792   3.037  12.246  0.8915 -0.6556  0.3091
  731MPD2    C110801   1.721   3.154  12.252 -0.1844  1.0119  0.0522
  731MPD2    C210802   1.701   3.201  12.386  0.3414 -0.1048  0.5257
  731MPD2    C310803   1.762   3.140  12.493 -0.1663 -0.0263  0.8711
  731MPD2    C410804   1.852   3.039  12.475 -0.6970  0.1149  0.4481
  731MPD2    C510805   1.861   2.984  12.350 -0.6075  0.2220 -0.0424
  731MPD2     H10806   1.643   3.289  12.411  1.4804  0.6482  0.5321
  731MPD2    H110807   1.918   3.014  12.557 -0.7685  0.0817  0.4945
  731MPD2    H210808   1.792   2.986  12.151  0.4849  2.1143 -1.1777
  731MPD2    H310809   1.925   2.897  12.347  0.9484  1.3001  1.7218
  731MPD2     N10810   1.717   3.176  12.622 -0.1667 -0.1800 -0.4591
  731MPD2    H510811   1.644   3.246  12.628  0.6555  0.6651 -0.2387
  731MPD2    N110812   1.679   3.215  12.136 -0.4221  1.4704 -0.0720
  731MPD2    H710813   1.672   3.164  12.049 -3.3985 -0.8114  1.4892
  732TMC3    C110814   1.603   3.395  12.003  0.0854 -0.3684  0.4029
  732TMC3    C210815   1.537   3.514  11.993 -0.0847  0.0873 -0.0236
  732TMC3    C310816   1.530   3.578  11.873 -0.3572 -0.1033 -0.5111
  732TMC3    C410817   1.663   3.338  11.895  0.5110  0.2921 -1.0780
  732TMC3    C510818   1.654   3.410  11.781  0.2961  0.8915 -0.3619
  732TMC3    C610819   1.578   3.525  11.758 -0.5256 -0.4436 -0.1047
  732TMC3     C10820   1.617   3.337  12.136  0.6516 -0.3366 -0.2266
  732TMC3     O10821   1.591   3.416  12.224  0.1290  0.0321 -0.4524
  732TMC3     H10822   1.495   3.561  12.080  2.1250  1.0931  0.5113
  732TMC3    H110823   1.720   3.246  11.888 -0.1177 -0.0770 -1.3083
  732TMC3    H210824   1.571   3.588  11.671 -0.7676 -1.5875 -0.9178
  732TMC3    C710825   1.734   3.366  11.669  0.3510 -0.6113 -1.2612
  732TMC3    C810826   1.408   3.655  11.860 -1.0268 -0.0091 -0.4853
  732TMC3    O110827   1.698   3.384  11.552 -0.4527  0.9500  0.3925
  732TMC3    O210828   1.414   3.757  11.793 -0.0241 -0.1976 -0.6844
  733TMC3    C110829   1.783   1.970  12.567 -0.1088  0.4640 -0.3303
  733TMC3    C210830   1.858   1.862  12.610 -0.4615  0.5281  0.1197
  733TMC3    C310831   1.996   1.868  12.580  0.0119 -0.1912 -0.5162
  733TMC3    C410832   1.839   2.076  12.492  0.0059  0.1194 -0.4046
  733TMC3    C510833   1.970   2.070  12.461  0.4534  0.2396 -0.8865
  733TMC3    C610834   2.050   1.962  12.489  0.0123 -0.0858  0.3633
  733TMC3     C10835   1.638   1.966  12.543 -0.4073 -0.0053  0.0020
  733TMC3     O10836   1.579   2.057  12.490  0.0394 -0.2663 -0.5136
  733TMC3     H10837   1.821   1.797  12.689  0.9037 -0.2295  0.1441
  733TMC3    H110838   1.779   2.161  12.464 -0.3736  0.0908  0.3265
  733TMC3    H210839   2.155   1.974  12.464 -0.0625  0.1262  0.1543
  733TMC3    C710840   2.027   2.179  12.375 -0.1787  0.2967  0.5723
  733TMC3    C810841   2.063   1.734  12.589 -0.6017 -0.4651 -0.3479
  733TMC3    O110842   1.973   2.292  12.387 -0.5911 -0.3565 -0.6388
  733TMC3    O210843   1.984   1.645  12.615 -0.2449  0.4668 -0.3147
  734MPD2     C10844   4.181   4.077  12.376 -0.3612 -0.4158  0.2437
  734MPD2    C110845   4.058   4.135  12.371  0.2376  0.2517  0.0407
  734MPD2    C210846   4.042   4.253  12.303 -0.0510  0.8370 -0.3554
  734MPD2    C310847   4.150   4.304  12.236 -0.0945  0.6995  0.0208
  734MPD2    C410848   4.275   4.244  12.238  0.1564  0.1237  0.4548
  734MPD2    C510849   4.286   4.125  12.305 -0.2887 -0.6488 -0.3707
  734MPD2     H10850   3.949   4.308  12.314 -0.4570 -0.0300  0.4795
  734MPD2    H110851   4.366   4.274  12.188 -0.4447 -1.5601 -1.6537
  734MPD2    H210852   4.206   3.983  12.424  0.6026 -0.4309 -0.2790
  734MPD2    H310853   4.377   4.067  12.298  0.6674  0.7007  1.0046
  734MPD2     N10854   4.123   4.422  12.162  0.6024 -0.4336 -0.3085
  734MPD2    H510855   4.030   4.460  12.170  0.0798 -1.4611 -1.5291
  734MPD2    N110856   3.956   4.080  12.450  0.1468 -0.0071  0.6134
  734MPD2    H710857   3.980   3.998  12.505 -0.4956 -0.9309 -0.4827
  735TMC3    C110858   3.740   4.037  12.523  0.5083  0.5196 -0.4981
  735TMC3    C210859   3.619   4.037  12.459 -0.1733 -0.1886  0.5110
  735TMC3    C310860   3.573   3.921  12.395 -0.2835  0.1325  0.0277
  735TMC3    C410861   3.806   3.922  12.546  0.1123 -0.0833 -0.6061
  735TMC3    C510862   3.763   3.808  12.479 -0.0386 -0.7965  0.3005
  735TMC3    C610863   3.649   3.809  12.401 -0.2762  0.3216  0.1891
  735TMC3     C10864   3.829   4.133  12.458  0.2042  0.2096 -0.1177
  735TMC3     O10865   3.770   4.207  12.378 -0.3862  0.1144  0.0186
  735TMC3     H10866   3.574   4.135  12.456  0.5866  0.1803  1.1355
  735TMC3    H110867   3.893   3.913  12.610 -0.9655 -2.4308  0.5085
  735TMC3    H210868   3.611   3.724  12.346 -0.1599  0.2542  0.2126
  735TMC3    C710869   3.854   3.695  12.477  0.5503 -0.0938  0.3918
  735TMC3    C810870   3.531   3.954  12.257  0.4665 -0.3412 -0.3035
  735TMC3    O110871   3.964   3.723  12.525 -0.6020 -0.1571 -0.6035
  735TMC3    O210872   3.468   3.871  12.200 -0.3760  0.0630 -0.1648
  736MPD2     C10873   3.839   3.342  12.390 -0.0907 -0.0097  0.1081
  736MPD2    C110874   3.886   3.465  12.405 -0.2546 -0.2924 -0.0776
  736MPD2    C210875   4.020   3.484  12.371 -0.4892 -0.4493  0.6700
  736MPD2    C310876   4.110   3.385  12.354 -0.1641  0.2809 -0.5998
  736MPD2    C410877   4.057   3.257  12.352  0.0212  0.3043 -0.0572
  736MPD2    C510878   3.922   3.234  12.371  0.2948  0.1752 -0.4127
  736MPD2     H10879   4.055   3.586  12.360 -0.5197 -0.4288  0.7631
  736MPD2    H110880   4.117   3.170  12.328 -0.8334 -0.1069 -0.7547
  736MPD2    H210881   3.735   3.321  12.412 -0.3232 -0.6705 -1.5823
  736MPD2    H310882   3.875   3.136  12.361  0.1720  0.1349  0.5921
  736MPD2     N10883   4.249   3.398  12.323  0.3499 -0.3409  0.3315
  736MPD2    H510884   4.306   3.315  12.315  1.4315  0.6048 -1.8766
  736MPD2    N110885   3.803   3.574  12.438  0.6850  0.1498  0.9182
  736MPD2    H710886   3.704   3.556  12.428  0.4481 -0.1752  3.7262
  737TMC3    C110887   4.438   3.520  12.247 -0.3312  0.6999  0.1878
  737TMC3    C210888   4.488   3.644  12.250 -0.0235 -0.3238  0.0620
  737TMC3    C310889   4.584   3.683  12.166  0.1897 -0.5419  0.2373
  737TMC3    C410890   4.474   3.438  12.139 -0.0943 -0.6817  0.2289
  737TMC3    C510891   4.571   3.482  12.055  0.1853  0.4121  0.1694
  737TMC3    C610892   4.627   3.606  12.056  0.2316  0.4382  0.5666
  737TMC3     C10893   4.306   3.523  12.306 -0.2722  0.3042 -0.5035
  737TMC3     O10894   4.255   3.632  12.327  0.1430  0.5178 -0.3654
  737TMC3     H10895   4.462   3.704  12.337 -0.5023  1.2132 -1.1373
  737TMC3    H110896   4.435   3.336  12.135  1.4611 -1.2207 -1.3198
  737TMC3    H210897   4.705   3.633  11.986 -0.4166  0.2569 -0.2353
  737TMC3    C710898   4.614   3.380  11.954 -0.2975  0.9431 -0.3854
  737TMC3    C810899   4.608   3.826  12.158  0.1296 -0.6921  0.0322
  737TMC3    O110900   4.536   3.291  11.929  0.7240 -0.1225  0.4632
  737TMC3    O210901   4.602   3.898  12.257 -0.3191  0.4410 -1.0084
  738MPD2     C10902   4.266   2.813  14.981 -0.4902  0.1584 -0.1461
  738MPD2    C110903   4.321   2.702  15.043  0.5292  0.1000 -0.7536
  738MPD2    C210904   4.454   2.710  15.078 -0.1457 -0.3154  0.0748
  738MPD2    C310905   4.532   2.818  15.042  0.7700  0.4763  0.2126
  738MPD2    C410906   4.475   2.922  14.966  0.0691  0.2607  0.6100
  738MPD2    C510907   4.342   2.925  14.950 -0.6005 -0.1027 -0.8381
  738MPD2     H10908   4.491   2.619  15.126 -0.9678 -0.4588  0.4293
  738MPD2    H110909   4.535   3.008  14.941  0.7171 -1.0872 -2.3902
  738MPD2    H210910   4.160   2.817  14.959  0.0402 -0.2265 -2.7147
  738MPD2    H310911   4.281   3.004  14.907 -2.0980 -0.6699  0.2211
  738MPD2     N10912   4.673   2.828  15.057 -0.0528  0.3588 -0.7268
  738MPD2    H510913   4.716   2.911  15.017  0.5537 -0.9492 -2.7820
  738MPD2    N110914   4.246   2.590  15.085 -0.4874  0.3927 -0.0508
  738MPD2    H710915   4.296   2.547  15.163 -0.8792 -1.4317 -0.8087
  739TMC3    C110916   0.163   2.727  15.076 -0.1426  0.1327 -0.0013
  739TMC3    C210917   0.217   2.822  14.999  0.7929 -0.0377  0.2416
  739TMC3    C310918   0.344   2.815  14.963 -0.3444 -0.2623 -0.4758
  739TMC3    C410919   0.235   2.623  15.117 -0.1556 -0.0281 -0.9376
  739TMC3    C510920   0.369   2.612  15.081 -0.3369  0.0829 -0.4198
  739TMC3    C610921   0.425   2.714  15.011 -0.0375 -0.9042  0.4649
  739TMC3     C10922   0.023   2.722  15.109 -0.0157  0.0088 -0.3111
  739TMC3     O10923   4.698   2.642  15.189  0.5455 -0.6792  0.4248
  739TMC3     H10924   0.156   2.886  14.935  3.5149  0.2874 -2.0472
  739TMC3    H110925   0.188   2.537  15.164  1.6220 -0.5304 -0.0738
  739TMC3    H210926   0.528   2.714  14.976  0.2803 -3.5290  1.4055
  739TMC3    C710927   0.437   2.482  15.110  0.0660  0.3543 -0.2983
  739TMC3    C810928   0.381   2.877  14.843  0.5651  0.7834 -0.1172
  739TMC3    O110929   0.527   2.451  15.035  0.8344 -0.1419  0.3599
  739TMC3    O210930   0.419   2.813  14.750 -0.1273 -0.0035 -0.0025
  740TMC3    C110931   0.729   4.425  14.365  0.2805 -0.0053  0.3451
  740TMC3    C210932   0.775   4.417  14.494  0.3734 -0.4002  0.4742
  740TMC3    C310933   0.901   4.374  14.523  0.4317 -0.2874  0.1333
  740TMC3    C410934   0.814   4.402  14.260 -0.2732 -0.0960 -0.6651
  740TMC3    C510935   0.945   4.367  14.289  0.2982  0.5410  0.3458
  740TMC3    C610936   0.988   4.348  14.419 -0.4030 -0.2813 -0.4157
  740TMC3     C10937   0.590   4.432  14.332  0.4094 -0.1176  0.2013
  740TMC3     O10938   0.563   4.503  14.234  0.1465 -0.2029  0.4124
  740TMC3     H10939   0.717   4.441  14.582  2.3264  0.8674  1.4003
  740TMC3    H110940   0.774   4.401  14.160  0.9251 -3.3110 -1.1146
  740TMC3    H210941   1.086   4.311  14.445 -0.0051  1.9745  1.3563
  740TMC3    C710942   1.035   4.339  14.181  0.0032 -0.6065 -0.1389
  740TMC3    C810943   0.938   4.329  14.655 -0.3755  0.1361 -0.0050
  740TMC3    O110944   1.128   4.268  14.226  0.1083  0.5310  0.3573
  740TMC3    O210945   0.850   4.342  14.740  0.0796  0.1892 -0.2348
  741TMC3    C110946   0.005   3.231  13.960  0.2445  0.4883  0.4133
  741TMC3    C210947   0.001   3.134  14.061 -0.1642  0.3979  0.2271
  741TMC3    C310948   0.031   3.171  14.194  0.3904 -0.0210 -0.2884
  741TMC3    C410949   0.024   3.359  13.987 -0.2860  0.2367  0.6388
  741TMC3    C510950   0.056   3.396  14.113 -0.5323 -0.1110 -0.4605
  741TMC3    C610951   0.061   3.306  14.218  0.2987 -0.4203  0.1184
  741TMC3     C10952   4.702   3.184  13.826  0.1114 -0.7275 -0.0289
  741TMC3     O10953   4.694   3.063  13.803 -0.0568  0.1185 -0.2271
  741TMC3     H10954   4.714   3.030  14.029 -0.7563  0.2597  0.8501
  741TMC3    H110955   0.003   3.437  13.915 -0.7565 -1.1069 -0.6838
  741TMC3    H210956   0.063   3.343  14.320  3.0961 -3.0552  1.0304
  741TMC3    C710957   0.071   3.541  14.140  0.2232 -0.0723 -0.1760
  741TMC3    C810958   4.685   3.097  14.298  0.2195  0.4102 -0.8725
  741TMC3    O110959   4.714   3.614  14.078 -1.0813 -0.4934 -0.0855
  741TMC3    O210960   4.641   3.162  14.393 -0.0117 -0.1743  0.0601
  742TMC3    C110961   4.466   1.693  15.767  0.3246 -0.2402  0.1329
  742TMC3    C210962   4.375   1.752  15.679 -0.6069  0.1264 -0.6457
  742TMC3    C310963   4.417   1.868  15.618  0.4452  0.9543  0.4694
  742TMC3    C410964   4.586   1.756  15.796  0.0315 -0.2443  0.3803
  742TMC3    C510965   4.611   1.874  15.733  0.4499  0.7571 -0.0082
  742TMC3    C610966   4.528   1.937  15.647  0.1705 -0.2308  0.3088
  742TMC3     C10967   4.454   1.553  15.789 -0.3706  0.1503 -0.6700
  742TMC3     O10968   4.386   1.493  15.708  0.1440  0.2788  0.4856
  742TMC3     H10969   4.318   1.681  15.620 -1.5156 -0.8180  1.3644
  742TMC3    H110970   4.661   1.689  15.835  0.2691 -1.2663 -1.8184
  742TMC3    H210971   4.558   2.025  15.591 -0.5548 -0.3689 -0.2956
  742TMC3    C710972   0.030   1.888  15.697 -0.7705  0.6758 -0.0199
  742TMC3    C810973   4.384   1.883  15.479 -0.5031  0.1975 -0.3154
  742TMC3    O110974   0.069   1.934  15.588  0.9082  0.0530  0.8751
  742TMC3    O210975   4.362   1.776  15.423 -0.0933 -0.4505 -0.5344
  743MPD2     C10976   2.304   1.923   1.578  0.1742  0.4175 -0.0972
  743MPD2    C110977   2.394   1.986   1.498  0.1170  0.4154 -0.2059
  743MPD2    C210978   2.529   2.001   1.536 -0.3247  0.0154 -0.6285
  743MPD2    C310979   2.567   1.943   1.656 -0.4919 -0.1482  0.1892
  743MPD2    C410980   2.475   1.885   1.733 -0.1056 -0.5729 -0.7673
  743MPD2    C510981   2.346   1.864   1.693 -0.2484 -0.9647  0.6629
  743MPD2     H10982   2.599   2.059   1.476  0.4919  0.1662  0.4773
  743MPD2    H110983   2.501   1.835   1.826 -1.8195 -0.1503 -0.0494
  743MPD2    H210984   2.199   1.912   1.556  1.1442 -1.9064 -3.6105
  743MPD2    H310985   2.272   1.815   1.755 -1.0389  0.1401  0.5822
  743MPD2     N10986   2.703   1.961   1.698 -0.2334 -0.3740  0.6963
  743MPD2    H510987   2.753   2.014   1.628 -2.7056 -1.9594 -2.3090
  743MPD2    N110988   2.333   2.055   1.385 -0.0263  0.3026  1.3117
  743MPD2    H710989   2.233   2.034   1.380  0.0514 -0.0713  1.3836
  744TMC3    C110990   2.287   2.216   1.210  0.2052 -0.0281 -0.2556
  744TMC3    C210991   2.151   2.216   1.229 -0.0307 -0.2765  1.1421
  744TMC3    C310992   2.076   2.283   1.135  0.4369 -0.5678 -0.2569
  744TMC3    C410993   2.338   2.279   1.098 -0.2426  0.0090  0.1463
  744TMC3    C510994   2.254   2.334   1.002  0.8345 -0.7075 -0.0246
  744TMC3    C610995   2.120   2.349   1.019 -0.0321 -0.1481  0.0267
  744TMC3     C10996   2.385   2.142   1.292 -0.0667 -0.3311 -0.9255
  744TMC3     O10997   2.506   2.161   1.273 -0.5972 -0.4204 -0.3861
  744TMC3     H10998   2.116   2.186   1.327 -0.6457 -0.6843  0.7930
  744TMC3    H110999   2.446   2.279   1.092 -0.2520  1.7885 -0.1756
  744TMC3    H211000   2.055   2.404   0.951 -0.3834 -1.0855 -0.3980
  744TMC3    C711001   2.325   2.445   0.944 -0.1845  0.3904 -0.6243
  744TMC3    C811002   1.931   2.292   1.155 -0.1163  0.4742  0.1167
  744TMC3    O111003   2.426   2.426   0.882  0.1487  0.4031  0.0629
  744TMC3    O211004   1.877   2.373   1.077 -0.0292 -0.4056  0.5867
  745TMC3    C111005   0.684   1.845  13.702  0.1456  0.4459 -0.4980
  745TMC3    C211006   0.622   1.779  13.803 -0.9841 -0.8539  0.0703
  745TMC3    C311007   0.494   1.745  13.777 -0.1515  0.0458  0.4808
  745TMC3    C411008   0.625   1.866  13.580  0.1090  0.1196  0.4123
  745TMC3    C511009   0.502   1.827  13.555  0.3771  0.1290  0.2280
  745TMC3    C611010   0.433   1.770  13.656  0.2082  0.4130 -0.0451
  745TMC3     C11011   0.822   1.882  13.727 -0.2959  0.8173  0.1251
  745TMC3     O11012   0.869   1.833  13.830 -0.0130  0.5082  0.5130
  745TMC3     H11013   0.675   1.745  13.891 -0.8223 -2.6979 -0.7509
  745TMC3    H111014   0.690   1.906  13.502  1.5402 -0.8930  1.0856
  745TMC3    H211015   0.333   1.729  13.644 -0.0185  0.5444  1.3177
  745TMC3    C711016   0.424   1.884  13.447 -0.0925  0.0116  0.4140
  745TMC3    C811017   0.410   1.709  13.889 -0.7317 -0.4955  0.1999
  745TMC3    O111018   0.302   1.870  13.464 -0.2642  0.4044  0.0293
  745TMC3    O211019   0.297   1.667  13.857 -0.0502  0.3273 -0.2804
  746TMC3    C111020   3.248   3.397  10.922 -0.0502 -0.6208  0.4966
  746TMC3    C211021   3.328   3.387  10.806  0.5994 -1.0360 -0.2102
  746TMC3    C311022   3.347   3.253  10.771 -0.3176 -0.4227 -0.3889
  746TMC3    C411023   3.188   3.289  10.979 -0.1302  0.2751 -0.2397
  746TMC3    C511024   3.216   3.163  10.936 -0.0722  0.3314  0.6452
  746TMC3    C611025   3.300   3.142  10.834 -0.0676  0.1926 -0.7618
  746TMC3     C11026   3.255   3.514  11.009  0.3606 -0.9517  0.6991
  746TMC3     O11027   3.193   3.504  11.120  0.2134 -0.4024 -0.1214
  746TMC3     H11028   3.366   3.471  10.750 -0.3528 -0.3473  0.1901
  746TMC3    H111029   3.124   3.301  11.065  0.9021  0.7101  0.4665
  746TMC3    H211030   3.326   3.042  10.800  1.6792  1.0134 -1.8663
  746TMC3    C711031   3.142   3.050  10.991 -0.9841 -0.0010 -1.2904
  746TMC3    C811032   3.439   3.244  10.658 -0.2155 -0.7214  0.1824
  746TMC3    O111033   3.118   2.961  10.908  0.1153  0.1164 -0.1185
  746TMC3    O211034   3.532   3.323  10.661  0.0798 -0.1067  0.1249
  747TMC3    C111035   0.827   3.291  11.454 -0.5576  0.3871 -0.3652
  747TMC3    C211036   0.701   3.239  11.463  0.3338 -0.4206 -0.0766
  747TMC3    C311037   0.594   3.322  11.491  0.8515  0.6834  0.0443
  747TMC3    C411038   0.848   3.423  11.477  0.1920 -0.2416  0.0466
  747TMC3    C511039   0.744   3.504  11.508 -0.4762  0.0343 -0.1764
  747TMC3    C611040   0.615   3.458  11.509  0.1532  0.1557 -0.4894
  747TMC3     C11041   0.942   3.206  11.420 -0.2061 -0.4262 -1.0146
  747TMC3     O11042   1.053   3.242  11.448  0.1524  0.0528  0.7976
  747TMC3     H11043   0.679   3.134  11.449  3.1573 -1.1958  1.4449
  747TMC3    H111044   0.951   3.455  11.482  0.6166 -1.2790 -1.8106
  747TMC3    H211045   0.546   3.532  11.547  2.3064  0.7623  2.2426
  747TMC3    C711046   0.765   3.652  11.512  0.2530  0.0322 -0.9635
  747TMC3    C811047   0.455   3.273  11.491 -0.2239 -0.7215 -0.0710
  747TMC3    O111048   0.678   3.728  11.552  0.4704 -0.0030  0.1273
  747TMC3    O211049   0.426   3.182  11.411  0.2121 -0.0184  0.1968
  748MPD2     C11050   1.329   3.871   1.110  0.7071 -0.0686  0.1355
  748MPD2    C111051   1.456   3.873   1.153 -0.5216  0.3146 -0.6369
  748MPD2    C211052   1.548   3.962   1.102  0.6964 -0.5682  0.0208
  748MPD2    C311053   1.516   4.045   1.000 -0.2890  0.4068 -0.1117
  748MPD2    C411054   1.386   4.043   0.952 -0.3779 -0.6659  0.3891
  748MPD2    C511055   1.295   3.960   1.006  0.0587 -0.1901 -0.0620
  748MPD2     H11056   1.651   3.969   1.134  1.0884  1.1110 -1.6671
  748MPD2    H111057   1.364   4.100   0.863 -0.9214  0.4022  1.2002
  748MPD2    H211058   1.252   3.810   1.157 -0.4057 -1.0023 -2.9018
  748MPD2    H311059   1.190   3.978   0.987  0.5544 -0.1125 -2.8017
  748MPD2     N11060   1.619   4.139   0.961  0.6633 -0.0869 -0.2467
  748MPD2    H511061   1.702   4.123   1.018  1.3638 -0.5916 -1.4072
  748MPD2    N111062   1.487   3.774   1.248 -0.4948 -0.0143  0.1661
  748MPD2    H711063   1.418   3.702   1.262 -1.6707  0.7719 -1.5526
  749TMC3    C111064   1.740   4.314   0.850 -0.1277  0.2005  0.3731
  749TMC3    C211065   1.838   4.293   0.937  0.2550 -0.1472  0.4394
  749TMC3    C311066   1.934   4.389   0.943 -0.0220 -0.3898 -0.4733
  749TMC3    C411067   1.739   4.423   0.761 -0.5888 -0.4347  0.2435
  749TMC3    C511068   1.835   4.516   0.775 -0.3761 -0.0270 -0.1342
  749TMC3    C611069   1.926   4.505   0.873 -0.0865  0.0944  0.0642
  749TMC3     C11070   1.620   4.227   0.853 -0.5642 -0.3399  0.4120
  749TMC3     O11071   1.527   4.247   0.777 -0.1211  0.3009 -0.9871
  749TMC3     H11072   1.835   4.213   1.010 -0.2495 -1.5884 -1.1618
  749TMC3    H111073   1.648   4.438   0.704 -0.8598  2.1050  1.3288
  749TMC3    H211074   1.998   4.585   0.888 -1.4308  1.3312 -0.1135
  749TMC3    C711075   1.823   4.642   0.702  0.1112 -0.1633 -0.4566
  749TMC3    C811076   2.026   4.392   1.047  0.2903 -0.3394 -0.3423
  749TMC3    O111077   1.899   0.013   0.732 -0.1309  0.3597  0.4991
  749TMC3    O211078   2.059   4.503   1.085 -0.3437  0.0940 -0.1153
  750MPD2     C11079   3.364   0.583  11.327 -0.3619 -0.2846  0.1298
  750MPD2    C111080   3.236   0.535  11.346  0.2008 -0.2451 -0.1282
  750MPD2    C211081   3.181   0.438  11.260  0.7286 -0.6171  0.6041
  750MPD2    C311082   3.253   0.394  11.151 -0.1861 -0.4471 -0.1588
  750MPD2    C411083   3.382   0.438  11.141  0.4442 -0.1118 -0.2979
  750MPD2    C511084   3.436   0.530  11.229  0.1067 -0.0885 -0.2599
  750MPD2     H11085   3.075   0.415  11.264  0.8125 -0.9195  1.1119
  750MPD2    H111086   3.445   0.400  11.062 -0.3910  0.0315 -1.0374
  750MPD2    H211087   3.417   0.652  11.392  1.3500 -1.0761 -0.4408
  750MPD2    H311088   3.536   0.565  11.203  0.4289 -0.5730  0.3291
  750MPD2     N11089   3.221   0.281  11.066 -0.7172 -0.0930  0.0026
  750MPD2    H511090   3.284   0.259  10.990 -0.3755 -0.9518  0.5220
  750MPD2    N111091   3.167   0.593  11.454 -0.5010 -0.5583  0.3048
  750MPD2    H711092   3.200   0.671  11.510 -1.8825  0.2884 -0.0372
  751TMC3    C111093   3.095   0.107  10.976  0.6147  0.6690 -0.6232
  751TMC3    C211094   3.038   4.705  11.006 -0.0469  0.2263  0.1984
  751TMC3    C311095   3.070   4.595  10.928  0.4721  0.2547  0.1387
  751TMC3    C411096   3.176   0.113  10.864 -0.1626 -0.0940  0.3320
  751TMC3    C511097   3.186   0.003  10.779 -0.0963  0.1993 -0.2495
  751TMC3    C611098   3.139   4.606  10.811  0.2062  0.2929  0.7790
  751TMC3     C11099   3.107   0.211  11.075 -0.6211  0.0244  0.1655
  751TMC3     O11100   3.017   0.223  11.154  0.2050 -0.5157  0.6448
  751TMC3     H11101   2.983   4.695  11.099  0.2603  0.8503  0.4514
  751TMC3    H111102   3.235   0.201  10.840  0.0234 -0.3578 -0.1822
  751TMC3    H211103   3.135   4.517  10.750 -1.6814 -0.3154  1.7906
  751TMC3    C711104   3.276   0.015  10.668 -0.1231  0.2117 -0.0387
  751TMC3    C811105   3.030   4.458  10.962 -0.0840  0.8160 -0.3392
  751TMC3    O111106   3.279   0.128  10.617  0.1788  0.0249  0.1666
  751TMC3    O211107   3.117   4.372  10.937 -0.0754 -0.2198  0.6628
  752TMC3    C111108   1.771   0.624  16.857  0.0754  0.2356  0.3419
  752TMC3    C211109   1.694   0.515  16.876  0.4491  1.1212  0.3326
  752TMC3    C311110   1.663   0.494  17.009  0.0272 -0.1405 -0.1516
  752TMC3    C411111   1.834   0.699  16.957 -0.3019  0.3321 -0.9870
  752TMC3    C511112   1.820   0.663  17.082 -0.6686  0.6313  0.4433
  752TMC3    C611113   1.725   0.566  17.112 -0.0765 -0.1951  0.3184
  752TMC3     C11114   1.782   0.667  16.719 -0.0159 -0.1006 -0.4100
  752TMC3     O11115   1.888   0.713  16.678 -0.7412 -0.2068  0.2071
  752TMC3     H11116   1.655   0.450  16.799 -2.8819  3.6868 -0.1086
  752TMC3    H111117   1.897   0.782  16.927 -0.3648  0.3052 -1.1935
  752TMC3    H211118   1.679   0.567  17.210 -0.2297  1.2471  0.2337
  752TMC3    C711119   1.870   0.752  17.191 -0.0850 -0.1200 -0.3250
  752TMC3    C811120   1.563   0.377  17.044  0.6774 -0.7058  0.4177
  752TMC3    O111121   1.916   0.863  17.163  0.3813 -0.0530 -0.6800
  752TMC3    O211122   1.477   0.371  16.956  0.4827 -0.0292 -0.4305
  753TMC3    C111123   3.464   1.495  13.269 -0.1348 -0.5837 -0.5974
  753TMC3    C211124   3.444   1.463  13.401  0.2627 -0.0674 -0.7628
  753TMC3    C311125   3.388   1.340  13.430 -0.1555 -0.1346 -0.1009
  753TMC3    C411126   3.427   1.412  13.164 -0.4775 -0.0215 -0.0376
  753TMC3    C511127   3.376   1.293  13.201  0.6252  0.0644 -0.6966
  753TMC3    C611128   3.358   1.257  13.334  0.2256  0.7709  0.4217
  753TMC3     C11129   3.471   1.640  13.248  0.9934 -0.0154 -0.4377
  753TMC3     O11130   3.521   1.715  13.326  0.2346 -0.2107 -0.3674
  753TMC3     H11131   3.472   1.543  13.469  0.5498  0.0833 -1.0606
  753TMC3    H111132   3.436   1.437  13.059 -2.3790  0.0034 -0.1820
  753TMC3    H211133   3.304   1.165  13.358 -0.8609  0.8374 -1.7202
  753TMC3    C711134   3.296   1.230  13.101  0.1395 -0.3954 -0.4680
  753TMC3    C811135   3.394   1.287  13.569  0.3411  0.8942  0.2875
  753TMC3    O111136   3.296   1.276  12.987 -0.2701  0.1197  0.7719
  753TMC3    O211137   3.339   1.180  13.594 -0.9615 -0.0152  0.1192
  754MPD2     C11138   2.913   0.199  12.967 -0.4419 -0.0348 -0.2033
  754MPD2    C111139   2.879   0.067  12.936 -0.5172  0.0789 -0.2728
  754MPD2    C211140   2.759   0.032  12.872 -0.6079 -0.2513  0.8740
  754MPD2    C311141   2.666   0.133  12.855 -0.5894  0.0573 -0.2217
  754MPD2    C411142   2.698   0.267  12.895  0.3019  0.7191 -0.0297
  754MPD2    C511143   2.823   0.298  12.933 -0.6963 -0.6781  0.2534
  754MPD2     H11144   2.737   4.653  12.843 -0.0290 -0.7876  2.3009
  754MPD2    H111145   2.632   0.353  12.890  1.6423  1.8676  1.9535
  754MPD2    H211146   3.012   0.214  13.007  0.2984 -1.2510 -1.5583
  754MPD2    H311147   2.856   0.400  12.952 -0.5163 -0.9263  1.2770
  754MPD2     N11148   2.532   0.110  12.809 -0.1602 -0.3176 -0.0908
  754MPD2    H511149   2.479   0.187  12.771 -1.1790 -0.3474  1.2788
  754MPD2    N111150   2.974   4.695  12.983  0.1247  0.2443  0.1580
  754MPD2    H711151   3.069   0.006  12.989 -0.7017  2.9403 -1.4732
  755MPD2     C11152   1.877   0.703  12.707 -0.1501  0.8807  0.3803
  755MPD2    C111153   1.836   0.606  12.796 -0.1835 -0.2283  0.2203
  755MPD2    C211154   1.896   0.482  12.790 -0.2506 -0.0753  0.0692
  755MPD2    C311155   2.008   0.458  12.705  0.3977 -0.0971 -0.1448
  755MPD2    C411156   2.049   0.555  12.621 -0.1631  0.1245  0.3199
  755MPD2    C511157   1.983   0.674  12.621  0.6402  0.4204  0.1927
  755MPD2     H11158   1.864   0.402  12.857  0.7924 -0.9672 -0.4934
  755MPD2    H111159   2.128   0.533  12.551 -0.6884 -2.8788  0.6638
  755MPD2    H211160   1.827   0.798  12.695  1.7580  1.9775  1.2180
  755MPD2    H311161   2.010   0.746  12.544  0.7024 -0.7485 -0.8707
  755MPD2     N11162   2.089   0.340  12.709  0.1020 -0.1838  0.8023
  755MPD2    H511163   2.179   0.345  12.661 -1.1445  0.2177 -1.4801
  755MPD2    N111164   1.743   0.633  12.894  0.3493  0.4231 -0.2240
  755MPD2    H711165   1.725   0.567  12.969  0.4434  0.5381 -0.1005
  756MPD2     C11166   3.162   0.933   9.594 -0.3186  0.0032  0.3095
  756MPD2    C111167   3.160   0.833   9.691  0.0840  0.4137  0.2297
  756MPD2    C211168   3.035   0.811   9.744 -0.3803 -0.7914  0.3952
  756MPD2    C311169   2.916   0.873   9.704  0.5092 -0.9151  0.0086
  756MPD2    C411170   2.925   0.973   9.609  0.8813 -0.3460  0.4814
  756MPD2    C511171   3.050   0.992   9.555  0.0385  0.3240 -0.2251
  756MPD2     H11172   3.035   0.724   9.809 -0.9968 -0.4554  0.8413
  756MPD2    H111173   2.844   1.040   9.583  1.8847  0.6353 -0.0984
  756MPD2    H211174   3.243   0.950   9.524 -0.9509  0.8208 -0.2210
  756MPD2    H311175   3.060   1.063   9.473 -2.5149  0.3841 -0.4729
  756MPD2     N11176   2.797   0.833   9.765  0.8648 -0.2653 -0.6410
  756MPD2    H511177   2.799   0.761   9.837  0.8149  1.2892  0.9189
  756MPD2    N111178   3.273   0.756   9.725  0.0709  0.0916 -0.0104
  756MPD2    H711179   3.268   0.701   9.810  1.3447  0.2301  0.1555
  757MPD2     C11180   2.363   4.701  10.017  0.1538  0.4405  0.4826
  757MPD2    C111181   2.267   0.057  10.058  0.2993  0.1820 -0.9031
  757MPD2    C211182   2.265   0.193  10.021  0.1075  1.0083 -0.1777
  757MPD2    C311183   2.368   0.257   9.956 -0.8636 -0.3387  0.0776
  757MPD2    C411184   2.472   0.178   9.923  0.0193 -0.3420  0.2220
  757MPD2    C511185   2.465   0.040   9.947  0.1096 -0.2727 -0.2793
  757MPD2     H11186   2.178   0.251  10.050  1.8096  3.0835  0.7530
  757MPD2    H111187   2.566   0.210   9.879 -0.2454 -0.2904 -0.3086
  757MPD2    H211188   2.374   4.593  10.027 -1.5779  0.3366  1.3029
  757MPD2    H311189   2.550   4.697   9.931  0.5208 -0.0837  1.1152
  757MPD2     N11190   2.366   0.399   9.930 -0.2733 -0.0467 -0.0481
  757MPD2    H511191   2.277   0.447   9.926  0.2729  0.9518 -0.0418
  757MPD2    N111192   2.165   4.710  10.125 -0.0478  0.5144  0.6969
  757MPD2    H711193   2.181   4.613  10.151 -1.2574 -0.2266 -1.3165
  758MPD2     C11194   2.245   0.342  15.973  0.1715  0.2892  0.2774
  758MPD2    C111195   2.333   0.291  16.068 -0.0957 -0.1157  0.4195
  758MPD2    C211196   2.303   0.292  16.202  0.1258  0.2861 -0.2922
  758MPD2    C311197   2.189   0.352  16.245  0.4269 -0.5019  0.1451
  758MPD2    C411198   2.097   0.394  16.152 -0.2965 -0.4329  1.4116
  758MPD2    C511199   2.130   0.394  16.021  0.6050  0.0681  0.1697
  758MPD2     H11200   2.361   0.248  16.282 -0.9331 -0.5460  0.0100
  758MPD2    H111201   2.004   0.439  16.183  0.8569  1.5501  2.0587
  758MPD2    H211202   2.272   0.329  15.869  0.2062 -1.4471  0.5112
  758MPD2    H311203   2.049   0.416  15.953  0.6378 -1.0176 -0.2273
  758MPD2     N11204   2.161   0.370  16.385  0.1362 -0.4852  0.3763
  758MPD2    H511205   2.067   0.400  16.408  0.1682 -0.3085  0.2806
  758MPD2    N111206   2.449   0.233  16.011 -0.2582  0.4808  0.2040
  758MPD2    H711207   2.454   0.231  15.910  1.5305  0.7671  0.2926
  759MPD2     C11208   1.602   2.885   9.874 -0.0682  0.0501  1.2537
  759MPD2    C111209   1.684   2.777   9.859  0.4697 -0.2361  0.0124
  759MPD2    C211210   1.822   2.790   9.841  0.0149  0.5528  0.5242
  759MPD2    C311211   1.871   2.917   9.826  0.3866 -0.3911 -0.2280
  759MPD2    C411212   1.788   3.030   9.841 -0.0252  0.3597  0.3534
  759MPD2    C511213   1.653   3.009   9.864  0.3975 -0.1801  1.0191
  759MPD2     H11214   1.878   2.698   9.829 -0.4519  0.2675  0.5200
  759MPD2    H111215   1.834   3.127   9.860  0.4423  0.2625 -0.2791
  759MPD2    H211216   1.494   2.881   9.889 -0.2260  0.1475  0.1965
  759MPD2    H311217   1.586   3.093   9.875  1.3875  0.9673 -1.6829
  759MPD2     N11218   2.014   2.921   9.805  0.0170 -0.8439 -0.0580
  759MPD2    H511219   2.056   2.829   9.802  0.7860 -0.5306  0.8878
  759MPD2    N111220   1.637   2.647   9.875 -0.2581  0.5013  0.3676
  759MPD2    H711221   1.694   2.563   9.879 -1.3710 -0.2297  0.7324
  760MPD2     C11222   1.282   0.213  12.074  0.2364  0.7304  0.5640
  760MPD2    C111223   1.308   0.201  11.942 -0.3695 -0.2069  0.1089
  760MPD2    C211224   1.275   0.087  11.875  0.0287  0.0416  0.3304
  760MPD2    C311225   1.222   4.696  11.937  0.5955 -0.1126  0.1241
  760MPD2    C411226   1.191   4.711  12.073 -0.4709  0.2814  0.1683
  760MPD2    C511227   1.235   0.100  12.144  0.2537 -0.2698  0.1194
  760MPD2     H11228   1.297   0.077  11.769  1.5713 -2.5886  0.9047
  760MPD2    H111229   1.136   4.634  12.126 -1.0738 -0.1285 -1.0499
  760MPD2    H211230   1.301   0.303  12.132 -1.3241  1.1391  0.4556
  760MPD2    H311231   1.229   0.100  12.252 -1.5177  3.9730  0.0144
  760MPD2     N11232   1.204   4.570  11.877  0.8249  0.8006  0.1197
  760MPD2    H511233   1.155   4.498  11.930 -0.9477 -0.5238 -3.2491
  760MPD2    N111234   1.370   0.308  11.868  0.2464  0.3783 -0.3102
  760MPD2    H711235   1.389   0.286  11.771 -0.7583 -2.8674  0.2304
  761MPD2     C11236   2.700   4.106  11.132 -0.0871 -0.1507  0.7049
  761MPD2    C111237   2.816   4.092  11.052 -0.9457  0.1138 -0.2437
  761MPD2    C211238   2.889   4.203  11.018  0.3653 -0.0904 -0.0923
  761MPD2    C311239   2.852   4.325  11.077  0.6818  0.3125 -0.1047
  761MPD2    C411240   2.736   4.332  11.153 -0.4744 -0.4118  0.6571
  761MPD2    C511241   2.659   4.227  11.186  0.5283 -0.5112  0.0580
  761MPD2     H11242   2.974   4.197  10.950  0.3690 -4.0001  0.2711
  761MPD2    H111243   2.696   4.425  11.193 -0.5027  0.1023 -0.5670
  761MPD2    H211244   2.635   4.019  11.139 -1.2600  0.5078 -1.8975
  761MPD2    H311245   2.566   4.238  11.242  0.9638  0.0233  0.6753
  761MPD2     N11246   2.916   4.452  11.042  0.2522 -0.3187 -0.2444
  761MPD2    H511247   2.855   4.530  11.060  1.1742  0.8117 -2.1230
  761MPD2    N111248   2.835   3.957  11.016 -0.0758 -0.2992  0.4114
  761MPD2    H711249   2.788   3.883  11.066  1.4207 -2.4924 -1.4302
  762MPD2     C11250   3.023   3.243  10.425 -0.1183 -0.0438  0.0041
  762MPD2    C111251   3.076   3.359  10.490  0.0131  0.0304  0.4662
  762MPD2    C211252   3.195   3.413  10.438 -0.1566  0.3276 -0.4650
  762MPD2    C311253   3.245   3.363  10.318 -0.3089  0.2278  0.0288
  762MPD2    C411254   3.196   3.244  10.265 -0.4079 -0.2550 -0.2361
  762MPD2    C511255   3.086   3.187  10.321  0.4886 -0.1893 -0.1684
  762MPD2     H11256   3.241   3.500  10.482  3.1282 -1.3086 -0.6688
  762MPD2    H111257   3.242   3.199  10.178 -0.5882 -0.4134 -0.2486
  762MPD2    H211258   2.936   3.191  10.463  0.0941 -0.3980 -0.0003
  762MPD2    H311259   3.053   3.096  10.273 -1.5478  0.5754 -0.2384
  762MPD2     N11260   3.362   3.417  10.245  0.4476 -0.1968  0.0415
  762MPD2    H511261   3.395   3.381  10.156 -0.0856 -2.5574  0.8078
  762MPD2    N111262   3.010   3.425  10.593  0.3170 -0.0233 -0.3007
  762MPD2    H711263   2.927   3.371  10.617 -0.6015  1.8384  0.6992
  763MPD2     C11264   3.677   4.648  16.027 -0.2155 -0.0535  0.0495
  763MPD2    C111265   3.807   4.695  16.010  0.4668 -0.1743  0.1453
  763MPD2    C211266   3.869   0.040  16.117  0.0612 -0.6597 -0.5561
  763MPD2    C311267   3.800   0.064  16.239 -0.7938 -0.0760  0.1891
  763MPD2    C411268   3.665   0.024  16.247 -0.4681  0.0068  0.7816
  763MPD2    C511269   3.613   4.691  16.141  0.5827 -0.1350 -0.7062
  763MPD2     H11270   3.971   0.073  16.099  0.8585 -2.7759  0.0926
  763MPD2    H111271   3.602   0.046  16.332  0.8266  0.3497  1.6480
  763MPD2    H211272   3.622   4.594  15.951 -1.3958  1.1372  0.0476
  763MPD2    H311273   3.509   4.662  16.150 -0.1674  2.7885 -0.1393
  763MPD2     N11274   3.860   0.133  16.345  0.4492 -0.0815 -0.0122
  763MPD2    H511275   3.953   0.171  16.336  0.2820  0.0939 -1.0007
  763MPD2    N111276   3.885   4.669  15.895  0.1951  0.2223  0.3312
  763MPD2    H711277   3.975   4.717  15.891  0.7474 -0.7930  0.4041
  764MPD2     C11278   1.389   1.782   0.116  0.4023  0.2665 -0.2835
  764MPD2    C111279   1.422   1.713   0.000 -0.4279  0.3078 -0.4314
  764MPD2    C211280   1.380   1.579  17.680 -0.3480 -0.1232 -0.0448
  764MPD2    C311281   1.308   1.515   0.091 -0.0399  0.2034 -0.1846
  764MPD2    C411282   1.279   1.585   0.206 -0.0144 -0.3969  0.2807
  764MPD2    C511283   1.321   1.718   0.216  0.5458 -0.2355 -0.3553
  764MPD2     H11284   1.397   1.527  17.586 -1.8406  0.8474 -0.8509
  764MPD2    H111285   1.236   1.547   0.298  0.2310 -1.1247  0.0972
  764MPD2    H211286   1.406   1.889   0.123  1.8027  0.0819 -0.8012
  764MPD2    H311287   1.291   1.783   0.297 -2.6800 -0.5724 -1.2948
  764MPD2     N11288   1.284   1.376   0.066  0.1279 -0.2295 -0.0092
  764MPD2    H511289   1.312   1.344  17.664 -1.9302 -2.3502  0.1105
  764MPD2    N111290   1.490   1.770  17.574  0.1234 -0.3813 -0.4700
  764MPD2    H711291   1.491   1.717  17.487 -0.6804 -1.0534 -0.0746
  765MPD2     C11292   1.888   4.210  16.000 -0.4809  0.1444  0.0404
  765MPD2    C111293   1.957   4.317  15.942  0.3163  0.0706  0.1481
  765MPD2    C211294   2.072   4.281  15.875 -0.4294  0.0915 -0.5123
  765MPD2    C311295   2.115   4.150  15.861 -0.1569  0.1793 -0.3243
  765MPD2    C411296   2.039   4.046  15.908  0.4483 -0.0938 -0.3186
  765MPD2    C511297   1.934   4.080  15.987 -0.1722 -0.0625 -1.0437
  765MPD2     H11298   2.122   4.360  15.820  0.8017 -0.4898 -0.2323
  765MPD2    H111299   2.064   3.944  15.881 -0.8228 -0.3878 -0.3560
  765MPD2    H211300   1.795   4.210  16.055 -1.8532  0.5204 -2.2537
  765MPD2    H311301   1.870   3.997  16.015  1.5581 -0.6046  1.2721
  765MPD2     N11302   2.225   4.135  15.776  0.1224  0.4468  0.5252
  765MPD2    H511303   2.278   4.220  15.761 -1.1976  1.4034  1.2606
  765MPD2    N111304   1.896   4.445  15.936  0.0071 -0.3559 -0.1083
  765MPD2    H711305   1.806   4.450  15.984  0.5759  2.0346  0.6941
  766MPD2     C11306   1.457   4.575  15.371 -0.7244 -0.2123 -0.0635
  766MPD2    C111307   1.583   4.537  15.412  0.0059  1.2021 -0.4418
  766MPD2    C211308   1.665   4.464  15.325  0.5997 -0.0879 -0.5772
  766MPD2    C311309   1.622   4.448  15.191 -0.3823 -0.4963 -0.9611
  766MPD2    C411310   1.503   4.497  15.150 -0.3676 -0.0283 -0.0738
  766MPD2    C511311   1.420   4.566  15.237 -0.4495  0.7971  0.1862
  766MPD2     H11312   1.767   4.446  15.358  0.0377  0.3415  1.3526
  766MPD2    H111313   1.475   4.490  15.046 -2.1821  0.0931  0.4033
  766MPD2    H211314   1.389   4.631  15.434 -0.5610  0.6649 -0.6754
  766MPD2    H311315   1.323   4.602  15.207 -0.7519 -0.9341 -0.9089
  766MPD2     N11316   1.705   4.393  15.093 -0.2901 -0.3303  0.3553
  766MPD2    H511317   1.663   4.381  15.002 -0.2496 -1.1587  0.4441
  766MPD2    N111318   1.632   4.582  15.545 -0.5843 -0.1444 -0.1353
  766MPD2    H711319   1.728   4.553  15.560 -0.1372  1.8508  0.9236
  767MPD2     C11320   1.358   0.002  14.886  0.0934 -0.2364  0.0780
  767MPD2    C111321   1.494   4.698  14.874 -0.0317  0.0815 -0.2029
  767MPD2    C211322   1.535   4.609  14.770  0.2060 -0.0083  0.1055
  767MPD2    C311323   1.448   4.549  14.685  0.2213 -0.3863 -0.9791
  767MPD2    C411324   1.313   4.574  14.709  0.2329  0.4881 -0.4127
  767MPD2    C511325   1.272   4.658  14.807  0.4969  0.0383 -0.8257
  767MPD2     H11326   1.634   4.566  14.772  0.0605 -0.3519 -0.1361
  767MPD2    H111327   1.235   4.525  14.652  0.8403 -0.4501 -0.4309
  767MPD2    H211328   1.319   0.070  14.960  2.0954  2.0518 -0.9592
  767MPD2    H311329   1.165   4.677  14.810  0.6855  1.2161 -1.3515
  767MPD2     N11330   1.499   4.457  14.589  0.0418  0.1666 -1.0602
  767MPD2    H511331   1.600   4.450  14.583  0.2253  2.1400 -0.2484
  767MPD2    N111332   1.583   0.031  14.968  0.4800 -0.1188 -0.2568
  767MPD2    H711333   1.545   0.090  15.041 -0.1327  0.8150 -1.3291
  768MPD2     C11334   2.614   2.148  11.209  0.4371 -0.0073  0.0634
  768MPD2    C111335   2.677   2.275  11.189  0.0787  0.0896 -0.0215
  768MPD2    C211336   2.770   2.317  11.284  0.2678  0.1192  0.5066
  768MPD2    C311337   2.805   2.241  11.390  0.1837 -0.1070 -0.1340
  768MPD2    C411338   2.742   2.116  11.406 -0.1492  0.5763 -0.4250
  768MPD2    C511339   2.651   2.070  11.321  0.5377 -0.1932 -0.2908
  768MPD2     H11340   2.826   2.408  11.263 -0.4983  0.5540  0.3557
  768MPD2    H111341   2.770   2.052  11.489  0.7824  1.3259 -0.1602
  768MPD2    H211342   2.536   2.115  11.142  1.0998 -0.7073 -0.3660
  768MPD2    H311343   2.604   1.973  11.324 -1.0809  0.6615  1.7007
  768MPD2     N11344   2.892   2.290  11.494  0.1796 -0.0555 -0.6677
  768MPD2    H511345   2.952   2.369  11.474 -0.5349  0.3984 -1.0257
  768MPD2    N111346   2.619   2.366  11.104 -0.2381 -0.0342  0.5368
  768MPD2    H711347   2.640   2.464  11.123 -2.7389  0.5047  0.5628
  769MPD2     C11348   3.574   0.576  15.287 -0.5271 -0.0738 -1.1338
  769MPD2    C111349   3.449   0.592  15.343 -0.0788 -0.2535 -0.1276
  769MPD2    C211350   3.432   0.672  15.452 -0.4451 -0.4474  0.1585
  769MPD2    C311351   3.536   0.744  15.514 -0.4132  0.2423  0.3838
  769MPD2    C411352   3.665   0.724  15.458  0.0186 -0.1694 -0.7430
  769MPD2    C511353   3.679   0.641  15.347 -0.1383  0.3209  1.0184
  769MPD2     H11354   3.332   0.687  15.489 -0.5272  0.9173 -0.6166
  769MPD2    H111355   3.751   0.783  15.487 -1.1798  1.5735 -0.7262
  769MPD2    H211356   3.583   0.518  15.195 -1.9665 -1.5218 -0.3513
  769MPD2    H311357   3.771   0.631  15.290  0.3835  0.9463  1.7478
  769MPD2     N11358   3.512   0.832  15.628 -0.6991 -0.1297 -0.2658
  769MPD2    H511359   3.416   0.826  15.662 -0.3851 -3.2041  0.0980
  769MPD2    N111360   3.344   0.533  15.270 -0.0378  0.1563  0.0014
  769MPD2    H711361   3.385   0.473  15.199  1.1157 -1.1791  1.7979
  770MPD2     C11362   2.435   4.683  15.118 -0.4747  0.1545  0.7249
  770MPD2    C111363   2.546   4.597  15.132 -0.1654 -0.1751 -0.1283
  770MPD2    C211364   2.659   4.661  15.181  0.1868  0.4504  0.2070
  770MPD2    C311365   2.662   0.074  15.192 -0.5930 -0.0205  0.4936
  770MPD2    C411366   2.544   0.153  15.188  0.5710 -0.1444  0.0927
  770MPD2    C511367   2.437   0.092  15.145 -0.8716  0.4462  0.6641
  770MPD2     H11368   2.754   4.609  15.180 -1.0050 -1.7432 -1.2913
  770MPD2    H111369   2.540   0.261  15.193 -2.4606 -0.2913  0.9766
  770MPD2    H211370   2.338   4.645  15.087 -0.1524 -1.7125  2.0278
  770MPD2    H311371   2.339   0.138  15.139 -0.6515  0.8137  0.0172
  770MPD2     N11372   2.790   0.127  15.221 -0.3172  0.0922  0.1647
  770MPD2    H511373   2.866   0.061  15.210  0.3698  0.8902  0.0686
  770MPD2    N111374   2.543   4.463  15.104  0.1004 -0.2030 -0.3168
  770MPD2    H711375   2.450   4.423  15.096 -0.0335  0.4164 -1.7547
  771MPD2     C11376   4.077   3.540  13.970  0.2936 -0.5591 -0.2656
  771MPD2    C111377   4.007   3.629  13.893 -0.1514  0.5462 -0.3002
  771MPD2    C211378   3.889   3.593  13.824  0.5980 -0.0605  0.0663
  771MPD2    C311379   3.849   3.461  13.815  0.8027 -0.0997 -0.0057
  771MPD2    C411380   3.917   3.370  13.893  0.2053 -0.2378  0.1883
  771MPD2    C511381   4.026   3.410  13.971 -0.0213  0.3039 -0.3426
  771MPD2     H11382   3.830   3.661  13.765  2.6867  0.8603 -0.9678
  771MPD2    H111383   3.893   3.264  13.888  4.0875 -1.1169 -0.3553
  771MPD2    H211384   4.173   3.565  14.014  0.3140  0.6121 -1.0065
  771MPD2    H311385   4.081   3.331  14.020  4.3327  4.6535  1.8025
  771MPD2     N11386   3.734   3.424  13.744  0.0639  0.5256  0.3793
  771MPD2    H511387   3.692   3.502  13.694 -1.7755  0.5908  2.0402
  771MPD2    N111388   4.049   3.763  13.876  0.5340  0.2969  0.5487
  771MPD2    H711389   3.998   3.815  13.805  1.1876 -0.8424 -0.7618
  772MPD2     C11390   3.677   4.194  13.619  0.0400  0.5558  0.4334
  772MPD2    C111391   3.687   4.192  13.756 -0.1405  0.3157 -0.6708
  772MPD2    C211392   3.573   4.185  13.837  0.2630  0.2997  0.1478
  772MPD2    C311393   3.444   4.181  13.783 -0.5545  0.5857 -0.1018
  772MPD2    C411394   3.444   4.169  13.642  0.0771 -1.1725  0.1217
  772MPD2    C511395   3.556   4.178  13.562 -0.4300 -0.3849  0.3428
  772MPD2     H11396   3.590   4.199  13.943  0.4857 -1.8280  0.3934
  772MPD2    H111397   3.349   4.150  13.594 -1.4120  1.2057  2.1068
  772MPD2    H211398   3.760   4.188  13.549  0.8616  2.9383  1.2160
  772MPD2    H311399   3.544   4.182  13.455  1.3785 -1.6194  0.0923
  772MPD2     N11400   3.317   4.170  13.848  0.4197  0.1565  0.0247
  772MPD2    H511401   3.235   4.179  13.789 -0.5163  0.2016  1.3283
  772MPD2    N111402   3.818   4.183  13.815 -0.3303  0.4866  0.0326
  772MPD2    H711403   3.825   4.138  13.906 -1.8801  2.3794  1.0823
  773MPD2     C11404   2.707   0.044   0.223 -0.2106  0.8762 -0.1436
  773MPD2    C111405   2.607   0.003   0.142 -0.5967  0.5271 -0.0786
  773MPD2    C211406   2.613   4.599   0.090 -0.0007  0.8599  0.8745
  773MPD2    C311407   2.714   4.512   0.134  0.1306 -0.6157 -0.4669
  773MPD2    C411408   2.805   4.564   0.224  0.3251  0.0852 -0.0327
  773MPD2    C511409   2.805   4.686   0.265  0.5976  0.1114 -0.1259
  773MPD2     H11410   2.545   4.568   0.012  0.2494 -0.0655  1.0266
  773MPD2    H111411   2.871   4.493   0.271  1.2941  1.2110  0.2984
  773MPD2    H211412   2.704   0.139   0.276  1.7960  0.0937  1.3619
  773MPD2    H311413   2.878   0.011   0.330  0.5237 -0.2901  0.2492
  773MPD2     N11414   2.717   4.377   0.088  0.4720 -0.4780 -0.3135
  773MPD2    H511415   2.640   4.340   0.034  0.2160 -1.3418  0.6442
  773MPD2    N111416   2.488   0.077   0.109  0.0355  0.0895 -0.4506
  773MPD2    H711417   2.420   0.023   0.057  1.1403 -3.5478  1.9409
  774MPD2     C11418   2.649   3.890  13.555 -0.1994  0.6351  0.0080
  774MPD2    C111419   2.531   3.919  13.493 -0.6678 -0.2738 -1.1605
  774MPD2    C211420   2.536   3.989  13.373  0.1008  0.4211  0.5189
  774MPD2    C311421   2.651   4.044  13.326 -0.2373  0.2953 -0.0053
  774MPD2    C411422   2.772   4.011  13.385 -0.1632 -0.0290  0.4693
  774MPD2    C511423   2.769   3.934  13.500  0.2247 -0.8423 -0.4875
  774MPD2     H11424   2.441   4.010  13.325  0.4339  0.6165 -0.0571
  774MPD2    H111425   2.869   4.047  13.351 -0.8084  1.2577  0.0068
  774MPD2    H211426   2.651   3.836  13.649 -0.6785  1.9077  0.7516
  774MPD2    H311427   2.852   3.897  13.558  1.7697  0.9138 -1.5683
  774MPD2     N11428   2.641   4.124  13.218  0.5446 -0.3608  0.0297
  774MPD2    H511429   2.552   4.165  13.191  1.5404  0.4143 -2.0194
  774MPD2    N111430   2.409   3.873  13.554 -0.6857 -0.0946  0.2033
  774MPD2    H711431   2.428   3.814  13.634  4.3053 -1.8308 -2.2884
  775MPD2     C11432   3.775   0.798  16.191 -1.0227 -0.4616  0.1488
  775MPD2    C111433   3.729   0.926  16.204 -0.2444  0.4988 -0.3979
  775MPD2    C211434   3.797   1.024  16.133  0.1430  0.5276 -0.7387
  775MPD2    C311435   3.915   1.000  16.061 -0.4978 -0.6104 -0.5031
  775MPD2    C411436   3.953   0.869  16.044  0.0370 -0.4775  0.6188
  775MPD2    C511437   3.878   0.774  16.109  0.0871 -0.5477  0.0581
  775MPD2     H11438   3.777   1.130  16.144  1.1663  0.8434 -1.8980
  775MPD2    H111439   4.031   0.835  15.977  1.0547 -1.1119  2.1201
  775MPD2    H211440   3.723   0.719  16.245 -0.9800 -0.4458  0.2122
  775MPD2    H311441   3.902   0.671  16.085 -0.4863 -0.4416 -0.9701
  775MPD2     N11442   3.986   1.094  15.981 -0.6095 -0.7689  0.7937
  775MPD2    H511443   4.061   1.060  15.921 -1.2262 -0.0623 -0.3870
  775MPD2    N111444   3.615   0.952  16.286  0.6861 -0.1648  0.1919
  775MPD2    H711445   3.581   0.868  16.331 -1.4730 -0.4121 -1.8869
  776MPD2     C11446   3.202   1.190  11.963 -0.5222  0.0068  0.1094
  776MPD2    C111447   3.102   1.133  11.886 -0.0117  0.0969 -0.5723
  776MPD2    C211448   3.005   1.210  11.824 -0.2264 -0.4362  0.6178
  776MPD2    C311449   3.016   1.345  11.836 -0.5253  0.9787 -0.1622
  776MPD2    C411450   3.105   1.406  11.913 -0.0114 -0.2456  0.4766
  776MPD2    C511451   3.200   1.325  11.973 -0.3710 -0.5771 -0.0616
  776MPD2     H11452   2.915   1.166  11.784 -0.5925  0.1327  0.8111
  776MPD2    H111453   3.110   1.514  11.922  1.9629 -0.2978 -0.0074
  776MPD2    H211454   3.282   1.133  12.009  0.1804  1.7345  1.0012
  776MPD2    H311455   3.277   1.368  12.036  2.3722 -4.4623 -0.7214
  776MPD2     N11456   2.923   1.434  11.784 -0.3065  0.3871  0.0267
  776MPD2    H511457   2.920   1.531  11.814  1.7440 -0.2579  2.3041
  776MPD2    N111458   3.101   0.994  11.876 -0.3548 -0.8548  0.4267
  776MPD2    H711459   3.168   0.946  11.935  1.8384 -1.5764 -2.6500
  777MPD2     C11460   2.870   3.620   0.581 -0.8792  0.4816  0.3511
  777MPD2    C111461   2.804   3.543   0.674  0.0461 -0.5557  0.1949
  777MPD2    C211462   2.762   3.416   0.634  0.6391  0.2203  0.0292
  777MPD2    C311463   2.783   3.360   0.509 -0.1099 -0.1332  0.5777
  777MPD2    C411464   2.862   3.435   0.424  0.0051  0.5932  0.6069
  777MPD2    C511465   2.904   3.563   0.453 -0.9635 -0.4635 -0.8077
  777MPD2     H11466   2.701   3.362   0.705  0.4073  0.6078  0.1278
  777MPD2    H111467   2.877   3.410   0.319  0.7356 -1.3883  1.1999
  777MPD2    H211468   2.907   3.719   0.602 -0.8530 -0.0067  2.6223
  777MPD2    H311469   2.961   3.616   0.378  0.1557  1.6466  1.5749
  777MPD2     N11470   2.724   3.234   0.477  0.4666  0.6835 -0.5595
  777MPD2    H511471   2.653   3.196   0.538  1.9074  0.4351  0.9592
  777MPD2    N111472   2.783   3.599   0.800  0.3316 -0.2462 -0.2048
  777MPD2    H711473   2.818   3.692   0.821  0.5322 -0.4327  0.2957
  778MPD2     C11474   4.241   3.838  15.253 -0.4766  0.2467  0.0697
  778MPD2    C111475   4.244   3.713  15.197  0.4090  0.3512  0.5891
  778MPD2    C211476   4.277   3.703  15.066  0.1483 -0.1319 -0.1760
  778MPD2    C311477   4.298   3.813  14.987 -0.2314  1.1721  0.1860
  778MPD2    C411478   4.298   3.937  15.046  0.6937  0.1457  0.3527
  778MPD2    C511479   4.264   3.949  15.179 -0.3458 -0.7142  0.5334
  778MPD2     H11480   4.287   3.611  15.009 -2.4111 -0.5363  0.0438
  778MPD2    H111481   4.316   4.023  14.983 -0.3277  0.4997  0.5343
  778MPD2    H211482   4.210   3.862  15.354 -0.7076 -0.2014  0.1088
  778MPD2    H311483   4.269   4.050  15.217  0.5384 -0.2790 -0.7420
  778MPD2     N11484   4.336   3.795  14.855 -0.6798 -0.1348 -0.8193
  778MPD2    H511485   4.317   3.704  14.813 -1.7300 -0.5169  0.4980
  778MPD2    N111486   4.220   3.593  15.271  0.2686  0.5680 -0.6115
  778MPD2    H711487   4.224   3.513  15.208 -0.6199 -1.5286  2.0039
  779MPD2     C11488   3.757   2.352  14.022 -0.0602  0.0610 -0.1477
  779MPD2    C111489   3.790   2.319  14.156 -0.5642 -0.2945  0.2331
  779MPD2    C211490   3.814   2.417  14.257  1.0628 -0.1203  0.1364
  779MPD2    C311491   3.822   2.550  14.223  0.2776  0.4141  0.2664
  779MPD2    C411492   3.815   2.580  14.093  0.3710 -0.3778 -0.0482
  779MPD2    C511493   3.777   2.489  13.996  0.0702  0.1063 -0.1773
  779MPD2     H11494   3.833   2.396  14.361 -0.0709  0.7624  0.5289
  779MPD2    H111495   3.839   2.679  14.055  0.9719 -0.3933  0.2817
  779MPD2    H211496   3.752   2.283  13.939  1.5095 -3.9814  3.1274
  779MPD2    H311497   3.747   2.532  13.901 -0.1526 -0.8576 -0.5479
  779MPD2     N11498   3.848   2.647  14.320 -0.1814  0.7205  0.2039
  779MPD2    H511499   3.872   2.613  14.413  1.0546  1.6053  0.1972
  779MPD2    N111500   3.805   2.186  14.206  0.0884 -0.3721  0.2619
  779MPD2    H711501   3.819   2.170  14.305 -0.9819 -2.1510  0.1234
  780MPD2     C11502   3.529   1.933   0.982  0.1496 -0.1167  0.1844
  780MPD2    C111503   3.397   1.906   0.963  0.6967 -0.9099 -0.0370
  780MPD2    C211504   3.329   2.000   0.887  0.1328 -0.1743  0.7203
  780MPD2    C311505   3.373   2.130   0.863  0.6067 -0.4467  0.2637
  780MPD2    C411506   3.507   2.155   0.889  0.0087 -0.3669  0.3568
  780MPD2    C511507   3.585   2.053   0.943  0.5642  0.2598 -0.9260
  780MPD2     H11508   3.225   1.984   0.862 -0.3577  1.4122  1.7258
  780MPD2    H111509   3.551   2.253   0.870  1.4279 -0.7152  1.8220
  780MPD2    H211510   3.590   1.863   1.038 -0.4645 -0.9552 -0.1983
  780MPD2    H311511   3.689   2.073   0.966  0.9350 -0.4322 -2.0151
  780MPD2     N11512   3.283   2.216   0.800  0.7089 -0.0345  0.0657
  780MPD2    H511513   3.196   2.171   0.773  0.4732 -0.7450  1.9648
  780MPD2    N111514   3.353   1.779   0.996 -0.1589 -0.4449 -0.7758
  780MPD2    H711515   3.422   1.718   1.039  2.7023  2.1393 -1.7171
  781MPD2     C11516   0.160   4.358  12.180 -0.3095  0.3320 -0.4198
  781MPD2    C111517   0.278   4.306  12.210 -0.1842 -0.8199 -0.5885
  781MPD2    C211518   0.384   4.321  12.117 -0.4581 -0.2726 -0.2295
  781MPD2    C311519   0.366   4.392  11.997  0.0588 -0.4894  0.0693
  781MPD2    C411520   0.235   4.431  11.962  0.2293  0.3051 -0.2827
  781MPD2    C511521   0.135   4.416  12.055  0.1188 -0.0649  0.1961
  781MPD2     H11522   0.481   4.275  12.130 -0.5308 -0.0770  0.9769
  781MPD2    H111523   0.206   4.478  11.869  1.2506 -1.9168 -1.7154
  781MPD2    H211524   0.077   4.337  12.246 -0.7168  2.4489 -0.2598
  781MPD2    H311525   0.035   4.438  12.018  0.2612 -0.2600 -0.3053
  781MPD2     N11526   0.463   4.409  11.893  0.1683 -0.3813  0.2412
  781MPD2    H511527   0.429   4.462  11.813 -1.6421 -1.6540  0.1765
  781MPD2    N111528   0.313   4.236  12.329  0.5989 -0.1707 -0.4866
  781MPD2    H711529   0.411   4.209  12.331  0.6115 -0.1462 -0.8936
  782MPD2     C11530   3.490   0.721  10.481 -0.3054 -0.8615  0.1997
  782MPD2    C111531   3.613   0.665  10.490  0.4792  0.2144 -0.2923
  782MPD2    C211532   3.695   0.697  10.605 -0.4000 -0.1454  0.0623
  782MPD2    C311533   3.656   0.781  10.703  0.2922 -0.0366 -0.5087
  782MPD2    C411534   3.538   0.849  10.675 -0.5791  0.2000 -0.4393
  782MPD2    C511535   3.456   0.814  10.573 -0.4253  0.8556 -0.6256
  782MPD2     H11536   3.789   0.649  10.630  0.0673 -0.1566 -1.7202
  782MPD2    H111537   3.513   0.927  10.747  1.0357  0.4604 -0.1743
  782MPD2    H211538   3.420   0.706  10.399  1.3466 -1.1307 -1.1683
  782MPD2    H311539   3.353   0.847  10.568 -0.6489  0.0846 -1.0671
  782MPD2     N11540   3.738   0.806  10.818 -0.0020 -0.5820 -0.0844
  782MPD2    H511541   3.831   0.776  10.792  0.6202  1.7832 -0.5693
  782MPD2    N111542   3.669   0.578  10.391 -0.0429 -0.2685 -0.1290
  782MPD2    H711543   3.601   0.559  10.317 -1.0981  0.1690  0.7384
  783MPD2     C11544   3.455   4.471  10.479 -0.0391 -0.5479  0.1317
  783MPD2    C111545   3.410   4.600  10.506  0.4862  0.5973 -0.1959
  783MPD2    C211546   3.456   4.708  10.433  0.1437  0.0713 -0.0791
  783MPD2    C311547   3.563   4.690  10.350  0.0853 -0.2327  0.3530
  783MPD2    C411548   3.609   4.564  10.326 -0.9599 -0.0224  0.6864
  783MPD2    C511549   3.558   4.460  10.388 -0.2756  0.2823 -0.6970
  783MPD2     H11550   3.417   0.086  10.449  2.4056  0.7946  0.8385
  783MPD2    H111551   3.684   4.552  10.249 -0.5083 -0.8995  1.2667
  783MPD2    H211552   3.412   4.386  10.530  0.3704 -0.0288  1.3615
  783MPD2    H311553   3.607   4.368  10.361 -0.6163 -0.8160  2.5232
  783MPD2     N11554   3.605   0.089  10.290  0.3151  0.0935 -0.7280
  783MPD2    H511555   3.568   0.178  10.319 -0.8443 -0.5641 -0.2267
  783MPD2    N111556   3.320   4.621  10.615  0.0539 -0.3043  0.0081
  783MPD2    H711557   3.308   4.535  10.667 -1.3345 -0.4918 -0.6250
  784MPD2     C11558   0.993   0.319   0.678 -0.9119 -0.8749  0.0016
  784MPD2    C111559   1.019   0.458   0.689  0.3822  0.1897 -0.1301
  784MPD2    C211560   0.949   0.549   0.610 -1.0415  0.5800 -0.3878
  784MPD2    C311561   0.854   0.505   0.519  0.4443  0.5667  0.7588
  784MPD2    C411562   0.839   0.370   0.495  0.0778  0.0523  0.3770
  784MPD2    C511563   0.918   0.280   0.572 -0.5115 -0.6266 -0.2826
  784MPD2     H11564   0.969   0.655   0.623  0.3748 -0.0215  2.4079
  784MPD2    H111565   0.770   0.336   0.419  0.1296 -0.7565  0.6925
  784MPD2    H211566   1.043   0.248   0.743  0.2928  0.8422  0.9559
  784MPD2    H311567   0.901   0.175   0.552 -1.1963 -0.1069 -2.3921
  784MPD2     N11568   0.767   0.605   0.467  0.0134  0.4629  0.3244
  784MPD2    H511569   0.782   0.704   0.485  0.2395  0.3483  0.7506
  784MPD2    N111570   1.098   0.505   0.792  0.1300 -0.2973 -0.2840
  784MPD2    H711571   1.109   0.605   0.807 -0.5589 -0.3586  0.6639
  785MPD2     C11572   0.979   3.001  10.458 -0.3943 -0.4317  0.4405
  785MPD2    C111573   0.947   3.049  10.579  0.5325  0.0667 -0.7334
  785MPD2    C211574   0.814   3.062  10.607 -0.0271 -0.2280 -0.0570
  785MPD2    C311575   0.712   3.030  10.519 -0.0678  0.1633 -0.2215
  785MPD2    C411576   0.746   2.967  10.398 -0.3598  0.3835  0.3023
  785MPD2    C511577   0.884   2.951  10.374 -0.2202 -0.2020  0.4932
  785MPD2     H11578   0.773   3.099  10.700  1.4073  1.5702 -0.1336
  785MPD2    H111579   0.677   2.930  10.323  0.6202  0.3595 -0.5858
  785MPD2    H211580   1.082   3.006  10.426 -1.2016  1.0210 -1.9808
  785MPD2    H311581   0.913   2.919  10.274  1.7142  1.7175  0.4653
  785MPD2     N11582   0.578   3.063  10.559  0.3536 -0.0599  0.1911
  785MPD2    H511583   0.562   3.094  10.654  0.0518  3.5397 -1.0578
  785MPD2    N111584   1.045   3.105  10.668  0.6069 -0.4288 -0.2488
  785MPD2    H711585   1.142   3.102  10.637  1.1284  3.4902  1.0150
  786MPD2     C11586   4.420   2.106  15.023  0.3151 -0.5146  0.1914
  786MPD2    C111587   4.364   1.984  15.064 -1.1118  0.5538 -0.1439
  786MPD2    C211588   4.353   1.952  15.195  0.2139 -0.1806  0.1343
  786MPD2    C311589   4.392   2.042  15.295 -0.1848 -1.1599 -0.7625
  786MPD2    C411590   4.438   2.164  15.248  0.0305 -0.1206  0.7030
  786MPD2    C511591   4.458   2.195  15.117 -0.2421  0.0737  1.1678
  786MPD2     H11592   4.320   1.851  15.219  1.5169 -0.0822  2.3354
  786MPD2    H111593   4.474   2.240  15.316 -0.1011  0.2621  0.3457
  786MPD2    H211594   4.442   2.134  14.921 -0.3190  0.3313  0.2875
  786MPD2    H311595   4.490   2.295  15.094  0.2849 -0.3486  0.0604
  786MPD2     N11596   4.396   2.008  15.428  0.6026  0.3526 -0.4816
  786MPD2    H511597   4.410   2.081  15.497 -2.3157 -0.0831  0.6030
  786MPD2    N111598   4.326   1.876  14.977  0.2602  0.5476  0.5516
  786MPD2    H711599   4.283   1.795  15.021 -0.1017  1.0580  1.1462
  787MPD2     C11600   4.649   1.405  15.143  0.0761  0.1612  0.7998
  787MPD2    C111601   4.582   1.354  15.029 -0.5490 -0.4742  0.7979
  787MPD2    C211602   4.610   1.228  14.994 -0.5520 -0.2291  0.0262
  787MPD2    C311603   4.695   1.145  15.055  0.1523  0.1142  0.4510
  787MPD2    C411604   0.034   1.201  15.164  0.7776 -0.4202  0.0521
  787MPD2    C511605   0.017   1.321  15.202  0.1230  0.3040  0.3229
  787MPD2     H11606   4.558   1.179  14.912 -0.8781  1.5735 -0.8250
  787MPD2    H111607   0.092   1.143  15.234 -0.3215  0.0278  1.3214
  787MPD2    H211608   4.649   1.511  15.168 -2.6417 -0.1507  2.0327
  787MPD2    H311609   0.065   1.350  15.295  1.3381  1.3267 -0.6384
  787MPD2     N11610   0.007   1.018  14.998  0.2957  0.3790  0.1171
  787MPD2    H511611   4.697   0.988  14.907  0.9284  0.2853 -0.0761
  787MPD2    N111612   4.513   1.445  14.944  0.1786  0.6630 -0.0681
  787MPD2    H711613   4.523   1.545  14.959  0.4641  0.7928 -1.1632
  788MPD2     C11614   0.985   4.344   1.091 -0.0211  0.0533 -0.6762
  788MPD2    C111615   0.961   4.243   0.994 -0.0914  0.1430 -0.4507
  788MPD2    C211616   1.007   4.272   0.864  0.1868 -0.0815  0.1233
  788MPD2    C311617   1.068   4.393   0.826  0.0047 -0.3136  0.1664
  788MPD2    C411618   1.074   4.491   0.926  0.5047  0.1270 -0.6093
  788MPD2    C511619   1.033   4.463   1.054  0.0583 -0.5204  0.1733
  788MPD2     H11620   1.014   4.192   0.791  2.1462 -0.0860  0.2998
  788MPD2    H111621   1.116   4.590   0.907 -0.4270  0.8787  1.3173
  788MPD2    H211622   0.950   4.327   1.192  0.1420  1.4124 -0.3816
  788MPD2    H311623   1.029   4.541   1.130 -1.0143 -0.9585  0.5588
  788MPD2     N11624   1.121   4.418   0.702  0.4377 -0.2325  0.5388
  788MPD2    H511625   1.164   4.508   0.686  1.3660 -0.9731 -1.1559
  788MPD2    N111626   0.899   4.122   1.014  0.3744  0.5858 -0.3470
  788MPD2    H711627   0.887   4.071   0.926  0.2923 -0.6786  0.3990
  789MPD2     C11628   2.176   4.584  16.170 -0.2646 -0.2328  0.4020
  789MPD2    C111629   2.115   4.484  16.244 -0.5630  0.2671 -0.5132
  789MPD2    C211630   1.992   4.505  16.307  0.1256  0.2887  1.0113
  789MPD2    C311631   1.939   4.633  16.305 -0.4716  0.1507 -0.4082
  789MPD2    C411632   2.012   0.011  16.242  0.3157 -0.1424  0.1681
  789MPD2    C511633   2.130   4.712  16.182 -0.4814 -0.1146  0.2862
  789MPD2     H11634   1.935   4.420  16.342  1.2724 -0.5519  0.8523
  789MPD2    H111635   1.962   0.107  16.242 -1.3668 -1.0117 -0.5341
  789MPD2    H211636   2.256   4.553  16.104 -1.4304 -1.9143 -0.2227
  789MPD2    H311637   2.174   0.069  16.124  2.4786  1.2375  4.3432
  789MPD2     N11638   1.809   4.672  16.362  0.3564  0.5460  0.3690
  789MPD2    H511639   1.788   0.047  16.342 -0.7291  0.7857  2.7010
  789MPD2    N111640   2.153   4.343  16.231 -0.6592  0.3936  0.0996
  789MPD2    H711641   2.085   4.276  16.265  1.3357 -1.5396  0.2683
  790MPD2     C11642   3.104   1.487  13.602 -0.5155  0.2646  0.3529
  790MPD2    C111643   3.019   1.381  13.568  0.0931 -0.2421  0.1162
  790MPD2    C211644   2.962   1.369  13.441  0.0264  0.2368  0.1852
  790MPD2    C311645   3.008   1.455  13.342 -0.1012  1.2075 -0.0049
  790MPD2    C411646   3.103   1.554  13.374 -0.5032  0.1210 -0.5884
  790MPD2    C511647   3.157   1.561  13.499 -0.7006  0.5081  0.1066
  790MPD2     H11648   2.875   1.308  13.421 -0.0750  0.5134 -0.2042
  790MPD2    H111649   3.134   1.625  13.298 -0.5601  0.9264  0.1299
  790MPD2    H211650   3.138   1.491  13.705  0.1770  1.9305  0.0688
  790MPD2    H311651   3.246   1.620  13.517 -0.4016  0.3012 -0.7042
  790MPD2     N11652   2.943   1.440  13.215 -0.3918  0.7033  0.4113
  790MPD2    H511653   2.874   1.367  13.205 -0.9421  1.3632 -0.6210
  790MPD2    N111654   3.000   1.284  13.667 -0.0308  0.2749 -0.1208
  790MPD2    H711655   3.051   1.302  13.753  1.0824 -0.7360 -0.5652
  791MPD2     C11656   2.330   1.320  12.825  0.2008  0.4892 -0.0604
  791MPD2    C111657   2.423   1.253  12.748 -0.3272 -0.1882  0.8250
  791MPD2    C211658   2.378   1.175  12.640  0.0006  0.1037  0.4302
  791MPD2    C311659   2.242   1.174  12.608 -0.2497 -0.0267  0.3353
  791MPD2    C411660   2.158   1.239  12.690 -0.2879  0.5533 -0.2012
  791MPD2    C511661   2.195   1.304  12.802 -0.4925  0.1655 -0.0267
  791MPD2     H11662   2.447   1.113  12.585  1.8759  2.6863 -0.1636
  791MPD2    H111663   2.055   1.265  12.665  0.2050 -0.0633 -2.8297
  791MPD2    H211664   2.345   1.382  12.913  2.6525 -0.2704  0.0377
  791MPD2    H311665   2.117   1.356  12.856 -0.2414 -0.9218  1.3938
  791MPD2     N11666   2.191   1.088  12.506  0.4122 -0.0973 -0.4833
  791MPD2    H511667   2.252   1.021  12.461  1.4577  0.1356  0.5917
  791MPD2    N111668   2.564   1.264  12.774 -0.5759  0.3003  0.1761
  791MPD2    H711669   2.623   1.238  12.696 -1.5305  0.2661 -0.5406
  792MPD2     C11670   3.007   0.754  11.127  0.6185 -0.6524  0.0929
  792MPD2    C111671   3.055   0.764  11.001  0.5023 -0.9490 -0.2947
  792MPD2    C211672   3.034   0.660  10.908 -0.4343  0.0727 -0.1712
  792MPD2    C311673   2.962   0.547  10.952 -0.0969 -0.1949 -0.4224
  792MPD2    C411674   2.904   0.555  11.078  0.2253 -0.6991  0.1236
  792MPD2    C511675   2.930   0.650  11.169  0.0471 -0.3594 -0.0021
  792MPD2     H11676   3.081   0.660  10.810  0.2588  1.6940  0.1641
  792MPD2    H111677   2.859   0.464  11.118  1.1688  0.1547  3.0770
  792MPD2    H211678   3.020   0.845  11.184  2.9683  1.1716 -3.3265
  792MPD2    H311679   2.892   0.645  11.270  0.5446  1.2327  0.2563
  792MPD2     N11680   2.952   0.425  10.880  0.7025 -0.3446  0.0823
  792MPD2    H511681   2.887   0.359  10.921  0.3393  0.1995  0.3844
  792MPD2    N111682   3.110   0.892  10.973  0.1265  0.0225 -0.3198
  792MPD2    H711683   3.115   0.964  11.045  1.0163 -3.1627  2.8101
  793MPD2     C11684   3.341   0.113  10.032 -0.6169 -0.3789  0.3889
  793MPD2    C111685   3.299   0.242  10.019 -0.9270 -0.7440 -0.1585
  793MPD2    C211686   3.189   0.291  10.096  0.0237 -0.1753  0.2905
  793MPD2    C311687   3.130   0.209  10.188 -0.4235 -0.4611 -0.1299
  793MPD2    C411688   3.169   0.078  10.190  0.2940 -0.4490 -0.1320
  793MPD2    C511689   3.278   0.024  10.118  0.3478  0.3985 -0.4208
  793MPD2     H11690   3.155   0.394  10.089  2.0444  0.3322 -2.3176
  793MPD2    H111691   3.130   0.013  10.267  1.3083 -1.8541 -0.8091
  793MPD2    H211692   3.413   0.067   9.965 -1.5584  0.1098 -0.9605
  793MPD2    H311693   3.310   4.643  10.127 -0.6720  0.1450  0.3004
  793MPD2     N11694   3.033   0.262  10.279 -0.1390  0.1331  0.0376
  793MPD2    H511695   3.028   0.361  10.302  1.3864  0.0848  0.5374
  793MPD2    N111696   3.367   0.338   9.943  0.1220  0.3130  0.0941
  793MPD2    H711697   3.320   0.428   9.943 -0.5602 -0.0392 -0.8227
  794MPD2     C11698   2.333   0.899  17.598  0.7931  0.4384  0.5435
  794MPD2    C111699   2.301   0.800  17.516 -0.4097  0.0960  0.5326
  794MPD2    C211700   2.282   0.838  17.390 -0.3518 -0.0333 -0.3331
  794MPD2    C311701   2.275   0.969  17.355 -0.8829 -0.1613  0.0474
  794MPD2    C411702   2.281   1.071  17.453 -0.7009 -0.1874  0.9375
  794MPD2    C511703   2.321   1.035  17.576  0.3631  0.7781 -0.0120
  794MPD2     H11704   2.275   0.763  17.313 -1.7480 -0.9859  0.7239
  794MPD2    H111705   2.262   1.176  17.431 -1.2538 -0.6553 -0.8690
  794MPD2    H211706   2.364   0.873   0.009 -0.3743  2.1508  1.3380
  794MPD2    H311707   2.335   1.104  17.658 -0.5191  3.1097 -1.7939
  794MPD2     N11708   2.237   1.020  17.228  0.2940  0.3931 -0.9673
  794MPD2    H511709   2.242   1.120  17.211 -0.8730  0.4153 -1.1890
  794MPD2    N111710   2.277   0.665  17.550 -0.0891 -0.2012  0.3258
  794MPD2    H711711   2.253   0.600  17.476  0.4517  1.1116 -1.0133
  795MPD2     C11712   0.722   3.077  13.068 -0.0725  0.0176  0.7407
  795MPD2    C111713   0.672   2.958  13.122 -0.1448  0.8397  0.1797
  795MPD2    C211714   0.765   2.881  13.190 -0.6797 -0.0416  0.0532
  795MPD2    C311715   0.901   2.901  13.178  0.4313 -0.6495  0.0619
  795MPD2    C411716   0.950   3.019  13.124  0.1779  0.7742  0.3716
  795MPD2    C511717   0.854   3.098  13.075 -0.1343  1.1704  0.0691
  795MPD2     H11718   0.737   2.794  13.248 -0.7610  0.1650  0.3203
  795MPD2    H111719   1.055   3.034  13.105 -0.0316  2.2682  0.4158
  795MPD2    H211720   0.657   3.149  13.020  0.2898  0.3512  0.7549
  795MPD2    H311721   0.885   3.186  13.021 -1.8742  0.6618 -1.7606
  795MPD2     N11722   0.993   2.802  13.234 -0.1003 -0.7914  0.0122
  795MPD2    H511723   0.956   2.712  13.260  1.3573 -1.5369 -0.4938
  795MPD2    N111724   0.536   2.929  13.123 -0.3630 -0.2214 -0.0050
  795MPD2    H711725   0.506   2.852  13.183 -0.6273 -1.3481 -1.5676
  796MPD2     C11726   4.225   4.320  16.134  0.2575 -0.2699  0.3258
  796MPD2    C111727   4.333   4.376  16.194  0.3633 -0.6348  0.2687
  796MPD2    C211728   4.364   4.508  16.165 -0.0377  0.2558 -1.4826
  796MPD2    C311729   4.283   4.578  16.074 -0.3484  0.9124 -0.0152
  796MPD2    C411730   4.169   4.519  16.029 -0.1249 -0.2132 -0.1863
  796MPD2    C511731   4.137   4.393  16.065  0.4042 -0.3457  0.1581
  796MPD2     H11732   4.439   4.567  16.216 -0.8565  1.9385 -2.2162
  796MPD2    H111733   4.110   4.572  15.955 -1.3661 -0.4326  0.6526
  796MPD2    H211734   4.205   4.214  16.148  0.0216 -0.2738 -0.0496
  796MPD2    H311735   4.055   4.335  16.024 -1.7695  3.3165 -0.7162
  796MPD2     N11736   4.322   4.706  16.023 -0.0776 -0.0299  0.4708
  796MPD2    H511737   4.405   0.025  16.065 -0.0673  2.2345 -1.7353
  796MPD2    N111738   4.406   4.291  16.279 -0.0925  0.4365  1.1192
  796MPD2    H711739   4.379   4.193  16.271 -0.3504  0.5992  0.0108
  797MPD2     C11740   0.452   3.599  17.403 -0.4706 -0.3948  0.4773
  797MPD2    C111741   0.585   3.609  17.367  0.8581 -0.3065  0.1578
  797MPD2    C211742   0.626   3.713  17.289 -0.1196 -0.6868  0.0994
  797MPD2    C311743   0.532   3.805  17.249  0.0595 -0.1268  0.7384
  797MPD2    C411744   0.398   3.778  17.267  0.1029 -0.3316  0.1525
  797MPD2    C511745   0.354   3.677  17.347  0.7061  0.5367 -0.2215
  797MPD2     H11746   0.731   3.723  17.262  0.5859  0.1113  3.0657
  797MPD2    H111747   0.329   3.842  17.212  0.4497  0.5261  0.7098
  797MPD2    H211748   0.423   3.527  17.479 -0.1684  2.0288  2.8908
  797MPD2    H311749   0.252   3.646  17.363  0.9592 -1.1962 -1.9936
  797MPD2     N11750   0.571   3.922  17.180  0.4833 -0.1511 -0.8194
  797MPD2    H511751   0.501   3.971  17.126 -0.1349  0.0040  0.1134
  797MPD2    N111752   0.691   3.536  17.432  0.2472  0.6792 -0.1858
  797MPD2    H711753   0.784   3.555  17.399  0.6479 -2.5790 -0.9681
  798MPD2     C11754   1.238   4.094  17.457  0.2012  0.1399  0.7702
  798MPD2    C111755   1.122   4.044  17.396  0.0190  0.3177  0.0186
  798MPD2    C211756   1.085   3.916  17.433 -0.0430 -0.0724  0.2947
  798MPD2    C311757   1.139   3.853  17.543 -0.5578  0.7823  0.1775
  798MPD2    C411758   1.241   3.908  17.613  0.0890 -0.3425  0.6532
  798MPD2    C511759   1.296   4.025  17.559  0.2763  0.2200  0.2537
  798MPD2     H11760   0.996   3.868  17.394  0.6420  0.7915 -2.3758
  798MPD2    H111761   1.293   3.850  17.688 -0.4571 -0.6268  0.8126
  798MPD2    H211762   1.277   4.193  17.436  1.1565 -0.4441 -0.1851
  798MPD2    H311763   1.385   4.060  17.610  0.9626 -0.3704 -0.5273
  798MPD2     N11764   1.078   3.730  17.571 -0.0104 -0.0226 -0.5240
  798MPD2    H511765   1.016   3.699  17.497  1.9834 -2.1255 -1.2731
  798MPD2    N111766   1.033   4.102  17.300  0.1719  0.3909  0.4295
  798MPD2    H711767   0.950   4.047  17.282  2.2179 -1.9093 -2.0017
  799MPD2     C11768   4.457   0.970  14.489 -0.1940 -0.0408  0.4192
  799MPD2    C111769   4.427   0.878  14.396 -0.3837 -0.1705 -0.1921
  799MPD2    C211770   4.412   0.912  14.258 -0.2924  0.1699 -0.5998
  799MPD2    C311771   4.426   1.046  14.221 -0.3787  0.3435  0.3807
  799MPD2    C411772   4.450   1.138  14.326  0.6586 -0.0849  0.3675
  799MPD2    C511773   4.472   1.101  14.455  0.7606 -0.3684 -0.3274
  799MPD2     H11774   4.398   0.828  14.191 -2.0127 -2.7611  3.4160
  799MPD2    H111775   4.477   1.240  14.299 -0.2020 -0.5598 -2.3604
  799MPD2    H211776   4.482   0.948  14.592  0.9677  0.5698  0.2638
  799MPD2    H311777   4.495   1.167  14.537  0.1635  0.2964 -0.7021
  799MPD2     N11778   4.440   1.081  14.087  1.1472  0.5008  0.4387
  799MPD2    H511779   4.472   1.176  14.070  2.1348 -0.0548 -0.8583
  799MPD2    N111780   4.424   0.736  14.428 -0.1563  0.4303  0.2420
  799MPD2    H711781   4.377   0.678  14.358  2.2314 -2.3781  0.9638
  800MPD2     C11782   0.205   1.846  14.334 -0.6307 -0.1234  1.4733
  800MPD2    C111783   0.322   1.918  14.325 -0.0223 -0.5525 -0.0829
  800MPD2    C211784   0.401   1.901  14.206 -0.3778  0.3561 -0.0540
  800MPD2    C311785   0.357   1.802  14.114  0.5586 -0.2481  0.0917
  800MPD2    C411786   0.250   1.718  14.143  0.3917 -0.4007 -0.7302
  800MPD2    C511787   0.169   1.745  14.253  0.2991 -0.8847  0.8414
  800MPD2     H11788   0.479   1.974  14.185  1.1027 -1.1263  0.3056
  800MPD2    H111789   0.225   1.636  14.078 -0.0388 -1.3061  0.5744
  800MPD2    H211790   0.140   1.857  14.420 -3.1816  2.4803 -0.8081
  800MPD2    H311791   0.078   1.688  14.269 -1.6299  1.6452 -1.1704
  800MPD2     N11792   0.441   1.787  14.001 -0.2907 -0.2825 -0.6533
  800MPD2    H511793   0.526   1.842  13.997 -0.3247 -0.2141 -0.4160
  800MPD2    N111794   0.357   2.009  14.430  0.0115 -0.2668 -0.0513
  800MPD2    H711795   0.291   2.021  14.507  0.4905  0.7414  0.2066
  801MPD2     C11796   4.669   2.450  14.777 -0.3236 -0.0740  0.3238
  801MPD2    C111797   4.720   2.383  14.668  0.0796 -0.0098 -0.9306
  801MPD2    C211798   4.631   2.328  14.575  0.1258 -0.3551 -0.8013
  801MPD2    C311799   4.494   2.339  14.601 -0.2210 -0.7253  0.0199
  801MPD2    C411800   4.447   2.386  14.717  0.1707  0.0985  0.2209
  801MPD2    C511801   4.535   2.457  14.800 -0.3365 -0.6331 -0.1771
  801MPD2     H11802   4.663   2.274  14.487 -1.0895  0.2890 -1.6286
  801MPD2    H111803   4.342   2.392  14.743  0.1837  1.1582  0.0481
  801MPD2    H211804   0.011   2.514  14.836  0.4581 -0.6690  0.1199
  801MPD2    H311805   4.508   2.494  14.898  0.6293 -1.2148  0.3012
  801MPD2     N11806   4.401   2.287  14.505  0.5549  0.8413  0.1357
  801MPD2    H511807   4.309   2.261  14.539  0.4970  2.4012  1.1721
  801MPD2    N111808   0.136   2.356  14.649 -0.4204 -0.3069  0.1400
  801MPD2    H711809   0.156   2.301  14.566  1.4991 -1.3085  1.2652
  802MPD2     C11810   4.074   3.202   0.967  0.5749  0.1391 -0.2675
  802MPD2    C111811   3.960   3.140   0.921  0.4136  0.1490 -0.4036
  802MPD2    C211812   3.977   3.023   0.851  0.2269 -0.1932 -0.2144
  802MPD2    C311813   4.101   2.961   0.841 -0.1945  0.1357  0.0200
  802MPD2    C411814   4.217   3.029   0.890 -0.1552  0.3591  0.2674
  802MPD2    C511815   4.198   3.158   0.942 -0.6419  0.5982  0.4215
  802MPD2     H11816   3.896   2.962   0.813  1.1157 -1.4946 -0.0162
  802MPD2    H111817   4.311   2.976   0.882  0.2415  0.8658  1.6485
  802MPD2    H211818   4.062   3.304   1.003  0.2851  0.4083 -1.1121
  802MPD2    H311819   4.280   3.211   0.988 -0.9847  1.3465  0.1769
  802MPD2     N11820   4.109   2.839   0.773 -0.8462 -0.2002  0.5368
  802MPD2    H511821   4.021   2.792   0.754 -1.0746 -0.1416  1.4612
  802MPD2    N111822   3.832   3.201   0.916 -0.0928  0.1280 -0.2463
  802MPD2    H711823   3.762   3.136   0.880  2.3600 -2.3530 -0.5210
  803MPD2     C11824   1.257   0.590  11.496 -0.1145  0.5481  0.2763
  803MPD2    C111825   1.241   0.700  11.580 -0.4868 -0.0405 -0.0147
  803MPD2    C211826   1.197   0.684  11.711  0.1892  0.0192  0.4133
  803MPD2    C311827   1.139   0.561  11.746  0.0943 -0.1150  0.2079
  803MPD2    C411828   1.151   0.452  11.658 -0.6136 -0.0244  0.1135
  803MPD2    C511829   1.211   0.467  11.532  0.5172  0.0726 -0.8473
  803MPD2     H11830   1.200   0.770  11.778  0.4350 -0.8603  1.5203
  803MPD2    H111831   1.117   0.352  11.685  0.4654 -0.4475 -0.0931
  803MPD2    H211832   1.294   0.606  11.396  2.4172  0.0937  1.1269
  803MPD2    H311833   1.220   0.388  11.458  0.7798 -0.3699 -0.3480
  803MPD2     N11834   1.076   0.547  11.870 -0.4707  0.5829 -0.1121
  803MPD2    H511835   1.052   0.453  11.900  0.1505  0.3814 -0.2471
  803MPD2    N111836   1.308   0.823  11.547  0.1553  0.4466 -0.2963
  803MPD2    H711837   1.300   0.902  11.610 -1.8942 -0.0548  0.0816
  804MPD2     C11838   0.301   2.454  17.002 -0.1283 -0.1309 -0.1558
  804MPD2    C111839   0.262   2.385  17.114  0.1276  0.2178 -0.5872
  804MPD2    C211840   0.294   2.429  17.235 -0.4616  0.9733 -0.0058
  804MPD2    C311841   0.345   2.558  17.257  0.4101 -0.0010  1.2943
  804MPD2    C411842   0.366   2.635  17.142 -0.1721  0.8439  0.3920
  804MPD2    C511843   0.341   2.583  17.020 -0.3834  0.2687  0.1693
  804MPD2     H11844   0.272   2.365  17.320  0.4326 -0.2670 -0.7126
  804MPD2    H111845   0.415   2.731  17.142  0.7905  0.3547 -1.7233
  804MPD2    H211846   0.263   2.434  16.903 -0.3879 -1.8017  0.2800
  804MPD2    H311847   0.350   2.648  16.934  2.3767  0.5663  0.6807
  804MPD2     N11848   0.387   2.583  17.388  0.0663 -0.5115 -0.0636
  804MPD2    H511849   0.359   2.514  17.457 -1.9720 -1.7667 -2.1374
  804MPD2    N111850   0.208   2.254  17.113  0.0231 -0.6256  0.1356
  804MPD2    H711851   0.201   2.205  17.202 -2.2211 -2.5518 -1.0889
  805MPD2     C11852   4.023   0.870  15.515  0.1398 -0.6618  0.0907
  805MPD2    C111853   4.113   0.897  15.414  0.2468 -0.4846  0.1419
  805MPD2    C211854   4.248   0.896  15.449  0.4278 -0.1976  0.2456
  805MPD2    C311855   4.287   0.870  15.580  0.3578  0.3412  0.3571
  805MPD2    C411856   4.198   0.832  15.678 -0.7145 -0.1619 -0.7716
  805MPD2    C511857   4.072   0.833  15.639  0.5074  0.3725 -0.6595
  805MPD2     H11858   4.321   0.913  15.370 -0.3075  0.4580 -0.2840
  805MPD2    H111859   4.215   0.799  15.780  0.6946  0.2513 -0.8657
  805MPD2    H211860   3.918   0.892  15.502  0.1643 -0.4082  0.3249
  805MPD2    H311861   4.000   0.812  15.718  0.8492  0.2660 -0.3788
  805MPD2     N11862   4.423   0.879  15.611  0.5723  0.6444  0.0804
  805MPD2    H511863   4.477   0.937  15.548 -0.2139 -0.8989 -2.0099
  805MPD2    N111864   4.074   0.943  15.284  0.3322  0.3748 -0.6719
  805MPD2    H711865   4.142   0.975  15.215 -1.0443  1.1597 -1.6679
  806MPD2     C11866   4.694   0.474   0.371 -0.6276  0.2523 -0.0061
  806MPD2    C111867   0.110   0.468   0.393 -0.3224  0.4506  0.1731
  806MPD2    C211868   0.198   0.454   0.286 -0.1231  0.6176  0.3569
  806MPD2    C311869   0.150   0.451   0.156  0.0649 -0.2819 -0.3193
  806MPD2    C411870   0.014   0.446   0.133 -0.8787 -0.0800  0.3851
  806MPD2    C511871   4.650   0.459   0.246  0.2424 -0.0592 -0.4326
  806MPD2     H11872   0.306   0.463   0.297 -0.2536  1.0217  1.3061
  806MPD2    H111873   4.689   0.429   0.037  1.3941  1.0935 -0.9488
  806MPD2    H211874   4.625   0.487   0.454 -3.3993 -1.8626 -1.9886
  806MPD2    H311875   4.542   0.447   0.238 -0.0021 -0.6503  3.8322
  806MPD2     N11876   0.247   0.452   0.056 -0.8666 -0.2951  0.5520
  806MPD2    H511877   0.343   0.466   0.085 -1.4780  1.4078  1.7951
  806MPD2    N111878   0.154   0.492   0.523  0.4362 -0.7769  0.2403
  806MPD2    H711879   0.077   0.510   0.587  0.2383 -3.7343  0.8644
  807MPD2     C11880   4.611   0.392   1.191  0.3465 -0.5364 -0.0357
  807MPD2    C111881   4.718   0.306   1.167 -0.4265  0.1104  0.8062
  807MPD2    C211882   0.003   0.188   1.240  0.3438  0.4238 -0.3264
  807MPD2    C311883   4.623   0.154   1.323 -0.3705 -0.5023 -0.6027
  807MPD2    C411884   4.528   0.247   1.350 -0.4703 -0.4834 -0.4406
  807MPD2    C511885   4.519   0.362   1.285  0.1877 -0.1768 -0.0837
  807MPD2     H11886   0.093   0.129   1.228  0.4834  0.3624  1.0482
  807MPD2    H111887   4.460   0.237   1.433 -0.5060 -1.4860 -0.5970
  807MPD2    H211888   4.598   0.490   1.146  1.6689 -2.0936 -3.8368
  807MPD2    H311889   4.443   0.437   1.305  0.0315 -0.3504 -0.0223
  807MPD2     N11890   4.620   0.032   1.391 -0.4564  0.0313 -0.1643
  807MPD2    H511891   4.693   4.687   1.368 -0.2051  0.4221 -0.5024
  807MPD2    N111892   0.100   0.333   1.075  0.1204 -0.4690  0.0548
  807MPD2    H711893   0.186   0.281   1.089  0.0858 -1.3679 -3.1504
  808MPD2     C11894   1.061   1.025   9.097 -0.1641 -0.4601  0.3579
  808MPD2    C111895   1.032   1.114   9.203  0.4319  0.3087 -0.1528
  808MPD2    C211896   1.040   1.245   9.176  0.6424 -0.2980 -0.2595
  808MPD2    C311897   1.085   1.294   9.051 -0.0556  0.5961 -0.5889
  808MPD2    C411898   1.126   1.202   8.949  0.0720 -0.1160  0.6018
  808MPD2    C511899   1.111   1.066   8.976  0.1911  0.0550  0.8687
  808MPD2     H11900   1.012   1.317   9.252 -0.7843 -1.6695  0.5162
  808MPD2    H111901   1.155   1.221   8.847 -1.3201 -0.0771  0.2075
  808MPD2    H211902   1.060   0.917   9.111  1.0265 -0.7746 -1.8482
  808MPD2    H311903   1.137   0.999   8.895  0.1237  0.0376  0.8617
  808MPD2     N11904   1.096   1.433   9.020 -0.0635  0.1390  0.2034
  808MPD2    H511905   1.143   1.456   8.933 -0.3717 -0.9229 -0.2411
  808MPD2    N111906   0.986   1.077   9.334 -0.0520 -0.2677 -0.6150
  808MPD2    H711907   0.984   1.150   9.405 -0.7043 -0.4853 -0.4092
  809MPD2     C11908   1.538   2.165   8.519  0.0930  0.2589  0.7235
  809MPD2    C111909   1.585   2.042   8.556 -0.3063  1.0648 -0.3548
  809MPD2    C211910   1.496   1.974   8.633  0.2755 -0.3466 -0.0093
  809MPD2    C311911   1.371   2.026   8.671 -0.0422 -0.0738 -0.0460
  809MPD2    C411912   1.330   2.151   8.629 -0.5212  0.2000  0.1138
  809MPD2    C511913   1.424   2.221   8.562 -0.0850  0.6380 -0.5901
  809MPD2     H11914   1.527   1.878   8.675 -1.3876 -0.8798 -0.0069
  809MPD2    H111915   1.240   2.205   8.656  0.0118  0.8371  0.6224
  809MPD2    H211916   1.606   2.228   8.461 -2.0462  1.2756 -0.6700
  809MPD2    H311917   1.400   2.323   8.535 -0.8942  0.0931 -1.9119
  809MPD2     N11918   1.290   1.969   8.770  0.8749  0.1661  0.1548
  809MPD2    H511919   1.216   2.027   8.807 -0.5094 -2.7269  1.8812
  809MPD2    N111920   1.711   1.987   8.543 -0.5115 -0.0466 -0.1782
  809MPD2    H711921   1.727   1.894   8.579 -0.0671  0.1373  0.1058
  810MPD2     C11922   0.883   1.101  10.071 -0.1771  0.4714  0.0245
  810MPD2    C111923   0.830   1.042  10.185  0.0067  0.2283 -0.1924
  810MPD2    C211924   0.826   1.118  10.301 -0.8043 -0.7037  0.9928
  810MPD2    C311925   0.865   1.251  10.311  0.1796 -0.4119  0.0824
  810MPD2    C411926   0.910   1.308  10.196  0.4939 -0.1476 -0.4292
  810MPD2    C511927   0.924   1.228  10.081  0.3431  0.5684  0.3101
  810MPD2     H11928   0.796   1.069  10.393 -0.8185 -1.4571  0.5863
  810MPD2    H111929   0.949   1.409  10.193  0.2749  0.0493  4.0984
  810MPD2    H211930   0.895   1.048   9.978 -0.2204 -0.8717  0.7871
  810MPD2    H311931   0.955   1.274   9.988  0.6128  0.8042  0.5179
  810MPD2     N11932   0.852   1.337  10.424  0.2920  0.4012  0.3244
  810MPD2    H511933   0.900   1.426  10.423 -0.2042  0.6381 -3.5420
  810MPD2    N111934   0.789   0.903  10.180 -0.0803 -0.1294 -0.2312
  810MPD2    H711935   0.801   0.860  10.089 -0.6595  1.3247 -0.9856
  811MPD2     C11936   0.235   0.852   9.748  0.0164 -0.2811 -0.5330
  811MPD2    C111937   0.301   0.912   9.858  0.0177  0.6973  0.6322
  811MPD2    C211938   0.313   1.050   9.858 -0.1580 -0.2764  0.1898
  811MPD2    C311939   0.264   1.119   9.753  0.2429  0.1523  0.5118
  811MPD2    C411940   0.200   1.065   9.647  0.0022 -0.0138  0.2036
  811MPD2    C511941   0.185   0.928   9.645 -0.3578 -0.9027 -0.0310
  811MPD2     H11942   0.366   1.098   9.939 -2.4164  1.2271  0.7746
  811MPD2    H111943   0.165   1.125   9.564  1.7150  0.7166  0.0026
  811MPD2    H211944   0.227   0.744   9.736  0.0008 -0.0300 -2.6571
  811MPD2    H311945   0.149   0.876   9.557 -0.0121 -2.9222  1.0220
  811MPD2     N11946   0.285   1.257   9.767 -0.5418 -0.1170 -0.4552
  811MPD2    H511947   0.300   1.296   9.860  0.9808 -1.8190  0.0191
  811MPD2    N111948   0.372   0.844   9.958  0.0532  0.0525 -0.1658
  811MPD2    H711949   0.424   0.906  10.019  0.9353 -0.7090 -0.1328
  812MPD2     C11950   3.277   0.801  12.458  0.4393 -0.0779  0.1905
  812MPD2    C111951   3.414   0.838  12.451 -0.1934 -0.0514  0.2347
  812MPD2    C211952   3.475   0.877  12.565 -0.3415  0.0906 -0.1391
  812MPD2    C311953   3.410   0.870  12.691 -0.4750  0.5335  0.5026
  812MPD2    C411954   3.283   0.826  12.700 -0.3383 -0.1757 -0.2198
  812MPD2    C511955   3.218   0.796  12.583  0.1701  0.1810  0.0728
  812MPD2     H11956   3.581   0.896  12.554  0.1102 -1.5179  1.4779
  812MPD2    H111957   3.226   0.811  12.792 -1.1472 -1.7836 -0.9802
  812MPD2    H211958   3.227   0.779  12.365  1.6486 -0.3896 -0.3785
  812MPD2    H311959   3.117   0.756  12.584 -0.0132  0.6268 -1.2721
  812MPD2     N11960   3.489   0.911  12.801 -0.4510  0.2191  0.5818
  812MPD2    H511961   3.575   0.963  12.790  0.1231  0.1124  4.4362
  812MPD2    N111962   3.475   0.855  12.321 -0.1490 -0.0420 -0.4154
  812MPD2    H711963   3.405   0.837  12.250 -0.3977 -2.5948  0.4882
  813MPD2     C11964   2.759   2.509  13.096 -0.3300 -0.2897 -1.0164
  813MPD2    C111965   2.753   2.644  13.091 -0.0744 -0.4949  0.2038
  813MPD2    C211966   2.732   2.724  13.202  0.6424 -0.7020  0.2024
  813MPD2    C311967   2.727   2.663  13.324 -0.0274 -0.1681  0.1238
  813MPD2    C411968   2.749   2.530  13.328  0.2963  0.1140  0.0276
  813MPD2    C511969   2.758   2.449  13.220 -0.5094 -0.1528  0.5732
  813MPD2     H11970   2.713   2.830  13.198 -0.8227 -0.9231  1.0295
  813MPD2    H111971   2.767   2.470  13.417  1.6083  1.1708  0.4752
  813MPD2    H211972   2.751   2.435  13.018 -0.7055 -1.4861  0.1524
  813MPD2    H311973   2.783   2.344  13.230  0.2158  0.0378  0.7589
  813MPD2     N11974   2.732   2.749  13.432  0.9174 -0.1716  0.6022
  813MPD2    H511975   2.736   2.848  13.411  2.8083 -0.6410 -1.3003
  813MPD2    N111976   2.765   2.708  12.968 -0.4837 -0.1474  0.4444
  813MPD2    H711977   2.763   2.639  12.893  2.0455 -1.4870  1.6163
  814MPD2     C11978   3.312   4.314  12.398  0.0075  0.5751  0.0074
  814MPD2    C111979   3.389   4.349  12.291 -0.1148  0.5251 -0.4434
  814MPD2    C211980   3.508   4.419  12.299  0.1166  0.2367  0.3079
  814MPD2    C311981   3.555   4.458  12.419  0.0703  0.6494 -0.8761
  814MPD2    C411982   3.480   4.430  12.524 -0.1365  0.0614  1.0106
  814MPD2    C511983   3.360   4.364  12.516  0.4128 -0.0315 -0.2070
  814MPD2     H11984   3.565   4.442  12.210 -1.4998 -1.4512 -1.1502
  814MPD2    H111985   3.496   4.464  12.625  0.4691  2.1169  0.2189
  814MPD2    H211986   3.216   4.266  12.389 -1.3205  3.2115  0.1668
  814MPD2    H311987   3.307   4.354  12.610 -0.7559  0.0736 -0.8694
  814MPD2     N11988   3.670   4.537  12.449  0.1938  0.3792 -0.1070
  814MPD2    H511989   3.678   4.569  12.545  0.1347  0.0866 -0.0055
  814MPD2    N111990   3.362   4.314  12.160 -0.2863 -0.4995 -0.0094
  814MPD2    H711991   3.422   4.355  12.089 -0.9902 -0.9202 -0.8425
  815MPD2     C11992   3.973   2.785  11.646 -0.5139 -0.0516 -0.7947
  815MPD2    C111993   3.915   2.656  11.665 -0.0990 -1.0835 -0.4820
  815MPD2    C211994   3.818   2.640  11.760  0.2830  0.0401 -0.5131
  815MPD2    C311995   3.789   2.736  11.848  0.7703  0.1875  0.5619
  815MPD2    C411996   3.842   2.864  11.832 -0.0694  0.2189 -0.4076
  815MPD2    C511997   3.930   2.889  11.726 -0.1894  0.1287 -0.1979
  815MPD2     H11998   3.779   2.539  11.768  0.6671 -0.0633  0.0665
  815MPD2    H111999   3.826   2.946  11.901  0.2326 -0.2840  0.2723
  815MPD2    H212000   4.034   2.816  11.563 -1.9070  0.6723 -1.5466
  815MPD2    H312001   3.986   2.981  11.716  0.1714 -0.0585  0.1311
  815MPD2     N12002   3.710   2.704  11.961 -0.2926  0.2423  0.0221
  815MPD2    H512003   3.686   2.606  11.970 -1.4090  0.5156 -0.0638
  815MPD2    N112004   3.957   2.559  11.570  0.3849 -0.1814 -0.5443
  815MPD2    H712005   4.023   2.592  11.501  0.0014 -0.1868 -0.9115
  816MPD2     C12006   3.018   1.934  17.414  0.2738 -0.2945 -0.2414
  816MPD2    C112007   3.115   2.006  17.474 -1.2108  0.9008  0.6175
  816MPD2    C212008   3.247   1.958  17.462 -0.2097 -1.0897 -0.1831
  816MPD2    C312009   3.274   1.838  17.401  0.0194  0.5977  0.6622
  816MPD2    C412010   3.174   1.771  17.339 -0.1887 -0.3602 -0.5611
  816MPD2    C512011   3.043   1.813  17.359  0.3093 -0.7189  0.3953
  816MPD2     H12012   3.334   2.012  17.498 -1.3246 -1.1786  2.5867
  816MPD2    H112013   3.188   1.676  17.289 -0.0781  0.0104 -1.2394
  816MPD2    H212014   2.920   1.977  17.428  0.3904  0.0226 -0.3937
  816MPD2    H312015   2.958   1.772  17.306  1.1168 -0.1095 -1.3521
  816MPD2     N12016   3.409   1.799  17.388 -0.0701 -0.9772  0.0537
  816MPD2    H512017   3.479   1.864  17.420 -0.1778 -0.7027 -0.2582
  816MPD2    N112018   3.083   2.131  17.532  0.4083  0.1387  0.0737
  816MPD2    H712019   2.984   2.155  17.531 -0.0373 -1.6148  2.1249
  817MPD2     C12020   3.696   3.224   9.817 -0.0982 -0.3143  0.3996
  817MPD2    C112021   3.818   3.240   9.886  0.6633 -0.8495 -0.6691
  817MPD2    C212022   3.854   3.367   9.936 -0.2784 -0.5008  0.1174
  817MPD2    C312023   3.774   3.477   9.904 -0.0616 -0.0709  0.0486
  817MPD2    C412024   3.655   3.459   9.833  0.9109  0.2726 -0.6400
  817MPD2    C512025   3.622   3.333   9.795 -0.3539  0.3814 -0.1687
  817MPD2     H12026   3.944   3.370   9.998 -0.4089  1.0121  0.2164
  817MPD2    H112027   3.598   3.544   9.796 -1.1619 -0.5727  0.6198
  817MPD2    H212028   3.655   3.127   9.793 -2.3030  1.3398 -2.6908
  817MPD2    H312029   3.531   3.320   9.738  0.2134 -0.4450 -0.8915
  817MPD2     N12030   3.818   3.605   9.937  0.6694  0.1597 -0.0477
  817MPD2    H512031   3.763   3.683   9.903  1.0444  1.3246  2.0549
  817MPD2    N112032   3.903   3.130   9.901  0.4404 -0.9924 -0.2981
  817MPD2    H712033   3.993   3.148   9.945 -0.2097 -0.4336  0.8014
  818MPD2     C12034   3.237   3.103   9.842 -0.4381  0.2708  0.2365
  818MPD2    C112035   3.126   3.030   9.876  0.2529  0.4934  0.5234
  818MPD2    C212036   3.134   2.889   9.854  0.0758  0.0157  0.0692
  818MPD2    C312037   3.240   2.831   9.798 -0.5933 -0.1482 -0.1314
  818MPD2    C412038   3.340   2.918   9.759  0.7937 -0.2376 -0.2627
  818MPD2    C512039   3.335   3.049   9.774  0.5539 -0.0153 -0.1961
  818MPD2     H12040   3.052   2.828   9.889  0.0604 -0.1821 -0.3194
  818MPD2    H112041   3.416   2.876   9.694 -0.3911  0.3750 -2.0347
  818MPD2    H212042   3.252   3.208   9.867  1.9693  0.4725 -2.0821
  818MPD2    H312043   3.424   3.106   9.748  0.3431 -1.4224 -4.0082
  818MPD2     N12044   3.243   2.696   9.781 -0.1369  0.0027  0.5588
  818MPD2    H512045   3.155   2.646   9.794  1.2090 -2.9486 -1.7297
  818MPD2    N112046   3.009   3.073   9.946  0.0943 -0.5976  0.4736
  818MPD2    H712047   2.938   3.003   9.965 -1.0850  0.3856 -0.3251
  819MPD2     C12048   0.249   0.876  15.623  0.0783 -0.9707 -0.5150
  819MPD2    C112049   0.201   0.748  15.614  0.0245  0.4058  0.2600
  819MPD2    C212050   0.287   0.647  15.666  0.1203  0.5573  0.0445
  819MPD2    C312051   0.410   0.670  15.727  0.1457 -0.3242 -0.5617
  819MPD2    C412052   0.447   0.803  15.740  0.3052 -0.2307 -0.1671
  819MPD2    C512053   0.374   0.903  15.686  0.3375 -0.3066 -0.5408
  819MPD2     H12054   0.262   0.541  15.659  0.3088  0.4443  1.1072
  819MPD2    H112055   0.540   0.838  15.784 -0.8184  1.0210  1.2550
  819MPD2    H212056   0.194   0.962  15.588 -0.6869 -0.8229  1.0460
  819MPD2    H312057   0.412   1.005  15.685 -0.2769 -0.0466  1.8671
  819MPD2     N12058   0.497   0.560  15.752 -0.5487 -0.2462  0.1955
  819MPD2    H512059   0.475   0.473  15.704  0.5915 -1.4130  1.7969
  819MPD2    N112060   0.076   0.721  15.551  0.0339 -0.3546  0.5828
  819MPD2    H712061   0.028   0.797  15.503  2.4225  1.1220  0.5262
  820MPD2     C12062   4.237   0.530  14.729  0.1424  0.3903 -0.2657
  820MPD2    C112063   4.258   0.647  14.802  0.3877 -0.2335  0.5762
  820MPD2    C212064   4.351   0.641  14.903 -0.1378 -0.0193 -0.4527
  820MPD2    C312065   4.404   0.518  14.942 -0.6003  0.4357 -0.3357
  820MPD2    C412066   4.390   0.410  14.869  0.6665 -0.1614 -0.0391
  820MPD2    C512067   4.309   0.416  14.756  0.7621  0.5970 -0.2503
  820MPD2     H12068   4.380   0.731  14.956 -1.2609 -0.1138  0.3208
  820MPD2    H112069   4.428   0.311  14.894  3.7876  1.0046 -0.2788
  820MPD2    H212070   4.166   0.544  14.648 -0.2066 -1.5982 -0.3097
  820MPD2    H312071   4.298   0.328  14.694  0.0810  0.5401 -0.0528
  820MPD2     N12072   4.482   0.497  15.055 -0.1013 -0.4803 -0.7109
  820MPD2    H512073   4.519   0.405  15.076  0.8352 -0.2393 -1.2992
  820MPD2    N112074   4.168   0.756  14.787  0.1467  0.0588 -0.3295
  820MPD2    H712075   4.096   0.750  14.716 -0.3894  1.3023  0.1041
  821MPD2     C12076   0.312   2.041  13.219 -1.1980 -0.6487  0.9475
  821MPD2    C112077   0.445   2.019  13.236  0.2489 -0.2375 -0.5844
  821MPD2    C212078   0.537   2.064  13.149  0.9315 -0.3013  0.8777
  821MPD2    C312079   0.496   2.104  13.026  0.2851  0.1110 -0.0246
  821MPD2    C412080   0.364   2.124  12.996  0.5039  0.2078 -0.5434
  821MPD2    C512081   0.272   2.096  13.094  0.3013  0.0457  0.0617
  821MPD2     H12082   0.640   2.041  13.174  0.4291 -1.8709  1.5190
  821MPD2    H112083   0.337   2.177  12.905 -0.1122  0.1189 -0.4164
  821MPD2    H212084   0.235   2.025  13.293 -0.5260  0.5726  1.8958
  821MPD2    H312085   0.165   2.107  13.078  0.2027 -0.6179  0.2907
  821MPD2     N12086   0.592   2.133  12.925 -0.0993 -0.7015 -0.3107
  821MPD2    H512087   0.556   2.165  12.835  1.6350  1.4358 -0.2497
  821MPD2    N112088   0.494   1.954  13.349 -0.1764  0.2899 -0.0151
  821MPD2    H712089   0.595   1.955  13.362  0.0576 -2.5345 -1.6084
  822MPD2     C12090   0.845   2.115  15.686 -0.3110  0.1826 -0.0121
  822MPD2    C112091   0.868   2.048  15.805  0.2461  1.0362 -0.1416
  822MPD2    C212092   0.833   2.099  15.922 -0.2414  0.3869  0.1259
  822MPD2    C312093   0.802   2.236  15.937  0.5231  0.5084  0.1230
  822MPD2    C412094   0.804   2.312  15.822  0.8138 -0.5707 -0.4917
  822MPD2    C512095   0.821   2.249  15.704  0.0142 -0.3649  0.2800
  822MPD2     H12096   0.835   2.035  16.009  1.5229 -1.4846 -1.2903
  822MPD2    H112097   0.775   2.416  15.817 -0.3538 -0.8863 -0.3229
  822MPD2    H212098   0.848   2.070  15.587 -1.1885  0.3427 -0.1107
  822MPD2    H312099   0.812   2.310  15.615  1.6761  0.0203  0.3722
  822MPD2     N12100   0.769   2.273  16.072  0.0836 -0.5608  0.4522
  822MPD2    H512101   0.757   2.205  16.147  2.8838  0.3889  1.7573
  822MPD2    N112102   0.926   1.919  15.808 -0.3751  0.2209 -0.0734
  822MPD2    H712103   0.935   1.894  15.906 -0.9340 -1.6197 -0.5041
  823MPD2     C12104   0.528   2.142  16.853  0.0189 -0.2110 -0.1561
  823MPD2    C112105   0.576   2.110  16.730  0.5135 -0.2874  0.6446
  823MPD2    C212106   0.615   1.979  16.705  0.0209  0.3958  0.6086
  823MPD2    C312107   0.600   1.871  16.795 -0.0143 -0.0991  0.0941
  823MPD2    C412108   0.550   1.914  16.921  0.9497 -0.0050  0.0749
  823MPD2    C512109   0.515   2.042  16.951  0.2122  0.6824  0.0816
  823MPD2     H12110   0.662   1.947  16.613 -0.4199 -1.2608  0.9597
  823MPD2    H112111   0.542   1.829  16.987 -2.0464 -0.5148 -0.9661
  823MPD2    H212112   0.511   2.246  16.879 -1.7301 -0.6946  0.6833
  823MPD2    H312113   0.487   2.072  17.052 -1.2389 -1.1012  0.2072
  823MPD2     N12114   0.637   1.734  16.775 -0.1057 -0.1612 -0.1464
  823MPD2    H512115   0.619   1.663  16.845 -0.4893 -0.6902 -0.7779
  823MPD2    N112116   0.596   2.214  16.644  0.3556  0.4260 -0.2721
  823MPD2    H712117   0.579   2.306  16.684 -1.2865 -0.4597  1.0603
  824MPD2     C12118   1.244   1.153  15.537 -0.0123 -0.0278 -0.4628
  824MPD2    C112119   1.335   1.248  15.586 -0.3301 -0.4330 -0.5762
  824MPD2    C212120   1.468   1.216  15.564  0.1261  0.4270  0.3150
  824MPD2    C312121   1.509   1.107  15.493 -0.1863 -0.2826 -0.4031
  824MPD2    C412122   1.413   1.015  15.451  0.1157 -0.4320  0.2667
  824MPD2    C512123   1.283   1.040  15.471 -0.0296  0.0393  0.1677
  824MPD2     H12124   1.547   1.284  15.596  0.5681 -0.8086  1.8656
  824MPD2    H112125   1.439   0.919  15.409 -0.4815  0.1281 -1.3936
  824MPD2    H212126   1.137   1.167  15.537  0.0122  0.1644  0.0681
  824MPD2    H312127   1.209   0.971  15.432 -0.1971  0.5083 -0.3467
  824MPD2     N12128   1.650   1.092  15.484  0.4127  0.0467  0.0177
  824MPD2    H512129   1.701   1.163  15.537  0.3207  1.4988 -1.8645
  824MPD2    N112130   1.298   1.364  15.646  0.2209 -0.2602 -0.1241
  824MPD2    H712131   1.375   1.424  15.673  0.1221 -0.6100  0.9470
  825MPD2     C12132   2.432   1.294  15.549  0.1052  0.1954 -0.2878
  825MPD2    C112133   2.328   1.339  15.466  0.3195 -0.3832  0.0121
  825MPD2    C212134   2.318   1.469  15.422  0.0252 -0.6935 -0.3023
  825MPD2    C312135   2.421   1.559  15.448  0.1623 -0.3171  0.1146
  825MPD2    C412136   2.523   1.516  15.531  0.1026  0.1409  0.0635
  825MPD2    C512137   2.524   1.387  15.579 -0.1852  0.6538 -0.3697
  825MPD2     H12138   2.244   1.499  15.349  1.2749  1.6811 -0.5772
  825MPD2    H112139   2.597   1.580  15.577  0.5000  1.2887 -2.1623
  825MPD2    H212140   2.440   1.197  15.598  1.5822 -0.2704 -1.4555
  825MPD2    H312141   2.598   1.348  15.649 -1.2902 -2.2509 -0.8240
  825MPD2     N12142   2.426   1.697  15.412  0.1081  0.0351 -0.7019
  825MPD2    H512143   2.506   1.749  15.448  0.1536 -0.1452 -0.5408
  825MPD2    N112144   2.237   1.238  15.431 -0.4239  0.1648  0.0513
  825MPD2    H712145   2.253   1.146  15.472 -1.4281  0.4325  1.0474
  826MPD2     C12146   1.938   0.829  13.434  0.1810 -0.5713  1.0252
  826MPD2    C112147   1.913   0.855  13.300  0.2841  0.3988 -0.0244
  826MPD2    C212148   1.823   0.957  13.277 -0.4114 -0.1923  0.5338
  826MPD2    C312149   1.769   1.033  13.381 -1.3810 -0.3024  1.1822
  826MPD2    C412150   1.818   1.011  13.509  0.0451 -0.0830  0.2085
  826MPD2    C512151   1.894   0.904  13.538  0.0319  0.4587 -0.6136
  826MPD2     H12152   1.798   0.977  13.173  0.5668 -2.2889 -0.1134
  826MPD2    H112153   1.767   1.058  13.592 -0.5766 -1.1074  0.4064
  826MPD2    H212154   2.000   0.749  13.474 -1.3251 -2.3140 -0.1488
  826MPD2    H312155   1.920   0.872  13.638 -0.2318  0.0130 -0.6899
  826MPD2     N12156   1.678   1.141  13.366 -0.2774  0.1468 -0.2815
  826MPD2    H512157   1.661   1.189  13.453 -0.6771 -0.6883  0.1051
  826MPD2    N112158   1.979   0.782  13.207 -0.2489  0.0679 -0.2361
  826MPD2    H712159   2.043   0.710  13.236 -1.2953 -0.8802 -0.3026
  827MPD2     C12160   2.826   1.760   9.685 -0.6770  0.6822 -0.7471
  827MPD2    C112161   2.808   1.780   9.822 -0.8861  0.5731 -0.4147
  827MPD2    C212162   2.680   1.773   9.873  0.2286  0.3424  0.1585
  827MPD2    C312163   2.567   1.729   9.797  0.1215 -0.4623  0.1964
  827MPD2    C412164   2.595   1.688   9.668  0.5812  0.0690  0.0508
  827MPD2    C512165   2.721   1.707   9.615 -1.2645 -0.6092  0.6238
  827MPD2     H12166   2.669   1.809   9.975  0.2083 -0.0316  0.2875
  827MPD2    H112167   2.510   1.647   9.615  0.4189 -1.9203  1.8671
  827MPD2    H212168   2.923   1.769   9.638 -0.1424 -0.3162  0.1980
  827MPD2    H312169   2.737   1.676   9.513 -1.6443  1.2733 -0.0167
  827MPD2     N12170   2.434   1.730   9.847 -0.1827 -0.2926  0.4739
  827MPD2    H512171   2.424   1.775   9.937 -0.5022  1.3437 -0.3748
  827MPD2    N112172   2.921   1.813   9.909  0.7546 -0.2341  0.1591
  827MPD2    H712173   3.016   1.822   9.874  0.6246  0.7351  0.0627
  828MPD2     C12174   1.278   1.985  12.230 -0.8140 -0.0289  0.5553
  828MPD2    C112175   1.248   2.062  12.122  0.0830  0.1111 -0.1312
  828MPD2    C212176   1.341   2.083  12.023  0.2633  0.1629  0.4077
  828MPD2    C312177   1.457   2.015  12.028  0.6798 -0.1765  0.0694
  828MPD2    C412178   1.479   1.922  12.131  0.4433  0.1211  0.1528
  828MPD2    C512179   1.397   1.913  12.243 -0.1535 -0.9317  0.4717
  828MPD2     H12180   1.318   2.142  11.935 -0.2245  0.6182  0.8429
  828MPD2    H112181   1.574   1.870  12.132  0.7105  0.6327  1.3435
  828MPD2    H212182   1.202   1.975  12.307 -0.4028  0.1533  0.9837
  828MPD2    H312183   1.406   1.839  12.322  0.6488 -1.4988 -0.1518
  828MPD2     N12184   1.559   2.026  11.929 -0.1639  0.4101  0.5630
  828MPD2    H512185   1.624   1.948  11.923 -0.3746  0.2291  0.6275
  828MPD2    N112186   1.127   2.138  12.108  0.0338 -0.8223 -0.7211
  828MPD2    H712187   1.125   2.208  12.034 -1.4333  1.0911  1.1476
  829MPD2     C12188   0.915   2.693  11.458 -0.5738  0.0277  0.0860
  829MPD2    C112189   0.815   2.718  11.547 -0.0291 -0.6581  0.5230
  829MPD2    C212190   0.836   2.661  11.673 -0.5199  0.5065  0.0034
  829MPD2    C312191   0.941   2.584  11.705 -0.3007 -0.1765 -0.0452
  829MPD2    C412192   1.038   2.557  11.610  0.2999 -0.0762 -0.0040
  829MPD2    C512193   1.024   2.614  11.492  0.7216  0.0278  0.8398
  829MPD2     H12194   0.756   2.689  11.741  0.1456  1.2150  0.4909
  829MPD2    H112195   1.110   2.476  11.619 -1.2912 -1.6556 -1.5752
  829MPD2    H212196   0.900   2.721  11.355 -0.5697 -1.0286 -0.1954
  829MPD2    H312197   1.083   2.578  11.408  1.3581 -0.3975  1.4717
  829MPD2     N12198   0.947   2.516  11.828 -0.0392  0.6826  0.1292
  829MPD2    H512199   1.027   2.458  11.849 -0.3953 -0.2794 -1.1963
  829MPD2    N112200   0.700   2.788  11.498  0.2014  0.2731 -0.9354
  829MPD2    H712201   0.688   2.785  11.397 -0.0954  1.8485 -0.9554
  830MPD2     C12202   0.999   0.196  15.177 -0.1881 -0.1436  0.3552
  830MPD2    C112203   0.976   0.322  15.240 -0.4129  0.0184  0.4488
  830MPD2    C212204   1.028   0.437  15.185  0.2894  0.4473 -0.4359
  830MPD2    C312205   1.093   0.429  15.062  0.3969 -0.2034 -0.1706
  830MPD2    C412206   1.106   0.304  15.001 -0.8517  0.9561  1.5796
  830MPD2    C512207   1.049   0.196  15.053 -0.1069 -0.4111  0.0092
  830MPD2     H12208   1.014   0.531  15.238  1.3525 -0.5626  1.6543
  830MPD2    H112209   1.156   0.298  14.905 -0.6914  0.8584  1.6697
  830MPD2    H212210   0.963   0.104  15.223 -0.0983 -0.9996 -1.3020
  830MPD2    H312211   1.051   0.105  14.994  0.0169  0.2477 -1.0053
  830MPD2     N12212   1.157   0.535  15.002  0.6633  0.8149  0.3227
  830MPD2    H512213   1.179   0.519  14.904  1.1419  2.8141  0.0867
  830MPD2    N112214   0.906   0.316  15.364  0.1473 -0.3540 -0.2498
  830MPD2    H712215   0.875   0.230  15.407  0.2468 -0.6366 -0.7517
  831MPD2     C12216   0.994   2.215  16.448  0.0713 -0.2956  0.4149
  831MPD2    C112217   1.016   2.186  16.314  0.6648 -0.4416  0.0497
  831MPD2    C212218   0.972   2.060  16.265  0.6288  0.2717 -0.1125
  831MPD2    C312219   0.914   1.962  16.345  0.4548  0.0418 -0.2839
  831MPD2    C412220   0.893   1.999  16.474  0.0131  0.4125  0.2053
  831MPD2    C512221   0.934   2.118  16.527  0.0683 -0.4293  1.3217
  831MPD2     H12222   0.982   2.034  16.160 -1.1707  0.0242 -0.2224
  831MPD2    H112223   0.854   1.927  16.546 -2.3586  1.4829 -0.0003
  831MPD2    H212224   1.040   2.306  16.484 -1.6431  0.4830  0.6328
  831MPD2    H312225   0.920   2.134  16.633  0.4475  0.3256  1.2552
  831MPD2     N12226   0.874   1.829  16.312 -0.4112  0.9574  0.4921
  831MPD2    H512227   0.824   1.780  16.386  0.2709 -1.6606 -0.7804
  831MPD2    N112228   1.079   2.277  16.231 -0.1640  0.5600 -0.4713
  831MPD2    H712229   1.085   2.375  16.257 -1.3836  1.2864 -2.9610
  832MPD2     C12230   4.072   3.051   0.143 -0.2918  0.0940  0.6449
  832MPD2    C112231   4.095   3.145   0.047  0.1121  0.5894  0.6948
  832MPD2    C212232   4.000   3.171  17.636 -1.0264  0.0246  0.3022
  832MPD2    C312233   3.884   3.106  17.644 -0.4826 -0.2212 -0.4279
  832MPD2    C412234   3.863   3.005   0.044 -0.2186 -0.4777  0.6959
  832MPD2    C512235   3.958   2.973   0.136  0.7594 -0.6230 -0.0017
  832MPD2     H12236   4.014   3.257  17.572 -1.2344  0.5644  0.9862
  832MPD2    H112237   3.772   2.947   0.049 -0.6000  0.1021  0.4355
  832MPD2    H212238   4.143   3.033   0.222  0.3423  1.2549  0.3354
  832MPD2    H312239   3.931   2.896   0.208 -1.7590  0.3435  0.0919
  832MPD2     N12240   3.774   3.131  17.556  0.5817 -0.0385  0.8529
  832MPD2    H512241   3.703   3.060  17.572  0.3673 -0.1055 -0.3417
  832MPD2    N112242   4.219   3.219   0.062  0.1287  0.0447  0.4210
  832MPD2    H712243   4.263   3.208   0.153 -0.1402 -0.8406  0.4387
  833MPD2     C12244   1.905   4.271  12.014  0.3063  0.2978  0.1667
  833MPD2    C112245   1.903   4.401  12.012 -0.4623 -0.0287  0.1142
  833MPD2    C212246   1.919   4.469  11.895  0.3392 -0.5121 -0.2741
  833MPD2    C312247   1.910   4.403  11.769  0.7125  0.8616  0.2852
  833MPD2    C412248   1.925   4.267  11.774  0.4747 -0.1029 -0.3574
  833MPD2    C512249   1.928   4.205  11.899 -0.6907  0.5846 -0.5081
  833MPD2     H12250   1.932   4.577  11.899 -0.4075 -0.4311  0.0186
  833MPD2    H112251   1.954   4.212  11.685  2.1432  1.4066 -0.7338
  833MPD2    H212252   1.902   4.219  12.108 -1.3553 -1.4508 -0.8571
  833MPD2    H312253   1.944   4.098  11.903  1.6857  1.0135  1.2527
  833MPD2     N12254   1.896   4.467  11.640 -0.6093 -0.1346  0.5918
  833MPD2    H512255   1.904   4.410  11.556  1.9173  1.3897 -0.2352
  833MPD2    N112256   1.887   4.467  12.134  0.4220  0.5575 -0.0968
  833MPD2    H712257   1.882   4.416  12.221 -2.0026  1.0753  0.0699
  834MPD2     C12258   2.435   4.348  10.939  0.2460 -0.6101  0.1266
  834MPD2    C112259   2.347   4.282  11.019 -0.4161 -0.5983  0.3035
  834MPD2    C212260   2.278   4.349  11.121 -0.1409 -0.0834 -0.6734
  834MPD2    C312261   2.301   4.482  11.141  0.9708 -0.2511 -0.5554
  834MPD2    C412262   2.387   4.546  11.059  0.8683  0.4854  1.2061
  834MPD2    C512263   2.461   4.484  10.959 -0.8652  0.1768 -0.0799
  834MPD2     H12264   2.200   4.293  11.171  2.1985 -2.9839 -0.2714
  834MPD2    H112265   2.418   4.647  11.083 -0.5523  0.6754  2.1792
  834MPD2    H212266   2.496   4.298  10.864  0.9347 -0.9783  0.9282
  834MPD2    H312267   2.533   4.542  10.903 -1.0731  0.4126 -0.1082
  834MPD2     N12268   2.229   4.545  11.249 -0.4038 -0.0788 -0.1756
  834MPD2    H512269   2.165   4.485  11.300  0.7276 -0.6817  0.5349
  834MPD2    N112270   2.334   4.143  10.998  0.0935 -0.4375  0.3877
  834MPD2    H712271   2.372   4.099  10.915 -4.6851 -2.2963 -0.8237
  835MPD2     C12272   2.213   2.105  11.187  0.3202 -0.2865 -0.3123
  835MPD2    C112273   2.098   2.173  11.216 -0.3682 -0.8765  0.6335
  835MPD2    C212274   2.061   2.201  11.345  0.0879 -0.4946  0.3883
  835MPD2    C312275   2.142   2.148  11.447 -0.2417 -0.4266  0.1739
  835MPD2    C412276   2.248   2.067  11.418 -0.0754 -0.7687  0.3135
  835MPD2    C512277   2.290   2.052  11.289  0.5998  0.2189 -0.1814
  835MPD2     H12278   1.965   2.251  11.361 -0.0342 -0.0012 -1.8079
  835MPD2    H112279   2.317   2.032  11.494 -0.0533  2.0026  1.5465
  835MPD2    H212280   2.240   2.082  11.085  2.0856 -2.2798  0.6037
  835MPD2    H312281   2.374   1.987  11.267  1.6558  0.9841  1.5969
  835MPD2     N12282   2.119   2.185  11.585  0.0537  0.5731 -0.1890
  835MPD2    H512283   2.179   2.128  11.643  1.0708 -1.2487 -3.0031
  835MPD2    N112284   2.006   2.214  11.118  0.2692 -0.4738  0.0144
  835MPD2    H712285   1.922   2.257  11.155  0.3725 -0.5991  0.3933
  836MPD2     C12286   1.610   2.576  11.541 -0.6142 -1.0780 -0.3909
  836MPD2    C112287   1.624   2.589  11.680 -0.0127 -0.0570 -0.3703
  836MPD2    C212288   1.525   2.649  11.763  0.0163  0.3045  0.1137
  836MPD2    C312289   1.406   2.677  11.708  0.2668  0.8481 -0.3590
  836MPD2    C412290   1.398   2.668  11.565  0.2267 -0.3523 -0.4992
  836MPD2    C512291   1.491   2.613  11.483 -0.2906 -0.0395 -0.8489
  836MPD2     H12292   1.543   2.664  11.868 -0.2130 -2.8868  0.5896
  836MPD2    H112293   1.300   2.689  11.523  0.0098  0.8141  0.5769
  836MPD2    H212294   1.697   2.542  11.486 -1.0651 -0.4841 -1.4856
  836MPD2    H312295   1.473   2.601  11.377  0.2043  0.0199 -0.9415
  836MPD2     N12296   1.305   2.734  11.793  0.1587 -0.0456  0.0181
  836MPD2    H512297   1.226   2.774  11.743  0.9439 -1.8126 -2.6873
  836MPD2    N112298   1.739   2.533  11.742  0.5287  0.2199  0.1252
  836MPD2    H712299   1.795   2.482  11.675 -0.6405 -0.5162 -0.2930
  837MPD2     C12300   0.385   1.872  10.255 -0.6759 -0.2494  0.0594
  837MPD2    C112301   0.471   1.855  10.152  0.1978 -0.1209 -0.4200
  837MPD2    C212302   0.566   1.952  10.140 -0.4153 -0.1572  0.6498
  837MPD2    C312303   0.587   2.056  10.225  0.1644  0.5056 -0.6000
  837MPD2    C412304   0.491   2.077  10.324  0.4629  1.0709  0.4025
  837MPD2    C512305   0.396   1.981  10.344  0.2145 -0.1587 -0.4013
  837MPD2     H12306   0.638   1.947  10.059 -0.4700 -1.8990  0.7168
  837MPD2    H112307   0.494   2.159  10.394  0.4003 -0.9415  2.7668
  837MPD2    H212308   0.300   1.810  10.281 -2.3169  2.8689  2.1554
  837MPD2    H312309   0.320   1.992  10.421  1.0113  1.0362  0.2101
  837MPD2     N12310   0.703   2.142  10.194  0.1945 -0.2450 -0.4375
  837MPD2    H512311   0.770   2.113  10.124  0.4180 -0.7007 -0.0334
  837MPD2    N112312   0.464   1.766  10.045  0.2218  0.2066  0.3181
  837MPD2    H712313   0.536   1.782   9.975  1.6812 -0.0705  1.7727
  838MPD2     C12314   3.029   4.600  11.362 -0.1804  0.0524  0.8355
  838MPD2    C112315   2.970   4.702  11.441 -0.2154 -0.2004  0.3321
  838MPD2    C212316   2.849   4.665  11.510 -0.8306 -0.3453 -0.3622
  838MPD2    C312317   2.799   4.540  11.509  0.5200 -0.6299  0.1457
  838MPD2    C412318   2.855   4.441  11.428  0.7210 -1.0649  0.1953
  838MPD2    C512319   2.974   4.474  11.362 -0.7309 -0.2371  0.6075
  838MPD2     H12320   2.802   0.013  11.578  0.1138 -0.8700  0.8394
  838MPD2    H112321   2.801   4.349  11.412 -0.7278 -0.4094  1.3538
  838MPD2    H212322   3.124   4.615  11.312 -0.6088  1.3387  0.3930
  838MPD2    H312323   3.021   4.391  11.310 -1.3321 -0.7435  0.8683
  838MPD2     N12324   2.688   4.517  11.584 -0.2439  0.6071 -0.1583
  838MPD2    H512325   2.653   4.592  11.642 -1.4628  0.4782 -0.7386
  838MPD2    N112326   3.030   0.105  11.468  0.2162 -0.4540 -0.0719
  838MPD2    H712327   2.982   0.186  11.505 -1.7147 -2.2396  1.2396
  839MPD2     C12328   3.003   4.392  11.927 -0.7674  0.2464 -0.0497
  839MPD2    C112329   3.020   4.407  11.790  0.4437 -0.2211  0.5105
  839MPD2    C212330   3.076   4.532  11.741 -0.3029 -0.5217  1.0713
  839MPD2    C312331   3.104   4.632  11.829  0.4970 -0.2191 -0.3745
  839MPD2    C412332   3.099   4.610  11.967  0.2970 -0.2030  0.2890
  839MPD2    C512333   3.043   4.489  12.018  0.3602  0.2837  0.3132
  839MPD2     H12334   3.068   4.552  11.635  1.0095  0.8315  1.2201
  839MPD2    H112335   3.121   4.684  12.043  1.4364  0.8228 -1.0512
  839MPD2    H212336   2.950   4.305  11.965 -0.4911  0.4564  0.8248
  839MPD2    H312337   3.016   4.480  12.122 -0.5014  0.6573  0.1228
  839MPD2     N12338   3.151   0.032  11.770 -0.4841  0.3132  0.2330
  839MPD2    H512339   3.144   0.041  11.669 -1.3106 -0.5767  0.2070
  839MPD2    N112340   2.975   4.313  11.695 -0.5762 -0.5663 -0.0979
  839MPD2    H712341   2.998   4.325  11.597  2.3764 -3.1838  0.2638
  840MPD2     C12342   3.611   2.091  10.027 -0.1514 -0.3711 -0.6328
  840MPD2    C112343   3.553   2.071  10.151  0.5111 -0.0044  0.4509
  840MPD2    C212344   3.594   2.143  10.263 -0.2615  0.4936 -0.1117
  840MPD2    C312345   3.695   2.235  10.236 -0.6073  0.2173  0.2142
  840MPD2    C412346   3.749   2.247  10.113  0.1565 -0.5775 -0.2968
  840MPD2    C512347   3.706   2.179  10.008  0.5660  0.6077  0.7610
  840MPD2     H12348   3.554   2.122  10.361  1.7457 -1.4381  0.2913
  840MPD2    H112349   3.819   2.329  10.100 -0.4361 -0.5808 -3.2610
  840MPD2    H212350   3.578   2.030   9.944 -0.2573 -1.3579  0.1424
  840MPD2    H312351   3.763   2.180   9.916  0.1500 -1.6160  0.4845
  840MPD2     N12352   3.752   2.316  10.338  0.4563  0.0579  0.3565
  840MPD2    H512353   3.822   2.383  10.310 -0.1892 -0.0447 -1.5072
  840MPD2    N112354   3.447   1.975  10.163  0.3692  1.0303 -0.5709
  840MPD2    H712355   3.415   1.964  10.259 -0.7715  0.7787 -0.9796
  841MPD2     C12356   3.367   2.096  14.396 -0.2984 -0.0092 -0.0441
  841MPD2    C112357   3.320   2.055  14.519 -0.7350 -0.3518  0.3809
  841MPD2    C212358   3.376   2.107  14.634 -0.9236  0.0739 -0.4826
  841MPD2    C312359   3.483   2.197  14.625 -0.7203 -0.7014  0.3857
  841MPD2    C412360   3.532   2.237  14.498  0.9024 -0.2634 -0.1679
  841MPD2    C512361   3.471   2.180  14.387  0.2476 -0.9441 -0.5624
  841MPD2     H12362   3.340   2.071  14.730 -1.6803  2.3264  0.0775
  841MPD2    H112363   3.618   2.300  14.480  0.9087 -0.6385 -1.4944
  841MPD2    H212364   3.341   2.041  14.306 -0.8300 -0.0288  0.1210
  841MPD2    H312365   3.489   2.218  14.287 -1.4143  0.7303 -0.2402
  841MPD2     N12366   3.528   2.234  14.744  0.5141 -0.5047  0.3395
  841MPD2    H512367   3.480   2.202  14.827  0.2925  1.2918  0.9103
  841MPD2    N112368   3.228   1.947  14.533  0.4915  0.2004  0.2772
  841MPD2    H712369   3.211   1.908  14.626  1.0700  0.7541  0.6101
  842MPD2     C12370   3.381   3.337  16.422 -0.0108  0.0598 -0.0591
  842MPD2    C112371   3.250   3.361  16.441 -0.3165  0.3111 -0.1236
  842MPD2    C212372   3.176   3.264  16.523 -0.9053  0.4234 -0.3584
  842MPD2    C312373   3.254   3.187  16.611  0.1983 -0.3544 -0.6282
  842MPD2    C412374   3.389   3.175  16.599  0.2383  0.3955  0.4432
  842MPD2    C512375   3.448   3.249  16.502  0.2389  0.3193 -0.4875
  842MPD2     H12376   3.072   3.278  16.547 -1.2408 -2.5472 -0.1190
  842MPD2    H112377   3.437   3.098  16.659  0.1214 -0.7723 -0.9624
  842MPD2    H212378   3.438   3.401  16.356 -0.1129 -0.7697 -0.9343
  842MPD2    H312379   3.555   3.238  16.488  0.1361 -0.4224 -0.7170
  842MPD2     N12380   3.204   3.112  16.724  0.5588  0.2954  0.1035
  842MPD2    H512381   3.274   3.090  16.794 -2.2596  1.6428  3.3376
  842MPD2    N112382   3.196   3.474  16.379 -0.8554  0.2594 -0.3336
  842MPD2    H712383   3.260   3.538  16.334  0.3239 -1.7316 -1.5194
  843MPD2     C12384   0.278   2.922  17.662  0.0456  0.2379  0.1114
  843MPD2    C112385   0.265   2.955   0.104  0.1372 -0.0923 -0.1756
  843MPD2    C212386   0.307   3.078   0.149 -0.0956  0.7121  0.1256
  843MPD2    C312387   0.377   3.167   0.066 -0.4609  0.0301 -0.2337
  843MPD2    C412388   0.398   3.130  17.628  0.3569 -0.9819  0.3248
  843MPD2    C512389   0.342   3.014  17.581 -0.0415 -0.2450 -0.1651
  843MPD2     H12390   0.283   3.111   0.250  3.7866 -0.1478  1.3249
  843MPD2    H112391   0.451   3.188  17.553 -0.8462 -1.3060 -0.7950
  843MPD2    H212392   0.231   2.831  17.626  0.5654  0.6002 -1.4558
  843MPD2    H312393   0.358   2.991  17.476  1.2854  0.9888 -0.2160
  843MPD2     N12394   0.451   3.285   0.109  0.6458 -0.0256  0.6853
  843MPD2    H512395   0.517   3.319   0.039  0.4455  1.0258  1.0136
  843MPD2    N112396   0.206   2.862   0.190  0.2167 -0.2199  0.1680
  843MPD2    H712397   0.149   2.783   0.160 -0.6459  0.8100 -0.9279
  844MPD2     C12398   3.495   2.594  17.013 -0.1790 -0.4412 -0.8604
  844MPD2    C112399   3.602   2.650  16.946  0.7233  0.3409 -0.0188
  844MPD2    C212400   3.674   2.757  16.994  0.4412  0.5581 -0.0441
  844MPD2    C312401   3.653   2.787  17.129  0.6111  0.2117  0.5997
  844MPD2    C412402   3.549   2.727  17.202  0.2597  0.6398 -0.0045
  844MPD2    C512403   3.471   2.633  17.140  0.8927  0.5767 -0.4330
  844MPD2     H12404   3.761   2.789  16.938  1.3850  1.4417  1.9182
  844MPD2    H112405   3.525   2.749  17.305  0.9896 -1.7873  0.6842
  844MPD2    H212406   3.439   2.506  16.981  0.0810 -0.1566 -2.1043
  844MPD2    H312407   3.390   2.590  17.198  1.0247 -1.7256 -1.9720
  844MPD2     N12408   3.727   2.884  17.191 -0.2286 -0.7448 -0.3697
  844MPD2    H512409   3.719   2.903  17.290  0.4493  0.6202 -0.5771
  844MPD2    N112410   3.639   2.593  16.822  0.2000  0.0213  0.0063
  844MPD2    H712411   3.594   2.506  16.795 -1.3118  0.4048  1.2690
  845MPD2     C12412   4.290   3.769  17.228  0.5068  0.3455  0.4002
  845MPD2    C112413   4.275   3.711  17.354  0.1390 -0.1297  0.5343
  845MPD2    C212414   4.244   3.582  17.352  0.4997  0.3918 -0.1058
  845MPD2    C312415   4.230   3.501  17.241  0.5809 -0.2583 -0.1199
  845MPD2    C412416   4.268   3.558  17.118  0.3115  0.1251 -0.0175
  845MPD2    C512417   4.303   3.689  17.110  0.1623  0.5001 -0.0407
  845MPD2     H12418   4.217   3.525  17.441 -0.4453 -0.6707 -1.0790
  845MPD2    H112419   4.265   3.508  17.022  1.1441  0.7150 -0.3521
  845MPD2    H212420   4.302   3.876  17.221  0.8648  0.1802 -1.6085
  845MPD2    H312421   4.333   3.730  17.014 -0.1626  1.2941  0.1973
  845MPD2     N12422   4.182   3.369  17.265  0.0641 -0.0435 -0.1545
  845MPD2    H512423   4.186   3.338  17.361  2.5179  0.4813 -0.0942
  845MPD2    N112424   4.274   3.795  17.470  0.6303 -0.0773 -0.8502
  845MPD2    H712425   4.275   3.896  17.456 -0.0696  0.1821  0.8623
  846MPD2     C12426   1.121   4.178  13.705 -0.3551  0.0522 -0.6994
  846MPD2    C112427   1.056   4.298  13.692  0.1508  0.0223 -0.6254
  846MPD2    C212428   1.012   4.360  13.812  0.6290 -0.0689 -0.4076
  846MPD2    C312429   1.034   4.304  13.936 -0.1333 -0.7034 -0.2522
  846MPD2    C412430   1.086   4.177  13.944 -0.0497 -0.1209 -0.2478
  846MPD2    C512431   1.136   4.119  13.832 -1.0079 -0.2722 -0.4168
  846MPD2     H12432   0.970   4.460  13.818  3.3569  1.0417  0.2339
  846MPD2    H112433   1.103   4.121  14.036 -1.1016 -1.4387 -0.8531
  846MPD2    H212434   1.164   4.132  13.616  0.1685  0.0611 -0.4474
  846MPD2    H312435   1.198   4.030  13.840  0.9183  0.9571 -1.6686
  846MPD2     N12436   0.990   4.372  14.051 -0.4723 -0.1071 -0.3912
  846MPD2    H512437   0.932   4.455  14.049  0.0502  0.2599 -0.4246
  846MPD2    N112438   1.058   4.372  13.569  0.0215  0.0013  0.4732
  846MPD2    H712439   1.045   4.472  13.560 -1.0361 -0.2943 -1.3983
  847MPD2     C12440   0.914   0.278  14.174 -0.0162 -0.0346 -0.7556
  847MPD2    C112441   0.971   0.378  14.104  0.2963 -0.5229  0.2722
  847MPD2    C212442   1.110   0.386  14.100  0.4518  0.0732  0.1657
  847MPD2    C312443   1.185   0.297  14.171 -0.2055 -1.0342 -0.1308
  847MPD2    C412444   1.131   0.182  14.232 -0.6992 -0.6104  0.6020
  847MPD2    C512445   0.992   0.176  14.223 -0.1241  0.0867  0.7554
  847MPD2     H12446   1.154   0.474  14.055  0.3312  0.8016  1.4550
  847MPD2    H112447   1.192   0.106  14.279  0.0518 -0.5031 -0.2076
  847MPD2    H212448   0.808   0.268  14.195  0.6692 -2.7508  1.5302
  847MPD2    H312449   0.944   0.101  14.285 -0.2069 -1.8833 -1.6656
  847MPD2     N12450   1.317   0.347  14.193 -0.4023 -0.4942 -0.4440
  847MPD2    H512451   1.323   0.439  14.152 -1.6641 -0.5973 -0.8654
  847MPD2    N112452   0.903   0.477  14.024  0.2919  0.0773  0.2822
  847MPD2    H712453   0.955   0.543  13.967  1.4870 -0.5981  0.5843
  848MPD2     C12454   3.630   3.469  16.791  0.4926 -0.0281  0.3666
  848MPD2    C112455   3.612   3.532  16.912  0.1223  0.0707  0.4014
  848MPD2    C212456   3.623   3.666  16.927 -0.3577  0.4002  0.3697
  848MPD2    C312457   3.649   3.739  16.816 -0.3117 -0.2533  0.0071
  848MPD2    C412458   3.666   3.679  16.691 -0.3202  0.3611  0.2960
  848MPD2    C512459   3.654   3.544  16.683  0.0180  0.1557  0.1151
  848MPD2     H12460   3.610   3.709  17.026  0.7827  0.5382  0.4539
  848MPD2    H112461   3.685   3.737  16.602  0.8957 -3.2700 -1.7963
  848MPD2    H212462   3.630   3.361  16.779  0.9222  0.1166 -0.9811
  848MPD2    H312463   3.662   3.488  16.590 -0.8663 -0.1090  0.2016
  848MPD2     N12464   3.661   3.876  16.814 -0.6227  0.4855  0.5840
  848MPD2    H512465   3.676   3.912  16.720 -2.7056  2.7285  1.1213
  848MPD2    N112466   3.589   3.461  17.030 -0.0688  0.3806  0.3321
  848MPD2    H712467   3.597   3.513  17.117 -0.5341 -1.1795  1.3152
  849MPD2     C12468   3.139   3.029  13.525  0.2944 -0.2474  0.3821
  849MPD2    C112469   3.173   2.911  13.581  0.8337 -0.3182 -0.7348
  849MPD2    C212470   3.243   2.898  13.698  0.5191 -0.0322 -0.0936
  849MPD2    C312471   3.303   3.004  13.755 -0.4153  0.1301  0.5155
  849MPD2    C412472   3.269   3.124  13.704  0.5023  0.4498 -0.1747
  849MPD2    C512473   3.183   3.139  13.596  0.0255 -0.4192  1.1298
  849MPD2     H12474   3.270   2.798  13.732 -2.9098 -0.4952  1.2504
  849MPD2    H112475   3.317   3.215  13.739 -1.0717  1.3557 -0.3618
  849MPD2    H212476   3.073   3.052  13.442  0.4357  0.3791  0.4447
  849MPD2    H312477   3.157   3.241  13.569  0.5367 -0.2217  1.3755
  849MPD2     N12478   3.388   2.989  13.868 -0.1936  1.0093  0.5864
  849MPD2    H512479   3.427   3.073  13.909 -1.6965  1.6931  0.6448
  849MPD2    N112480   3.136   2.802  13.506  0.0470  0.0242  0.1915
  849MPD2    H712481   3.069   2.818  13.431  0.2003  1.3079  0.3268
  850MPD2     C12482   0.616   1.748  14.732 -0.0445 -0.2739 -0.5547
  850MPD2    C112483   0.662   1.790  14.854 -0.4180 -0.0264 -0.3040
  850MPD2    C212484   0.754   1.897  14.854  0.2113  0.1997  0.9945
  850MPD2    C312485   0.801   1.962  14.746  0.0713  0.2792 -0.2563
  850MPD2    C412486   0.756   1.915  14.623 -0.5545  0.2519  0.6318
  850MPD2    C512487   0.655   1.815  14.618  1.3618  0.6494 -0.3337
  850MPD2     H12488   0.790   1.915  14.955 -0.4088 -2.7394  1.7475
  850MPD2    H112489   0.786   1.958  14.529 -0.5906 -0.5526  0.2486
  850MPD2    H212490   0.551   1.662  14.734  0.9207 -1.0362 -1.6283
  850MPD2    H312491   0.616   1.775  14.526  1.5092 -0.2912  0.0189
  850MPD2     N12492   0.903   2.063  14.748 -0.7379  0.4264  0.0500
  850MPD2    H512493   0.944   2.085  14.658  0.3917 -0.9168  0.2248
  850MPD2    N112494   0.625   1.718  14.971  0.5665 -0.3272 -0.2437
  850MPD2    H712495   0.579   1.627  14.968  1.9853 -0.9891 -1.6344
  851MPD2     C12496   1.254   1.502  15.309  0.3360 -0.2057  0.0181
  851MPD2    C112497   1.144   1.426  15.282 -0.6416  0.3105 -0.7740
  851MPD2    C212498   1.159   1.299  15.235  0.4610 -0.0674 -0.4441
  851MPD2    C312499   1.289   1.252  15.194 -0.5394 -0.0063  0.5683
  851MPD2    C412500   1.403   1.331  15.217 -0.6976 -0.0241 -0.1752
  851MPD2    C512501   1.380   1.454  15.274  0.0291 -0.5682 -0.1190
  851MPD2     H12502   1.079   1.229  15.212  0.9973 -0.7798 -0.1733
  851MPD2    H112503   1.498   1.296  15.178  0.7051  1.7432  1.6366
  851MPD2    H212504   1.248   1.603  15.347  0.1431 -1.5818  3.6157
  851MPD2    H312505   1.462   1.522  15.293 -0.7397 -0.0656  1.4823
  851MPD2     N12506   1.297   1.122  15.135 -0.4239 -0.2714  0.4912
  851MPD2    H512507   1.214   1.065  15.124 -0.0785 -0.9181  1.2601
  851MPD2    N112508   1.018   1.489  15.311 -0.5795  0.2947 -0.4382
  851MPD2    H712509   1.010   1.579  15.355 -0.6987 -0.0342  0.2071
  852MPD2     C12510   0.224   3.695  10.356  0.3708  0.2222  0.3109
  852MPD2    C112511   0.308   3.662  10.461  0.2796  0.4699  0.3265
  852MPD2    C212512   0.393   3.755  10.515  0.2803  1.1962 -0.5164
  852MPD2    C312513   0.407   3.875  10.453  0.5451  0.4741  1.2002
  852MPD2    C412514   0.325   3.912  10.346 -0.1879  0.1594 -0.0656
  852MPD2    C512515   0.229   3.822  10.306 -0.2682 -1.1611 -0.0046
  852MPD2     H12516   0.468   3.728  10.587 -1.9913 -1.5965  0.8320
  852MPD2    H112517   0.329   4.006  10.292 -0.4529  0.2852  0.1340
  852MPD2    H212518   0.151   3.626  10.317  1.0824  0.0642 -0.7614
  852MPD2    H312519   0.159   3.849  10.227  0.0288 -1.4065 -0.3534
  852MPD2     N12520   0.518   3.953  10.496  0.4410  0.6053  0.2842
  852MPD2    H512521   0.579   3.914  10.567  1.4304  1.5164 -0.0651
  852MPD2    N112522   0.303   3.534  10.530  0.2965 -0.8462  0.2814
  852MPD2    H712523   0.367   3.526  10.609 -0.2676  2.7132  1.0926
  853MPD2     C12524   2.580   3.421  12.315  0.0152  0.1686 -0.4340
  853MPD2    C112525   2.694   3.407  12.393 -0.4282 -1.0951 -0.1427
  853MPD2    C212526   2.808   3.359  12.335 -0.3138 -0.0592  0.8556
  853MPD2    C312527   2.816   3.328  12.201  0.1784  0.0259 -0.0955
  853MPD2    C412528   2.703   3.335  12.125 -0.1283 -0.5080  0.3320
  853MPD2    C512529   2.587   3.381  12.186 -0.0596 -0.0665  0.3712
  853MPD2     H12530   2.902   3.361  12.388 -0.5149 -1.1293  1.2672
  853MPD2    H112531   2.695   3.284  12.030 -1.8793  1.6986 -0.7074
  853MPD2    H212532   2.490   3.453  12.365 -0.0800  1.7155 -1.6137
  853MPD2    H312533   2.494   3.379  12.130 -0.3663 -2.7690  0.9758
  853MPD2     N12534   2.939   3.286  12.148 -0.2285 -0.6231  0.3290
  853MPD2    H512535   3.019   3.295  12.210  0.4989  2.5057 -1.0362
  853MPD2    N112536   2.676   3.441  12.525 -0.3333  0.3034  0.2823
  853MPD2    H712537   2.595   3.498  12.547  1.2633  1.8963  2.0053
  854MPD2     C12538   4.268   3.736  12.605 -0.2486  0.3784  0.1434
  854MPD2    C112539   4.257   3.640  12.701  0.6401 -0.2016 -0.9645
  854MPD2    C212540   4.356   3.626  12.797 -0.2422 -0.0742 -0.8266
  854MPD2    C312541   4.481   3.684  12.782  0.3303 -0.1446  0.1438
  854MPD2    C412542   4.493   3.771  12.676 -0.1872  0.4674  0.1075
  854MPD2    C512543   4.393   3.797  12.590 -0.1991  0.5595  0.2362
  854MPD2     H12544   4.344   3.555  12.878  0.7164 -0.5309 -1.0765
  854MPD2    H112545   4.588   3.821  12.657  0.7878  0.0625  3.9101
  854MPD2    H212546   4.197   3.754  12.526  0.3148  1.0105 -0.2179
  854MPD2    H312547   4.402   3.871  12.511  3.2177  2.0176  1.9987
  854MPD2     N12548   4.596   3.648  12.855 -0.4941 -0.3718  0.1555
  854MPD2    H512549   4.687   3.686  12.829 -0.9094  1.0970  0.8396
  854MPD2    N112550   4.130   3.583  12.722 -0.1972 -0.5879  0.2055
  854MPD2    H712551   4.061   3.605  12.651  1.1402  0.9101 -0.6353
  855MPD2     C12552   0.234   3.588  13.772 -0.5408 -0.2067 -0.1349
  855MPD2    C112553   0.266   3.460  13.728  0.2781  0.2102  0.2021
  855MPD2    C212554   0.233   3.427  13.599  1.0854 -0.4089 -0.8189
  855MPD2    C312555   0.183   3.526  13.512  0.0406 -0.2873 -0.5498
  855MPD2    C412556   0.146   3.648  13.562  0.1775  0.0953  0.5432
  855MPD2    C512557   0.172   3.680  13.693  1.1321 -1.2218 -0.0595
  855MPD2     H12558   0.251   3.328  13.560 -1.0750 -1.6504  1.2954
  855MPD2    H112559   0.121   3.729  13.494 -1.1115 -0.1762  0.6982
  855MPD2    H212560   0.258   3.610  13.876  1.4350 -1.1638 -0.3987
  855MPD2    H312561   0.152   3.780  13.730  2.0837 -0.0783 -2.6261
  855MPD2     N12562   0.149   3.503  13.374  0.4344 -0.2707  0.3407
  855MPD2    H512563   0.087   3.573  13.334  0.7345 -0.8336 -1.1218
  855MPD2    N112564   0.329   3.366  13.816 -0.0124 -0.4465  0.1949
  855MPD2    H712565   0.377   3.395  13.901  2.2225 -0.3448 -1.1118
  856MPD2     C12566   2.231   4.356  13.582  0.4218 -0.1239 -0.8175
  856MPD2    C112567   2.154   4.409  13.680  0.4923  0.2145 -0.0984
  856MPD2    C212568   2.097   4.535  13.658  0.1649  0.6680  0.0317
  856MPD2    C312569   2.116   4.601  13.532  0.0385  0.4089 -0.3408
  856MPD2    C412570   2.195   4.538  13.441  0.8718  0.2817 -0.0775
  856MPD2    C512571   2.252   4.415  13.461  0.2313  0.5248  0.4576
  856MPD2     H12572   2.036   4.579  13.735 -0.9153 -1.3946  0.3470
  856MPD2    H112573   2.213   4.590  13.348 -0.1397 -0.8411 -0.9074
  856MPD2    H212574   2.294   4.269  13.601  2.2770  1.1173 -1.2363
  856MPD2    H312575   2.312   4.360  13.389  1.2029  0.7687  1.0809
  856MPD2     N12576   2.077   0.007  13.495  0.1177 -0.8986  0.2684
  856MPD2    H512577   2.109   0.050  13.409 -0.3131  0.4889  0.8092
  856MPD2    N112578   2.125   4.349  13.806  0.2428 -0.0403  0.1926
  856MPD2    H712579   2.058   4.401  13.862 -0.2246  0.6300 -0.9767
  857MPD2     C12580   3.657   1.850  12.691 -0.7564 -0.5187  0.3250
  857MPD2    C112581   3.785   1.824  12.732 -0.2253  0.3817  0.0106
  857MPD2    C212582   3.846   1.917  12.812  0.3758  0.3544  0.3099
  857MPD2    C312583   3.775   2.036  12.854  0.1859 -0.3141 -0.2878
  857MPD2    C412584   3.645   2.048  12.822 -0.4223  0.2931  0.2347
  857MPD2    C512585   3.586   1.959  12.738  0.4535 -0.4547 -0.7800
  857MPD2     H12586   3.949   1.912  12.846  0.8524  2.2255 -0.8722
  857MPD2    H112587   3.581   2.121  12.870 -0.6745 -0.3554  0.8820
  857MPD2    H212588   3.608   1.772  12.634 -0.3011 -0.0391 -0.7338
  857MPD2    H312589   3.483   1.974  12.708  0.1806  1.7336  1.3015
  857MPD2     N12590   3.846   2.143  12.914 -0.8247 -0.3449 -0.2097
  857MPD2    H512591   3.938   2.119  12.951 -0.1515 -1.1929 -2.4718
  857MPD2    N112592   3.847   1.706  12.685 -0.5394 -0.0650  0.0577
  857MPD2    H712593   3.785   1.639  12.639 -1.5779  0.4305  0.7467
  858MPD2     C12594   3.727   0.378  17.144 -0.2074 -0.1355  0.2226
  858MPD2    C112595   3.830   0.433  17.066 -0.1828 -0.9706  0.5693
  858MPD2    C212596   3.892   0.552  17.115  0.7114  0.1544  0.3428
  858MPD2    C312597   3.851   0.606  17.232  0.0623 -0.9928 -0.1408
  858MPD2    C412598   3.746   0.555  17.301 -0.5301 -0.1554  0.0663
  858MPD2    C512599   3.694   0.435  17.263  0.4404  0.4564 -0.3028
  858MPD2     H12600   3.973   0.588  17.052  1.6187 -1.4267  0.5968
  858MPD2    H112601   3.727   0.598  17.399  0.1591 -0.4525  0.3270
  858MPD2    H212602   3.680   0.289  17.103  1.4509 -1.0501  0.3101
  858MPD2    H312603   3.611   0.392  17.319 -0.0094  1.3883 -0.2399
  858MPD2     N12604   3.912   0.723  17.293 -0.3435 -0.5055  0.1718
  858MPD2    H512605   3.868   0.768  17.372 -1.3598 -1.1027 -0.0532
  858MPD2    N112606   3.861   0.364  16.941  0.1724  0.2239  0.1112
  858MPD2    H712607   3.814   0.275  16.934  0.1052  0.0868  2.0785
  859MPD2     C12608   2.830   3.043  15.504 -0.2689  0.1181  0.4118
  859MPD2    C112609   2.952   3.088  15.549 -0.8958 -0.6427  0.0572
  859MPD2    C212610   3.007   3.027  15.659  0.2843 -0.8054  0.5614
  859MPD2    C312611   2.950   2.914  15.710  0.3035  0.1214 -0.2539
  859MPD2    C412612   2.828   2.873  15.663 -0.9004 -0.0575  0.1586
  859MPD2    C512613   2.773   2.933  15.552 -0.6493  0.6120  0.0877
  859MPD2     H12614   3.104   3.058  15.697  0.3785  0.1702 -0.4502
  859MPD2    H112615   2.801   2.778  15.709  3.6799 -0.6039  1.7188
  859MPD2    H212616   2.777   3.085  15.419 -2.6152 -1.5279  1.0935
  859MPD2    H312617   2.689   2.888  15.500 -0.0733 -1.3407  0.8244
  859MPD2     N12618   3.017   2.828  15.810 -0.5556  0.5932  0.5938
  859MPD2    H512619   2.978   2.737  15.835  0.9643 -0.3857 -0.5820
  859MPD2    N112620   3.032   3.189  15.489  0.8654 -0.3092 -0.1884
  859MPD2    H712621   3.131   3.189  15.512  1.4256  2.6506 -2.5617
  860MPD2     C12622   1.114   3.726  11.840 -0.4300 -0.6505  0.3574
  860MPD2    C112623   1.169   3.603  11.881  0.0346 -0.0027 -0.1792
  860MPD2    C212624   1.074   3.505  11.917  0.3369 -0.2579 -0.7281
  860MPD2    C312625   0.938   3.529  11.904  0.4146  0.1858  0.1141
  860MPD2    C412626   0.894   3.655  11.869  0.4212  0.6043 -0.0444
  860MPD2    C512627   0.981   3.756  11.841  0.3456  0.4842 -0.0090
  860MPD2     H12628   1.112   3.406  11.939  0.1261 -0.0559  0.5605
  860MPD2    H112629   0.789   3.681  11.864  0.3387  0.0500 -1.3514
  860MPD2    H212630   1.175   3.813  11.819 -0.7965  0.1230  2.4351
  860MPD2    H312631   0.957   3.854  11.802 -1.2686 -0.9828 -2.6636
  860MPD2     N12632   0.848   3.426  11.945 -0.9390  0.2935  1.0686
  860MPD2    H512633   0.886   3.334  11.966 -0.6078 -0.1374 -1.4135
  860MPD2    N112634   1.307   3.575  11.892  0.2331 -0.7051  0.2941
  860MPD2    H712635   1.333   3.480  11.915  1.1342 -1.2016 -2.8320
  861MPD2     C12636   4.267   1.112  10.782  0.0014  0.1643 -0.7249
  861MPD2    C112637   4.230   1.234  10.840  0.6467  0.2217 -0.8642
  861MPD2    C212638   4.137   1.313  10.785  0.3369  0.2006  0.1407
  861MPD2    C312639   4.102   1.298  10.650  0.0353 -0.0536  0.5761
  861MPD2    C412640   4.161   1.188  10.584 -0.2279 -0.1341 -0.2626
  861MPD2    C512641   4.241   1.102  10.647 -0.2833  0.1477 -1.0115
  861MPD2     H12642   4.118   1.406  10.836 -1.5415  0.9311 -1.9066
  861MPD2    H112643   4.147   1.169  10.478  2.9033 -3.2559 -0.1234
  861MPD2    H212644   4.324   1.037  10.835 -0.6752  0.2164  0.0761
  861MPD2    H312645   4.282   1.011  10.603  1.7456  1.1258 -1.1701
  861MPD2     N12646   4.022   1.389  10.577  0.5909 -0.9171  0.1572
  861MPD2    H512647   4.018   1.375  10.476 -4.2682 -0.2742  0.2745
  861MPD2    N112648   4.266   1.279  10.981 -0.0367 -0.8838  0.6184
  861MPD2    H712649   4.220   1.357  11.025  2.1346  0.2771  0.8166
  862MPD2     C12650   4.267   1.617   9.993  0.5226 -0.1986 -0.0528
  862MPD2    C112651   4.210   1.539  10.086  0.0748 -0.9447 -0.3458
  862MPD2    C212652   4.242   1.407  10.101 -0.2876 -0.5877  0.0639
  862MPD2    C312653   4.337   1.353  10.016 -0.0139  0.2184 -1.0391
  862MPD2    C412654   4.385   1.427   9.912  1.0210 -0.9618  0.1579
  862MPD2    C512655   4.354   1.558   9.904 -0.1463  0.7873  0.7060
  862MPD2     H12656   4.188   1.350  10.175  0.1386 -1.2124 -0.1078
  862MPD2    H112657   4.459   1.387   9.843 -0.0495  0.7367 -1.9983
  862MPD2    H212658   4.241   1.722   9.984 -1.1430 -0.6957 -1.1657
  862MPD2    H312659   4.412   1.617   9.833  0.5268  1.0470  1.4756
  862MPD2     N12660   4.376   1.215  10.024 -0.3297  0.0461 -0.1791
  862MPD2    H512661   4.459   1.197   9.969  1.1355 -1.5361  2.5835
  862MPD2    N112662   4.119   1.589  10.181 -0.5429  0.5279  0.0030
  862MPD2    H712663   4.057   1.524  10.229  0.5174  0.4688  1.2896
  863MPD2     C12664   2.673   0.397  16.915  0.1288 -0.1536  0.5599
  863MPD2    C112665   2.580   0.304  16.963  0.3449  0.1373  0.3138
  863MPD2    C212666   2.624   0.186  17.026  1.2508 -0.0354 -0.1753
  863MPD2    C312667   2.762   0.173  17.043 -0.2633 -0.4880 -0.4381
  863MPD2    C412668   2.849   0.267  16.989 -0.1727  0.2037  0.3450
  863MPD2    C512669   2.804   0.386  16.944  0.5139  0.0079  0.1415
  863MPD2     H12670   2.551   0.111  17.053 -0.2123  1.4462 -0.0193
  863MPD2    H112671   2.956   0.252  17.005  0.2306  1.3898 -1.3126
  863MPD2    H212672   2.643   0.485  16.859 -2.5579 -0.7648  1.0562
  863MPD2    H312673   2.867   0.467  16.909 -0.9911  0.7293 -0.9024
  863MPD2     N12674   2.822   0.062  17.103  0.0292  0.0380  0.2129
  863MPD2    H512675   2.924   0.066  17.107  0.0548 -0.6288  0.2470
  863MPD2    N112676   2.446   0.330  16.930 -0.1734 -0.4534 -0.6502
  863MPD2    H712677   2.428   0.420  16.887  2.7006 -0.0596 -1.0653
  864MPD2     C12678   2.878   1.236  17.510 -0.3731 -0.2670  0.0736
  864MPD2    C112679   2.966   1.165  17.428 -0.3580  0.1595  0.2139
  864MPD2    C212680   3.030   1.226  17.318  0.9896 -0.1230 -0.0154
  864MPD2    C312681   3.003   1.356  17.294  0.3829 -0.4224  0.1399
  864MPD2    C412682   2.925   1.438  17.382 -0.2619 -0.1020 -0.5408
  864MPD2    C512683   2.870   1.374  17.492  0.8434 -0.1830 -0.0970
  864MPD2     H12684   3.097   1.169  17.255  1.9385  0.1392  0.7575
  864MPD2    H112685   2.905   1.543  17.361 -1.3862 -1.1683 -4.7406
  864MPD2    H212686   2.843   1.194  17.603  0.1863  1.0690  0.8943
  864MPD2    H312687   2.803   1.425  17.561  2.0300 -1.0599  1.7223
  864MPD2     N12688   3.067   1.435  17.196 -0.4314  0.2163 -0.1998
  864MPD2    H512689   3.041   1.533  17.196 -0.2819  0.2609  1.6199
  864MPD2    N112690   2.994   1.027  17.453  0.6408  0.5224  0.6104
  864MPD2    H712691   3.052   0.982  17.382 -2.6542  1.5754 -2.6989
  865MPD2     C12692   3.342   1.636  16.436  0.4378  0.2348 -0.1595
  865MPD2    C112693   3.293   1.571  16.544 -0.6574  0.5544 -0.1456
  865MPD2    C212694   3.250   1.634  16.654  0.0134 -0.2327  0.3855
  865MPD2    C312695   3.249   1.771  16.651  0.0463  0.3592 -0.1594
  865MPD2    C412696   3.306   1.840  16.545  1.0271 -0.0588 -0.3853
  865MPD2    C512697   3.352   1.773  16.436 -0.3006 -0.1771  0.1099
  865MPD2     H12698   3.201   1.575  16.731  0.8088  0.7091  1.6195
  865MPD2    H112699   3.304   1.949  16.542 -0.4422 -0.0670  0.2998
  865MPD2    H212700   3.378   1.591  16.345  0.5706  1.6224 -0.7919
  865MPD2    H312701   3.396   1.831  16.356  0.4795  0.3975  0.9608
  865MPD2     N12702   3.182   1.842  16.748  0.1417 -0.0458 -0.5341
  865MPD2    H512703   3.154   1.932  16.711  1.2744  1.0850  1.3614
  865MPD2    N112704   3.303   1.430  16.532 -0.0336 -0.0090 -0.9179
  865MPD2    H712705   3.314   1.396  16.437  2.2769 -0.8415 -0.3405
  866MPD2     C12706   0.002   2.070  11.414 -0.0553 -0.0890 -0.3704
  866MPD2    C112707   0.017   2.086  11.276 -0.6729  0.2307 -0.0972
  866MPD2    C212708   4.630   2.051  11.192  0.1431  0.0164  0.2490
  866MPD2    C312709   4.507   2.015  11.247 -0.8227  0.0811  0.2691
  866MPD2    C412710   4.493   2.016  11.382 -0.0243 -0.2240 -0.0001
  866MPD2    C512711   4.598   2.039  11.462 -0.8280  0.2123  0.2610
  866MPD2     H12712   4.645   2.056  11.084 -1.8977  0.5208 -0.0240
  866MPD2    H112713   4.397   1.999  11.431  0.8889 -0.0426  1.8359
  866MPD2    H212714   0.079   2.094  11.487  0.7655 -0.9055 -0.9646
  866MPD2    H312715   4.582   2.038  11.569 -1.2971 -0.2129  0.1873
  866MPD2     N12716   4.391   1.994  11.176 -0.2516 -0.5196  0.7941
  866MPD2    H512717   4.309   1.964  11.228 -1.4964  0.3076 -0.6947
  866MPD2    N112718   0.148   2.119  11.232  0.5338  0.4668 -0.1772
  866MPD2    H712719   0.220   2.139  11.301  0.2947 -1.2837  0.5820
  867MPD2     C12720   1.896   1.590  16.696 -0.4313  0.0037 -0.2009
  867MPD2    C112721   1.895   1.535  16.823  0.0349 -0.0287 -0.5057
  867MPD2    C212722   1.852   1.606  16.935  0.2875  0.0136 -0.0566
  867MPD2    C312723   1.824   1.745  16.917  0.5034  0.1162 -0.2359
  867MPD2    C412724   1.843   1.805  16.792  0.1703 -0.0690 -0.2008
  867MPD2    C512725   1.866   1.722  16.686 -0.2669 -0.0175  0.0942
  867MPD2     H12726   1.829   1.559  17.030 -0.4622 -0.1829 -0.3342
  867MPD2    H112727   1.820   1.910  16.778 -0.6968 -0.2688 -0.2502
  867MPD2    H212728   1.919   1.528  16.611 -2.5384  0.6238 -1.2109
  867MPD2    H312729   1.881   1.770  16.590 -1.2379 -0.5309 -0.3149
  867MPD2     N12730   1.771   1.820  17.025  0.5666  0.1772  0.1616
  867MPD2    H512731   1.745   1.912  16.992  0.3454 -0.1532 -0.5964
  867MPD2    N112732   1.944   1.402  16.829 -0.7181  0.7346  0.1501
  867MPD2    H712733   1.982   1.369  16.741 -0.5488 -0.6258  0.7398
  868MPD2     C12734   3.918   0.165  12.874  0.0411 -0.6785  0.5009
  868MPD2    C112735   3.954   0.053  12.939 -0.0810 -0.3481  0.0483
  868MPD2    C212736   3.864   0.010  13.035 -0.0839 -0.0901  0.3479
  868MPD2    C312737   3.742   0.070  13.062 -0.5310 -0.8268  0.2494
  868MPD2    C412738   3.717   0.185  12.991 -0.0142  0.1770 -0.0166
  868MPD2    C512739   3.805   0.233  12.901 -0.1594 -0.5984 -0.2260
  868MPD2     H12740   3.885   4.639  13.086  0.7261  0.9404  1.9216
  868MPD2    H112741   3.629   0.246  13.007 -0.2436  0.3918 -2.0638
  868MPD2    H212742   3.982   0.215  12.802 -0.6943  1.2862  1.1958
  868MPD2    H312743   3.797   0.326  12.847  3.0730 -0.1277  0.1138
  868MPD2     N12744   3.657   0.013  13.159 -0.0524  0.3417  0.3048
  868MPD2    H512745   3.700   4.661  13.213 -1.6943  0.5193  1.8336
  868MPD2    N112746   4.076   4.706  12.901 -0.1341 -0.0326 -0.2393
  868MPD2    H712747   4.123   0.017  12.817  0.5104 -2.0868 -0.6945
  869MPD2     C12748   4.464   2.984   2.163  0.1755 -0.3768 -0.0517
  869MPD2    C112749   4.447   2.876   2.081  0.7245 -0.7145 -0.2162
  869MPD2    C212750   4.475   2.891   1.943 -0.1145 -0.3225  0.4576
  869MPD2    C312751   4.499   3.010   1.882  0.1160 -0.4818  0.5696
  869MPD2    C412752   4.522   3.118   1.965 -0.1771  0.0699  0.3097
  869MPD2    C512753   4.514   3.103   2.100 -0.3740 -0.6305 -0.1369
  869MPD2     H12754   4.453   2.805   1.881  0.0385 -0.0204 -0.0109
  869MPD2    H112755   4.559   3.210   1.922 -0.5988 -0.6593 -1.5958
  869MPD2    H212756   4.452   2.984   2.271 -1.1663 -0.7046 -0.2019
  869MPD2    H312757   4.535   3.194   2.155 -0.3344  0.4229 -1.9154
  869MPD2     N12758   4.525   3.028   1.749 -0.5925  0.3853  0.3249
  869MPD2    H512759   4.559   3.120   1.722 -1.3996 -0.2007 -2.7537
  869MPD2    N112760   4.410   2.757   2.147 -0.6244  0.2797 -0.2013
  869MPD2    H712761   4.423   2.753   2.248 -2.5357  0.3688  0.0450
  870MPD2     C12762   3.841   1.712   1.609 -0.6098  1.0994  0.2523
  870MPD2    C112763   3.968   1.755   1.605  0.2543  0.5886  0.6660
  870MPD2    C212764   4.031   1.789   1.485  0.5477 -0.2156  0.2969
  870MPD2    C312765   3.954   1.803   1.368  0.5199  0.1333 -0.1608
  870MPD2    C412766   3.820   1.766   1.371  0.4839 -0.8286  0.1712
  870MPD2    C512767   3.770   1.716   1.489 -0.7121  0.3337 -0.3902
  870MPD2     H12768   4.134   1.825   1.483  0.9284 -1.4414 -1.4564
  870MPD2    H112769   3.749   1.770   1.290 -0.9345  0.6551  1.4739
  870MPD2    H212770   3.788   1.675   1.696  2.0368 -1.2994  0.8240
  870MPD2    H312771   3.668   1.679   1.490 -0.6137  0.1257  0.9114
  870MPD2     N12772   4.022   1.828   1.246  0.0981  0.5971 -0.0795
  870MPD2    H512773   4.122   1.843   1.259  0.9017 -3.2356 -1.8237
  870MPD2    N112774   4.039   1.744   1.725  0.4538  0.3755  0.0003
  870MPD2    H712775   3.986   1.705   1.803  0.0007 -0.0623 -0.5284
  871MPD2     C12776   0.649   1.202  16.109 -0.6150 -0.4728 -0.6343
  871MPD2    C112777   0.708   1.170  16.235  0.5150 -0.7271 -0.0286
  871MPD2    C212778   0.784   1.054  16.233  0.2270 -0.1125 -0.4543
  871MPD2    C312779   0.800   0.977  16.125 -1.0210 -0.5342 -0.7563
  871MPD2    C412780   0.747   1.014  16.001 -0.1247 -1.2754 -0.2640
  871MPD2    C512781   0.670   1.130  15.998 -0.1433  0.1191  0.5561
  871MPD2     H12782   0.839   1.012  16.316 -0.9270  0.5749  0.6674
  871MPD2    H112783   0.763   0.960  15.908  0.8611 -2.1126  0.3940
  871MPD2    H212784   0.583   1.286  16.092 -0.7439 -0.7522 -1.4732
  871MPD2    H312785   0.624   1.165  15.906  0.5975 -1.7509 -0.5297
  871MPD2     N12786   0.874   0.855  16.139 -0.1613  0.1153  0.0988
  871MPD2    H512787   0.891   0.823  16.233  1.3981 -0.3266 -0.3263
  871MPD2    N112788   0.685   1.255  16.350  0.2752 -0.2748  0.7523
  871MPD2    H712789   0.625   1.336  16.343  2.4000  1.1519 -1.0657
  872MPD2     C12790   1.628   4.107  13.841 -0.1910 -0.9062 -0.1186
  872MPD2    C112791   1.712   4.046  13.924  0.1928  0.5299 -0.1150
  872MPD2    C212792   1.678   4.017  14.054 -0.0457 -0.3261 -0.1057
  872MPD2    C312793   1.545   4.037  14.091  0.2499  0.8975  0.0462
  872MPD2    C412794   1.457   4.105  14.006  0.5005  0.4174 -0.3226
  872MPD2    C512795   1.504   4.141  13.888 -0.1396  0.7428  0.6117
  872MPD2     H12796   1.752   3.975  14.121  1.0082 -1.3983 -1.9422
  872MPD2    H112797   1.355   4.124  14.037  0.2399 -1.2213 -0.1425
  872MPD2    H212798   1.653   4.140  13.741  2.4999 -2.4622  0.0465
  872MPD2    H312799   1.442   4.194  13.817 -1.0912 -2.2480 -0.7524
  872MPD2     N12800   1.488   4.003  14.212  0.5681  0.0001 -0.5208
  872MPD2    H512801   1.387   3.996  14.223  0.7877 -1.7555  0.2780
  872MPD2    N112802   1.846   4.011  13.891  0.0072  0.0915  0.0522
  872MPD2    H712803   1.903   3.988  13.972 -0.6885 -0.6788  0.3218
  873MPD2     C12804   3.596   3.491   1.221  0.3302  0.1738 -0.6444
  873MPD2    C112805   3.462   3.479   1.194  0.4727  0.0046 -0.3209
  873MPD2    C212806   3.414   3.350   1.172  0.2132  0.2350 -0.2537
  873MPD2    C312807   3.498   3.241   1.193  0.1207  0.4613 -0.2175
  873MPD2    C412808   3.630   3.258   1.220 -0.1613 -0.6214 -0.2867
  873MPD2    C512809   3.674   3.384   1.237  0.3015  0.0707  0.5814
  873MPD2     H12810   3.309   3.338   1.147  0.9050  0.2506 -3.0854
  873MPD2    H112811   3.701   3.175   1.223 -0.1774 -0.6433 -0.5440
  873MPD2    H212812   3.642   3.588   1.230  1.5031 -0.2791 -1.7879
  873MPD2    H312813   3.774   3.385   1.279  0.3683 -0.1244  0.4248
  873MPD2     N12814   3.453   3.106   1.184 -0.2842  0.7606  0.2757
  873MPD2    H512815   3.523   3.035   1.199 -1.9589 -0.7455  1.0908
  873MPD2    N112816   3.385   3.594   1.181 -0.8337  0.5381 -0.1831
  873MPD2    H712817   3.432   3.683   1.186  0.0058  0.0976 -0.1994
  874MPD2     C12818   3.291   4.283  16.230 -0.1175 -0.0660 -0.5667
  874MPD2    C112819   3.278   4.163  16.303 -0.2491 -0.1889 -0.3170
  874MPD2    C212820   3.339   4.155  16.430 -0.2268  0.1650  0.4948
  874MPD2    C312821   3.415   4.261  16.474 -0.5686 -0.3436 -0.2081
  874MPD2    C412822   3.424   4.377  16.401  0.3805 -0.3414 -0.1379
  874MPD2    C512823   3.366   4.386  16.281 -0.6000 -0.4031  0.6723
  874MPD2     H12824   3.349   4.067  16.494 -0.7053  0.3711  0.8536
  874MPD2    H112825   3.470   4.467  16.441 -0.5915  0.3964 -0.6930
  874MPD2    H212826   3.234   4.303  16.140 -0.8883  1.1650  0.1951
  874MPD2    H312827   3.359   4.478  16.223  2.4028  0.8761  2.3571
  874MPD2     N12828   3.486   4.237  16.594  0.3417 -0.2644  0.0487
  874MPD2    H512829   3.484   4.138  16.615  0.2412 -0.6212 -1.6771
  874MPD2    N112830   3.186   4.057  16.263 -0.0786  0.0043 -0.0084
  874MPD2    H712831   3.138   4.076  16.176 -0.7114 -3.4382 -0.4216
  875MPD2     C12832   3.583   1.803  14.774  0.3158 -0.4042  0.9739
  875MPD2    C112833   3.672   1.886  14.711 -0.0820  1.1818 -0.0507
  875MPD2    C212834   3.764   1.966  14.786  0.4866  0.0346  0.3273
  875MPD2    C312835   3.769   1.957  14.925 -0.0346  0.3258  0.1009
  875MPD2    C412836   3.683   1.862  14.985 -0.1889 -0.8474 -0.0466
  875MPD2    C512837   3.589   1.798  14.908  1.0738 -0.0329 -0.2393
  875MPD2     H12838   3.814   2.038  14.723 -1.4994  2.2177  1.2319
  875MPD2    H112839   3.676   1.865  15.093 -0.3162  1.9131 -0.1152
  875MPD2    H212840   3.506   1.754  14.714  1.7753 -1.2243 -0.2219
  875MPD2    H312841   3.529   1.724  14.962 -0.1300  0.2324 -1.2187
  875MPD2     N12842   3.852   2.032  15.018 -0.1861 -0.2180 -0.9047
  875MPD2    H512843   3.836   2.029  15.118 -2.5741  1.5446 -1.2101
  875MPD2    N112844   3.685   1.897  14.570  0.1595 -0.0028 -0.1488
  875MPD2    H712845   3.752   1.965  14.536 -0.2216 -0.5523 -2.0123
  876MPD2     C12846   3.040   3.435  15.959 -0.3526  0.0044 -0.9928
  876MPD2    C112847   3.171   3.467  15.984  0.1205 -0.6027  0.1982
  876MPD2    C212848   3.256   3.375  16.049  0.1077 -0.0932 -0.3934
  876MPD2    C312849   3.205   3.252  16.092  0.1740 -0.1446 -0.2456
  876MPD2    C412850   3.071   3.229  16.085 -0.5113 -0.1364  0.3518
  876MPD2    C512851   2.988   3.323  16.022 -0.7536  0.1483 -0.2303
  876MPD2     H12852   3.359   3.400  16.071 -0.0457 -0.1632  0.3788
  876MPD2    H112853   3.029   3.139  16.127 -0.8244  0.2643  0.8909
  876MPD2    H212854   2.974   3.495  15.898 -1.3324 -0.5600 -0.4865
  876MPD2    H312855   2.882   3.304  16.018 -0.9411  1.0260  0.5744
  876MPD2     N12856   3.282   3.163  16.177 -0.3690  0.1297  0.3780
  876MPD2    H512857   3.382   3.180  16.178 -0.4735  0.7122  1.0209
  876MPD2    N112858   3.217   3.590  15.921  0.4393  0.0268 -0.2442
  876MPD2    H712859   3.169   3.621  15.837 -0.3781 -0.6578 -0.0365
  877MPD2     C12860   3.233   3.945  15.253  0.1060  1.0138 -0.2913
  877MPD2    C112861   3.354   3.886  15.282  0.9243  0.3805  0.3666
  877MPD2    C212862   3.452   3.875  15.182 -0.1375 -0.2177 -0.3233
  877MPD2    C312863   3.425   3.915  15.053  0.2882 -0.3908  0.0811
  877MPD2    C412864   3.300   3.961  15.030 -0.4517 -0.4263 -0.0442
  877MPD2    C512865   3.205   3.982  15.125 -0.3649  0.0766 -0.1000
  877MPD2     H12866   3.548   3.833  15.209  0.0740  0.6771  0.3396
  877MPD2    H112867   3.266   3.989  14.931  0.3312  0.3071 -0.1151
  877MPD2    H212868   3.159   3.969  15.328 -0.8770 -0.5956 -0.7335
  877MPD2    H312869   3.111   4.031  15.102 -0.3271 -1.0675 -2.7161
  877MPD2     N12870   3.514   3.890  14.944  0.2112  0.2438  0.2901
  877MPD2    H512871   3.480   3.921  14.854  2.3668  0.2779 -0.5217
  877MPD2    N112872   3.388   3.844  15.414  0.2830  0.2462  0.5450
  877MPD2    H712873   3.483   3.810  15.430 -0.4804 -2.1587 -0.1396
  878MPD2     C12874   2.950   2.330  12.729  0.7403 -0.3499 -0.3525
  878MPD2    C112875   3.021   2.444  12.758 -0.3486  0.5634 -0.0933
  878MPD2    C212876   3.081   2.457  12.885  0.4754  0.6290 -0.1277
  878MPD2    C312877   3.074   2.354  12.984  0.0818  0.7014 -0.1221
  878MPD2    C412878   3.006   2.238  12.947  0.3860 -0.9071 -0.2624
  878MPD2    C512879   2.935   2.242  12.832  0.5055 -0.4641 -0.7910
  878MPD2     H12880   3.121   2.553  12.914 -2.0611  0.9278  2.3323
  878MPD2    H112881   2.996   2.153  13.013 -1.8979 -1.3206 -1.1350
  878MPD2    H212882   2.905   2.303  12.634 -0.5764  0.0129  0.1679
  878MPD2    H312883   2.879   2.153  12.806 -0.9181  0.1891  0.0115
  878MPD2     N12884   3.115   2.376  13.118  0.3733  0.2284  0.1907
  878MPD2    H512885   3.161   2.465  13.137 -1.2696  1.1872 -0.3366
  878MPD2    N112886   3.020   2.546  12.668 -0.3832  0.2192 -0.0963
  878MPD2    H712887   2.937   2.549  12.610 -1.2990 -0.9822  1.1614
  879MPD2     C12888   3.580   4.630  17.354 -0.1964  0.2315  0.4199
  879MPD2    C112889   3.581   4.494  17.342  0.2402 -0.1990  0.3197
  879MPD2    C212890   3.511   4.435  17.239 -0.4314  0.7773  0.4963
  879MPD2    C312891   3.429   4.500  17.153  0.0182  0.0648 -0.2272
  879MPD2    C412892   3.438   4.637  17.161 -0.4103 -0.6268  0.2707
  879MPD2    C512893   3.509   4.702  17.262  0.0664  0.2876  0.1468
  879MPD2     H12894   3.521   4.328  17.225  1.2367  1.0364 -0.2998
  879MPD2    H112895   3.388   4.706  17.094  0.2280  0.0255  0.4758
  879MPD2    H212896   3.632   4.684  17.432  0.1929  0.4508  0.0055
  879MPD2    H312897   3.505   0.088  17.270  1.2709  0.4341 -1.2237
  879MPD2     N12898   3.339   4.446  17.059  0.6310 -0.5529 -0.5395
  879MPD2    H512899   3.289   4.507  16.996 -0.2343 -0.0829  0.6007
  879MPD2    N112900   3.661   4.416  17.436 -0.2946  0.4286 -0.3891
  879MPD2    H712901   3.716   4.460  17.509 -1.5404  0.0052  0.7866
  880MPD2     C12902   0.819   1.534   0.291  0.0369 -0.2483  0.1567
  880MPD2    C112903   0.720   1.514   0.384  0.5065  0.1492  0.1015
  880MPD2    C212904   0.706   1.390   0.439  0.0618 -1.0295  0.1285
  880MPD2    C312905   0.770   1.279   0.395 -0.6263  0.4718 -0.6067
  880MPD2    C412906   0.867   1.296   0.292  0.2693  0.2273  0.2837
  880MPD2    C512907   0.888   1.425   0.245  0.4247 -0.3907  0.1613
  880MPD2     H12908   0.629   1.363   0.511 -2.0204 -1.4446 -2.2614
  880MPD2    H112909   0.929   1.216   0.254 -0.4812 -1.2560  2.2062
  880MPD2    H212910   0.844   1.628   0.243 -0.5676 -0.0817  0.1759
  880MPD2    H312911   0.973   1.438   0.179 -0.3917 -0.2213 -0.8538
  880MPD2     N12912   0.722   1.156   0.443  0.1691  0.3654 -0.2216
  880MPD2    H512913   0.657   1.150   0.521 -0.9440  0.3713 -1.1666
  880MPD2    N112914   0.632   1.620   0.408 -0.0866  0.2645 -0.2648
  880MPD2    H712915   0.645   1.705   0.355  0.6793  0.6043  0.4763
  881MPD2     C12916   4.582   2.004  17.560  0.6379  0.2472 -0.6620
  881MPD2    C112917   4.695   1.923  17.537  0.8138 -0.1882  0.2483
  881MPD2    C212918   0.067   1.889  17.641 -0.2272 -0.7873  0.0789
  881MPD2    C312919   0.030   1.929   0.077  0.2001 -0.7148 -0.2844
  881MPD2    C412920   4.634   1.998   0.099 -0.3722 -0.4412  0.2083
  881MPD2    C512921   4.552   2.031  17.685  0.6148 -0.3552  0.1060
  881MPD2     H12922   0.165   1.855  17.610  0.4418  2.7634 -1.6765
  881MPD2    H112923   4.599   2.032   0.196 -0.6805  0.5489 -0.2399
  881MPD2    H212924   4.512   2.037  17.484  0.7411  0.3572 -0.7095
  881MPD2    H312925   4.467   2.095   0.015  0.7764 -0.0647 -0.1424
  881MPD2     N12926   0.102   1.903   0.193  0.1981  1.1488 -0.8365
  881MPD2    H512927   0.062   1.954   0.271  1.9886  0.1483  0.7535
  881MPD2    N112928   0.015   1.927  17.401 -0.4984  0.0027  0.5122
  881MPD2    H712929   4.678   1.970  17.330 -0.0803  3.3023  2.1659
  882MPD2     C12930   3.508   3.701  14.133 -0.0413  0.1366  1.0664
  882MPD2    C112931   3.467   3.729  14.264 -0.3255 -0.2297  0.6196
  882MPD2    C212932   3.336   3.756  14.280 -0.2889  0.4200 -0.1546
  882MPD2    C312933   3.244   3.746  14.178 -0.1290 -0.2513  0.2072
  882MPD2    C412934   3.282   3.712  14.048 -0.2909  0.0530 -0.2946
  882MPD2    C512935   3.419   3.705  14.024 -0.7156  0.6405 -0.2848
  882MPD2     H12936   3.300   3.779  14.379 -1.4551 -1.7377 -0.0785
  882MPD2    H112937   3.208   3.700  13.970  0.6582 -2.7266 -0.7889
  882MPD2    H212938   3.613   3.678  14.121 -0.9787 -2.4364 -2.1335
  882MPD2    H312939   3.455   3.683  13.924 -1.0892  1.7064 -0.6482
  882MPD2     N12940   3.104   3.757  14.209  0.6102  0.1103 -0.2416
  882MPD2    H512941   3.040   3.723  14.138 -1.1334 -1.4971  2.0964
  882MPD2    N112942   3.556   3.725  14.375 -0.0182 -0.0227 -0.1458
  882MPD2    H712943   3.646   3.679  14.367  1.4015  2.9490 -1.3641
  883MPD2     C12944   0.577   3.759  16.724  0.0066  1.0039 -0.2226
  883MPD2    C112945   0.623   3.820  16.611  0.4372  0.7787  0.3202
  883MPD2    C212946   0.755   3.868  16.613 -0.1006  0.3376  0.0147
  883MPD2    C312947   0.836   3.852  16.722 -0.1560  0.2072  0.3892
  883MPD2    C412948   0.790   3.781  16.831  0.1129 -1.1985 -0.4908
  883MPD2    C512949   0.653   3.744  16.842  0.8875  0.1133  0.1033
  883MPD2     H12950   0.797   3.918  16.526  2.7626 -3.0657 -0.5269
  883MPD2    H112951   0.850   3.762  16.919  0.8231  2.8960 -0.0690
  883MPD2    H212952   0.477   3.718  16.719  0.0334  0.7865  1.1290
  883MPD2    H312953   0.605   3.696  16.926  2.1669 -2.4837 -0.6696
  883MPD2     N12954   0.963   3.897  16.718  0.0553  0.0591 -0.1813
  883MPD2    H512955   0.989   3.936  16.628 -3.1365  0.2100 -1.0279
  883MPD2    N112956   0.554   3.846  16.489  0.3588  0.7307 -0.6986
  883MPD2    H712957   0.610   3.894  16.419 -0.5782  1.7701 -0.7267
  884MPD2     C12958   2.341   4.389  15.550 -0.3190 -0.8954 -0.9666
  884MPD2    C112959   2.308   4.350  15.423  1.2504  0.0984 -0.6581
  884MPD2    C212960   2.207   4.418  15.363 -0.2013  0.5763 -0.2241
  884MPD2    C312961   2.137   4.524  15.419 -0.3832  0.5227 -0.6834
  884MPD2    C412962   2.179   4.561  15.547  0.2047 -0.0053  0.4384
  884MPD2    C512963   2.274   4.493  15.611  0.2619  0.0644 -0.3633
  884MPD2     H12964   2.174   4.391  15.263 -0.0947 -0.7392  0.0964
  884MPD2    H112965   2.130   4.635  15.609 -2.5630  0.1745 -2.0212
  884MPD2    H212966   2.429   4.354  15.602  0.0202  2.2986  0.5898
  884MPD2    H312967   2.306   4.537  15.704 -0.9391  1.5252 -0.6379
  884MPD2     N12968   2.039   4.599  15.340 -0.2640  0.7945 -0.0394
  884MPD2    H512969   2.031   4.579  15.241 -2.7203  2.3418 -0.1589
  884MPD2    N112970   2.376   4.250  15.354 -0.6038 -0.2645 -0.4750
  884MPD2    H712971   2.332   4.210  15.272  0.5623 -0.6537 -0.9073
  885MPD2     C12972   0.372   0.033   0.050  0.1312  0.2927  0.1330
  885MPD2    C112973   0.461   4.664  17.681 -0.1095  0.5982  0.1149
  885MPD2    C212974   0.477   4.671  17.542  0.5738  0.3632  0.2277
  885MPD2    C312975   0.418   0.047  17.474 -0.0523  0.9247  0.7477
  885MPD2    C412976   0.319   0.124  17.524 -0.6272  0.7821  0.2830
  885MPD2    C512977   0.299   0.116  17.662 -0.1481 -0.2508  0.6632
  885MPD2     H12978   0.542   4.607  17.485 -3.0424 -2.6738 -0.4877
  885MPD2    H112979   0.253   0.187  17.465  1.9886  1.0204 -2.3820
  885MPD2    H212980   0.359   0.033   0.158 -1.4845 -1.0207 -0.0509
  885MPD2    H312981   0.223   0.176   0.020  1.1216  0.0244  2.2981
  885MPD2     N12982   0.452   0.064  17.341 -0.1398  0.4553  0.1631
  885MPD2    H512983   0.514   4.715  17.305 -2.4204 -1.0388 -0.8174
  885MPD2    N112984   0.521   4.571   0.077 -0.2814  0.6406 -0.1716
  885MPD2    H712985   0.501   4.581   0.176 -0.6663 -4.6951  0.2636
  886MPD2     C12986   1.926   3.135  15.161 -0.3746  0.4369  0.0805
  886MPD2    C112987   2.067   3.133  15.168  0.2858 -0.4754  0.6310
  886MPD2    C212988   2.135   3.184  15.053 -0.3272  0.6162 -0.3084
  886MPD2    C312989   2.065   3.239  14.944  0.0078 -0.6027 -0.2091
  886MPD2    C412990   1.930   3.247  14.950  0.6695 -0.1396  0.3075
  886MPD2    C512991   1.864   3.188  15.054  0.0437  0.0368 -0.3375
  886MPD2     H12992   2.243   3.185  15.054 -0.3493  2.5320 -0.6374
  886MPD2    H112993   1.868   3.295  14.875  2.0909  2.0360  0.5260
  886MPD2    H212994   1.863   3.106  15.244 -0.7922  3.5520  0.8493
  886MPD2    H312995   1.756   3.176  15.054  0.1818 -1.1974 -1.2756
  886MPD2     N12996   2.146   3.295  14.842  0.3584 -0.2986  0.1393
  886MPD2    H512997   2.244   3.302  14.866  0.0230  0.7433  1.1757
  886MPD2    N112998   2.140   3.084  15.279  0.2254 -0.0908 -0.9025
  886MPD2    H712999   2.241   3.094  15.279  0.1829  0.1288  1.7507
  887MPD2     C13000   2.697   3.280  15.672  0.1931 -0.3517 -0.1918
  887MPD2    C113001   2.569   3.311  15.658  0.1223 -0.2275 -0.3643
  887MPD2    C213002   2.543   3.440  15.636  0.4503 -0.0478 -0.3439
  887MPD2    C313003   2.636   3.541  15.629  0.1141  0.2749  0.7579
  887MPD2    C413004   2.770   3.506  15.631  0.4020 -0.2645  0.2687
  887MPD2    C513005   2.797   3.374  15.663 -0.0830 -0.6737  0.0544
  887MPD2     H13006   2.438   3.461  15.617 -0.1375 -0.6596  2.1901
  887MPD2    H113007   2.854   3.574  15.636  1.4600 -1.5428 -0.1527
  887MPD2    H213008   2.729   3.177  15.676  1.9612  0.2844  1.8226
  887MPD2    H313009   2.902   3.351  15.677 -0.1050  0.8995  2.7331
  887MPD2     N13010   2.592   3.678  15.617 -0.5266  0.3001  0.3878
  887MPD2    H513011   2.490   3.679  15.617 -0.5350 -0.5335  2.1864
  887MPD2    N113012   2.472   3.211  15.621 -0.4844  0.1469  0.1780
  887MPD2    H713013   2.384   3.238  15.577 -0.4563  1.0265  0.6552
  888MPD2     C13014   4.473   3.268  15.073 -0.3370  0.0608  0.5915
  888MPD2    C113015   4.573   3.307  15.155  0.1933 -0.2663 -0.4175
  888MPD2    C213016   4.633   3.428  15.127 -0.0257 -0.1052 -0.5854
  888MPD2    C313017   4.594   3.504  15.022  0.4411  0.2772  0.3729
  888MPD2    C413018   4.492   3.464  14.935  0.2720 -0.7383 -0.5146
  888MPD2    C513019   4.430   3.342  14.972 -0.6533  1.0894  0.2909
  888MPD2     H13020   4.710   3.464  15.195  3.1303  0.1817 -4.2745
  888MPD2    H113021   4.450   3.511  14.847 -1.8093 -3.3382 -0.9187
  888MPD2    H213022   4.410   3.182  15.092  0.6726 -0.7382  0.2916
  888MPD2    H313023   4.334   3.313  14.931 -0.7171  0.1910  1.0627
  888MPD2     N13024   4.664   3.623  14.995  0.3933  0.4071  0.7637
  888MPD2    H513025   0.004   3.656  15.069  0.6368  0.9399  0.3180
  888MPD2    N113026   4.616   3.233  15.266  0.4384  0.3122  0.4372
  888MPD2    H713027   4.699   3.257  15.319  0.1479  0.8386  0.6445
  889MPD2     C13028   3.587   2.842  12.951 -0.1807 -0.1771 -0.2355
  889MPD2    C113029   3.692   2.847  13.034  0.1817  0.3528  0.1859
  889MPD2    C213030   3.688   2.929  13.150 -0.2037 -0.6502 -0.5118
  889MPD2    C313031   3.598   3.030  13.155  0.3067 -0.1557 -0.3451
  889MPD2    C413032   3.510   3.046  13.040  0.0230 -0.4816  1.0167
  889MPD2    C513033   3.499   2.949  12.946  0.2556  0.1588  0.4432
  889MPD2     H13034   3.753   2.922  13.237 -0.0947 -0.7056 -0.5978
  889MPD2    H113035   3.434   3.124  13.043  0.7455  0.1097  3.3032
  889MPD2    H213036   3.595   2.777  12.865  0.6199 -0.9570  0.4258
  889MPD2    H313037   3.414   2.958  12.879  1.4277  2.8387 -0.6917
  889MPD2     N13038   3.591   3.115  13.262 -0.2758  0.0850 -0.2203
  889MPD2    H513039   3.645   3.081  13.341  0.5614 -1.6198 -1.5146
  889MPD2    N113040   3.780   2.737  13.025  0.3749  0.2405  0.0719
  889MPD2    H713041   3.773   2.675  12.945 -0.7397  1.7454 -0.9818
  890MPD2     C13042   3.637   4.551  14.741 -0.0363 -0.0652  0.0453
  890MPD2    C113043   3.531   4.634  14.790 -0.3076 -0.1486  0.4406
  890MPD2    C213044   3.511   4.632  14.929  0.7400 -0.3982  0.0372
  890MPD2    C313045   3.592   4.554  15.017  0.3423 -1.0797 -0.3797
  890MPD2    C413046   3.694   4.483  14.959  0.0750 -0.1103 -0.1657
  890MPD2    C513047   3.721   4.474  14.823  0.2401 -0.5710 -0.8869
  890MPD2     H13048   3.432   4.696  14.967 -0.2777 -0.6221 -1.7085
  890MPD2    H113049   3.769   4.434  15.021 -0.1733 -1.5604 -0.9941
  890MPD2    H213050   3.663   4.557  14.636  2.7321 -0.3829  0.7167
  890MPD2    H313051   3.806   4.416  14.788  1.0895  0.8306 -1.1502
  890MPD2     N13052   3.581   4.546  15.155  0.3079  0.2616  0.2277
  890MPD2    H513053   3.668   4.532  15.205  1.8393 -0.2208 -2.5168
  890MPD2    N113054   3.456   4.718  14.705  0.6216  0.3045  0.1302
  890MPD2    H713055   3.385   0.048  14.755 -2.2707 -1.3510 -2.2236
  891MPD2     C13056   1.321   3.200  16.884  0.4556  0.0697  0.4282
  891MPD2    C113057   1.234   3.115  16.950 -0.3881 -0.9229  0.2019
  891MPD2    C213058   1.286   3.040  17.062 -0.3440  0.1433 -0.1874
  891MPD2    C313059   1.421   3.042  17.092 -0.3789  0.3625  0.0569
  891MPD2    C413060   1.503   3.125  17.018 -0.2481  0.4019 -0.3671
  891MPD2    C513061   1.457   3.199  16.914 -0.7152 -0.0505  0.0919
  891MPD2     H13062   1.227   2.971  17.121 -0.9135 -0.1006 -1.0453
  891MPD2    H113063   1.609   3.140  17.036 -0.3502  0.9564 -0.2328
  891MPD2    H213064   1.292   3.262  16.800 -0.1567  0.2831  0.7995
  891MPD2    H313065   1.530   3.260  16.862 -0.9212 -0.0596 -0.2091
  891MPD2     N13066   1.462   2.952  17.196  0.4837 -0.0642  0.0374
  891MPD2    H513067   1.389   2.909  17.252  1.0526 -0.8674  0.1474
  891MPD2    N113068   1.103   3.113  16.899 -0.1244  0.4441  0.0510
  891MPD2    H713069   1.087   3.167  16.815 -2.3481  0.5769  0.5731
  892MPD2     C13070   2.509   4.374  14.780  0.4266  0.0833 -0.0619
  892MPD2    C113071   2.454   4.250  14.768 -0.0896 -0.2621  0.3892
  892MPD2    C213072   2.504   4.157  14.683 -0.2345 -0.2989  0.9093
  892MPD2    C313073   2.620   4.180  14.617  0.0256  0.3185  0.1099
  892MPD2    C413074   2.692   4.294  14.641 -0.0614  0.4073 -0.4444
  892MPD2    C513075   2.634   4.387  14.721 -0.5619  0.1731 -0.4376
  892MPD2     H13076   2.441   4.073  14.657 -0.3954  0.0856  0.0370
  892MPD2    H113077   2.789   4.312  14.594  0.3161 -1.7966 -0.5424
  892MPD2    H213078   2.461   4.449  14.841 -0.8533 -1.9642  1.4615
  892MPD2    H313079   2.695   4.475  14.735  0.3787 -0.9935  2.7275
  892MPD2     N13080   2.674   4.095  14.518  0.1555 -0.0220  0.3761
  892MPD2    H513081   2.752   4.131  14.464 -0.8050  0.7216 -0.5243
  892MPD2    N113082   2.322   4.221  14.813 -1.2908 -0.3480  0.7686
  892MPD2    H713083   2.274   4.141  14.773 -1.6971 -0.3162  1.1934
  893MPD2     C13084   3.255   2.224   1.183  0.1940  0.4636 -0.6614
  893MPD2    C113085   3.316   2.126   1.253  0.0863 -0.4179  0.4971
  893MPD2    C213086   3.243   2.016   1.294  0.4829 -0.1016  0.3156
  893MPD2    C313087   3.112   1.998   1.248  0.4156 -0.1248 -1.0557
  893MPD2    C413088   3.055   2.104   1.170  0.7816  0.1148 -0.4124
  893MPD2    C513089   3.129   2.220   1.150  0.3103 -0.2060  0.6745
  893MPD2     H13090   3.291   1.932   1.343 -0.4284 -1.0066 -0.3328
  893MPD2    H113091   2.956   2.103   1.127  1.4400 -1.3855 -1.9148
  893MPD2    H213092   3.317   2.307   1.151  0.1567  0.3620 -1.0014
  893MPD2    H313093   3.097   2.304   1.089  2.1893 -0.5349 -0.7731
  893MPD2     N13094   3.029   1.891   1.288 -0.3476 -0.0901 -0.2881
  893MPD2    H513095   2.934   1.895   1.252 -0.8913 -1.7563  0.9464
  893MPD2    N113096   3.452   2.140   1.269  0.2133  0.4478  0.2412
  893MPD2    H713097   3.493   2.221   1.223  0.0644 -0.6999 -1.9424
  894MPD2     C13098   1.581   4.473   1.156  0.1481 -0.5505 -0.6227
  894MPD2    C113099   1.668   4.577   1.139 -0.0234 -0.1167 -1.0105
  894MPD2    C213100   1.642   4.670   1.033 -0.0131 -0.2482 -0.4358
  894MPD2    C313101   1.539   4.647   0.942  0.0394 -0.3347  0.6462
  894MPD2    C413102   1.460   4.532   0.959 -0.1524 -0.0628 -0.4087
  894MPD2    C513103   1.484   4.444   1.061 -0.2830  0.0347  0.1619
  894MPD2     H13104   1.701   0.038   1.014  0.8596 -0.6042  0.5968
  894MPD2    H113105   1.386   4.501   0.886 -1.9431 -1.2025  1.9055
  894MPD2    H213106   1.591   4.400   1.236 -2.5553  1.0899  1.2105
  894MPD2    H313107   1.424   4.354   1.071 -1.0469  0.3953 -1.1550
  894MPD2     N13108   1.508   0.018   0.837 -0.2816 -0.1245  0.3690
  894MPD2    H513109   1.572   0.097   0.838 -0.6515  0.1886 -0.3050
  894MPD2    N113110   1.778   4.602   1.224 -0.4355 -0.2232  0.2680
  894MPD2    H713111   1.830   4.686   1.199 -0.2012 -0.0992  1.1762
  895MPD2     C13112   1.679   3.638  14.010  0.2983 -0.6132 -0.6188
  895MPD2    C113113   1.632   3.590  13.890  0.3461 -0.1840  0.3490
  895MPD2    C213114   1.722   3.526  13.805  0.3117 -0.1521  0.4043
  895MPD2    C313115   1.856   3.499  13.850  0.0036 -0.4254  0.0705
  895MPD2    C413116   1.898   3.532  13.975 -0.0907 -0.3468  0.7395
  895MPD2    C513117   1.810   3.605  14.048  0.0148  0.4216  0.1255
  895MPD2     H13118   1.690   3.491  13.708  1.4136 -0.6457  0.2183
  895MPD2    H113119   2.003   3.516  13.997  0.7066  1.5926 -1.6643
  895MPD2    H213120   1.622   3.698  14.080  1.6095  1.1923 -1.1157
  895MPD2    H313121   1.848   3.634  14.145  2.2666 -0.2591 -0.5390
  895MPD2     N13122   1.938   3.430  13.758 -0.6854 -0.3561  0.2537
  895MPD2    H513123   1.897   3.411  13.667 -1.1680  0.1516  0.3644
  895MPD2    N113124   1.505   3.623  13.832 -0.0309 -0.0438  0.6572
  895MPD2    H713125   1.488   3.602  13.735 -1.5252 -1.6207  1.2630
  896MPD2     C13126   3.335   1.075   1.593 -0.1932  0.2565  0.2013
  896MPD2    C113127   3.384   1.053   1.467  0.3301 -0.4021  0.7241
  896MPD2    C213128   3.293   1.034   1.355 -0.0803 -0.0103  0.4417
  896MPD2    C313129   3.158   1.051   1.371 -0.3089  0.0418 -0.6444
  896MPD2    C413130   3.121   1.082   1.494  0.2579  0.2821 -0.5967
  896MPD2    C513131   3.202   1.095   1.603  0.2250  0.1756 -0.0893
  896MPD2     H13132   3.325   1.012   1.254 -0.0568 -0.5889  0.5739
  896MPD2    H113133   3.017   1.110   1.509 -0.7330 -2.0397 -3.0319
  896MPD2    H213134   3.399   1.090   1.679  0.3545 -0.7275 -0.0277
  896MPD2    H313135   3.152   1.119   1.697  1.2164  0.6652  0.3057
  896MPD2     N13136   3.070   1.031   1.262 -0.3490 -0.1779  0.3496
  896MPD2    H513137   3.122   1.022   1.175  1.2980  1.8989  1.1140
  896MPD2    N113138   3.525   1.060   1.446 -0.1257  0.3294 -0.6223
  896MPD2    H713139   3.573   1.057   1.536 -1.3735  1.2539  0.0734
  897MPD2     C13140   0.531   2.618  10.285  0.2064  0.1639 -0.0042
  897MPD2    C113141   0.522   2.653  10.417 -0.2472 -0.3148  0.0742
  897MPD2    C213142   0.408   2.710  10.465  0.0486 -0.0969  0.0175
  897MPD2    C313143   0.301   2.749  10.380  0.0481  0.5132 -0.0666
  897MPD2    C413144   0.318   2.719  10.243  0.1644 -0.1171 -0.5185
  897MPD2    C513145   0.436   2.662  10.198  0.7162  0.9581 -0.0138
  897MPD2     H13146   0.394   2.734  10.570  1.4980  1.3350 -0.1151
  897MPD2    H113147   0.235   2.736  10.176  0.3975 -0.3626 -0.8668
  897MPD2    H213148   0.623   2.577  10.244 -0.5063 -0.6665 -0.8005
  897MPD2    H313149   0.447   2.642  10.092  0.3100 -0.1695  0.1586
  897MPD2     N13150   0.183   2.792  10.446  0.1895  0.3227  0.6785
  897MPD2    H513151   0.184   2.796  10.548  0.1054 -0.3189  0.7083
  897MPD2    N113152   0.624   2.604  10.506  0.5303  0.1642  0.4801
  897MPD2    H713153   0.707   2.563  10.465  0.8888  2.5602 -1.1451
  898MPD2     C13154   1.731   3.001  17.631  0.1731 -0.2858 -0.4553
  898MPD2    C113155   1.831   3.021  17.539  0.0769 -0.2367 -0.1649
  898MPD2    C213156   1.816   3.119  17.442 -0.1092  0.1169 -0.5993
  898MPD2    C313157   1.702   3.190  17.440 -0.1822  0.2726 -0.7100
  898MPD2    C413158   1.597   3.154  17.522 -0.7021  0.3765 -0.5219
  898MPD2    C513159   1.609   3.057  17.614  0.2928  0.1361  0.5083
  898MPD2     H13160   1.900   3.154  17.383  0.0126 -0.3599 -0.7037
  898MPD2    H113161   1.496   3.191  17.515 -0.4136  0.9267 -1.7733
  898MPD2    H213162   1.747   2.940   0.029 -0.5979  2.0331  1.2809
  898MPD2    H313163   1.523   3.041  17.677  1.0714  2.0598  2.0418
  898MPD2     N13164   1.706   3.303  17.360 -0.0121 -0.5768  0.8221
  898MPD2    H513165   1.793   3.316  17.308 -0.0035 -2.2364  0.4416
  898MPD2    N113166   1.960   2.955  17.538  0.3510 -0.4933  0.3637
  898MPD2    H713167   2.020   2.983  17.461  0.9040  2.3717  1.8188
  899MPD2     C13168   2.722   3.984  17.184  0.5169  0.6310  0.3530
  899MPD2    C113169   2.687   4.078  17.274 -0.1946  0.3942  0.2847
  899MPD2    C213170   2.561   4.072  17.340 -0.3315  0.2974 -0.1177
  899MPD2    C313171   2.482   3.963  17.319 -0.1798  0.5234  0.0188
  899MPD2    C413172   2.514   3.870  17.224  0.2858  0.8177 -0.1492
  899MPD2    C513173   2.638   3.878  17.160 -0.2475  0.1595  0.3065
  899MPD2     H13174   2.550   4.142  17.422 -0.3284  1.9667 -1.5361
  899MPD2    H113175   2.447   3.789  17.201  0.6357  0.2730  0.7773
  899MPD2    H213176   2.812   3.988  17.123 -1.4563  2.5605 -2.4285
  899MPD2    H313177   2.661   3.810  17.078 -0.8062  0.9188 -0.4718
  899MPD2     N13178   2.358   3.952  17.391 -0.2355 -0.2781 -0.4667
  899MPD2    H513179   2.295   3.878  17.363 -2.5608  0.9428  1.4882
  899MPD2    N113180   2.755   4.201  17.285 -0.6744  0.7689  0.3357
  899MPD2    H713181   2.701   4.279  17.321 -1.4154  0.8184 -0.8797
  900MPD2     C13182   2.811   0.817  12.650  0.5460  0.7846 -0.0739
  900MPD2    C113183   2.744   0.717  12.580  0.1017 -0.1712 -0.5146
  900MPD2    C213184   2.644   0.752  12.495 -0.3462  0.5122  0.2524
  900MPD2    C313185   2.620   0.885  12.458 -0.9454  0.1535  0.0791
  900MPD2    C413186   2.692   0.979  12.519 -0.4292 -0.3349 -1.0504
  900MPD2    C513187   2.777   0.948  12.620 -0.5720 -0.1745 -0.0886
  900MPD2     H13188   2.586   0.676  12.443 -0.1558 -0.2340  1.1272
  900MPD2    H113189   2.683   1.084  12.491  1.4825 -0.6212 -2.7414
  900MPD2    H213190   2.901   0.798  12.707  0.4722  1.8687  0.3996
  900MPD2    H313191   2.835   1.029  12.662  0.6723 -1.2986  0.3488
  900MPD2     N13192   2.529   0.903  12.347 -0.9967  0.0903 -0.3470
  900MPD2    H513193   2.490   0.818  12.307 -0.0169 -0.3505 -0.3713
  900MPD2    N113194   2.790   0.583  12.589 -0.9625 -0.2101  0.4227
  900MPD2    H713195   2.874   0.554  12.638 -1.7403  1.4884  2.8031
  901MPD2     C13196   2.601   4.235  12.575  0.0883 -0.0920 -0.1604
  901MPD2    C113197   2.703   4.278  12.656  0.9423  0.1202  0.9369
  901MPD2    C213198   2.750   4.409  12.661 -0.0334 -0.0037  0.6212
  901MPD2    C313199   2.693   4.500  12.576  0.0600  0.2442  0.2150
  901MPD2    C413200   2.589   4.457  12.494  0.3989 -0.0892  0.2527
  901MPD2    C513201   2.534   4.326  12.494  0.8852 -0.5474 -0.2291
  901MPD2     H13202   2.835   4.436  12.723  1.1884 -1.5959 -0.3657
  901MPD2    H113203   2.559   4.524  12.415 -0.3178 -0.6216  0.0782
  901MPD2    H213204   2.573   4.130  12.576  1.1785 -0.3987 -1.0723
  901MPD2    H313205   2.450   4.293  12.434  0.5500 -0.5506  0.2410
  901MPD2     N13206   2.764   4.622  12.566 -0.1969  0.0362  0.2826
  901MPD2    H513207   2.846   4.640  12.623 -0.8004 -0.4046  1.2973
  901MPD2    N113208   2.778   4.178  12.718  0.0278  0.1620  0.0309
  901MPD2    H713209   2.741   4.083  12.722  1.5562 -0.4345 -0.1516
  902MPD2     C13210   2.106   3.247  12.540  0.2642  1.0011  0.6190
  902MPD2    C113211   2.109   3.326  12.429 -0.0417  0.3712  0.1042
  902MPD2    C213212   2.185   3.276  12.324 -0.1701  0.0431  0.0479
  902MPD2    C313213   2.264   3.159  12.329  0.4369 -0.6430 -0.5065
  902MPD2    C413214   2.261   3.089  12.446  0.2305  0.0901 -0.3468
  902MPD2    C513215   2.178   3.132  12.542 -0.1485  0.0472  0.4517
  902MPD2     H13216   2.192   3.332  12.232 -1.5794 -1.1298 -0.7873
  902MPD2    H113217   2.328   3.011  12.478 -1.6871 -0.8326  1.3926
  902MPD2    H213218   2.049   3.276  12.628 -0.9942  2.5712 -0.7386
  902MPD2    H313219   2.180   3.069  12.631  2.3202  1.1428  1.1620
  902MPD2     N13220   2.339   3.124  12.219  0.2956 -0.2991  0.0213
  902MPD2    H513221   2.342   3.181  12.135 -1.2125 -3.0750 -1.9217
  902MPD2    N113222   2.034   3.441  12.432 -0.0895  0.4387 -0.6841
  902MPD2    H713223   1.982   3.455  12.518  0.2436 -0.4829 -0.3366
  903MPD2     C13224   2.133   3.104  11.492  0.3588 -0.3113 -0.9186
  903MPD2    C113225   2.149   3.143  11.619  0.0764 -0.7288 -0.6347
  903MPD2    C213226   2.062   3.227  11.684 -0.2315 -0.8037  0.3429
  903MPD2    C313227   1.946   3.255  11.623  0.2606  0.0899 -0.5937
  903MPD2    C413228   1.926   3.216  11.489 -0.2240  0.0998 -0.0341
  903MPD2    C513229   2.022   3.146  11.420 -0.0941 -0.1954 -0.1211
  903MPD2     H13230   2.074   3.257  11.788 -2.5014  0.6941  0.1662
  903MPD2    H113231   1.834   3.237  11.436 -0.7050 -0.1250  0.7149
  903MPD2    H213232   2.203   3.038  11.443  0.0350 -1.2154 -0.1725
  903MPD2    H313233   2.002   3.103  11.323 -2.1265  0.9093 -0.1874
  903MPD2     N13234   1.849   3.308  11.711 -0.3939 -0.6097  0.0129
  903MPD2    H513235   1.880   3.321  11.806 -0.2887  0.5727 -0.1822
  903MPD2    N113236   2.267   3.091  11.681 -0.2168  0.5262 -0.0261
  903MPD2    H713237   2.328   3.026  11.632 -2.7860  0.5382 -3.2094
  904MPD2     C13238   1.158   2.644  13.800  0.7372  0.2823 -0.4701
  904MPD2    C113239   1.249   2.742  13.765  0.6856 -0.0470  0.0199
  904MPD2    C213240   1.384   2.741  13.812 -0.5932  0.0903 -0.0083
  904MPD2    C313241   1.420   2.643  13.902  0.1207 -0.1351  0.4065
  904MPD2    C413242   1.323   2.541  13.943 -0.3837  0.1584 -0.1397
  904MPD2    C513243   1.198   2.539  13.883  0.1525  0.0530 -0.4857
  904MPD2     H13244   1.461   2.814  13.789 -0.6963 -0.1863 -1.2259
  904MPD2    H113245   1.351   2.469  14.019 -1.4402 -0.5287 -0.4141
  904MPD2    H213246   1.056   2.642  13.763  1.4355 -0.3302 -2.3689
  904MPD2    H313247   1.128   2.460  13.907 -1.3879  1.4785 -0.2481
  904MPD2     N13248   1.550   2.647  13.955  0.0652 -0.1166  0.2280
  904MPD2    H513249   1.600   2.733  13.935 -0.9539  0.0437 -1.6707
  904MPD2    N113250   1.208   2.855  13.687 -0.1825  0.0982  0.0260
  904MPD2    H713251   1.277   2.919  13.650  0.4089 -0.8528 -0.5122
  905MPD2     C13252   1.548   3.009  13.170  0.3192  0.0750 -0.6079
  905MPD2    C113253   1.541   3.085  13.284  0.3191  0.5204  0.1249
  905MPD2    C213254   1.654   3.136  13.333 -0.5478 -0.0344  0.5778
  905MPD2    C313255   1.774   3.117  13.262 -0.1445  0.1203 -0.9199
  905MPD2    C413256   1.778   3.057  13.142  0.4306 -0.1219 -0.2506
  905MPD2    C513257   1.665   2.995  13.101 -0.0872  1.0004 -0.2732
  905MPD2     H13258   1.649   3.190  13.427 -0.4569 -0.0725  0.6054
  905MPD2    H113259   1.867   3.044  13.081  1.4389 -1.8761  1.5657
  905MPD2    H213260   1.456   2.959  13.140 -1.3978  2.7204  0.2530
  905MPD2    H313261   1.660   2.942  13.007  0.1931 -0.6113  0.6322
  905MPD2     N13262   1.898   3.162  13.315 -0.2687 -0.3295  0.4017
  905MPD2    H513263   1.977   3.122  13.265  1.0756 -0.0032  2.2432
  905MPD2    N113264   1.413   3.094  13.347 -0.9093  0.4419  0.8372
  905MPD2    H713265   1.342   3.033  13.308  0.5728 -0.8945  0.1890
  906MPD2     C13266   3.698   2.451  11.194 -0.5952 -0.0244  0.9699
  906MPD2    C113267   3.726   2.373  11.089 -0.8228  0.3548  0.1031
  906MPD2    C213268   3.758   2.238  11.112  0.3664  0.4890 -0.4639
  906MPD2    C313269   3.753   2.188  11.235  0.2424 -0.1982  0.4158
  906MPD2    C413270   3.704   2.268  11.337  0.8357 -0.1945  0.4397
  906MPD2    C513271   3.694   2.398  11.318 -0.3419  0.8724 -0.2447
  906MPD2     H13272   3.780   2.173  11.028  0.5581 -1.8727  1.4032
  906MPD2    H113273   3.683   2.226  11.435 -0.1457 -0.9471 -0.0971
  906MPD2    H213274   3.677   2.558  11.188  2.2870  0.6201  1.9936
  906MPD2    H313275   3.678   2.452  11.411 -0.4829  1.2412 -0.4851
  906MPD2     N13276   3.783   2.053  11.257 -0.0261  0.0154  0.3446
  906MPD2    H513277   3.749   2.011  11.343 -0.0768 -2.0322 -0.6875
  906MPD2    N113278   3.718   2.422  10.951 -0.1296 -0.1483  0.3103
  906MPD2    H713279   3.741   2.355  10.879 -1.3474 -0.8209  0.5414
  907MPD2     C13280   2.277   2.269  15.886 -0.2270  1.3013  0.5882
  907MPD2    C113281   2.322   2.139  15.854  0.1729 -0.3414 -0.2190
  907MPD2    C213282   2.346   2.060  15.965 -0.6715 -0.6271 -0.2200
  907MPD2    C313283   2.324   2.101  16.095 -0.2135 -0.5732 -0.0547
  907MPD2    C413284   2.266   2.221  16.120 -0.4944 -0.2829 -0.3618
  907MPD2    C513285   2.247   2.306  16.015  0.1182  0.1746 -0.0682
  907MPD2     H13286   2.382   1.959  15.953  0.8690 -0.0926 -0.1258
  907MPD2    H113287   2.240   2.260  16.218 -1.9887  0.4262 -1.0453
  907MPD2    H213288   2.229   2.332  15.813 -1.1452  0.4488  0.4552
  907MPD2    H313289   2.190   2.398  16.022 -1.8309 -1.0135 -0.4591
  907MPD2     N13290   2.367   2.010  16.199 -0.9282  0.2246  0.3248
  907MPD2    H513291   2.399   1.919  16.167 -1.6801  0.0349  0.0879
  907MPD2    N113292   2.328   2.093  15.721  0.3753 -0.1867  0.0665
  907MPD2    H713293   2.348   1.995  15.706 -1.2328 -0.9970  3.1475
  908MPD2     C13294   1.040   1.917  10.318  0.9496 -0.5390  0.0532
  908MPD2    C113295   0.912   1.910  10.381 -0.4800  0.3422 -0.3565
  908MPD2    C213296   0.890   2.008  10.475  0.2042  0.4651  0.3453
  908MPD2    C313297   0.972   2.111  10.504  0.6332  0.0241  0.3693
  908MPD2    C413298   1.092   2.121  10.434 -0.4630  0.1261  0.3645
  908MPD2    C513299   1.121   2.022  10.341  0.5678  0.7831  0.1037
  908MPD2     H13300   0.793   2.009  10.524  0.1212 -0.2417  0.2000
  908MPD2    H113301   1.158   2.207  10.437 -0.2782  0.1025 -2.7260
  908MPD2    H213302   1.063   1.850  10.236 -1.2236 -0.7425 -0.4009
  908MPD2    H313303   1.215   2.033  10.288 -0.2105 -0.7556 -1.5743
  908MPD2     N13304   0.929   2.223  10.579 -0.2522 -0.5827  0.2151
  908MPD2    H513305   0.831   2.219  10.602 -0.7403  2.9509 -1.2098
  908MPD2    N113306   0.812   1.814  10.351 -0.2323 -0.4941  0.2604
  908MPD2    H713307   0.748   1.803  10.429  0.7481 -0.9936  0.9997
  909MPD2     C13308   0.765   0.477  11.714  0.1602 -0.2038 -0.3252
  909MPD2    C113309   0.762   0.599  11.653  0.1547  0.1839 -0.3568
  909MPD2    C213310   0.687   0.699  11.714  0.5595 -0.3837  0.1606
  909MPD2    C313311   0.634   0.693  11.840  0.7101  1.1018  0.0157
  909MPD2    C413312   0.636   0.572  11.905 -0.0742 -0.0555 -0.3906
  909MPD2    C513313   0.701   0.467  11.837 -0.2082  0.2481 -0.3779
  909MPD2     H13314   0.690   0.796  11.664  0.8177 -0.5378 -0.1224
  909MPD2    H113315   0.584   0.549  11.998  1.2045  0.4830  0.4490
  909MPD2    H213316   0.828   0.396  11.679  1.0478  1.1817 -1.8886
  909MPD2    H313317   0.721   0.374  11.888 -0.0855  0.4317 -0.0901
  909MPD2     N13318   0.558   0.797  11.890 -0.1058  0.2741 -0.7021
  909MPD2    H513319   0.529   0.869  11.825  1.5804 -0.3895 -2.1585
  909MPD2    N113320   0.823   0.619  11.530  0.2308  0.5900  0.3800
  909MPD2    H713321   0.827   0.715  11.496  0.8367 -0.0039 -1.2175
  910MPD2     C13322   1.644   2.621  16.045  0.3491  0.3494 -0.3050
  910MPD2    C113323   1.706   2.537  15.949  0.7682 -0.5049  0.0111
  910MPD2    C213324   1.678   2.562  15.823 -0.0928 -0.1307  0.0353
  910MPD2    C313325   1.589   2.662  15.782 -0.1569 -0.0192 -0.4337
  910MPD2    C413326   1.528   2.744  15.881 -0.6449  1.1909 -0.0652
  910MPD2    C513327   1.555   2.717  16.011  0.2031 -0.2939  0.4218
  910MPD2     H13328   1.720   2.494  15.750 -0.1574  0.6832 -0.7441
  910MPD2    H113329   1.455   2.819  15.853 -0.2874  0.9934 -1.4988
  910MPD2    H213330   1.649   2.611  16.153 -2.8986 -0.1082 -0.2046
  910MPD2    H313331   1.511   2.763  16.099 -0.5512  0.5411 -0.3940
  910MPD2     N13332   1.545   2.681  15.650  0.3090 -0.1217  0.1386
  910MPD2    H513333   1.465   2.742  15.633 -0.0825 -0.4439  0.8046
  910MPD2    N113334   1.789   2.431  15.982  0.7750  0.4258  0.7935
  910MPD2    H713335   1.829   2.374  15.908 -1.3322  1.1634 -0.9150
  911MPD2     C13336   4.218   3.582  16.704  0.4439 -0.6252 -0.0741
  911MPD2    C113337   4.177   3.464  16.651  1.1269 -0.2485  0.3049
  911MPD2    C213338   4.077   3.461  16.558 -0.3819  0.3105  0.1349
  911MPD2    C313339   4.023   3.583  16.514 -0.0968 -0.0412  0.3044
  911MPD2    C413340   4.076   3.705  16.557 -0.4470 -0.0355  0.0252
  911MPD2    C513341   4.173   3.703  16.655 -0.3210  0.8666 -0.2787
  911MPD2     H13342   4.044   3.366  16.516  0.5194  0.2022 -0.3099
  911MPD2    H113343   4.037   3.802  16.527 -0.5060 -0.0838 -0.0532
  911MPD2    H213344   4.297   3.576  16.777 -1.1788  1.1853  1.8128
  911MPD2    H313345   4.211   3.800  16.687  0.5952  0.0979  0.9466
  911MPD2     N13346   3.930   3.589  16.403 -0.1079 -0.2156  0.0073
  911MPD2    H513347   3.922   3.681  16.360 -2.3753  0.0566  1.0220
  911MPD2    N113348   4.239   3.343  16.699 -0.2711  0.1155 -0.3635
  911MPD2    H713349   4.300   3.362  16.778  0.6285  1.4968 -1.3661
  912MPD2     C13350   3.928   2.994  15.938 -0.3083 -0.2792 -0.4076
  912MPD2    C113351   3.848   3.044  16.044 -0.0464  0.0040  0.1539
  912MPD2    C213352   3.814   2.954  16.145  1.0345 -0.5047  0.0106
  912MPD2    C313353   3.873   2.832  16.162 -0.2653 -0.0147  0.0717
  912MPD2    C413354   3.958   2.793  16.059 -0.5114 -0.2749 -0.0790
  912MPD2    C513355   3.977   2.866  15.943  0.3110 -0.3460  0.4518
  912MPD2     H13356   3.748   2.983  16.226 -1.1172 -1.3286 -1.4457
  912MPD2    H113357   4.011   2.698  16.065 -2.7156 -1.3647  1.7951
  912MPD2    H213358   3.939   3.056  15.849 -2.8850 -0.3126 -0.7668
  912MPD2    H313359   4.039   2.819  15.867 -1.5134 -1.4270 -0.3586
  912MPD2     N13360   3.836   2.750  16.273 -0.2384  0.2949 -0.6481
  912MPD2    H513361   3.779   2.796  16.343  1.6631 -0.5678  1.4504
  912MPD2    N113362   3.804   3.176  16.029  0.6680 -0.1456  0.1026
  912MPD2    H713363   3.853   3.244  15.971 -0.3013  0.8181  0.4128
  913MPD2     C13364   4.642   3.968  11.042 -0.2196  0.5028  0.0002
  913MPD2    C113365   0.032   4.047  11.039  0.6114  0.4480 -0.3301
  913MPD2    C213366   0.098   4.077  10.924 -0.2440  0.1550  0.3073
  913MPD2    C313367   0.029   4.046  10.801 -0.6348 -0.0322 -0.3228
  913MPD2    C413368   4.632   3.971  10.804  0.3076 -0.0521 -0.1032
  913MPD2    C513369   4.584   3.936  10.923  0.3106  0.0013  0.0379
  913MPD2     H13370   0.186   4.138  10.916 -1.8118  2.1888 -1.4861
  913MPD2    H113371   4.588   3.945  10.709 -0.1227  1.3493 -0.2800
  913MPD2    H213372   4.606   3.919  11.132  2.4106 -2.9202 -0.7941
  913MPD2    H313373   4.502   3.865  10.934  0.9831 -1.0966 -1.9813
  913MPD2     N13374   0.072   4.094  10.678 -0.3706  0.2933 -0.2278
  913MPD2    H513375   0.004   4.081  10.603 -1.5856  0.6892  0.8053
  913MPD2    N113376   0.077   4.077  11.163  0.1587  0.3210  0.2660
  913MPD2    H713377   0.030   4.046  11.248 -0.5172  2.9357  0.8478
  914MPD2     C13378   2.565   3.873  12.030  0.0783  0.0239 -0.4334
  914MPD2    C113379   2.582   3.999  12.086 -0.1987  0.0698  0.1005
  914MPD2    C213380   2.642   4.002  12.213 -0.5930  0.3913  0.1442
  914MPD2    C313381   2.697   3.894  12.271 -1.1292  0.6609 -0.5229
  914MPD2    C413382   2.680   3.771  12.217  0.1590  0.5959  0.1262
  914MPD2    C513383   2.607   3.764  12.104  0.2190 -0.4147  0.9769
  914MPD2     H13384   2.672   4.097  12.255  1.2907 -1.0344  2.0300
  914MPD2    H113385   2.724   3.677  12.247  0.1953  0.1782 -1.2322
  914MPD2    H213386   2.517   3.855  11.934 -1.5889 -1.8172  0.7556
  914MPD2    H313387   2.599   3.666  12.057 -0.9804  0.3210 -0.3592
  914MPD2     N13388   2.774   3.911  12.383  0.5934 -0.1551  0.0216
  914MPD2    H513389   2.767   4.009  12.410 -0.7680  0.5646 -2.8962
  914MPD2    N113390   2.556   4.117  12.007 -0.4642  0.1154 -0.2324
  914MPD2    H713391   2.513   4.119  11.914  0.3019 -2.4103 -0.6265
  915MPD2     C13392   0.638   4.487  15.516 -0.2130  0.3374  0.5034
  915MPD2    C113393   0.502   4.486  15.528 -0.2755 -0.2463  0.3191
  915MPD2    C213394   0.452   4.514  15.651 -0.1423 -1.0592 -1.1283
  915MPD2    C313395   0.531   4.538  15.763  0.5445 -0.3655  0.4314
  915MPD2    C413396   0.667   4.521  15.749  0.0480  0.2396  0.3939
  915MPD2    C513397   0.719   4.488  15.626 -0.0695 -0.1103  0.2572
  915MPD2     H13398   0.344   4.521  15.661  0.2732  1.3358  1.8709
  915MPD2    H113399   0.733   4.529  15.835 -1.3597 -0.3645  1.5288
  915MPD2    H213400   0.687   4.459  15.423  0.3334  0.9016  0.6160
  915MPD2    H313401   0.825   4.479  15.604 -0.2512 -1.5026 -0.0921
  915MPD2     N13402   0.469   4.579  15.884 -0.8036 -0.3511 -0.4979
  915MPD2    H513403   0.373   4.611  15.874 -0.2577  2.0046  2.0780
  915MPD2    N113404   0.414   4.471  15.419  0.1594  0.2228 -0.1876
  915MPD2    H713405   0.316   4.465  15.445  0.4467 -0.7721  0.7181
  916MPD2     C13406   3.613   2.831  15.769  0.2697 -0.6489  0.5321
  916MPD2    C113407   3.596   2.732  15.864  0.2633 -0.3563  0.3176
  916MPD2    C213408   3.633   2.604  15.850  0.3621 -0.4358  0.6180
  916MPD2    C313409   3.706   2.578  15.737  0.1483  0.7455 -0.1265
  916MPD2    C413410   3.733   2.671  15.640 -0.1186  0.1820  0.4030
  916MPD2    C513411   3.681   2.799  15.657  0.2712 -0.1953 -0.0397
  916MPD2     H13412   3.625   2.529  15.928 -0.9096 -0.8670  0.0684
  916MPD2    H113413   3.775   2.650  15.542 -0.7954  0.9542 -0.0556
  916MPD2    H213414   3.593   2.937  15.781  1.1368 -0.1355 -2.6548
  916MPD2    H313415   3.690   2.871  15.577  0.7950  0.3019  0.4645
  916MPD2     N13416   3.735   2.441  15.715 -0.0192  0.2033  0.1380
  916MPD2    H513417   3.700   2.381  15.789  1.3058 -1.8386 -0.8869
  916MPD2    N113418   3.546   2.779  15.990  0.0564  0.3267 -0.3220
  916MPD2    H713419   3.531   2.880  15.987  3.7162  0.8894 -0.2328
  917MPD2     C13420   4.093   0.389  11.264 -0.2576  0.0262 -0.0381
  917MPD2    C113421   4.164   0.414  11.380  0.1230  0.1356 -0.8918
  917MPD2    C213422   4.285   0.481  11.372  0.9269  0.1746 -0.1701
  917MPD2    C313423   4.339   0.508  11.251 -0.4364  0.1623 -0.0993
  917MPD2    C413424   4.273   0.469  11.142 -0.7187  0.1323  0.2269
  917MPD2    C513425   4.148   0.408  11.138  0.0793  0.6887  0.7230
  917MPD2     H13426   4.344   0.496  11.462 -1.2078 -1.1600  1.4649
  917MPD2    H113427   4.321   0.478  11.045 -2.3339 -2.0827 -0.8139
  917MPD2    H213428   3.999   0.334  11.269 -0.6661  0.7008 -0.2864
  917MPD2    H313429   4.095   0.373  11.050  0.5450 -1.3082  1.2284
  917MPD2     N13430   4.458   0.576  11.240  0.5735  0.2885  0.0404
  917MPD2    H513431   4.490   0.580  11.144 -3.3021  1.2186 -1.1771
  917MPD2    N113432   4.106   0.382  11.497 -0.0409 -0.2065  0.3213
  917MPD2    H713433   4.013   0.341  11.488  0.3971 -1.2480  0.5984
  918MPD2     C13434   4.233   0.649  12.491  0.0761  0.3520 -0.2426
  918MPD2    C113435   4.328   0.637  12.395  0.9469  0.4122 -0.0754
  918MPD2    C213436   4.288   0.572  12.278  0.2939 -0.0310 -0.5921
  918MPD2    C313437   4.162   0.522  12.254 -0.0248  0.0702  0.2156
  918MPD2    C413438   4.072   0.544  12.360 -0.1671 -1.1048 -0.2209
  918MPD2    C513439   4.103   0.608  12.476  0.4051  0.0247  0.6276
  918MPD2     H13440   4.349   0.572  12.188  0.5073  2.0575 -0.4552
  918MPD2    H113441   3.967   0.529  12.340 -0.7885  1.4290  1.1601
  918MPD2    H213442   4.255   0.691  12.589 -2.1866 -0.0683  0.4564
  918MPD2    H313443   4.036   0.622  12.559  1.2061  1.4939  1.0259
  918MPD2     N13444   4.137   0.453  12.128  0.2683 -0.2256 -0.6795
  918MPD2    H513445   4.216   0.441  12.065  0.8413 -0.0477  0.0030
  918MPD2    N113446   4.462   0.680  12.416  0.1433 -0.3008 -0.5893
  918MPD2    H713447   4.518   0.664  12.334 -0.9871 -0.5300 -1.3171
  919MPD2     C13448   4.582   4.099  12.043  0.2202  0.4230  0.0447
  919MPD2    C113449   4.581   3.984  11.972  0.5610 -0.0650  0.5568
  919MPD2    C213450   4.567   3.988  11.836  0.2398 -0.5256  0.6803
  919MPD2    C313451   4.547   4.104  11.776 -0.6398 -0.0772  0.1916
  919MPD2    C413452   4.546   4.223  11.847 -0.0592  0.4016  0.3306
  919MPD2    C513453   4.568   4.217  11.987  0.3652 -0.4179  0.3659
  919MPD2     H13454   4.580   3.890  11.792 -0.7604  0.3330 -1.5435
  919MPD2    H113455   4.533   4.322  11.805 -0.4869  1.1988  2.3480
  919MPD2    H213456   4.601   4.097  12.150  1.4540  0.8122 -0.1614
  919MPD2    H313457   4.546   4.303  12.049  1.5655 -0.8809  1.4377
  919MPD2     N13458   4.518   4.114  11.631  0.0490 -0.1153 -0.1374
  919MPD2    H513459   4.507   4.207  11.593  1.3392  0.0048 -0.2147
  919MPD2    N113460   4.600   3.859  12.027  0.0798 -0.2336 -0.0113
  919MPD2    H713461   4.588   3.780  11.964  0.8269  1.3845 -2.1716
  920MPD2     C13462   4.563   4.410  10.682 -0.5100  0.5154  0.1368
  920MPD2    C113463   4.429   4.402  10.699  0.1386 -0.2428 -0.3977
  920MPD2    C213464   4.385   4.375  10.826 -0.0460 -0.0519  0.1133
  920MPD2    C313465   4.475   4.360  10.933  0.0872 -0.4157  0.4542
  920MPD2    C413466   4.613   4.362  10.910 -0.3165 -0.3712  0.1750
  920MPD2    C513467   4.654   4.392  10.783 -0.2261  0.0762  0.4414
  920MPD2     H13468   4.279   4.354  10.838  0.1375 -0.4175  1.1686
  920MPD2    H113469   4.688   4.347  10.987 -2.7647  0.1784  2.6871
  920MPD2    H213470   4.603   4.424  10.582  0.0850 -3.7345 -0.2042
  920MPD2    H313471   0.036   4.395  10.752 -0.1026  2.2935  1.0938
  920MPD2     N13472   4.418   4.315  11.050  0.3817 -0.6902  0.2218
  920MPD2    H513473   4.318   4.297  11.050  0.0123  1.3859 -2.6244
  920MPD2    N113474   4.342   4.418  10.590  0.1876  0.0479  0.3017
  920MPD2    H713475   4.245   4.387  10.600  0.6573 -1.3397  0.6137
  921MPD2     C13476   0.319   2.995  17.166 -0.1602  0.1964  0.1781
  921MPD2    C113477   0.343   3.013  17.031  0.5627 -0.0440 -0.3336
  921MPD2    C213478   0.241   3.058  16.950  0.2125  0.4801  0.1273
  921MPD2    C313479   0.110   3.079  17.003  0.6670 -0.2965  0.6477
  921MPD2    C413480   0.093   3.060  17.138  0.1172 -0.1446 -0.0400
  921MPD2    C513481   0.190   3.011  17.220 -0.7709 -0.3786  0.0730
  921MPD2     H13482   0.255   3.068  16.843  0.4953  0.3151  0.1498
  921MPD2    H113483   4.718   3.061  17.185 -0.0430  0.5077 -0.3843
  921MPD2    H213484   0.401   2.963  17.229  0.3063  1.1222  0.0432
  921MPD2    H313485   0.157   3.010  17.323  3.0376 -0.4401  1.3130
  921MPD2     N13486   0.006   3.082  16.912 -0.3961 -0.1020 -0.2554
  921MPD2    H513487   0.023   3.068  16.813  0.2426 -2.3382  0.1893
  921MPD2    N113488   0.476   2.994  16.985  0.2882  0.5610 -0.4395
  921MPD2    H713489   0.547   2.961  17.050  0.8943 -0.4379 -1.6159
  922MPD2     C13490   1.630   1.002  17.013  0.0392 -0.2862  0.5467
  922MPD2    C113491   1.556   0.953  16.914 -0.1593 -0.5644 -0.4148
  922MPD2    C213492   1.479   0.839  16.941  0.0314  0.7099  0.6706
  922MPD2    C313493   1.463   0.786  17.067  0.9712  0.1627  0.2592
  922MPD2    C413494   1.539   0.840  17.168 -0.4165  0.0231 -0.3986
  922MPD2    C513495   1.625   0.945  17.138  0.3132  0.9706 -1.2454
  922MPD2     H13496   1.416   0.798  16.863  1.0994 -0.4499  0.4182
  922MPD2    H113497   1.542   0.802  17.269 -0.0042  2.9226  0.6868
  922MPD2    H213498   1.679   1.098  17.004 -0.2087 -0.0395  1.8010
  922MPD2    H313499   1.682   0.988  17.220  0.8967 -1.8615 -0.1629
  922MPD2     N13500   1.357   0.689  17.088 -0.0748  0.8067  0.5178
  922MPD2    H513501   1.293   0.675  17.011  0.1516 -1.5504  0.7788
  922MPD2    N113502   1.530   1.016  16.792  0.2937 -0.0960 -0.1339
  922MPD2    H713503   1.459   0.981  16.729  0.8558 -0.5389 -0.5209
  923MPD2     C13504   3.261   2.378   9.037 -0.2430 -0.1666  0.6302
  923MPD2    C113505   3.349   2.480   9.073 -0.0123  0.8140 -0.0528
  923MPD2    C213506   3.470   2.442   9.131 -0.2017  0.3505 -1.0081
  923MPD2    C313507   3.505   2.309   9.159  0.0097  0.6179  0.4647
  923MPD2    C413508   3.403   2.216   9.134 -0.1914 -0.3487  0.9890
  923MPD2    C513509   3.288   2.248   9.064  0.3236  0.1874 -0.2333
  923MPD2     H13510   3.546   2.516   9.151  0.1154 -0.6920  1.6487
  923MPD2    H113511   3.410   2.113   9.167  1.4189 -0.8645 -0.9810
  923MPD2    H213512   3.161   2.400   9.001  0.2635  0.4334 -0.4032
  923MPD2    H313513   3.216   2.168   9.048  0.1516  0.3623 -0.3309
  923MPD2     N13514   3.622   2.273   9.237  0.8308 -0.5486  0.4112
  923MPD2    H513515   3.617   2.175   9.265  0.8624 -0.6716 -0.0106
  923MPD2    N113516   3.314   2.617   9.054 -0.2163 -0.1669 -0.5333
  923MPD2    H713517   3.228   2.630   9.002 -0.5357 -0.4237 -0.0649
  924MPD2     C13518   2.752   1.401  15.964  0.1459 -0.2147 -0.5225
  924MPD2    C113519   2.669   1.365  16.066 -0.5125  0.3337 -0.7735
  924MPD2    C213520   2.640   1.457  16.164 -0.8437 -0.0433 -0.6922
  924MPD2    C313521   2.702   1.575  16.172 -0.1569  0.6659  0.3111
  924MPD2    C413522   2.792   1.610  16.078  0.0771  0.9977 -0.4845
  924MPD2    C513523   2.820   1.520  15.976 -0.5689 -0.4644  0.0514
  924MPD2     H13524   2.572   1.427  16.244  0.5137  1.3767  0.9990
  924MPD2    H113525   2.836   1.708  16.093 -0.7025  0.7614  3.3160
  924MPD2    H213526   2.791   1.333  15.888  0.9054 -1.3903  0.9113
  924MPD2    H313527   2.892   1.548  15.900 -0.2476 -2.3942 -0.3566
  924MPD2     N13528   2.678   1.670  16.270 -0.7293  0.1160  0.3243
  924MPD2    H513529   2.712   1.765  16.254  0.5851 -0.2115  1.1714
  924MPD2    N113530   2.611   1.234  16.055  0.1745  0.4007  0.4601
  924MPD2    H713531   2.619   1.191  15.964 -2.1023 -2.4338  1.5987
  925MPD2     C13532   1.676   4.026  15.071 -0.1166 -0.4038 -0.0568
  925MPD2    C113533   1.551   3.974  15.043  0.2273 -0.3334 -0.2359
  925MPD2    C213534   1.461   3.947  15.144 -0.4185 -0.2988 -0.4543
  925MPD2    C313535   1.490   3.971  15.274  0.1177  0.6573  0.0258
  925MPD2    C413536   1.611   4.037  15.296 -0.0124 -0.1639 -0.1963
  925MPD2    C513537   1.706   4.060  15.204  0.2746  0.4664  0.6007
  925MPD2     H13538   1.377   3.883  15.119 -0.5474 -0.2067 -0.2573
  925MPD2    H113539   1.634   4.062  15.399  0.5081 -0.4159 -0.2526
  925MPD2    H213540   1.753   4.046  14.997  0.4581 -1.6463  0.2045
  925MPD2    H313541   1.805   4.099  15.222  2.0705 -3.0453 -1.6148
  925MPD2     N13542   1.409   3.940  15.390  0.4459 -0.0789 -0.4367
  925MPD2    H513543   1.450   3.974  15.476  0.2970  1.7988 -1.0979
  925MPD2    N113544   1.504   3.951  14.912 -0.3888 -0.1137  0.2077
  925MPD2    H713545   1.410   3.917  14.896 -0.1129 -0.5137 -0.5688
  926MPD2     C13546   0.872   2.284  13.276  0.2706  0.1131 -0.4520
  926MPD2    C113547   0.755   2.359  13.278 -0.4203 -0.5534  0.2602
  926MPD2    C213548   0.736   2.459  13.181 -0.0835  0.1109  0.1092
  926MPD2    C313549   0.830   2.490  13.083  0.1518  0.9228  0.2488
  926MPD2    C413550   0.953   2.424  13.097 -0.5720 -0.3314 -0.0788
  926MPD2    C513551   0.965   2.317  13.180 -0.3078  0.8216  0.8659
  926MPD2     H13552   0.641   2.511  13.179 -2.1668 -3.6563  0.7596
  926MPD2    H113553   1.029   2.441  13.022  1.2140 -1.0373  1.5359
  926MPD2    H213554   0.893   2.205  13.346  2.3046 -0.3218 -1.5555
  926MPD2    H313555   1.056   2.258  13.173 -1.2809 -0.5315 -0.3538
  926MPD2     N13556   0.814   2.597  12.987  0.7709  0.1030 -0.1764
  926MPD2    H513557   0.893   2.630  12.933  0.4694  2.7762  1.0422
  926MPD2    N113558   0.647   2.338  13.368 -0.3606 -0.3818 -0.0496
  926MPD2    H713559   0.581   2.414  13.381 -1.0245 -1.1501  1.0572
  927MPD2     C13560   0.321   4.472   0.566 -0.0529 -0.3818 -0.7184
  927MPD2    C113561   0.239   4.570   0.513 -0.3257  0.0345  0.0447
  927MPD2    C213562   0.194   4.555   0.382 -0.6022  0.2751  0.4000
  927MPD2    C313563   0.224   4.439   0.309 -0.0922 -0.2609 -0.6585
  927MPD2    C413564   0.298   4.343   0.374  0.8489 -0.1669  0.0985
  927MPD2    C513565   0.344   4.361   0.497 -0.0737 -0.2830 -0.4887
  927MPD2     H13566   0.144   4.635   0.328 -2.1117 -0.8897  0.0724
  927MPD2    H113567   0.308   4.247   0.325 -1.4547 -0.1245 -0.4557
  927MPD2    H213568   0.360   4.481   0.666  2.4205 -0.3547 -1.6818
  927MPD2    H313569   0.406   4.278   0.529 -0.4991  0.4044  2.1205
  927MPD2     N13570   0.181   4.434   0.174  0.3365 -0.1314  0.1966
  927MPD2    H513571   0.119   4.508   0.144  1.2861  0.9416  0.8959
  927MPD2    N113572   0.193   4.676   0.597 -0.3086  0.6403  0.6293
  927MPD2    H713573   0.215   4.665   0.695  0.5095  0.4465  0.4259
  928MPD2     C13574   2.195   2.796   0.942 -0.7996  0.0585 -0.2705
  928MPD2    C113575   2.272   2.688   0.895 -0.2443  0.4011 -0.4482
  928MPD2    C213576   2.363   2.708   0.792  0.3582  0.3371 -0.3078
  928MPD2    C313577   2.374   2.833   0.736  0.5505 -0.9935  0.0897
  928MPD2    C413578   2.293   2.932   0.784 -0.4760  0.5187  0.0113
  928MPD2    C513579   2.209   2.920   0.891 -0.3322 -0.6139  0.1947
  928MPD2     H13580   2.428   2.627   0.763  1.3679  1.3409 -0.8210
  928MPD2    H113581   2.311   3.027   0.735 -1.6961 -0.4418 -2.3343
  928MPD2    H213582   2.134   2.781   1.030 -1.5945 -0.6303 -0.9460
  928MPD2    H313583   2.145   3.000   0.929 -1.6397 -0.5212 -2.1904
  928MPD2     N13584   2.463   2.869   0.631  0.5077 -0.3803 -0.4194
  928MPD2    H513585   2.478   2.969   0.618  0.8487 -0.7164 -2.6373
  928MPD2    N113586   2.251   2.559   0.956  0.0927  0.8236  0.3242
  928MPD2    H713587   2.189   2.560   1.037  0.6218 -0.7593  0.7441
  929MPD2     C13588   3.368   2.614  10.528 -0.4336 -0.0320  0.6964
  929MPD2    C113589   3.323   2.493  10.498 -0.3436 -0.1497 -0.5956
  929MPD2    C213590   3.352   2.435  10.374  0.5178  0.9502 -0.1685
  929MPD2    C313591   3.427   2.503  10.278  0.4919 -0.0212 -0.6753
  929MPD2    C413592   3.480   2.627  10.310  0.0165  0.1636 -0.3020
  929MPD2    C513593   3.443   2.681  10.435  0.2077  0.4145  0.3810
  929MPD2     H13594   3.297   2.346  10.346  2.5400  0.0252 -1.2452
  929MPD2    H113595   3.533   2.693  10.243  0.3238  0.1018 -0.1180
  929MPD2    H213596   3.351   2.667  10.621  2.7955 -0.6958  1.6672
  929MPD2    H313597   3.484   2.779  10.458 -0.1727  0.8589 -0.8568
  929MPD2     N13598   3.433   2.461  10.146  0.2883 -0.4188  0.3322
  929MPD2    H513599   3.471   2.528  10.079  0.3635  0.3934  1.1936
  929MPD2    N113600   3.230   2.441  10.598  0.2930  0.4226 -0.2228
  929MPD2    H713601   3.210   2.499  10.679 -0.3893 -0.8695  0.5359
  930MPD2     C13602   0.013   0.613  14.103 -0.4903  0.2359  0.8287
  930MPD2    C113603   4.644   0.648  14.008 -0.2610 -0.2104  0.1359
  930MPD2    C213604   4.535   0.568  13.997  0.2491 -0.2875  0.9074
  930MPD2    C313605   4.527   0.449  14.073 -0.5391  0.5169 -0.8981
  930MPD2    C413606   4.632   0.408  14.149 -0.0909  0.4481 -0.1892
  930MPD2    C513607   0.006   0.497  14.173 -0.8514  0.1812  0.1508
  930MPD2     H13608   4.448   0.600  13.940 -0.6998 -1.7577  1.4947
  930MPD2    H113609   4.637   0.313  14.201 -0.7100  0.5863  0.1316
  930MPD2    H213610   0.101   0.676  14.110 -2.6833  3.1482  1.9747
  930MPD2    H313611   0.090   0.461  14.231 -1.2481 -0.1096  0.5418
  930MPD2     N13612   4.430   0.349  14.047  0.0842  0.2233 -0.1909
  930MPD2    H513613   4.460   0.255  14.072  0.4600  0.5909  0.7197
  930MPD2    N113614   4.674   0.754  13.920  0.4063 -0.3021  0.2717
  930MPD2    H713615   0.033   0.807  13.948 -0.9625  0.4115  2.8533
  931MPD2     C13616   0.159   4.535   1.171 -0.3869  0.7548  0.4225
  931MPD2    C113617   0.035   4.566   1.125 -0.3387  0.1815 -0.2027
  931MPD2    C213618   4.650   4.486   1.171  0.0759  0.3118  0.1133
  931MPD2    C313619   4.674   4.377   1.252  0.1904  0.6026 -0.7368
  931MPD2    C413620   0.084   4.342   1.289  0.2809 -0.4290 -0.6133
  931MPD2    C513621   0.186   4.428   1.253 -0.1963 -0.6382  0.8406
  931MPD2     H13622   4.552   4.497   1.125  0.0495 -0.0010  0.0934
  931MPD2    H113623   0.109   4.269   1.365  0.8379  1.1211  0.6859
  931MPD2    H213624   0.245   4.584   1.126 -0.9658 -0.2502 -1.7553
  931MPD2    H313625   0.286   4.404   1.288  0.0725 -0.2122  0.3711
  931MPD2     N13626   4.568   4.294   1.296 -0.1123  0.1719  0.0098
  931MPD2    H513627   4.587   4.205   1.339  1.1263  1.3769  1.9742
  931MPD2    N113628   0.020   4.659   1.023 -0.0922  0.5529 -0.1850
  931MPD2    H713629   0.104   4.691   0.977  0.0896 -1.1472 -1.0312
  932MPD2     C13630   1.888   3.394  11.098  0.3679  0.4180 -0.1062
  932MPD2    C113631   2.023   3.375  11.093  0.0634  1.0028 -0.4485
  932MPD2    C213632   2.072   3.242  11.089  0.0775 -0.2039 -0.3692
  932MPD2    C313633   1.981   3.134  11.075  0.0938  0.3437 -1.0207
  932MPD2    C413634   1.847   3.157  11.076 -0.0086 -0.4601  0.1584
  932MPD2    C513635   1.803   3.286  11.103  0.7872 -0.3150 -0.1357
  932MPD2     H13636   2.177   3.215  11.085  0.5505  1.8770 -2.3846
  932MPD2    H113637   1.776   3.080  11.049  0.8067 -1.1254 -0.0999
  932MPD2    H213638   1.838   3.490  11.105  1.7694  1.0409  1.4497
  932MPD2    H313639   1.697   3.311  11.099  1.1378  1.1207 -0.5959
  932MPD2     N13640   2.035   3.008  11.045 -0.0269  0.8397 -0.1163
  932MPD2    H513641   2.123   2.984  11.090 -0.7355 -1.6226 -0.0599
  932MPD2    N113642   2.114   3.475  11.092  0.6976  0.2350 -0.3488
  932MPD2    H713643   2.208   3.449  11.064  1.9077  3.2658  0.8969
  933MPD2     C13644   1.690   2.074   1.343  0.0528  0.2629  0.0711
  933MPD2    C113645   1.731   2.179   1.266 -0.7927 -0.2973  0.3810
  933MPD2    C213646   1.641   2.275   1.231 -0.9492  0.5935  0.5933
  933MPD2    C313647   1.506   2.272   1.267  0.2585  0.7273  0.1360
  933MPD2    C413648   1.463   2.161   1.339  0.2533 -0.0557 -0.4757
  933MPD2    C513649   1.554   2.067   1.375 -1.0966 -0.1271 -0.2910
  933MPD2     H13650   1.674   2.352   1.162  0.7800 -1.0795 -0.4701
  933MPD2    H113651   1.360   2.144   1.368 -0.0887  0.0576 -1.6107
  933MPD2    H213652   1.760   1.994   1.365 -1.1409 -0.4687  1.1899
  933MPD2    H313653   1.517   1.980   1.430 -2.0987 -0.2641 -1.1834
  933MPD2     N13654   1.417   2.375   1.226  0.1593  0.7007  0.2572
  933MPD2    H513655   1.459   2.459   1.189  1.6143 -1.0955 -2.1770
  933MPD2    N113656   1.871   2.182   1.231 -0.2934 -0.0794  0.2320
  933MPD2    H713657   1.925   2.110   1.277 -1.0982  1.4413  3.5770
  934MPD2     C13658   2.411   1.078   1.469  0.1215  0.1684 -1.3713
  934MPD2    C113659   2.504   0.974   1.464  0.4849 -0.6478 -0.3424
  934MPD2    C213660   2.493   0.876   1.368 -0.2684  0.3575  1.0751
  934MPD2    C313661   2.391   0.880   1.280 -0.9261 -0.7022 -0.2800
  934MPD2    C413662   2.295   0.979   1.283 -0.4646  0.0213 -0.2989
  934MPD2    C513663   2.308   1.078   1.371 -0.0137  0.3264 -0.2469
  934MPD2     H13664   2.573   0.802   1.367  1.0826  1.8492 -0.4081
  934MPD2    H113665   2.211   0.986   1.214  1.4227  1.1668 -2.4677
  934MPD2    H213666   2.410   1.166   1.532 -2.9483 -0.9378  0.1100
  934MPD2    H313667   2.246   1.166   1.362  1.8086  1.4773 -1.4855
  934MPD2     N13668   2.369   0.772   1.186  0.2848 -0.4043 -0.4832
  934MPD2    H513669   2.307   0.790   1.107  0.8213 -1.2352 -1.0894
  934MPD2    N113670   2.612   0.960   1.551 -0.5327  0.0847 -0.0053
  934MPD2    H713671   2.671   0.878   1.542 -1.5073 -0.5673 -0.4720
  935MPD2     C13672   2.921   4.671   1.044  0.3129 -0.9224  0.2984
  935MPD2    C113673   2.844   4.678   0.930 -0.7729  0.0176 -0.4963
  935MPD2    C213674   2.746   0.050   0.913  0.4910  0.3962  0.4883
  935MPD2    C313675   2.713   0.130   1.019 -0.6294 -0.1605 -0.2155
  935MPD2    C413676   2.784   0.116   1.135 -0.2043  0.2657 -0.0743
  935MPD2    C513677   2.886   0.031   1.147 -0.1407  0.1504  0.4687
  935MPD2     H13678   2.689   0.051   0.821 -3.0238 -0.6401  2.6535
  935MPD2    H113679   2.758   0.188   1.212 -0.7789  0.2628 -0.2675
  935MPD2    H213680   3.014   4.619   1.063  1.7554  1.9726  1.2060
  935MPD2    H313681   2.945   0.036   1.237 -0.0310  0.0350  0.4024
  935MPD2     N13682   2.611   0.234   1.024  0.3609 -0.1174 -0.0184
  935MPD2    H513683   2.619   0.299   1.101 -1.8620 -0.4452  0.4632
  935MPD2    N113684   2.866   4.600   0.817  0.2165 -0.1785 -0.0459
  935MPD2    H713685   2.799   4.614   0.742 -0.3410 -0.3534  0.4229
  936MPD2     C13686   2.160   2.340  12.161  0.1253  0.1745 -0.0784
  936MPD2    C113687   2.192   2.210  12.195 -0.4009  0.0323 -0.0304
  936MPD2    C213688   2.293   2.140  12.126  0.5034 -0.1304  0.9894
  936MPD2    C313689   2.369   2.200  12.030  0.2818 -0.2986 -0.8514
  936MPD2    C413690   2.348   2.338  12.003  0.2904  0.0101  0.0386
  936MPD2    C513691   2.244   2.403  12.070  0.2804  0.2624 -0.3853
  936MPD2     H13692   2.311   2.036  12.152  1.0567 -0.3776 -0.3520
  936MPD2    H113693   2.401   2.397  11.929  0.0889 -0.3295 -0.3738
  936MPD2    H213694   2.083   2.403  12.203  0.3846 -0.0549  0.7386
  936MPD2    H313695   2.227   2.508  12.050  1.8086  0.6663  0.4063
  936MPD2     N13696   2.488   2.130  11.981  0.7388  0.3897  0.0609
  936MPD2    H513697   2.567   2.189  11.958  1.0839 -0.5235 -1.0864
  936MPD2    N113698   2.125   2.137  12.292 -0.2159 -0.7093  0.0612
  936MPD2    H713699   2.146   2.038  12.299 -0.6314 -0.7839  0.2435
  937MPD2     C13700   0.022   3.208  11.741 -0.4277 -0.2468  0.0374
  937MPD2    C113701   0.063   3.336  11.774 -0.0854 -0.6429 -0.5165
  937MPD2    C213702   0.184   3.369  11.722 -0.1150  0.0533  0.0744
  937MPD2    C313703   0.255   3.294  11.631 -0.6579 -0.2787  1.1019
  937MPD2    C413704   0.203   3.170  11.598 -0.7618  1.1816  0.2132
  937MPD2    C513705   0.089   3.131  11.653 -0.4504  0.1225 -0.3894
  937MPD2     H13706   0.225   3.464  11.757 -1.4907  0.8338 -0.4290
  937MPD2    H113707   0.251   3.100  11.530 -0.4269  0.5825  1.0786
  937MPD2    H213708   4.654   3.163  11.780 -1.4970  1.5585 -0.3374
  937MPD2    H313709   0.052   3.031  11.632 -4.3087  1.6641 -1.0110
  937MPD2     N13710   0.380   3.337  11.583  0.2859 -0.0887  0.2327
  937MPD2    H513711   0.423   3.415  11.632  0.5946 -0.0152 -0.1551
  937MPD2    N113712   0.013   3.409  11.889  0.3669 -0.8605 -0.2035
  937MPD2    H713713   0.070   3.486  11.921  0.7504 -0.6445 -1.4119
  938MPD2     C13714   1.631   0.225   0.342 -0.4544 -0.3303 -0.2327
  938MPD2    C113715   1.728   0.247   0.431  0.0094  0.2496  0.4069
  938MPD2    C213716   1.769   0.140   0.508 -0.5781  0.0105 -0.2841
  938MPD2    C313717   1.705   0.017   0.507  0.1564 -0.5444  0.7284
  938MPD2    C413718   1.605   4.715   0.420 -0.1778 -0.1205  0.2634
  938MPD2    C513719   1.569   0.102   0.339 -0.1773 -0.3389 -0.3617
  938MPD2     H13720   1.844   0.163   0.582 -0.4786 -0.0947 -0.3522
  938MPD2    H113721   1.551   4.621   0.420  1.4655 -1.0822 -0.4676
  938MPD2    H213722   1.593   0.299   0.273  1.0267  0.7827  0.1404
  938MPD2    H313723   1.486   0.093   0.270  0.0346  0.9484 -0.7847
  938MPD2     N13724   1.732   4.637   0.603  0.3039 -0.3772 -0.1973
  938MPD2    H513725   1.677   4.552   0.605 -0.7900  0.3012 -2.5305
  938MPD2    N113726   1.783   0.379   0.456 -0.5415 -0.3613  0.4036
  938MPD2    H713727   1.859   0.389   0.522  0.3547 -1.1585 -0.4878
  939MPD2     C13728   4.212   1.473   0.833  1.1718  0.1093  0.0970
  939MPD2    C113729   4.303   1.492   0.935 -0.1215 -0.2480  0.0077
  939MPD2    C213730   4.431   1.521   0.890 -0.6546 -0.4569 -0.3527
  939MPD2    C313731   4.474   1.518   0.756  0.2149  0.0575 -1.0961
  939MPD2    C413732   4.381   1.490   0.658 -0.0025  0.4853  0.1543
  939MPD2    C513733   4.252   1.469   0.700  0.3043  0.0072 -0.2587
  939MPD2     H13734   4.502   1.542   0.969 -1.4843  0.1726  0.2203
  939MPD2    H113735   4.403   1.466   0.555 -0.5300  0.2331  0.0999
  939MPD2    H213736   4.107   1.458   0.853  1.1322 -0.3834 -0.5076
  939MPD2    H313737   4.177   1.439   0.628 -0.7123  0.4020  0.6398
  939MPD2     N13738   4.615   1.527   0.735  0.4768  0.1245  0.4314
  939MPD2    H513739   4.678   1.521   0.814  2.4659 -1.6101 -1.2855
  939MPD2    N113740   4.267   1.469   1.069 -0.2955 -0.2011  0.3493
  939MPD2    H713741   4.166   1.473   1.080 -0.5518 -2.2881 -1.2721
  940MPD2     C13742   2.406   1.628  12.970 -0.7402 -0.2638 -1.0065
  940MPD2    C113743   2.531   1.651  13.015  0.5476  0.5440  0.0895
  940MPD2    C213744   2.625   1.680  12.919  0.0451  0.0112 -0.1540
  940MPD2    C313745   2.605   1.676  12.787 -0.1615 -0.0243 -0.9271
  940MPD2    C413746   2.472   1.658  12.752  0.1710 -0.6110 -0.6981
  940MPD2    C513747   2.372   1.640  12.837  0.5065  0.2167 -0.1820
  940MPD2     H13748   2.726   1.694  12.956  0.8006 -0.3764 -2.0940
  940MPD2    H113749   2.447   1.640  12.648 -1.7283  1.3862 -0.5763
  940MPD2    H213750   2.327   1.606  13.041 -1.1235 -0.3675 -1.4667
  940MPD2    H313751   2.274   1.630  12.792  0.9174  0.4039 -1.1242
  940MPD2     N13752   2.710   1.693  12.689 -0.0270 -0.1755  0.4700
  940MPD2    H513753   2.680   1.693  12.591  1.4147 -0.8282  0.0333
  940MPD2    N113754   2.575   1.641  13.145  0.3407  0.1623 -0.0723
  940MPD2    H713755   2.675   1.651  13.160 -0.3494 -0.8240  5.2942
  941MPD2     C13756   2.521   0.851  10.159 -0.5243  0.8068 -0.0094
  941MPD2    C113757   2.626   0.761  10.166 -0.6744  0.4713  0.1308
  941MPD2    C213758   2.595   0.633  10.206 -0.3012 -0.1177  0.4313
  941MPD2    C313759   2.468   0.590  10.255 -0.0691  0.7821 -0.6845
  941MPD2    C413760   2.372   0.690  10.247 -1.2605  0.4743  0.5976
  941MPD2    C513761   2.396   0.816  10.200  0.3044  0.3465 -0.3017
  941MPD2     H13762   2.681   0.567  10.207  0.3053  0.6592 -0.2467
  941MPD2    H113763   2.269   0.676  10.277 -0.7292 -2.3930  1.0839
  941MPD2    H213764   2.534   0.951  10.117  4.2061 -0.5303 -1.7370
  941MPD2    H313765   2.312   0.879  10.173  0.7430  1.5727  1.1970
  941MPD2     N13766   2.442   0.464  10.297  0.1974  0.6696 -0.2249
  941MPD2    H513767   2.349   0.452  10.336  0.2120  2.6797  0.4648
  941MPD2    N113768   2.761   0.797  10.135  0.5140  0.3613  0.1183
  941MPD2    H713769   2.837   0.731  10.148  1.7359  1.2995 -2.1527
  942MPD2     C13770   2.087   3.005   9.303  0.4136  0.7639 -0.7748
  942MPD2    C113771   2.200   3.026   9.225  0.2136  0.0205  0.4841
  942MPD2    C213772   2.310   2.941   9.234  0.0836  0.5701  0.3982
  942MPD2    C313773   2.301   2.825   9.304 -0.0347  0.2048  0.5209
  942MPD2    C413774   2.183   2.801   9.372  0.0389 -0.1784  0.3665
  942MPD2    C513775   2.084   2.890   9.374  0.0582  0.0667 -0.3360
  942MPD2     H13776   2.406   2.969   9.193 -0.4727  0.2878 -1.0882
  942MPD2    H113777   2.169   2.710   9.430  0.8432  1.1440  2.6308
  942MPD2    H213778   1.999   3.068   9.307  0.0833  0.2107  0.6207
  942MPD2    H313779   2.001   2.877   9.442 -1.7226 -0.4924 -2.6278
  942MPD2     N13780   2.404   2.727   9.318 -0.1094  0.1442 -0.0244
  942MPD2    H513781   2.395   2.650   9.383 -0.1792  2.5904  2.8621
  942MPD2    N113782   2.215   3.154   9.157 -0.1465 -1.2588 -0.1773
  942MPD2    H713783   2.303   3.157   9.107  1.1989  0.5646  2.3210
  943MPD2     C13784   1.257   0.566   9.746 -0.1707 -0.5996  0.6408
  943MPD2    C113785   1.198   0.534   9.866  0.1753 -0.5937  0.5870
  943MPD2    C213786   1.202   0.630   9.974 -0.9594 -0.2288 -0.2787
  943MPD2    C313787   1.255   0.756   9.954  0.0503  0.9742 -0.2491
  943MPD2    C413788   1.311   0.786   9.835 -0.4237 -0.2693 -0.2677
  943MPD2    C513789   1.306   0.693   9.732 -0.0712  0.5112  1.7024
  943MPD2     H13790   1.160   0.600  10.069 -0.5080  3.0567  0.9691
  943MPD2    H113791   1.369   0.876   9.814 -0.4505 -0.2947 -0.4523
  943MPD2    H213792   1.262   0.510   9.654  1.7599 -2.0708  1.6351
  943MPD2    H313793   1.343   0.724   9.635 -1.3315  1.8034  1.6416
  943MPD2     N13794   1.257   0.860  10.055 -1.2236 -0.4159 -0.0628
  943MPD2    H513795   1.273   0.955  10.023 -0.1196 -0.1847  1.1530
  943MPD2    N113796   1.141   0.411   9.876 -0.3168  0.4193  0.4672
  943MPD2    H713797   1.144   0.352   9.794 -0.4604  0.0820  0.7045
  944MPD2     C13798   0.188   4.495  11.055 -0.5141 -0.3604  0.3855
  944MPD2    C113799   0.316   4.544  11.032 -0.5177  0.0469  0.2100
  944MPD2    C213800   0.351   4.673  11.077 -0.1475  0.4659  0.5679
  944MPD2    C313801   0.250   0.016  11.150 -0.0996 -0.2979  0.0507
  944MPD2    C413802   0.130   4.680  11.175  0.2600  0.8951 -0.1858
  944MPD2    C513803   0.096   4.565  11.116  1.0203  1.5632 -0.6163
  944MPD2     H13804   0.453   4.710  11.076  0.0127  0.0069 -0.0226
  944MPD2    H113805   0.054   0.001  11.240  0.3889  1.1243 -0.1852
  944MPD2    H213806   0.159   4.396  11.021  0.2982 -1.1605  2.0238
  944MPD2    H313807   4.720   4.521  11.129  1.5965  0.9735  1.6442
  944MPD2     N13808   0.287   0.139  11.204  0.3288 -0.0156  0.0252
  944MPD2    H513809   0.382   0.163  11.176  0.5521 -0.9252 -0.0097
  944MPD2    N113810   0.410   4.442  10.999  0.4935 -0.0686 -0.4081
  944MPD2    H713811   0.383   4.348  11.025 -0.0477  0.4132  0.7419
    1TCq1    O113812   3.829   0.153  13.385 -0.0330 -0.0945 -0.1210
    1TCq1    C113813   3.797   0.113  13.509 -0.3168  0.0567 -0.8183
    1TCq1    O213814   3.847   0.019  13.566 -0.0348 -0.6585  0.3068
    1TCq1    C213815   3.739   0.227  13.577  0.6721 -0.2163 -0.5670
    1TCq1    C313816   3.649   0.311  13.515  0.5764  0.7811  0.1446
    1TCq1    C413817   3.585   0.415  13.579 -0.3706 -0.0166  0.0991
    1TCq1    C513818   3.621   0.432  13.710 -0.4576 -0.3213 -0.1074
    1TCq1    C613819   3.702   0.346  13.776 -0.5628  0.0742  0.1790
    1TCq1    C713820   3.766   0.241  13.710  0.0701  0.3325  0.7057
    1TCq1    C813821   3.713   0.349  13.921  0.3166 -0.2723  0.0585
    1TCq1    O413822   3.818   0.301  13.968 -0.2972  0.0249  0.1366
    1TCq1    C913823   3.493   0.503  13.509  0.7243  0.0070 -0.4364
    1TCq1    O513824   3.474   0.614  13.567  0.1727  0.2808 -0.2397
    1TCq1    O613825   3.475   0.480  13.384 -0.5550 -0.3240 -0.7500
    1TCq1    H113826   3.818   0.247  13.356 -0.4810 -0.2790 -0.5606
    1TCq1    H213827   3.618   0.294  13.412 -0.1030  0.2024  0.4431
    1TCq1    H313828   3.574   0.513  13.764  1.8672  0.0124  1.4216
    1TCq1    H413829   3.827   0.172  13.767 -0.4556 -1.9896 -1.5506
    2MPD2     C13830   3.502   0.488  14.365  0.2965 -0.3842 -0.1009
    2MPD2    C113831   3.409   0.516  14.265  0.6168 -0.6494 -0.2552
    2MPD2    C213832   3.448   0.489  14.142 -0.3795 -0.3183  0.0895
    2MPD2    C313833   3.566   0.420  14.110 -0.1336  0.1882 -0.5409
    2MPD2    C413834   3.650   0.387  14.213  0.4514  0.3927  0.1312
    2MPD2    C513835   3.618   0.426  14.339 -0.6664  0.0287 -0.0340
    2MPD2     H13836   3.380   0.508  14.060  1.0620 -0.6287 -1.1773
    2MPD2    H113837   3.747   0.338  14.204  1.1976  2.2328 -1.7884
    2MPD2    H213838   3.481   0.528  14.463 -0.5855 -0.8670 -0.0918
    2MPD2    H313839   3.690   0.420  14.420  0.4521  0.4700 -1.0069
    2MPD2     N13840   3.596   0.395  13.973  0.1146  0.3003  0.3663
    2MPD2    H513841   3.518   0.409  13.909 -0.1365  0.0432  0.6146
    2MPD2    N113842   3.295   0.589  14.303 -0.0903  0.3723 -0.0348
    2MPD2    H713843   3.279   0.629  14.395  1.9874  0.7950  0.1459
    3TMC2    C113844   3.112   0.721  14.291 -0.1606 -0.3038  0.0350
    3TMC2    C213845   2.982   0.714  14.248  0.3990  0.9470 -0.0009
    3TMC2    C313846   2.907   0.819  14.289 -0.3432  0.9329  0.2874
    3TMC2    C413847   3.168   0.802  14.388  0.6891  0.0211 -0.2480
    3TMC2    C513848   3.090   0.914  14.414  0.0896  0.3509  0.3506
    3TMC2    C613849   2.959   0.921  14.367 -0.6048 -0.3417  0.1905
    3TMC2     C13850   3.194   0.624  14.222  0.4828  0.4941 -0.0557
    3TMC2     O13851   3.167   0.609  14.104  0.1064 -0.0746  0.1163
    3TMC2     H13852   2.952   0.652  14.165 -0.9781  0.3140  0.9674
    3TMC2    H113853   3.272   0.802  14.420  0.7054  0.0043 -0.3018
    3TMC2    H213854   2.891   0.999  14.400 -2.6285 -1.6783 -0.8321
    3TMC2    C713855   3.160   1.027  14.454  0.0860  0.1986 -0.2776
    3TMC2    C813856   2.772   0.825  14.244 -0.1248 -0.0418  0.6622
    3TMC2    O113857   3.220   1.022  14.560 -0.1589  0.4536 -0.2184
    3TMC2    O213858   2.702   0.924  14.273 -0.2457 -0.4182 -0.5287
    3TMC2    O513859   2.733   0.694  14.245  0.3296  0.0975  0.0924
    3TMC2    H513860   2.794   0.617  14.244 -1.3528 -1.2283  0.0562
    4MPD2     C13861   2.623   2.320  13.901  0.7583 -0.0487  0.1048
    4MPD2    C113862   2.655   2.276  13.774  0.0308  0.2109 -0.0726
    4MPD2    C213863   2.748   2.177  13.765 -0.9629 -0.4978  0.4132
    4MPD2    C313864   2.803   2.123  13.881  0.0263 -0.1044 -0.4600
    4MPD2    C413865   2.768   2.170  14.005  0.4750  0.3799 -0.0509
    4MPD2    C513866   2.671   2.266  14.020  0.5504 -0.3951 -0.2397
    4MPD2     H13867   2.778   2.141  13.667 -0.1457  2.0379 -0.2723
    4MPD2    H113868   2.826   2.135  14.090  0.3653  2.0791  0.7130
    4MPD2    H213869   2.544   2.394  13.905  1.1874  0.4908 -1.2596
    4MPD2    H313870   2.630   2.304  14.112  0.2867 -2.2478  0.3991
    4MPD2     N13871   2.903   2.020  13.868  0.1400 -0.0670 -0.1606
    4MPD2    H513872   2.939   2.001  13.775 -0.4206 -0.1736 -0.3546
    4MPD2    N113873   2.584   2.333  13.665  0.3356 -0.4090 -0.6658
    4MPD2    H713874   2.500   2.386  13.684 -0.4748 -1.3616 -1.6295
    5TCq2    C113875   2.943   1.931  13.967  0.6081 -0.5339  0.0646
    5TCq2    O213876   2.898   1.923  14.082  0.0416  0.2368 -0.0199
    5TCq2    C213877   3.034   1.833  13.907 -0.5307  0.3154  0.0623
    5TCq2    C313878   3.136   1.873  13.822 -0.0710 -0.6182 -1.1245
    5TCq2    C413879   3.230   1.779  13.786  0.5859  0.9653 -1.8404
    5TCq2    C513880   3.236   1.655  13.840  0.1121  0.0908 -0.0650
    5TCq2    C613881   3.130   1.625  13.929  0.4251 -0.2046 -0.0669
    5TCq2    C713882   3.031   1.711  13.962 -0.3682 -0.0269  0.3375
    5TCq2    C813883   3.152   1.511  14.010  0.1402  0.3332  0.3022
    5TCq2    O413884   3.127   1.404  13.956 -0.3208  0.2879 -1.1291
    5TCq2    C913885   3.317   1.815  13.676 -0.4185 -0.1862  0.2617
    5TCq2    O513886   3.420   1.749  13.651  0.3254 -0.2196  0.8385
    5TCq2    O613887   3.294   1.925  13.619  0.6089 -0.2349  0.3482
    5TCq2    H213888   3.144   1.977  13.792 -0.4908  0.3722  2.1430
    5TCq2    H313889   3.322   1.593  13.817 -0.3375  0.2183 -2.0848
    5TCq2    H413890   2.953   1.671  14.025 -1.1105 -0.2101 -0.6914
    6MPD1     C13891   2.251   3.979  12.614  0.2094 -0.2008  0.2983
    6MPD1    C113892   2.336   3.894  12.547  0.6031 -0.0060 -0.0294
    6MPD1    C213893   2.343   3.763  12.587  0.1538  0.2686  0.0410
    6MPD1    C313894   2.282   3.724  12.704 -0.7466  0.3871  0.4637
    6MPD1    C413895   2.203   3.811  12.779 -0.1723  0.1823  0.2151
    6MPD1    C513896   2.187   3.934  12.730  0.0964  0.4841 -0.4508
    6MPD1     H13897   2.407   3.700  12.526  0.2521 -0.9619  1.4011
    6MPD1    H113898   2.164   3.777  12.875 -2.7077  2.3838 -0.0284
    6MPD1    H213899   2.249   4.079  12.572 -3.2609 -0.7017 -0.6960
    6MPD1    H313900   2.119   4.003  12.779  1.7173  1.1544  0.8320
    6MPD1     N13901   2.299   3.603  12.772  0.5242  0.1285 -0.1926
    6MPD1    H513902   2.254   3.594  12.862  3.2641  0.9609  1.2545
    6MPD1    N113903   2.396   3.937  12.433  0.4609  0.1087 -0.4003
    6MPD1    H613904   2.491   3.905  12.412  0.2590 -0.9816  0.3574
    6MPD1    H713905   2.379   4.036  12.420  0.5396 -0.1376 -2.3688
    7MPD2     C13906   2.442   3.176  13.434  0.0680  0.3745  0.4585
    7MPD2    C113907   2.416   3.099  13.326 -0.9565 -0.3124  0.3142
    7MPD2    C213908   2.401   2.967  13.342  0.4392  0.5256  0.2022
    7MPD2    C313909   2.416   2.900  13.460  0.0390  0.4300  0.3085
    7MPD2    C413910   2.445   2.978  13.566 -0.8306 -0.2865  0.0106
    7MPD2    C513911   2.458   3.119  13.556 -0.9926  0.1435 -0.4484
    7MPD2     H13912   2.386   2.910  13.251  1.4309 -0.0224  0.3813
    7MPD2    H113913   2.445   2.934  13.665  2.0436 -1.6509 -0.6144
    7MPD2    H213914   2.444   3.284  13.425  2.4463  0.1603 -1.5684
    7MPD2    H313915   2.472   3.186  13.640  0.4354 -2.8169  1.6865
    7MPD2     N13916   2.406   2.759  13.467  0.6598 -0.0058 -0.3073
    7MPD2    H513917   2.425   2.709  13.554 -1.7073 -2.4472 -1.1832
    7MPD2    N113918   2.405   3.150  13.196 -0.8651 -0.5663  0.1090
    7MPD2    H713919   2.392   3.077  13.127 -1.6086 -2.0328  1.8079
    8TMC3    C113920   2.336   2.530  13.397 -0.5503  0.1649  0.1743
    8TMC3    C213921   2.432   2.480  13.480  0.5635 -0.3825 -0.0409
    8TMC3    C313922   2.490   2.362  13.446 -0.1524  0.4743 -0.3548
    8TMC3    C413923   2.299   2.462  13.284 -0.1210 -0.1331  0.0040
    8TMC3    C513924   2.375   2.357  13.248 -0.3619  0.0524 -0.5576
    8TMC3    C613925   2.466   2.298  13.333 -0.0687  0.1060 -0.0210
    8TMC3     C13926   2.348   2.680  13.370 -0.1201 -0.1365  0.0814
    8TMC3     O13927   2.292   2.709  13.264  0.2115  0.6248  0.1947
    8TMC3     H13928   2.484   2.537  13.556 -1.7909 -0.1613  1.4314
    8TMC3    H113929   2.212   2.495  13.228  0.5132  0.2612 -0.7511
    8TMC3    H213930   2.523   2.207  13.318  1.8301  1.2669  0.2380
    8TMC3    C713931   2.421   2.378  13.109  0.1437 -0.7027  0.0296
    8TMC3    C813932   2.597   2.300  13.531  0.6662  0.3368 -1.2523
    8TMC3    O113933   2.483   2.288  13.054 -1.1197  0.0900 -0.0365
    8TMC3    O213934   2.687   2.236  13.479 -0.2456 -0.2636  0.1058
    9TMC3    C113935   2.385   3.376  12.801  0.6408 -0.8952 -0.2151
    9TMC3    C213936   2.422   3.262  12.737  0.1640 -0.0625  0.2282
    9TMC3    C313937   2.475   3.158  12.806  0.3102 -0.5653  0.0991
    9TMC3    C413938   2.383   3.383  12.935 -0.4003  0.1705  0.2743
    9TMC3    C513939   2.434   3.275  13.001 -0.1005  0.0464 -0.9634
    9TMC3    C613940   2.483   3.165  12.944  0.6724 -0.2067  0.6964
    9TMC3     C13941   2.355   3.492  12.712  0.7760 -0.2823  0.1214
    9TMC3     O13942   2.406   3.480  12.602 -0.5456 -0.0073 -0.2157
    9TMC3     H13943   2.406   3.255  12.630 -2.2917  0.9416  0.5420
    9TMC3    H113944   2.348   3.470  12.990 -0.6898 -1.1456  2.1985
    9TMC3    H213945   2.527   3.081  12.997  0.7751 -0.6832 -0.1380
    9TMC3    C713946   2.423   3.273  13.143 -0.9671  0.2348  0.1563
    9TMC3    C813947   2.479   3.028  12.736  0.5813  0.8990  0.3282
    9TMC3    O113948   2.428   3.378  13.203  0.2965 -0.0078 -0.1252
    9TMC3    O213949   2.541   3.021  12.631 -0.7648  0.5507 -0.2372
   10MPD2     C13950   2.498   2.524  12.837  0.1434  0.3891 -0.1629
   10MPD2    C113951   2.440   2.583  12.946  0.5660 -0.4628  0.1147
   10MPD2    C213952   2.413   2.719  12.931 -0.0893  0.2201  0.2761
   10MPD2    C313953   2.449   2.791  12.820 -0.2384 -0.5250  0.1669
   10MPD2    C413954   2.513   2.722  12.716  0.3505 -0.2984 -0.1483
   10MPD2    C513955   2.542   2.588  12.728  0.2186 -0.4526  0.3409
   10MPD2     H13956   2.360   2.773  13.009 -1.7162 -0.8615 -0.0713
   10MPD2    H113957   2.538   2.780  12.628 -1.3358 -0.0036 -0.4240
   10MPD2    H213958   2.511   2.416  12.837  1.6336  0.5651 -3.2964
   10MPD2    H313959   2.590   2.535  12.646  0.2465  0.3421 -0.1605
   10MPD2     N13960   2.429   2.937  12.829 -0.3748  0.2056  0.4027
   10MPD2    H513961   2.375   2.976  12.905 -0.7219  0.1287  0.1965
   10MPD2    N113962   2.401   2.512  13.071 -0.1227  0.0261 -0.4413
   10MPD2    H713963   2.355   2.573  13.139 -1.1321 -1.7993  0.5113
   11MPD2     C13964   3.291   1.299  14.454 -0.4871  0.8037 -0.8612
   11MPD2    C113965   3.211   1.249  14.353 -0.0386 -0.6360  0.0982
   11MPD2    C213966   3.189   1.335  14.246  0.3180 -0.2435  0.0765
   11MPD2    C313967   3.239   1.463  14.239 -0.1188  0.2683 -0.3705
   11MPD2    C413968   3.308   1.512  14.348  0.6075 -0.6484 -0.4251
   11MPD2    C513969   3.339   1.429  14.450 -0.7018  0.0171 -0.1132
   11MPD2     H13970   3.144   1.294  14.156  0.0027  1.4267 -0.5234
   11MPD2    H113971   3.344   1.614  14.338  1.1321 -0.8844 -0.9113
   11MPD2    H213972   3.324   1.246  14.543 -2.7758 -0.2147 -0.6369
   11MPD2    H313973   3.400   1.464  14.532  0.7903  0.4629 -1.4141
   11MPD2     N13974   3.223   1.547  14.123 -0.0383  0.2948 -0.1673
   11MPD2    H513975   3.251   1.644  14.129  0.1799  0.1865  0.5752
   11MPD2    N113976   3.156   1.121  14.351 -0.2544 -0.4569  0.2159
   11MPD2    H713977   3.101   1.094  14.270  0.1557  0.0590 -0.2423
    1MPD1     C13978   4.620   3.258  17.475  0.6404 -0.3680 -0.8184
    1MPD1    C113979   0.030   3.240  17.505  0.4308  0.3223  0.3070
    1MPD1    C213980   0.127   3.287  17.417 -0.1947  0.2430 -0.1488
    1MPD1    C313981   0.091   3.339  17.297 -0.3024 -0.1306  0.5041
    1MPD1    C413982   4.680   3.362  17.271  0.1672  0.7151  0.2518
    1MPD1    C513983   4.584   3.311  17.352 -0.0372 -0.3653 -0.0916
    1MPD1     H13984   0.228   3.269  17.452  0.0776  1.6273 -0.2166
    1MPD1    H113985   4.649   3.413  17.180 -1.3351 -2.1401 -0.8603
    1MPD1    H213986   4.536   3.222  17.533  1.0994 -0.4466 -0.2027
    1MPD1    H313987   4.478   3.319  17.333  0.1501 -0.0196 -1.0419
    1MPD1     N13988   0.181   3.386  17.201  0.7257  0.2212 -0.1515
    1MPD1    H513989   0.145   3.427  17.115  0.5226  0.9895  0.3027
    1MPD1    N113990   0.064   3.187  17.631  0.0149  0.0690 -0.0311
    1MPD1    H613991   4.710   3.127  17.663  0.1477 -0.2194 -0.2592
    1MPD1    H713992   0.152   3.135  17.629 -0.0883 -0.0081 -2.4450
    2MPD1     C13993   1.185   3.343  17.250 -0.7482 -0.2502 -0.3514
    2MPD1    C113994   1.078   3.289  17.325 -0.0818 -0.5999  0.0026
    2MPD1    C213995   0.957   3.280  17.266 -0.4902  0.6608 -0.0900
    2MPD1    C313996   0.924   3.325  17.140 -0.6725 -0.2079 -1.0182
    2MPD1    C413997   1.028   3.394  17.076 -0.3429 -1.1488 -0.2502
    2MPD1    C513998   1.154   3.388  17.125  0.3307 -0.5334 -0.7877
    2MPD1     H13999   0.886   3.219  17.321 -1.3372  1.2333 -0.5600
    2MPD1    H114000   1.027   3.447  16.981  2.2582 -1.2894 -0.3439
    2MPD1    H214001   1.286   3.331  17.287 -1.1295 -1.8523  0.1520
    2MPD1    H314002   1.233   3.428  17.062 -0.0030  2.9120  0.9504
    2MPD1     N14003   0.788   3.320  17.095 -0.4642  0.3759 -0.1461
    2MPD1    H514004   0.715   3.280  17.154 -0.0717 -1.5099 -0.9458
    2MPD1    N114005   1.108   3.208  17.436 -0.0002 -0.0535  0.2724
    2MPD1    H614006   1.026   3.197  17.495 -0.1031 -0.6914  0.0062
    2MPD1    H714007   1.186   3.245  17.490  0.3571  0.1381 -0.3718
    3TMC3    C114008   0.588   3.362  16.971  0.3486 -0.2752  0.3046
    3TMC3    C214009   0.529   3.353  16.849 -0.2929  0.4149 -0.1340
    3TMC3    C314010   0.393   3.363  16.849 -0.4314 -0.2109 -0.2219
    3TMC3    C414011   0.522   3.382  17.087 -0.2202 -0.3508 -0.3595
    3TMC3    C514012   0.386   3.397  17.080  0.0023 -0.0435 -0.4344
    3TMC3    C614013   0.325   3.375  16.964  0.2496  0.6899  0.1260
    3TMC3     C14014   0.735   3.366  16.980  0.1513 -0.2523 -0.7753
    3TMC3     O14015   0.780   3.392  16.871  0.5984 -0.3352  0.4780
    3TMC3     H14016   0.588   3.339  16.759 -1.6180 -1.2233 -0.7601
    3TMC3    H114017   0.579   3.376  17.179 -0.7931  1.7623  0.1285
    3TMC3    H214018   0.217   3.384  16.962  0.3497  1.8159 -0.3186
    3TMC3    C714019   0.315   3.356  17.201 -0.1485  0.3508  0.2506
    3TMC3    C814020   0.316   3.371  16.729  0.0925 -0.7605  0.7993
    3TMC3    O114021   0.387   3.307  17.290 -0.2690  0.4411 -0.1583
    3TMC3    O214022   0.198   3.345  16.735  0.0262 -0.9443  0.1675
    4MPD1     C14023   0.201   3.540  16.261  0.6318  0.1739  0.3906
    4MPD1    C114024   0.333   3.506  16.261 -0.2513 -0.3464 -0.1076
    4MPD1    C214025   0.394   3.476  16.377 -0.6573  0.4452  0.0847
    4MPD1    C314026   0.317   3.452  16.491 -0.0170  1.0360  0.2462
    4MPD1    C414027   0.180   3.469  16.488 -0.0256  0.9586 -0.1659
    4MPD1    C514028   0.128   3.521  16.375  0.6680 -0.6795  0.3708
    4MPD1     H14029   0.502   3.465  16.381 -0.3779  2.5472 -1.4112
    4MPD1    H114030   0.110   3.452  16.570 -0.1710 -0.0183 -0.4873
    4MPD1    H214031   0.151   3.589  16.178  3.6204 -0.8244 -2.0138
    4MPD1    H314032   0.020   3.525  16.365  0.9122  1.4627 -1.4656
    4MPD1     N14033   0.382   3.410  16.612 -0.2896  0.0250  0.1154
    4MPD1    H514034   0.483   3.414  16.615 -0.3048  1.1194 -0.7670
    4MPD1    N114035   0.412   3.540  16.151 -0.0404  0.1922 -0.1717
    4MPD1    H614036   0.490   3.478  16.129 -1.8517 -1.5619 -1.5531
    4MPD1    H714037   0.357   3.559  16.068 -2.5956  0.5416  1.6172
    1TCq1    O114038   2.748   1.083  10.969  0.4863 -0.1688 -0.6930
    1TCq1    C114039   2.853   1.165  10.950  0.2137 -0.6587  0.5920
    1TCq1    O214040   2.934   1.155  10.858 -0.2540 -0.5999 -0.1466
    1TCq1    C214041   2.829   1.286  11.018  0.2029  0.0648  0.0484
    1TCq1    C314042   2.702   1.329  11.013 -0.1556 -0.3971 -0.0868
    1TCq1    C414043   2.677   1.450  11.070  0.1024  0.1465 -0.2930
    1TCq1    C514044   2.754   1.487  11.177 -0.4240  0.4021 -0.0232
    1TCq1    C614045   2.887   1.446  11.173  0.2288  0.4441 -0.3467
    1TCq1    C714046   2.925   1.344  11.094 -0.1735 -0.5387  0.3266
    1TCq1    C814047   2.983   1.477  11.272  0.2032  0.4312 -0.0359
    1TCq1    O414048   3.092   1.422  11.263  0.5183 -0.2738 -0.5363
    1TCq1    C914049   2.539   1.490  11.069  0.5778  0.3562  0.0038
    1TCq1    O514050   2.468   1.450  10.975 -0.2500  0.5165 -0.1707
    1TCq1    O614051   2.493   1.555  11.166 -0.2381  0.5048  0.0101
    1TCq1    H114052   2.707   1.096  11.058  0.4641  1.9148 -1.0210
    1TCq1    H214053   2.641   1.304  10.927  0.6979 -2.2002 -0.1523
    1TCq1    H314054   2.724   1.565  11.246  0.5629 -1.3901  2.4071
    1TCq1    H414055   3.024   1.301  11.080  0.4291  0.7988  0.4120
    2MPD1     C14056   3.201   1.712  11.664  0.1415 -0.1411  0.4590
    2MPD1    C114057   3.092   1.794  11.626  0.7760 -0.8595  0.2321
    2MPD1    C214058   3.001   1.743  11.531  0.1219  0.3261  0.7742
    2MPD1    C314059   3.036   1.629  11.460 -0.6293 -0.3902 -0.1153
    2MPD1    C414060   3.150   1.554  11.495  0.3847 -0.3982  0.1480
    2MPD1    C514061   3.230   1.601  11.602 -0.5968 -0.2518  0.4774
    2MPD1     H14062   2.916   1.797  11.493 -0.7633 -1.3587  0.3411
    2MPD1    H114063   3.179   1.461  11.448  1.2397  0.2281 -0.5515
    2MPD1    H214064   3.271   1.737  11.742  0.6687  1.2197 -0.4470
    2MPD1    H314065   3.313   1.545  11.643 -0.9646 -0.2758  1.1814
    2MPD1     N14066   2.955   1.588  11.350  1.0474  0.0629 -0.6703
    2MPD1    H514067   2.873   1.645  11.330 -0.7505 -1.6070  1.8042
    2MPD1    N114068   3.063   1.918  11.695  0.3194 -0.0019 -0.3959
    2MPD1    H614069   3.144   1.965  11.736 -0.2224  1.1647 -0.6776
    2MPD1    H714070   3.006   1.987  11.649  0.5554 -0.1255 -0.8760
    1TCq1    O114071   0.057   0.085   0.181  0.1735  0.0802  0.2614
    1TCq1    C114072   4.682   4.712   0.157  0.1209  0.5374 -0.2158
    1TCq1    O214073   4.703   4.618   0.081  0.2563  0.0908  0.5226
    1TCq1    C214074   4.604   4.716   0.277 -0.5615 -0.3849  0.1210
    1TCq1    C314075   4.605   4.600   0.347  0.3693  0.2378  0.8021
    1TCq1    C414076   4.532   4.600   0.463 -0.3209 -0.1661  0.2399
    1TCq1    C514077   4.478   4.716   0.512  0.3095  0.2823 -0.4721
    1TCq1    C614078   4.475   0.105   0.431 -0.3971  0.0511 -0.7506
    1TCq1    C714079   4.550   0.112   0.320  0.3876  0.2266 -0.3488
    1TCq1    C814080   4.376   0.208   0.445 -0.4745  0.1602 -0.7592
    1TCq1    O414081   4.387   0.312   0.386 -0.1892  0.1843  0.2068
    1TCq1    C914082   4.572   4.505   0.555 -0.0875  0.1105 -0.5922
    1TCq1    O514083   4.635   4.405   0.506 -0.8590 -0.1154  0.3433
    1TCq1    O614084   4.520   4.512   0.672 -0.4377  0.1820  0.4717
    1TCq1    H114085   0.039   0.138   0.262  0.8216  0.6361  0.0475
    1TCq1    H214086   4.649   4.516   0.294  1.8408  2.3246 -1.2933
    1TCq1    H314087   4.435   4.715   0.612 -2.3836 -2.8536 -1.6176
    1TCq1    H414088   4.536   0.186   0.241  2.0694 -0.3526 -1.1812
    2MPD1     C14089   3.970   0.432   0.674  0.3193 -0.2198  0.7310
    2MPD1    C114090   3.948   0.294   0.670  0.6608 -0.4404 -0.4416
    2MPD1    C214091   4.052   0.220   0.618 -0.4498  0.0681 -0.6395
    2MPD1    C314092   4.167   0.272   0.567 -0.6074 -0.3435 -0.6980
    2MPD1    C414093   4.185   0.409   0.567 -0.5407  0.2371  0.3443
    2MPD1    C514094   4.086   0.487   0.629 -0.4752 -0.5088  0.5356
    2MPD1     H14095   4.052   0.111   0.611  0.1014  0.1592 -2.0390
    2MPD1    H114096   4.274   0.465   0.538  1.0698 -2.7037 -0.4143
    2MPD1    H214097   3.899   0.492   0.729  2.0347  1.3625  1.2113
    2MPD1    H314098   4.103   0.589   0.660  4.6308 -0.5423 -2.1385
    2MPD1     N14099   4.272   0.177   0.534  0.5334 -0.6446 -0.6705
    2MPD1    H514100   4.259   0.078   0.554  0.7979 -0.4694  0.3601
    2MPD1    N114101   3.842   0.236   0.728 -0.3019 -0.0691  0.2932
    2MPD1    H614102   3.766   0.303   0.735 -0.5271 -0.0591 -2.3657
    2MPD1    H714103   3.812   0.154   0.676 -0.7487 -0.8898  1.8417
    1MPD1     C14104   4.141   3.235  11.912  0.3652 -0.1850  0.2097
    1MPD1    C114105   4.050   3.286  11.992  0.0003  0.9247 -0.4335
    1MPD1    C214106   4.058   3.423  12.003 -0.3880  0.1578 -0.7321
    1MPD1    C314107   4.152   3.504  11.943  0.4400  0.1849  0.1063
    1MPD1    C414108   4.236   3.454  11.849  0.5086 -0.3135 -0.4058
    1MPD1    C514109   4.229   3.319  11.836 -0.5378  1.1116 -0.3129
    1MPD1     H14110   3.982   3.473  12.062 -1.6946 -0.3845 -1.9322
    1MPD1    H114111   4.308   3.513  11.794  0.9981 -0.2005  0.3478
    1MPD1    H214112   4.145   3.128  11.898  1.0409 -0.1202 -0.0546
    1MPD1    H314113   4.289   3.279  11.754  0.1350  1.2444  0.1146
    1MPD1     N14114   4.153   3.644  11.987  0.2795 -0.2863 -0.0151
    1MPD1    H514115   4.084   3.663  12.059  0.1956 -0.7152  0.0154
    1MPD1    N114116   3.947   3.208  12.045  0.7797  0.7009  0.1774
    1MPD1    H614117   3.905   3.247  12.129 -1.3468 -0.0130 -0.5494
    1MPD1    H714118   3.971   3.109  12.049 -0.7888  0.1858 -2.7475
    2MPD1     C14119   2.828   2.733  11.811  0.6754 -0.6959  0.2887
    2MPD1    C114120   2.951   2.792  11.831 -0.1546 -0.6015 -0.6235
    2MPD1    C214121   3.051   2.775  11.736 -0.2439  0.0161  0.2574
    2MPD1    C314122   3.018   2.690  11.627  0.2081 -0.9833 -0.4999
    2MPD1    C414123   2.893   2.637  11.606  0.2139 -0.2238  0.2603
    2MPD1    C514124   2.802   2.654  11.705 -0.3889  0.0865 -0.0107
    2MPD1     H14125   3.148   2.823  11.737  1.3693 -3.2281  0.6953
    2MPD1    H114126   2.852   2.589  11.518 -1.8503 -2.8126  2.6586
    2MPD1    H214127   2.753   2.750  11.887  0.2546  2.3240 -0.7933
    2MPD1    H314128   2.702   2.612  11.702 -1.5929  2.8668  1.1655
    2MPD1     N14129   3.117   2.687  11.534 -0.7074 -0.3762  0.6022
    2MPD1    H514130   3.198   2.748  11.537 -1.3630  0.5059  0.2764
    2MPD1    N114131   2.971   2.890  11.930  0.0963 -0.3538  0.8061
    2MPD1    H614132   2.921   2.864  12.015  0.2585 -3.0863  0.0641
    2MPD1    H714133   3.069   2.914  11.942  0.2900 -0.7603  0.0107
    3MPD1     C14134   3.370   2.009  10.799  0.4733 -0.6157  0.6467
    3MPD1    C114135   3.336   1.984  10.930 -0.2212  0.5543  0.2993
    3MPD1    C214136   3.315   2.093  11.013  1.2605 -0.0616 -0.6586
    3MPD1    C314137   3.336   2.226  10.978 -0.3659 -0.1675  0.3148
    3MPD1    C414138   3.381   2.245  10.847  0.0052  0.3223 -0.3252
    3MPD1    C514139   3.398   2.138  10.758 -0.4670 -0.0680 -0.1229
    3MPD1     H14140   3.273   2.081  11.112  0.4506 -0.4387 -1.0431
    3MPD1    H114141   3.431   2.338  10.822  0.9163  0.3106  1.4161
    3MPD1    H214142   3.383   1.933  10.722  1.4703 -0.8361  1.0331
    3MPD1    H314143   3.456   2.156  10.668 -0.2047  0.8431  0.2199
    3MPD1     N14144   3.337   2.332  11.077  0.7725  0.0061  0.1807
    3MPD1    H514145   3.317   2.304  11.173 -2.8948 -2.1446 -1.1981
    3MPD1    N114146   3.282   1.859  10.966  0.3713 -0.0728 -0.5204
    3MPD1    H614147   3.286   1.846  11.066 -0.6227  0.2768 -0.4349
    3MPD1    H714148   3.341   1.789  10.922  0.1455  0.0006 -0.9424
    4MPD2     C14149   3.685   3.601  12.041  0.6489  0.5117 -1.0129
    4MPD2    C114150   3.712   3.712  11.969  0.7262  0.4744 -0.1783
    4MPD2    C214151   3.654   3.726  11.847 -0.2608 -0.2475  0.4027
    4MPD2    C314152   3.559   3.640  11.796  0.3815  0.6349  0.5598
    4MPD2    C414153   3.530   3.530  11.870 -0.3302  0.0080  0.4819
    4MPD2    C514154   3.592   3.513  11.990  0.4846  0.5083 -0.3874
    4MPD2     H14155   3.679   3.805  11.777  0.2054 -1.7821 -1.1554
    4MPD2    H114156   3.468   3.454  11.823 -0.1940  1.1366 -1.5053
    4MPD2    H214157   3.743   3.575  12.129  1.6004  5.9784 -0.0200
    4MPD2    H314158   3.566   3.421  12.040  0.2719  1.1517  0.6911
    4MPD2     N14159   3.497   3.650  11.665 -0.1243 -0.0543  0.4177
    4MPD2    H514160   3.438   3.576  11.629  0.8765  0.1669 -1.6738
    4MPD2    N114161   3.798   3.809  12.011 -0.1336 -0.0408  0.3237
    4MPD2    H714162   3.807   3.884  11.943 -2.3752 -0.7249 -0.7246
    5TMC3    C114163   3.986   3.906  12.113 -0.1253 -0.1531 -0.4738
    5TMC3    C214164   4.109   3.846  12.122  0.6712 -0.2567  0.4025
    5TMC3    C314165   4.197   3.865  12.018 -0.6020  0.1123 -0.1197
    5TMC3    C414166   3.966   4.008  12.019  0.4928  0.2419 -0.3462
    5TMC3    C514167   4.056   4.033  11.921  0.1704  0.1431 -0.5655
    5TMC3    C614168   4.172   3.958  11.923 -0.1943 -0.2946  0.3666
    5TMC3     C14169   3.882   3.803  12.119 -0.0662 -0.7649 -0.2156
    5TMC3     O14170   3.913   3.706  12.185  0.0225 -0.0550  0.1118
    5TMC3     H14171   4.125   3.770  12.198 -0.5695 -3.4219 -2.5524
    5TMC3    H114172   3.865   4.046  12.010 -0.8355 -2.6048  2.3010
    5TMC3    H214173   4.248   3.964  11.846 -0.8325  3.1714  0.0120
    5TMC3    C714174   3.994   4.029  11.792  0.4211 -0.3372  0.8763
    5TMC3    C814175   4.237   3.741  11.949 -0.5453  0.0196 -0.2324
    5TMC3    O114176   3.908   3.943  11.784  0.6899 -0.6838  0.4244
    5TMC3    O214177   4.318   3.742  11.861 -0.1686 -0.7766  0.2900
    6TMC3    C114178   3.207   2.626  11.332 -0.3182 -0.2459  0.4122
    6TMC3    C214179   3.245   2.526  11.249  0.5062  0.1585 -0.0072
    6TMC3    C314180   3.335   2.554  11.154 -0.1250 -0.1033  0.1742
    6TMC3    C414181   3.260   2.753  11.325 -0.0984  0.1096 -0.7510
    6TMC3    C514182   3.356   2.780  11.230 -0.2890 -0.1805  0.8507
    6TMC3    C614183   3.382   2.683  11.135  0.3161 -0.0890 -0.1481
    6TMC3     C14184   3.109   2.608  11.427 -0.3304  0.1580  0.0805
    6TMC3     O14185   3.033   2.520  11.397 -0.4981  0.0125 -0.0858
    6TMC3     H14186   3.205   2.426  11.257  1.8756 -0.3164  1.0181
    6TMC3    H114187   3.212   2.835  11.378  2.9328  0.9146  0.7449
    6TMC3    H214188   3.464   2.695  11.065 -1.1798  0.1113 -1.8438
    6TMC3    C714189   3.401   2.916  11.209  1.1333  0.8613  0.5939
    6TMC3    C814190   3.350   2.466  11.041 -0.4223 -0.3067 -0.4858
    6TMC3    O114191   3.367   2.995  11.298 -0.0766 -0.5061  0.5231
    6TMC3    O214192   3.365   2.519  10.928 -0.3237  0.3273 -0.4114
    7MPD2     C14193   3.916   4.087  11.298 -0.2737 -0.1760 -0.0191
    7MPD2    C114194   3.841   4.021  11.392 -0.7914 -1.0267 -0.0588
    7MPD2    C214195   3.877   4.036  11.518 -0.0161 -0.0100 -0.1308
    7MPD2    C314196   3.985   4.108  11.562  1.1669 -0.2740 -0.0938
    7MPD2    C414197   4.058   4.182  11.467  0.0031 -0.0374 -0.1035
    7MPD2    C514198   4.018   4.172  11.337 -0.2074 -0.5533 -0.2166
    7MPD2     H14199   3.817   3.990  11.597  0.0421  0.3457  0.1218
    7MPD2    H114200   4.139   4.246  11.499  0.0950 -0.3805  0.3543
    7MPD2    H214201   3.893   4.070  11.193 -0.9873  0.2419  0.0699
    7MPD2    H314202   4.077   4.227  11.265  0.7496 -1.0361  0.1928
    7MPD2     N14203   4.031   4.116  11.695 -0.4272  0.0652  0.3662
    7MPD2    H514204   4.104   4.182  11.720 -0.3112  0.0004  0.1991
    7MPD2    N114205   3.715   3.956  11.367  0.6527 -0.0676  0.1013
    7MPD2    H714206   3.671   3.925  11.452  0.6339  2.2012  0.9253
    8TMC3    C114207   3.544   3.831  11.258 -0.1786  0.2602  0.1047
    8TMC3    C214208   3.545   3.706  11.208  0.5964  0.0683  0.5005
    8TMC3    C314209   3.498   3.594  11.276  0.8493 -0.0729 -0.3656
    8TMC3    C414210   3.480   3.853  11.373  0.1286 -0.2814  0.0989
    8TMC3    C514211   3.438   3.751  11.450 -0.3581  0.0261 -0.2059
    8TMC3    C614212   3.437   3.621  11.396  0.8112  0.1662 -0.1950
    8TMC3     C14213   3.663   3.914  11.246  0.3311 -0.6829 -0.3208
    8TMC3     O14214   3.708   3.930  11.138  0.4342 -0.0555  0.1074
    8TMC3     H14215   3.619   3.672  11.136  2.2543  1.8611  1.3858
    8TMC3    H114216   3.468   3.955  11.409  0.9075 -0.7624  1.6986
    8TMC3    H214217   3.406   3.536  11.456  1.3256 -0.2972 -0.5794
    8TMC3    C714218   3.512   3.752  11.578 -0.0670  0.2396  0.1671
    8TMC3    C814219   3.511   3.453  11.242 -0.1813 -0.0157 -0.4638
    8TMC3    O114220   3.578   3.854  11.593 -0.6357 -1.1071  0.1998
    8TMC3    O214221   3.481   3.378  11.334 -0.6203 -0.0926  0.2927
    9MPD2     C14222   3.668   3.282  10.960  0.2389  0.1815  0.3874
    9MPD2    C114223   3.584   3.291  11.066  0.2481  0.1290 -0.3436
    9MPD2    C214224   3.530   3.176  11.123 -0.2744 -0.5642  0.2486
    9MPD2    C314225   3.551   3.056  11.059  0.3748 -0.7289 -0.1991
    9MPD2    C414226   3.633   3.055  10.951  0.4394  0.3852  0.2392
    9MPD2    C514227   3.697   3.166  10.902  0.2234  0.4768  0.2050
    9MPD2     H14228   3.461   3.191  11.206  1.2103  2.2032  0.9809
    9MPD2    H114229   3.655   2.957  10.910  0.0698 -0.7677  2.8043
    9MPD2    H214230   3.728   3.366  10.926  2.4410 -1.0967  1.1314
    9MPD2    H314231   3.774   3.178  10.826 -1.5517  1.1625 -1.4714
    9MPD2     N14232   3.481   2.936  11.091 -0.5794  0.0478 -1.0625
    9MPD2    H514233   3.509   2.869  11.020  1.3458  0.3433 -0.5985
    9MPD2    N114234   3.562   3.422  11.113 -0.4042  0.2672  0.3219
    9MPD2    H714235   3.596   3.497  11.053 -0.7987  1.8071  2.0316
    1MPD1     C14236   3.557   2.530   0.002  0.4755 -0.0921  0.6382
    1MPD1    C114237   3.641   2.432  17.638 -0.6083 -0.4090 -0.2830
    1MPD1    C214238   3.598   2.378  17.516 -0.0218  0.6273 -0.2111
    1MPD1    C314239   3.475   2.407  17.456 -0.4465 -0.1744  0.0960
    1MPD1    C414240   3.400   2.509  17.510  0.1936  0.1384  0.3547
    1MPD1    C514241   3.435   2.569  17.627  0.1508  0.4083  0.9005
    1MPD1     H14242   3.659   2.305  17.465 -0.1851  0.9536 -0.8698
    1MPD1    H114243   3.307   2.542  17.465  0.7910  0.6345 -0.5153
    1MPD1    H214244   3.570   2.566   0.104 -0.2722  0.8736  0.3928
    1MPD1    H314245   3.372   2.651  17.660  1.3331  2.0857 -0.9630
    1MPD1     N14246   3.432   2.358  17.328 -0.4274  0.9295  0.2782
    1MPD1    H514247   3.334   2.374  17.305 -0.0680  2.6706 -0.0708
    1MPD1    N114248   3.753   2.377   0.012  0.3344 -0.2295 -0.1385
    1MPD1    H614249   3.809   2.332  17.630 -0.5291 -0.8715 -0.4142
    1MPD1    H714250   3.810   2.433   0.075 -0.3600 -1.3364  1.4943
    2MPD1     C14251   3.768   1.964  16.455  0.1783 -0.0357 -0.1338
    2MPD1    C114252   3.788   1.876  16.565  0.0970  0.0795 -0.2911
    2MPD1    C214253   3.710   1.901  16.679  0.0268 -0.6065 -0.3825
    2MPD1    C314254   3.618   2.002  16.684 -1.0924 -0.2629 -0.4785
    2MPD1    C414255   3.608   2.083  16.571  0.6804  0.0394 -0.4604
    2MPD1    C514256   3.673   2.060  16.454 -0.4413  0.1716  0.6358
    2MPD1     H14257   3.723   1.846  16.771  0.0893  0.4938  0.2664
    2MPD1    H114258   3.543   2.170  16.579  0.6799 -0.2936  3.2248
    2MPD1    H214259   3.822   1.935  16.366  0.2028 -0.2108 -0.0618
    2MPD1    H314260   3.667   2.131  16.373 -3.4346  1.5198  2.0447
    2MPD1     N14261   3.545   2.020  16.807  0.2184 -0.0850  0.2898
    2MPD1    H514262   3.572   1.963  16.887  0.9862 -2.0843 -1.3960
    2MPD1    N114263   3.866   1.755  16.544 -0.2517 -0.3254  0.1583
    2MPD1    H614264   3.927   1.755  16.463 -0.1647  1.1922  0.2229
    2MPD1    H714265   3.921   1.724  16.624 -0.0281  0.6056  0.3633
    3TCq2    C114266   3.427   2.086  16.818 -0.2623  0.2712  0.7002
    3TCq2    O214267   3.362   2.142  16.732 -0.2041  0.0315 -0.0940
    3TCq2    C214268   3.380   2.099  16.960 -0.5855  0.4269  0.2668
    3TCq2    C314269   3.243   2.098  16.983  0.3130  0.4914  0.2719
    3TCq2    C414270   3.196   2.135  17.106 -0.0485 -0.2515  0.3897
    3TCq2    C514271   3.282   2.174  17.205  0.8289  0.2631 -0.0707
    3TCq2    C614272   3.413   2.165  17.187  0.1498 -0.1519  0.8373
    3TCq2    C714273   3.464   2.141  17.059 -0.8231 -0.1423 -0.3487
    3TCq2    C814274   3.503   2.256  17.259 -0.5191  0.0772  0.1696
    3TCq2    O414275   3.622   2.235  17.255  0.5821  0.2463 -0.1093
    3TCq2    C914276   3.063   2.145  17.132 -0.5965 -0.3409  0.2640
    3TCq2    O514277   3.025   2.234  17.210  0.1721 -0.3255  0.5932
    3TCq2    O614278   2.989   2.097  17.048 -0.0740 -0.0824 -0.5664
    3TCq2    H214279   3.169   2.084  16.905  0.5512  2.4049 -0.2963
    3TCq2    H314280   3.239   2.192  17.303  3.4165 -1.8492  1.4476
    3TCq2    H414281   3.568   2.157  17.034 -0.9281 -0.4682 -0.9880
    1TCq1    O114282   1.402   0.822  12.206 -0.7353  0.1673 -0.0855
    1TCq1    C114283   1.311   0.848  12.306  0.8114  0.2187 -0.4217
    1TCq1    O214284   1.192   0.812  12.296  0.0028 -0.1658  0.2506
    1TCq1    C214285   1.373   0.858  12.439  0.2102 -0.5564 -0.5775
    1TCq1    C314286   1.297   0.808  12.544 -0.1723 -1.0073  0.3054
    1TCq1    C414287   1.329   0.850  12.669  0.2607 -0.1311  0.7732
    1TCq1    C514288   1.433   0.940  12.694  0.1136 -0.1150  0.2323
    1TCq1    C614289   1.501   0.986  12.588  0.0707 -0.4206  0.4096
    1TCq1    C714290   1.470   0.952  12.463  0.3787  0.3812 -0.6304
    1TCq1    C814291   1.584   1.101  12.614  0.2687  0.4885  0.3227
    1TCq1    O414292   1.598   1.184  12.527 -0.6600  0.5022  0.2979
    1TCq1    C914293   1.244   0.808  12.782 -0.4472  0.6000  0.0009
    1TCq1    O514294   1.247   0.875  12.890  0.3435 -0.1797 -0.9030
    1TCq1    O614295   1.155   0.725  12.751  0.1916  0.0982  0.2933
    1TCq1    H114296   1.494   0.834  12.236 -0.4702  0.6141 -1.0777
    1TCq1    H214297   1.215   0.738  12.530 -1.3957  0.3113  0.9043
    1TCq1    H314298   1.444   0.971  12.798  0.4314  0.7658 -0.0635
    1TCq1    H414299   1.502   1.019  12.384  0.5975 -2.0197 -2.5532
    2MPD2     C14300   1.712   1.336  12.748 -0.3178  0.3051  0.1186
    2MPD2    C114301   1.723   1.201  12.787 -0.9807  0.1071 -0.5631
    2MPD2    C214302   1.794   1.171  12.896 -0.4047 -0.4549  0.4691
    2MPD2    C314303   1.869   1.273  12.960  0.8266 -0.9730  0.5527
    2MPD2    C414304   1.864   1.405  12.914  0.4318 -0.0067 -0.8327
    2MPD2    C514305   1.783   1.434  12.811 -0.4795  0.4178 -0.2590
    2MPD2     H14306   1.805   1.066  12.922 -0.0213 -0.7474 -0.8607
    2MPD2    H114307   1.914   1.491  12.958  1.5384 -0.0588 -1.9819
    2MPD2    H214308   1.644   1.363  12.668 -0.6246 -1.0693 -0.0895
    2MPD2    H314309   1.790   1.537  12.778 -1.0908  0.1570 -1.1892
    2MPD2     N14310   1.949   1.229  13.068 -0.2379 -0.0785 -0.4752
    2MPD2    H514311   1.952   1.129  13.087 -1.5497  0.2793  1.6052
    2MPD2    N114312   1.656   1.095  12.728  0.4839  0.3365  0.2803
    2MPD2    H714313   1.646   1.009  12.781  1.2476  0.4223  0.5746
    3TCq1    O114314   2.308   0.920  13.222  0.6362  0.1090 -0.1817
    3TCq1    C114315   2.299   0.955  13.352 -0.5357  0.8886 -0.4153
    3TCq1    O214316   2.278   0.869  13.436 -0.0642 -0.6159 -0.2480
    3TCq1    C214317   2.216   1.077  13.355 -0.7440  0.3685 -0.2574
    3TCq1    C314318   2.204   1.129  13.484 -0.3033 -0.2893 -0.1873
    3TCq1    C414319   2.122   1.240  13.501 -0.1252 -0.1110  0.2024
    3TCq1    C514320   2.053   1.290  13.393  0.1894  0.2967  0.0792
    3TCq1    C614321   2.062   1.231  13.273  0.7018  0.3661 -0.0533
    3TCq1    C714322   2.146   1.126  13.246 -0.5319  0.4861 -1.1012
    3TCq1    C814323   2.008   1.307  13.162 -0.2962 -0.1245 -0.0387
    3TCq1    O414324   1.993   1.426  13.181 -0.2080 -0.4234 -0.5394
    3TCq1    C914325   2.104   1.295  13.630  0.5198  0.8509  0.5737
    3TCq1    O514326   2.168   1.244  13.727  0.1640  0.3283  0.2950
    3TCq1    O614327   2.050   1.413  13.633 -0.3363  0.5390  0.4805
    3TCq1    H114328   2.330   0.999  13.168  1.8912 -0.3165 -0.2826
    3TCq1    H214329   2.262   1.090  13.566  1.9803  2.2152 -0.6118
    3TCq1    H314330   1.987   1.374  13.413 -0.5180 -0.0143 -0.9663
    3TCq1    H414331   2.153   1.088  13.145 -2.8355 -3.6977  0.3388
    1MPD2     C14332   0.833   3.112  14.227 -0.0580 -0.1036  0.0600
    1MPD2    C114333   0.762   3.163  14.334 -0.4030  0.2138 -0.2688
    1MPD2    C214334   0.734   3.081  14.443 -0.0826  0.0089  0.0382
    1MPD2    C314335   0.776   2.945  14.443 -0.0221  0.2208  0.0749
    1MPD2    C414336   0.837   2.894  14.329 -0.2284 -0.3527  0.2016
    1MPD2    C514337   0.871   2.980  14.231  0.5111 -0.3101  0.1123
    1MPD2     H14338   0.683   3.125  14.528 -1.9989  1.1145 -1.6884
    1MPD2    H114339   0.864   2.790  14.318  2.7455  0.7088 -2.5777
    1MPD2    H214340   0.877   3.176  14.152  1.6816 -1.4673 -0.0833
    1MPD2    H314341   0.934   2.942  14.151 -1.4845  0.8236 -2.0077
    1MPD2     N14342   0.775   2.872  14.560 -0.0500 -0.4441  0.6421
    1MPD2    H514343   0.796   2.773  14.554  2.0873  0.0575  0.0935
    1MPD2    N114344   0.718   3.298  14.322  0.1530  0.3428  0.5547
    1MPD2    H714345   0.733   3.349  14.235  0.4711  0.6962  0.8170
    2TMC3    C114346   0.672   3.517  14.396  0.5191  0.6710  0.0714
    2TMC3    C214347   0.627   3.573  14.511 -0.2424 -0.6111 -0.7959
    2TMC3    C314348   0.700   3.669  14.576 -0.6442  0.5534 -0.3736
    2TMC3    C414349   0.785   3.564  14.333  0.5651 -0.6132  0.4305
    2TMC3    C514350   0.853   3.656  14.397 -0.3255 -0.6779  0.7924
    2TMC3    C614351   0.819   3.709  14.517  0.4014  0.1469  0.7901
    2TMC3     C14352   0.677   3.377  14.426  0.4590 -0.5563  0.7504
    2TMC3     O14353   0.679   3.354  14.549 -0.6979 -0.5451 -0.0424
    2TMC3     H14354   0.527   3.551  14.545 -0.7844  2.5455 -0.3824
    2TMC3    H114355   0.828   3.516  14.246 -0.0911 -0.9122  0.2649
    2TMC3    H214356   0.883   3.780  14.569 -1.2370 -0.2054  3.3025
    2TMC3    C714357   0.997   3.668  14.355  0.4515  0.2332  0.3915
    2TMC3    C814358   0.686   3.657  14.722  0.0285  0.4852  0.1458
    2TMC3    O114359   1.017   3.672  14.233 -0.5543 -0.4952 -0.0083
    2TMC3    O214360   0.694   3.758  14.789 -0.2002 -0.4944  0.4975
    3TCq1    O114361   1.848   3.692  15.179  0.1224 -0.2945  0.0629
    3TCq1    C114362   1.933   3.623  15.097  0.2755  0.0195  0.0832
    3TCq1    O214363   2.029   3.675  15.047  0.7123 -0.1430 -0.2244
    3TCq1    C214364   1.821   3.569  15.020 -0.8426  0.5722  0.2065
    3TCq1    C314365   1.745   3.488  15.099  0.2130  0.0168  0.4226
    3TCq1    C414366   1.625   3.454  15.043  0.3608  0.6440  1.2641
    3TCq1    C514367   1.575   3.518  14.931  0.1228 -0.3554 -0.3096
    3TCq1    C614368   1.647   3.620  14.869 -0.2162 -0.3552  0.4489
    3TCq1    C714369   1.778   3.636  14.908  0.8525  0.3218  0.2383
    3TCq1    C814370   1.621   3.644  14.724  0.3493 -0.6049 -0.5818
    3TCq1    O414371   1.713   3.653  14.647 -0.1981 -0.1190 -0.2539
    3TCq1    C914372   1.549   3.353  15.104  0.0233 -0.0168  0.2201
    3TCq1    O514373   1.426   3.373  15.100  0.0185  0.0993 -0.3060
    3TCq1    O614374   1.601   3.284  15.197 -0.3506 -0.4856 -0.0343
    3TCq1    H114375   1.752   3.671  15.177 -0.2376  1.3493  0.8078
    3TCq1    H214376   1.770   3.436  15.190  0.2293  0.7523  0.8373
    3TCq1    H314377   1.482   3.479  14.892 -0.2565 -1.0864  1.3307
    3TCq1    H414378   1.853   3.685  14.847 -0.2162  0.0622 -1.2875
    4MPD2     C14379   1.500   3.614  14.447 -1.0357  0.2136  0.5614
    4MPD2    C114380   1.430   3.610  14.562 -0.2896 -0.9369 -0.4507
    4MPD2    C214381   1.297   3.622  14.555 -0.0101  0.1621 -0.3264
    4MPD2    C314382   1.218   3.615  14.441  0.3032 -0.3186 -0.1137
    4MPD2    C414383   1.291   3.600  14.327  0.6018 -0.9694 -0.3239
    4MPD2    C514384   1.427   3.602  14.329  0.0494  0.4548 -0.0379
    4MPD2     H14385   1.247   3.642  14.649  0.9539  1.3011 -0.0538
    4MPD2    H114386   1.237   3.588  14.234 -1.3199  2.3097  0.3716
    4MPD2    H214387   1.608   3.602  14.447 -1.0958 -0.3645  0.2365
    4MPD2    H314388   1.465   3.574  14.232  2.0773 -2.3052  1.5581
    4MPD2     N14389   1.082   3.632  14.459 -0.6643 -0.2803  0.1503
    4MPD2    H514390   1.042   3.622  14.552 -0.4412 -0.5946  0.2121
    4MPD2    N114391   1.488   3.620  14.692 -0.4032 -0.2879  1.0009
    4MPD2    H714392   1.427   3.618  14.773 -3.5150  2.3556 -1.2700
    5TMC2    C114393   0.826   2.917  15.006  0.7519 -0.5136  0.3751
    5TMC2    C214394   0.959   2.893  14.994  0.5696 -0.0521  0.6335
    5TMC2    C314395   1.000   2.838  14.877  0.1560 -0.4538 -0.0749
    5TMC2    C414396   0.739   2.877  14.911  0.0713 -0.4611  0.0865
    5TMC2    C514397   0.783   2.822  14.796  0.1781  0.1091  0.3470
    5TMC2    C614398   0.910   2.790  14.786  0.7907 -0.2444  0.2303
    5TMC2     C14399   0.802   3.045  15.070 -0.1818 -0.0660  0.6252
    5TMC2     O14400   0.884   3.081  15.159  0.3380 -0.2733  0.0023
    5TMC2     H14401   1.038   2.941  15.050  1.1551  1.0506 -1.1179
    5TMC2    H114402   0.633   2.895  14.923 -0.2356 -1.7195 -0.6307
    5TMC2    H214403   0.959   2.751  14.698 -1.8231 -3.8048  0.3338
    5TMC2    C714404   0.739   2.910  14.689  0.0921 -0.1362  0.3269
    5TMC2    C814405   1.132   2.854  14.828  0.0961  0.2244 -1.0531
    5TMC2    O114406   0.712   3.022  14.727  0.3598 -0.1691  0.2740
    5TMC2    O214407   1.167   2.845  14.712 -0.4639  0.1018  0.3361
    5TMC2    O514408   1.214   2.818  14.928 -0.0575 -0.4472 -0.3138
    5TMC2    H514409   1.171   2.802  15.014 -0.3021  0.5444 -0.2477
    6MPD2     C14410   0.659   3.525  14.991  0.1171  0.6194  0.2989
    6MPD2    C114411   0.653   3.450  14.876 -0.1778  0.5276 -0.3300
    6MPD2    C214412   0.664   3.312  14.881 -0.1888  0.4143  0.2007
    6MPD2    C314413   0.693   3.253  15.001 -0.3174  0.2098 -0.2870
    6MPD2    C414414   0.703   3.328  15.121  0.8900  0.7004  0.5898
    6MPD2    C514415   0.681   3.465  15.110 -0.1846 -0.3666  0.0421
    6MPD2     H14416   0.676   3.262  14.785 -1.8503  1.7265 -0.6959
    6MPD2    H114417   0.715   3.272  15.213 -3.4524  0.5953  1.0695
    6MPD2    H214418   0.642   3.631  14.998  2.1666  0.9163  0.7233
    6MPD2    H314419   0.681   3.521  15.203 -1.0510 -0.3384  0.0279
    6MPD2     N14420   0.720   3.114  14.991  0.3042 -0.3602  0.4822
    6MPD2    H514421   0.690   3.072  14.903 -0.2039  1.1058 -0.0424
    6MPD2    N114422   0.658   3.520  14.753  0.1698 -0.0029 -0.6104
    6MPD2    H714423   0.671   3.457  14.674 -1.7368 -0.3206 -0.6681
  945NH3     N114424   2.519   4.247   3.444  0.3271  0.4960  0.1997
  945NH3     H214425   2.455   4.170   3.461  0.1832  0.0292 -2.4557
  945NH3     H314426   2.473   4.276   3.359  0.6526 -1.3755 -0.6282
  945NH3     H414427   2.603   4.201   3.410  0.4869 -0.0382  1.3170
  946SOD     NA14428   0.935   3.524  15.960 -0.3720  0.0519 -0.1906
  947SOD     NA14429   1.740   3.040  15.462  0.0241 -0.1685  0.0867
  948SOD     NA14430   3.871   2.021   7.567  0.3843  0.0868 -0.2385
  949SOD     NA14431   1.386   4.300   3.912 -0.1069 -0.0769  0.0951
  950SOD     NA14432   2.067   0.380  10.713 -0.0837 -0.1583  0.3633
  951SOD     NA14433   4.354   4.685   1.195  0.1156  0.5333 -0.1058
  952SOD     NA14434   3.615   1.786  13.531  0.0489 -0.1935 -0.2724
  953SOD     NA14435   4.598   4.309   0.721 -0.2604 -0.2040 -0.5181
  954SOD     NA14436   3.916   0.971  14.287 -0.2935  0.4941 -0.0725
  955SOD     NA14437   3.249   3.982  14.543  0.3364 -0.1110  0.5401
  956SOD     NA14438   0.885   3.610   6.729 -0.0048  0.0137  0.0890
  957SOD     NA14439   1.332   2.214  10.707  0.1099  0.0440 -0.2481
  958SOD     NA14440   2.294   0.227  10.808 -0.2681  0.0765 -0.1202
  959SOD     NA14441   3.648   0.754  13.592  0.1352  0.8311 -0.4856
  960SOD     NA14442   0.494   0.757  15.271 -0.3343  0.3341 -0.1478
  961SOD     NA14443   2.827   1.418   1.966  0.0782 -0.0055 -0.0617
  962SOD     NA14444   3.179   0.196   2.216  0.0623 -0.1832 -0.3542
  963SOD     NA14445   3.793   4.661   8.893  0.0590  0.4280  0.2091
  964SOD     NA14446   1.019   1.154  11.974 -0.2111 -0.2365 -0.2949
  965SOD     NA14447   3.905   4.293   0.675  0.2795 -0.3613 -0.0050
  966SOD     NA14448   0.117   1.192   3.405  0.3660 -0.5359  0.1084
  967SOD     NA14449   2.821   3.034  16.541 -0.2587 -0.3031  0.1902
  968SOD     NA14450   1.180   3.817  10.956  0.4481 -0.2428  0.1387
  969SOD     NA14451   3.755   2.237  12.382 -0.5426  0.7792 -0.1645
  970SOD     NA14452   1.307   0.481  10.543  0.1010 -0.4269 -0.2428
  971SOD     NA14453   3.909   4.519  13.626  0.1417 -0.4581  0.3581
  972SOD     NA14454   4.593   0.276  10.393 -0.2730  0.1030 -0.2304
  973SOD     NA14455   1.385   1.254   9.916 -0.0919 -0.0978 -0.1133
  974SOD     NA14456   3.352   0.730  13.418 -0.0329  0.2210 -0.1208
  975SOD     NA14457   2.405   2.684   3.794 -0.2389 -0.0929  0.0995
  976SOD     NA14458   1.524   2.561  12.142 -0.2543 -0.1949  0.1971
  977SOD     NA14459   1.200   4.149  10.819 -0.1308  0.2476  0.1857
  978SOD     NA14460   2.183   1.178  14.580  0.1982  0.2117  0.0820
  979SOD     NA14461   0.634   1.835  12.470  0.6919 -0.0137  0.6630
  980SOD     NA14462   1.348   2.886  14.545 -0.2579 -0.6271  0.3868
  981SOD     NA14463   2.400   1.433  11.349 -0.3862 -0.6982  0.0691
  982SOD     NA14464   4.401   2.564   2.763  0.3232 -0.0775 -0.2917
  983SOD     NA14465   3.950   2.108  13.797  0.0607  0.2206 -0.1638
  984SOD     NA14466   2.332   1.117  11.298 -0.1014 -0.0173 -0.1168
  985SOD     NA14467   4.546   2.355   7.874  0.3941 -0.5013  0.0946
  986SOD     NA14468   4.559   2.029   0.647 -0.1773 -0.2998 -0.0220
  987SOD     NA14469   0.530   1.446   0.791 -0.4783 -0.1019  0.2041
  988SOD     NA14470   1.523   3.867  11.087 -0.3421  0.0799 -0.1107
  989SOD     NA14471   2.287   2.189  10.826  0.3373  0.5483 -0.0097
  990SOD     NA14472   1.337   0.814   0.372  0.0172  0.4150  0.0017
  991SOD     NA14473   2.857   1.943  17.006  0.0800 -0.1397  0.2734
  992SOD     NA14474   1.262   3.265  15.058 -0.1758 -0.4767  0.3198
  993SOD     NA14475   1.811   2.781   0.912 -0.2495 -0.1005  0.4086
  994SOD     NA14476   2.063   0.429  11.234  0.4420  0.1735 -0.1449
  995SOD     NA14477   3.125   1.048  14.761  0.2525 -0.2109 -0.1744
  996SOD     NA14478   2.042   1.286  11.381 -0.2505  0.0893 -0.0327
  997SOD     NA14479   2.726   4.181   7.411  0.1118  0.2080  0.3925
  998SOD     NA14480   0.853   4.454   9.064 -0.3357  0.2577 -0.3508
  999SOD     NA14481   0.082   1.793  10.760  0.0303  0.0775 -0.4010
 1000SOD     NA14482   3.758   1.826   0.353  0.4593 -0.4147 -0.8591
 1001SOD     NA14483   4.290   2.113   0.256  0.1124  0.0958  0.3846
 1002SOD     NA14484   2.992   1.972  13.254 -0.5649 -0.2230  0.0336
 1003SOD     NA14485   2.410   0.511  11.796  0.1233  0.4793 -0.4419
 1004SOD     NA14486   3.187   1.353  14.908  0.2520 -0.2897  0.1800
 1005SOD     NA14487   4.043   3.323  13.408 -0.8395 -0.6843 -0.3735
 1006SOD     NA14488   0.785   1.491   4.554  0.5377  0.2246 -0.3208
 1007SOD     NA14489   4.390   3.271  10.929 -0.1968  0.0484  0.3651
 1008SOD     NA14490   2.049   1.579  13.785  0.1061 -0.0635  0.0769
 1009SOD     NA14491   4.446   0.074   2.471 -0.5747 -0.0469 -0.0120
 1010SOD     NA14492   2.171   4.437  16.931  0.5071  0.2142  0.1313
 1011SOD     NA14493   1.143   4.459   2.537  0.4285  0.0053  0.1571
 1012SOL     OW14494   3.165   3.082   7.538 -0.4005 -0.1268 -0.7138
 1012SOL    HW114495   3.221   3.038   7.474 -2.0488  1.1194 -3.0294
 1012SOL    HW214496   3.082   3.069   7.493  0.5968  1.7880 -3.0849
 1013SOL     OW14497   3.694   3.667   8.245 -0.7061  0.2876 -0.2188
 1013SOL    HW114498   3.607   3.688   8.278 -0.8363 -1.1261  0.3248
 1013SOL    HW214499   3.708   3.579   8.280  1.0617  0.6786  0.0312
 1014SOL     OW14500   4.566   0.545   9.697 -0.1525  0.0302  0.2247
 1014SOL    HW114501   4.533   0.462   9.732  0.2624  0.5546  1.8541
 1014SOL    HW214502   4.614   0.582   9.772 -1.1733  1.1393  0.3297
 1015SOL     OW14503   4.260   0.756  13.032 -0.2859 -0.5052  0.6932
 1015SOL    HW114504   4.289   0.668  13.053 -3.7517 -1.8847 -0.2311
 1015SOL    HW214505   4.307   0.802  13.102 -0.5654 -1.6666  1.6431
 1016SOL     OW14506   1.556   4.188   1.523  0.3103 -0.0263 -0.0729
 1016SOL    HW114507   1.583   4.098   1.542 -0.0885 -0.7520 -2.9747
 1016SOL    HW214508   1.640   4.231   1.538 -0.1498  0.6369  0.5619
 1017SOL     OW14509   2.403   4.430   3.054 -0.8397 -0.1533 -0.2648
 1017SOL    HW114510   2.492   4.465   3.060 -1.8160  2.1903  0.7971
 1017SOL    HW214511   2.373   4.435   2.963  1.2254  2.0540 -0.8369
 1018SOL     OW14512   1.596   1.182   4.370  0.1728  0.4862  0.3590
 1018SOL    HW114513   1.560   1.221   4.291 -0.3304  1.1813  0.9304
 1018SOL    HW214514   1.635   1.248   4.427 -1.6348  1.2379  0.6910
 1019SOL     OW14515   1.186   0.968   7.799  0.0328 -0.0091  0.5104
 1019SOL    HW114516   1.215   0.980   7.890  1.6689 -1.9195  0.2197
 1019SOL    HW214517   1.159   0.876   7.799 -0.6299  0.1843 -0.2536
 1020SOL     OW14518   4.253   1.752   4.797  0.0610 -0.0504  0.0537
 1020SOL    HW114519   4.286   1.663   4.785 -0.9357 -0.8358  3.0630
 1020SOL    HW214520   4.199   1.770   4.720  3.2156  1.4831 -1.7918
 1021SOL     OW14521   2.222   2.623   4.889  0.0465  0.0930  0.2726
 1021SOL    HW114522   2.276   2.615   4.968  1.1552  3.0475 -0.2049
 1021SOL    HW214523   2.158   2.553   4.900  1.4358 -1.3551 -0.7965
 1022SOL     OW14524   3.952   0.120   5.808 -0.1066 -0.1838 -0.2461
 1022SOL    HW114525   3.950   0.215   5.795  0.6869 -0.1705 -0.3054
 1022SOL    HW214526   3.909   0.093   5.726  1.9189 -3.1868 -0.3305
 1023SOL     OW14527   1.989   2.077   3.982 -0.7473  0.4734 -0.2386
 1023SOL    HW114528   1.897   2.055   3.996 -0.8551  0.4196 -1.0371
 1023SOL    HW214529   2.029   2.065   4.068  2.1434  0.7127 -1.5399
 1024SOL     OW14530   1.315   2.473   9.238 -0.3801  0.1284 -0.2036
 1024SOL    HW114531   1.224   2.456   9.260 -0.5784  2.6163  0.8862
 1024SOL    HW214532   1.352   2.498   9.323 -1.6134 -1.6947  0.8947
 1025SOL     OW14533   3.195   0.587   9.956 -0.1044 -0.7744  0.1287
 1025SOL    HW114534   3.196   0.618  10.047 -0.2766  1.5680 -0.6542
 1025SOL    HW214535   3.102   0.569   9.943 -0.7334  1.7988  0.9330
 1026SOL     OW14536   4.319   3.207  16.007  0.1993  0.0796 -0.2468
 1026SOL    HW114537   4.340   3.136  15.946 -2.1894 -1.4524  0.7385
 1026SOL    HW214538   4.315   3.154  16.086  0.0028  0.1664 -0.1979
 1027SOL     OW14539   1.239   4.341   7.486  0.0901  0.0251 -0.1916
 1027SOL    HW114540   1.315   4.376   7.533 -1.6089  2.9132  0.4409
 1027SOL    HW214541   1.217   4.420   7.437 -2.1760 -0.1329  0.5785
 1028SOL     OW14542   0.032   0.064   4.174 -0.0798  0.7040  0.2512
 1028SOL    HW114543   0.067   4.711   4.126 -0.3645  1.0733 -0.5165
 1028SOL    HW214544   0.005   0.118   4.100 -0.0065  3.0756  1.9255
 1029SOL     OW14545   4.084   0.116   4.318 -0.0047 -0.0733  0.8682
 1029SOL    HW114546   4.027   0.083   4.248 -0.9323  1.9203  0.6737
 1029SOL    HW214547   4.044   0.199   4.345  0.6393  0.1926  1.0021
 1030SOL     OW14548   3.713   4.652   1.179 -0.3378  0.2738  0.0825
 1030SOL    HW114549   3.767   4.718   1.223 -0.3217  1.4336 -1.6803
 1030SOL    HW214550   3.644   4.662   1.244  0.5224 -0.4732  1.1228
 1031SOL     OW14551   2.515   4.648   5.604  0.1557 -0.4030  0.2519
 1031SOL    HW114552   2.481   4.669   5.517  1.0964 -0.2924 -0.0961
 1031SOL    HW214553   2.441   4.671   5.661  2.0762  0.1215  2.5328
 1032SOL     OW14554   0.626   4.143  15.673 -0.4941 -0.1917  0.8916
 1032SOL    HW114555   0.600   4.051  15.676  2.4445 -0.9910  2.0617
 1032SOL    HW214556   0.567   4.184  15.737 -1.2038  0.3313 -0.1065
 1033SOL     OW14557   4.475   1.342   9.069 -0.1805  0.4173 -0.0963
 1033SOL    HW114558   4.555   1.390   9.086  0.7286 -0.4393 -1.9486
 1033SOL    HW214559   4.523   1.265   9.041 -1.0634 -0.3239  0.4188
 1034SOL     OW14560   1.327   3.926  13.044  0.2596 -0.4373  0.2356
 1034SOL    HW114561   1.373   3.991  12.991 -0.0358 -0.6094 -0.2367
 1034SOL    HW214562   1.301   3.970  13.125  0.0013  1.0325 -0.6315
 1035SOL     OW14563   1.692   0.708   3.703  0.3757 -0.2665 -0.2474
 1035SOL    HW114564   1.785   0.723   3.683  0.6922 -1.3165  0.4082
 1035SOL    HW214565   1.659   0.674   3.620 -1.3447  1.6521 -0.3466
 1036SOL     OW14566   3.132   3.061   2.759  0.0253  0.6620 -0.0929
 1036SOL    HW114567   3.206   3.055   2.699 -0.3237  0.8645 -0.5419
 1036SOL    HW214568   3.080   2.986   2.729  0.4418  0.0723  0.6540
 1037SOL     OW14569   3.089   1.472   3.895  0.5644  0.1200  0.0012
 1037SOL    HW114570   3.139   1.542   3.853 -0.3018  1.7612  1.6884
 1037SOL    HW214571   3.121   1.392   3.854 -0.0491 -0.1710  0.0856
 1038SOL     OW14572   0.913   3.570   3.647  0.4094  0.5961  0.2322
 1038SOL    HW114573   0.979   3.620   3.598 -0.0304  1.7969  0.8561
 1038SOL    HW214574   0.932   3.597   3.737 -0.0532  2.5122 -0.2402
 1039SOL     OW14575   4.475   1.278   6.557 -0.2638  0.2010 -0.0624
 1039SOL    HW114576   4.471   1.266   6.652  1.5633 -0.6564 -0.0929
 1039SOL    HW214577   4.468   1.184   6.540  0.9730 -0.2635  1.9649
 1040SOL     OW14578   1.398   3.882   5.867 -0.6499  0.0701 -0.1386
 1040SOL    HW114579   1.454   3.900   5.942  1.3853 -0.6828 -1.4626
 1040SOL    HW214580   1.363   3.970   5.853  1.2356  0.9767  0.8778
 1041SOL     OW14581   3.289   4.474   5.965 -0.0356  0.8163  0.1105
 1041SOL    HW114582   3.383   4.455   5.965  0.1731  1.8666  0.5581
 1041SOL    HW214583   3.280   4.391   5.918 -1.0003  0.2081  1.3566
 1042SOL     OW14584   3.029   2.733   5.480 -0.0104 -0.0971  0.6796
 1042SOL    HW114585   3.098   2.720   5.545 -0.0358 -0.8208  0.5667
 1042SOL    HW214586   3.064   2.812   5.439  0.8563 -0.3242  0.9976
 1043SOL     OW14587   0.036   1.649   2.306  0.0350  0.1094  0.2543
 1043SOL    HW114588   4.680   1.594   2.301 -0.5736  0.8903  1.0941
 1043SOL    HW214589   0.022   1.693   2.390  1.0218  2.6460 -0.9316
 1044SOL     OW14590   2.162   2.562   7.644  0.5397 -0.2058  0.4319
 1044SOL    HW114591   2.108   2.561   7.565 -1.3107  2.8651  1.6961
 1044SOL    HW214592   2.101   2.510   7.696  1.5264 -0.1803  1.6177
 1045SOL     OW14593   3.934   1.319   9.383  0.7518  0.2327  1.3011
 1045SOL    HW114594   3.987   1.347   9.457  1.1290  1.6701  0.4902
 1045SOL    HW214595   3.853   1.367   9.398 -0.6380 -2.1229  1.4299
 1046SOL     OW14596   4.658   2.203   1.593 -0.1062  0.7932  0.4193
 1046SOL    HW114597   0.013   2.182   1.541 -0.4229  0.3956  0.1069
 1046SOL    HW214598   4.687   2.166   1.676  0.2542 -1.1147 -0.5672
 1047SOL     OW14599   3.512   2.256   3.752 -0.0913  0.6481 -0.0112
 1047SOL    HW114600   3.471   2.286   3.833 -0.5125 -1.1814  0.4489
 1047SOL    HW214601   3.599   2.277   3.784  0.9834 -3.1431 -0.4741
 1048SOL     OW14602   3.108   1.367   9.175 -0.2330 -0.3940  0.0462
 1048SOL    HW114603   3.133   1.297   9.237 -0.2802  0.0626  0.5802
 1048SOL    HW214604   3.014   1.359   9.159 -0.2078  0.7643 -0.6051
 1049SOL     OW14605   0.911   0.235   1.036 -0.3867 -0.3936  0.0959
 1049SOL    HW114606   0.919   0.223   1.131 -3.8113 -0.5463  0.3597
 1049SOL    HW214607   0.970   0.167   1.006 -0.7962 -0.2451 -1.0505
 1050SOL     OW14608   2.895   2.287  14.509  1.0149  0.0189 -0.7386
 1050SOL    HW114609   2.885   2.227  14.435 -0.2102 -0.8003  0.0755
 1050SOL    HW214610   2.819   2.261  14.561  1.2179  1.4182  0.2535
 1051SOL     OW14611   1.423   4.015  16.168 -0.1306 -0.5735 -0.7239
 1051SOL    HW114612   1.355   4.070  16.129  0.7315 -0.5802 -2.2209
 1051SOL    HW214613   1.493   4.028  16.104 -0.0882 -1.0169 -0.7685
 1052SOL     OW14614   2.490   0.661  17.125 -0.0834  0.0221  0.1329
 1052SOL    HW114615   2.424   0.637  17.060  0.6822 -0.9351 -0.2869
 1052SOL    HW214616   2.455   0.745  17.153  1.4264  1.0044 -0.9383
 1053SOL     OW14617   0.337   1.533  15.813  0.3104  0.1286  0.3083
 1053SOL    HW114618   0.344   1.609  15.755  0.3359 -1.5338 -1.8840
 1053SOL    HW214619   0.281   1.579  15.876  2.2119  1.1398  1.2593
 1054SOL     OW14620   2.628   1.825  14.142 -0.4991 -0.0767  0.3216
 1054SOL    HW114621   2.664   1.914  14.142 -0.2503 -0.1755  0.2976
 1054SOL    HW214622   2.700   1.766  14.167 -2.2743 -1.6028  1.8468
 1055SOL     OW14623   3.269   1.484   5.437 -0.1118 -0.4556  0.8768
 1055SOL    HW114624   3.218   1.556   5.399 -0.3774 -1.5181 -0.7373
 1055SOL    HW214625   3.196   1.442   5.483  1.4808 -3.0036  1.0728
 1056SOL     OW14626   4.667   3.942   0.576  0.2656  0.0316  0.5358
 1056SOL    HW114627   4.712   3.887   0.512  1.8146  2.0332 -0.1059
 1056SOL    HW214628   4.695   4.023   0.532  0.3500  0.5253  1.4948
 1057SOL     OW14629   0.219   1.208  11.212  0.0699  0.6280 -0.3430
 1057SOL    HW114630   0.308   1.231  11.187  0.5435  0.0921  0.8870
 1057SOL    HW214631   0.230   1.139  11.277 -2.1425 -0.1237 -0.7656
 1058SOL     OW14632   4.182   3.617   6.586 -0.1640 -0.1820 -0.3337
 1058SOL    HW114633   4.134   3.699   6.580  0.9189  0.5176  0.6169
 1058SOL    HW214634   4.237   3.610   6.508 -1.1458 -0.9163 -0.9565
 1059SOL     OW14635   4.423   4.087   9.360 -0.0717 -0.0485  0.5428
 1059SOL    HW114636   4.428   4.058   9.269  2.2835  0.5830  0.4592
 1059SOL    HW214637   4.365   4.020   9.394  1.7722 -1.2701  1.2755
 1060SOL     OW14638   1.491   3.510   7.850 -0.1779  0.5179  0.6788
 1060SOL    HW114639   1.510   3.602   7.834 -0.4507  0.3463 -0.6579
 1060SOL    HW214640   1.398   3.507   7.873 -0.5325 -0.4443 -0.8202
 1061SOL     OW14641   1.767   0.376   3.667 -0.3410  0.3991 -0.2662
 1061SOL    HW114642   1.695   0.428   3.632 -0.5621 -0.7922 -1.5682
 1061SOL    HW214643   1.837   0.377   3.602  0.1167  1.4913  0.2478
 1062SOL     OW14644   3.860   1.978   5.633  0.3075  0.2396 -0.3359
 1062SOL    HW114645   3.810   1.959   5.554 -2.1748  0.3533  1.2262
 1062SOL    HW214646   3.836   2.070   5.648  0.7242  0.3272 -0.2055
 1063SOL     OW14647   3.270   1.839   4.492 -0.2935 -0.3201 -0.3729
 1063SOL    HW114648   3.334   1.866   4.426 -0.1652 -0.3860 -0.2753
 1063SOL    HW214649   3.279   1.919   4.544  1.1691 -0.5582 -0.2499
 1064SOL     OW14650   1.009   0.901   0.496  0.0529 -0.4495 -0.0365
 1064SOL    HW114651   1.013   0.870   0.406  2.6107 -2.1651  0.6581
 1064SOL    HW214652   1.088   0.953   0.499  0.4486 -1.0776  0.5781
 1065SOL     OW14653   2.856   0.791  15.269  0.3833  0.7681  0.0058
 1065SOL    HW114654   2.774   0.745  15.251  0.0902  1.1758  0.2784
 1065SOL    HW214655   2.830   0.843  15.345  0.6248  2.2304 -0.9187
 1066SOL     OW14656   0.264   3.224   4.291  0.7256 -0.1488 -0.0124
 1066SOL    HW114657   0.174   3.209   4.318  1.3359 -2.2564  0.8956
 1066SOL    HW214658   0.283   3.296   4.351 -1.8791 -0.3925  1.1088
 1067SOL     OW14659   2.554   0.742   3.040 -0.0439  0.0631 -0.1547
 1067SOL    HW114660   2.501   0.800   2.985  0.8224  1.8823  0.9206
 1067SOL    HW214661   2.634   0.790   3.018  0.1669 -0.2825 -0.1320
 1068SOL     OW14662   0.468   3.497   7.838  0.5802  0.3820  0.4020
 1068SOL    HW114663   0.482   3.579   7.791  0.4826 -0.3667 -0.9487
 1068SOL    HW214664   0.528   3.435   7.798 -0.6230  0.2724 -1.2476
 1069SOL     OW14665   3.086   0.868   6.138  0.0269 -0.2305  0.5325
 1069SOL    HW114666   3.108   0.895   6.049 -1.5601 -2.9738 -0.6651
 1069SOL    HW214667   2.991   0.858   6.131  0.1518 -0.2596 -1.0438
 1070SOL     OW14668   2.298   1.590  16.249  0.2442 -0.0433 -0.3303
 1070SOL    HW114669   2.239   1.515  16.255 -1.4930  1.2565 -1.1849
 1070SOL    HW214670   2.296   1.612  16.342  3.2431  0.4030 -0.3674
 1071SOL     OW14671   0.566   1.837   8.696 -0.0794  0.4316  0.9287
 1071SOL    HW114672   0.618   1.763   8.728  2.6607  1.2157 -1.7980
 1071SOL    HW214673   0.489   1.791   8.663  1.9657 -1.9077 -0.5760
 1072SOL     OW14674   2.730   4.577   2.297 -0.9438 -0.1046  0.1070
 1072SOL    HW114675   2.759   4.605   2.210  0.4424 -1.0343  0.2596
 1072SOL    HW214676   2.646   4.531   2.292 -0.4669 -1.0379  0.6756
 1073SOL     OW14677   0.182   0.432   7.673 -0.0936  0.1037 -0.2186
 1073SOL    HW114678   0.260   0.443   7.619 -1.9793  0.3650 -2.9435
 1073SOL    HW214679   0.172   0.337   7.667  1.3694  0.0376 -1.6453
 1074SOL     OW14680   3.080   3.386   2.374 -0.1780  0.6930 -0.1854
 1074SOL    HW114681   3.056   3.460   2.319 -1.0884 -0.2947 -1.1085
 1074SOL    HW214682   3.176   3.385   2.379 -0.2895 -0.3693  2.0210
 1075SOL     OW14683   3.988   1.007  12.356 -0.0804 -0.2915  0.5995
 1075SOL    HW114684   3.903   1.047  12.375 -0.1051  0.2650 -0.6960
 1075SOL    HW214685   3.982   0.932  12.415 -0.0227  0.6538  1.8319
 1076SOL     OW14686   1.512   0.790   4.369 -0.1964 -0.5256  0.3529
 1076SOL    HW114687   1.584   0.851   4.355 -0.4825 -0.6860 -1.8531
 1076SOL    HW214688   1.457   0.811   4.294  1.8195 -1.1583 -1.3321
 1077SOL     OW14689   2.706   1.108   0.172  0.1563 -0.0255 -0.1456
 1077SOL    HW114690   2.787   1.071   0.135  0.2351  0.4538 -0.4570
 1077SOL    HW214691   2.650   1.110   0.094 -0.6652  0.5172  0.4676
 1078SOL     OW14692   2.372   0.301   3.704 -0.1676  0.1023  0.0026
 1078SOL    HW114693   2.432   0.227   3.718 -1.4180 -1.1643 -1.3461
 1078SOL    HW214694   2.422   0.372   3.744 -0.1784 -0.6944  1.4103
 1079SOL     OW14695   2.744   4.600   8.566  0.3520 -0.1358 -0.8505
 1079SOL    HW114696   2.723   4.666   8.499 -0.3536 -0.8487 -1.3265
 1079SOL    HW214697   2.808   4.654   8.613 -1.4160  1.3953 -0.1707
 1080SOL     OW14698   2.175   1.848  12.247 -0.0179 -0.1907 -0.6684
 1080SOL    HW114699   2.125   1.772  12.275  1.4426 -0.7012  0.5616
 1080SOL    HW214700   2.260   1.812  12.221  0.4826  0.9397 -0.6080
 1081SOL     OW14701   2.392   2.607   5.116  0.5349  0.4018 -0.1304
 1081SOL    HW114702   2.487   2.618   5.113  0.4538  1.4133  1.1149
 1081SOL    HW214703   2.373   2.675   5.180 -0.0280  1.5418 -1.4996
 1082SOL     OW14704   3.467   0.741   2.708 -0.3646  0.2773 -0.2352
 1082SOL    HW114705   3.482   0.749   2.614  0.8342 -0.4393 -0.0969
 1082SOL    HW214706   3.391   0.683   2.711 -0.1625 -0.0266 -0.9774
 1083SOL     OW14707   1.851   1.830   7.782  0.4722 -0.1233 -0.1496
 1083SOL    HW114708   1.778   1.882   7.747  0.4015  0.8510  1.4177
 1083SOL    HW214709   1.899   1.898   7.830 -0.3444 -0.3444  0.9885
 1084SOL     OW14710   1.703   4.137   8.751 -0.2499 -0.3775 -0.1888
 1084SOL    HW114711   1.782   4.084   8.742 -0.1703 -0.2995  0.0481
 1084SOL    HW214712   1.640   4.073   8.719 -0.0333 -2.2156  3.0370
 1085SOL     OW14713   4.426   2.362   8.691  0.1258 -0.3483 -0.2258
 1085SOL    HW114714   4.420   2.267   8.697 -0.7679 -0.3716 -1.5445
 1085SOL    HW214715   4.478   2.380   8.769  4.0203  4.1350 -3.8749
 1086SOL     OW14716   2.518   0.921  15.636 -0.3836  0.1935 -0.7437
 1086SOL    HW114717   2.523   0.861  15.562 -0.0137  0.2570 -0.7673
 1086SOL    HW214718   2.429   0.958  15.632 -0.3648  0.5624  1.9994
 1087SOL     OW14719   3.074   0.504   6.734  1.2586 -0.5858 -0.2002
 1087SOL    HW114720   3.147   0.518   6.674 -1.0758  0.5978 -2.7309
 1087SOL    HW214721   3.061   0.592   6.769 -1.6198 -1.7679  1.6732
 1088SOL     OW14722   2.271   0.488  11.298  0.0456  0.0050  0.4501
 1088SOL    HW114723   2.352   0.532  11.272  0.5176 -1.5479 -0.6996
 1088SOL    HW214724   2.235   0.561  11.349 -1.5902 -0.3390 -0.2026
 1089SOL     OW14725   3.398   3.330   0.005  0.0901 -0.9190  0.0003
 1089SOL    HW114726   3.338   3.395   0.042 -0.2214 -2.0662  1.5035
 1089SOL    HW214727   3.481   3.359   0.042 -0.3068  0.5084 -0.2363
 1090SOL     OW14728   2.614   3.324   2.406 -0.6740  0.5560 -0.5295
 1090SOL    HW114729   2.624   3.237   2.368 -2.6395  0.2629 -0.3922
 1090SOL    HW214730   2.673   3.367   2.345  1.2299  0.4937  1.2568
 1091SOL     OW14731   1.739   0.937   4.351  0.2794 -0.3030 -0.5031
 1091SOL    HW114732   1.701   1.023   4.335 -0.5307 -0.0401  2.6950
 1091SOL    HW214733   1.824   0.950   4.392  0.0993 -0.5237 -0.0516
 1092SOL     OW14734   2.038   2.679   3.287 -0.3049  0.1287  0.0745
 1092SOL    HW114735   2.001   2.605   3.239  0.8175 -0.7367  0.5333
 1092SOL    HW214736   2.008   2.753   3.235  0.9946 -0.2173 -1.1704
 1093SOL     OW14737   2.495   1.534  11.539 -0.0406 -0.2454 -0.4529
 1093SOL    HW114738   2.579   1.514  11.578  0.5628  3.7881  0.2780
 1093SOL    HW214739   2.448   1.574  11.612  1.5547 -1.5513  1.2988
 1094SOL     OW14740   3.013   1.387   4.375 -0.3295  0.0123 -0.0063
 1094SOL    HW114741   2.939   1.355   4.324  0.0776 -1.0138  0.0512
 1094SOL    HW214742   3.010   1.483   4.374 -0.6228 -0.0145 -2.2299
 1095SOL     OW14743   0.276   2.385  10.351  0.1724 -0.3985  0.1976
 1095SOL    HW114744   0.359   2.419  10.385  0.0826  0.8349 -0.8207
 1095SOL    HW214745   0.223   2.398  10.429 -2.9605 -1.9190 -1.6711
 1096SOL     OW14746   2.244   0.384   8.268 -0.6657  0.0944 -0.6542
 1096SOL    HW114747   2.248   0.430   8.352 -3.9287  0.5319 -0.7599
 1096SOL    HW214748   2.294   0.307   8.293 -1.2079 -0.4769 -1.3366
 1097SOL     OW14749   4.600   1.958   2.718  0.1426  0.0169  0.3116
 1097SOL    HW114750   4.507   1.936   2.711 -0.7734  3.6833  0.8067
 1097SOL    HW214751   4.596   2.054   2.718 -0.9699 -0.0344  0.7112
 1098SOL     OW14752   1.251   2.951  14.321  0.6512 -0.1506 -0.8183
 1098SOL    HW114753   1.180   2.955  14.256 -1.4315 -1.5598  1.3726
 1098SOL    HW214754   1.324   2.912  14.274  2.7946 -0.5925  2.9256
 1099SOL     OW14755   3.344   3.483   5.058 -0.4643 -0.3733  0.2630
 1099SOL    HW114756   3.277   3.547   5.083  1.4855  2.2110 -1.1192
 1099SOL    HW214757   3.370   3.447   5.143 -0.2799 -0.6533  0.0843
 1100SOL     OW14758   3.493   2.379  16.734 -0.1718  0.1022 -0.8728
 1100SOL    HW114759   3.437   2.439  16.686  1.5697  0.1317 -2.8392
 1100SOL    HW214760   3.450   2.296  16.714  2.0953 -1.2728 -0.0388
 1101SOL     OW14761   1.491   3.110   8.096 -0.1750 -0.0697 -0.2681
 1101SOL    HW114762   1.423   3.044   8.087 -0.6090  0.4083 -0.4729
 1101SOL    HW214763   1.514   3.103   8.188 -0.1597  1.5657 -0.1457
 1102SOL     OW14764   2.733   2.708   9.712 -0.0113  0.1460 -0.2584
 1102SOL    HW114765   2.751   2.632   9.768 -0.3479  1.9096  2.2438
 1102SOL    HW214766   2.644   2.690   9.681  0.0417 -1.0323  0.2519
 1103SOL     OW14767   3.863   4.370  14.082  0.0339  0.1827 -0.0540
 1103SOL    HW114768   3.898   4.364  14.171 -0.0740 -1.5712 -0.1245
 1103SOL    HW214769   3.854   4.277  14.060 -2.5214  0.5522 -0.5302
 1104SOL     OW14770   3.767   1.742   0.785  0.1267  0.0494 -0.3840
 1104SOL    HW114771   3.755   1.664   0.839 -0.5445  0.1296 -0.4250
 1104SOL    HW214772   3.709   1.708   0.717 -1.2437  0.1931  0.7213
 1105SOL     OW14773   3.646   1.380   7.943  0.0470 -0.0418 -0.4638
 1105SOL    HW114774   3.683   1.400   8.029 -0.4735  0.0208 -0.2560
 1105SOL    HW214775   3.700   1.302   7.928  0.6007 -0.1512  2.0167
 1106SOL     OW14776   4.448   4.460   7.903 -0.5854  0.0798  0.1407
 1106SOL    HW114777   4.428   4.432   7.814 -1.6566  3.5638 -0.7459
 1106SOL    HW214778   4.358   4.463   7.935 -0.1336  2.9024  1.1795
 1107SOL     OW14779   0.245   1.205   1.626  0.2905 -0.6194  0.3265
 1107SOL    HW114780   0.171   1.194   1.567  0.3259 -2.1006  0.5507
 1107SOL    HW214781   0.247   1.300   1.636 -0.9500 -0.7772  2.0579
 1108SOL     OW14782   4.112   1.959  13.267 -0.5208 -0.2098  0.2282
 1108SOL    HW114783   4.136   2.050  13.284 -0.5125 -0.0530 -0.6427
 1108SOL    HW214784   4.175   1.935  13.199 -0.5421  2.2321 -0.6165
 1109SOL     OW14785   0.594   0.151  13.443  0.1227 -0.0921 -0.1721
 1109SOL    HW114786   0.512   0.197  13.423 -0.1650 -1.0474 -1.1731
 1109SOL    HW214787   0.656   0.205  13.394  3.0613 -1.9846  1.5276
 1110SOL     OW14788   4.360   1.357   2.577  0.1351  0.3897  0.2988
 1110SOL    HW114789   4.328   1.269   2.596  2.0357 -0.5715 -0.9627
 1110SOL    HW214790   4.451   1.350   2.607 -0.9834 -1.1327  3.3013
 1111SOL     OW14791   3.057   2.706   7.453 -0.1037  0.1341 -0.0992
 1111SOL    HW114792   3.148   2.688   7.473  0.0848  2.5260  1.2831
 1111SOL    HW214793   3.025   2.719   7.543  2.0935 -0.1572  0.7202
 1112SOL     OW14794   1.196   1.678   3.981 -0.4973  0.2717  0.1425
 1112SOL    HW114795   1.210   1.681   3.886  0.9484  0.3420  0.3552
 1112SOL    HW214796   1.217   1.586   3.996  0.5773  0.3223 -0.9691
 1113SOL     OW14797   2.547   4.067   4.022 -0.7701  0.4483  0.4864
 1113SOL    HW114798   2.634   4.032   4.003 -0.9126 -0.0742  0.8255
 1113SOL    HW214799   2.498   3.997   4.063 -0.8404  0.1082 -0.1819
 1114SOL     OW14800   3.723   0.320   3.583 -0.1472  0.5780 -0.1482
 1114SOL    HW114801   3.804   0.338   3.534  1.2035 -0.3559  1.7656
 1114SOL    HW214802   3.754   0.247   3.636 -2.1716  2.0356  3.0299
 1115SOL     OW14803   2.327   4.283   2.177 -0.0141  0.4289 -0.7663
 1115SOL    HW114804   2.294   4.194   2.190 -0.6507  0.8128  0.2195
 1115SOL    HW214805   2.270   4.336   2.232  0.2883  1.6443 -1.6351
 1116SOL     OW14806   2.495   3.173   0.627 -0.0187 -0.3039  0.9622
 1116SOL    HW114807   2.508   3.193   0.719  0.3544  1.0084  0.6251
 1116SOL    HW214808   2.449   3.250   0.595 -0.3962 -0.9323 -0.0278
 1117SOL     OW14809   3.156   3.905   1.927 -0.5060 -0.3540  0.1196
 1117SOL    HW114810   3.078   3.849   1.930  0.5113 -1.7785  0.1573
 1117SOL    HW214811   3.151   3.960   1.848 -0.7521  0.9860  1.0667
 1118SOL     OW14812   3.436   0.094   4.967  0.1693  0.0945 -0.1637
 1118SOL    HW114813   3.379   0.020   4.949  1.2600 -0.8794  0.3929
 1118SOL    HW214814   3.519   0.047   4.971 -0.0318 -0.1121  1.5748
 1119SOL     OW14815   1.128   3.491  12.511 -0.1909 -0.0114 -0.0527
 1119SOL    HW114816   1.144   3.415  12.567 -1.4477  0.2623  0.6748
 1119SOL    HW214817   1.143   3.451  12.425  0.0090  0.5955 -0.2987
 1120SOL     OW14818   4.573   2.406   6.860 -0.3866  0.3946  0.6309
 1120SOL    HW114819   4.537   2.377   6.944  0.1506  0.4321  0.8754
 1120SOL    HW214820   4.526   2.342   6.807  0.3380  0.1565  0.2828
 1121SOL     OW14821   0.021   1.659   4.907  0.3670 -0.4076  0.4564
 1121SOL    HW114822   4.668   1.717   4.919  0.0239 -0.9093  0.7083
 1121SOL    HW214823   0.004   1.635   4.815  1.0860 -0.1941  0.2667
 1122SOL     OW14824   3.987   4.488   3.106 -0.1653 -0.2816 -0.0133
 1122SOL    HW114825   4.046   4.421   3.139 -0.8129 -0.7840  0.1203
 1122SOL    HW214826   3.952   4.445   3.028 -1.7944 -1.8920  1.6108
 1123SOL     OW14827   1.318   3.570   2.497  0.0969  0.4948 -0.1504
 1123SOL    HW114828   1.341   3.601   2.409 -0.4574 -0.5654 -0.6637
 1123SOL    HW214829   1.383   3.502   2.512 -2.0888 -1.4058  0.8305
 1124SOL     OW14830   3.775   0.607   8.049 -0.6904  0.3561 -0.3206
 1124SOL    HW114831   3.686   0.577   8.029 -0.4924 -1.2052  1.1610
 1124SOL    HW214832   3.814   0.575   7.967 -0.8985 -1.0335  0.1176
 1125SOL     OW14833   2.508   0.650  11.305  0.1020  0.1131 -0.4307
 1125SOL    HW114834   2.568   0.614  11.370 -0.0694 -0.9640 -0.8669
 1125SOL    HW214835   2.566   0.716  11.267 -0.6228  0.9320 -0.1317
 1126SOL     OW14836   4.696   2.636   6.775 -0.5608 -0.0028  0.1012
 1126SOL    HW114837   4.656   2.564   6.824  0.8651 -1.8613 -1.4585
 1126SOL    HW214838   4.616   2.661   6.729 -0.5763  0.0010  0.1304
 1127SOL     OW14839   1.862   3.159   1.755 -1.0672 -0.5320  0.3703
 1127SOL    HW114840   1.813   3.078   1.766 -1.0772 -0.7224 -1.0681
 1127SOL    HW214841   1.860   3.172   1.660 -0.4027 -0.6207  0.3401
 1128SOL     OW14842   1.962   0.737  14.037  0.3769  0.0131  0.4298
 1128SOL    HW114843   2.012   0.815  14.061  0.7458 -0.0349 -0.1690
 1128SOL    HW214844   2.025   0.701  13.974  1.4184  0.9505  0.9378
 1129SOL     OW14845   2.358   4.424   9.763  0.3397 -0.2877 -0.4941
 1129SOL    HW114846   2.368   4.360   9.692  1.1375 -0.6529 -0.0476
 1129SOL    HW214847   2.346   4.501   9.707  0.3965  0.5854  0.7012
 1130SOL     OW14848   3.860   4.548   2.266 -0.1281 -0.1870 -0.0871
 1130SOL    HW114849   3.939   4.532   2.317  1.2100 -0.0702 -2.1114
 1130SOL    HW214850   3.839   4.462   2.229 -0.6309 -0.0199 -0.1901
 1131SOL     OW14851   0.874   4.260   8.942  0.3584 -0.9463  0.6368
 1131SOL    HW114852   0.791   4.223   8.910 -0.0506  2.2820 -1.9683
 1131SOL    HW214853   0.914   4.258   8.856 -0.7562  0.0071  0.0971
 1132SOL     OW14854   3.952   1.785   2.854  0.9862  0.4404  0.0103
 1132SOL    HW114855   3.977   1.774   2.762 -2.3461  2.4478 -1.1461
 1132SOL    HW214856   3.997   1.870   2.853  1.7413  0.0335 -1.1442
 1133SOL     OW14857   1.519   4.440   3.793  0.0657  0.6492  0.2338
 1133SOL    HW114858   1.581   4.492   3.741 -1.4199  2.6966  0.5031
 1133SOL    HW214859   1.475   4.512   3.838 -0.3661  0.8957 -0.5806
 1134SOL     OW14860   0.660   4.182   0.789 -0.8979  0.0417  0.2066
 1134SOL    HW114861   0.660   4.100   0.740 -0.3146  0.4188 -0.4232
 1134SOL    HW214862   0.693   4.238   0.719 -2.5831 -1.6980 -1.9611
 1135SOL     OW14863   2.459   2.936   5.041  0.0221 -0.0452 -0.1410
 1135SOL    HW114864   2.529   2.875   5.018  1.3654  1.2377  0.5502
 1135SOL    HW214865   2.507   3.015   5.015  2.7672 -0.6893  2.9537
 1136SOL     OW14866   1.931   4.422   4.909 -0.0012 -0.1661  0.3600
 1136SOL    HW114867   1.961   4.448   4.822  1.2184 -0.3092  0.7342
 1136SOL    HW214868   1.966   4.332   4.913 -1.2321 -0.6515  0.2236
 1137SOL     OW14869   4.078   2.418  14.492 -0.7214 -0.1205 -0.0727
 1137SOL    HW114870   4.102   2.456  14.408  2.3789 -0.7791  0.4982
 1137SOL    HW214871   4.094   2.492  14.551 -1.0144 -1.8646  2.2190
 1138SOL     OW14872   2.803   1.047   7.566  0.3084 -0.3382 -0.0142
 1138SOL    HW114873   2.848   0.964   7.551  0.4101 -0.6446  2.0194
 1138SOL    HW214874   2.847   1.072   7.647 -1.0517 -0.9230  0.9119
 1139SOL     OW14875   4.670   2.369  16.192  0.2750  0.8392 -0.1218
 1139SOL    HW114876   4.718   2.309  16.249 -0.2247  0.8018  0.2632
 1139SOL    HW214877   4.628   2.419  16.262  0.6243  0.6112  0.2517
 1140SOL     OW14878   3.322   0.631  12.159 -0.3796  0.1106 -0.1447
 1140SOL    HW114879   3.362   0.575  12.224  1.2272  2.1196  0.6035
 1140SOL    HW214880   3.275   0.563  12.111  0.4388  0.4465 -1.4111
 1141SOL     OW14881   1.865   2.823   8.441 -0.1060 -0.1045 -0.0001
 1141SOL    HW114882   1.917   2.864   8.509  1.9175 -1.5351 -0.6707
 1141SOL    HW214883   1.864   2.735   8.480 -0.3070  0.4465  1.2252
 1142SOL     OW14884   1.773   1.107   3.158 -0.1109  0.1110  0.0811
 1142SOL    HW114885   1.789   1.187   3.108 -0.3959  1.1314  1.6137
 1142SOL    HW214886   1.677   1.105   3.168 -0.0611  1.5498  0.8559
 1143SOL     OW14887   2.810   0.783   5.355 -0.3829 -0.1260 -0.2721
 1143SOL    HW114888   2.714   0.791   5.350 -0.2238 -0.1291 -3.5589
 1143SOL    HW214889   2.838   0.871   5.332 -0.6352  0.3844  1.3654
 1144SOL     OW14890   1.671   2.922  10.685 -0.5442  0.2806 -0.4096
 1144SOL    HW114891   1.733   2.893  10.752 -0.9943 -1.3011 -0.6710
 1144SOL    HW214892   1.729   2.935  10.610  0.6264 -1.8657  0.1221
 1145SOL     OW14893   1.954   2.848   5.077 -0.0351  0.2264 -0.1071
 1145SOL    HW114894   1.892   2.815   5.143  0.3597 -1.4736 -0.5843
 1145SOL    HW214895   1.970   2.936   5.109  1.9263  0.4123 -1.6366
 1146SOL     OW14896   0.501   2.252   3.447  0.0196  0.3020  0.3403
 1146SOL    HW114897   0.475   2.223   3.360 -1.7080  0.8113  0.7052
 1146SOL    HW214898   0.501   2.347   3.443  1.1341  0.3238  0.6148
 1147SOL     OW14899   4.557   0.841   7.215 -0.2453  0.9561  0.0020
 1147SOL    HW114900   4.578   0.766   7.160 -1.7507  0.8805 -0.4571
 1147SOL    HW214901   4.644   0.879   7.226  0.6412 -0.0909 -3.6318
 1148SOL     OW14902   4.281   0.405   2.760  0.1582 -0.3910 -0.7052
 1148SOL    HW114903   4.209   0.434   2.816  1.1850 -0.6049  0.7465
 1148SOL    HW214904   4.346   0.473   2.782 -0.3040 -0.4897  0.9998
 1149SOL     OW14905   3.166   0.855   6.892 -0.0328 -0.5962  0.2869
 1149SOL    HW114906   3.196   0.870   6.802 -1.1100 -0.9852 -0.1343
 1149SOL    HW214907   3.226   0.910   6.942  0.2821 -2.0087  1.4663
 1150SOL     OW14908   2.758   1.782   5.892 -0.2895 -0.1628 -0.2425
 1150SOL    HW114909   2.794   1.694   5.882 -0.4708 -0.0871 -1.5584
 1150SOL    HW214910   2.731   1.800   5.802 -1.4180  1.5724  0.4460
 1151SOL     OW14911   3.678   0.589   5.225  0.0894 -0.3848  0.0760
 1151SOL    HW114912   3.622   0.516   5.199  1.0326 -1.3354  0.7061
 1151SOL    HW214913   3.641   0.669   5.188 -1.6866 -0.1527  2.3474
 1152SOL     OW14914   1.140   0.072   1.603 -0.3492 -0.0998 -0.0323
 1152SOL    HW114915   1.228   0.044   1.629 -0.4451  0.2452  0.6637
 1152SOL    HW214916   1.146   0.080   1.508  1.2197 -0.5212  0.0252
 1153SOL     OW14917   2.750   2.035   9.146  0.2116 -0.4299 -0.0742
 1153SOL    HW114918   2.801   1.970   9.098  0.8516  0.0819 -0.0905
 1153SOL    HW214919   2.716   1.989   9.223 -2.4815 -0.7506 -1.4314
 1154SOL     OW14920   4.351   0.854   7.745 -0.7428  0.0137  0.5472
 1154SOL    HW114921   4.407   0.932   7.744  1.4820 -1.6033 -1.3670
 1154SOL    HW214922   4.389   0.808   7.670 -1.2586 -2.0376  1.5577
 1155SOL     OW14923   3.575   0.352   8.281 -0.0048  0.3927  0.3648
 1155SOL    HW114924   3.568   0.410   8.205 -1.1873  1.0256  0.9595
 1155SOL    HW214925   3.552   0.410   8.353  0.0093  0.6681  0.1513
 1156SOL     OW14926   1.097   1.396   7.242  0.0137  0.5809  0.3178
 1156SOL    HW114927   1.149   1.350   7.177  1.7571  1.4789  1.0770
 1156SOL    HW214928   1.161   1.439   7.298 -0.2507  1.7560 -0.2854
 1157SOL     OW14929   3.658   3.618  17.252 -0.1989  0.1302  0.7060
 1157SOL    HW114930   3.619   3.696  17.290 -1.4314 -0.1966  0.1248
 1157SOL    HW214931   3.752   3.628  17.263 -0.3245  2.1626 -0.0372
 1158SOL     OW14932   2.156   2.476  15.155  0.1381  0.3379 -0.6162
 1158SOL    HW114933   2.075   2.463  15.205  1.2922 -0.8765  0.9306
 1158SOL    HW214934   2.167   2.391  15.113  0.1640  0.1483 -0.2198
 1159SOL     OW14935   2.930   2.090   6.035  0.2514 -0.1006  0.1597
 1159SOL    HW114936   2.867   2.054   6.097 -2.0520  1.1082 -1.4940
 1159SOL    HW214937   2.864   2.116   5.972  0.4775 -0.5035 -0.2398
 1160SOL     OW14938   2.387   0.604  16.859  0.3150  0.2225 -0.4695
 1160SOL    HW114939   2.297   0.623  16.832 -1.1345 -2.6305  2.1771
 1160SOL    HW214940   2.432   0.683  16.831  0.1158  0.5079  0.0132
 1161SOL     OW14941   1.189   2.924   8.574  0.0620  0.3437  0.0106
 1161SOL    HW114942   1.204   2.837   8.536  1.3301  1.7469 -2.7131
 1161SOL    HW214943   1.127   2.902   8.643 -1.4904  1.3673 -1.0482
 1162SOL     OW14944   0.577   3.767   1.824  0.3795 -0.1551  0.1017
 1162SOL    HW114945   0.549   3.787   1.914 -0.7242 -1.4153  0.0257
 1162SOL    HW214946   0.522   3.827   1.774 -0.1530 -0.4755  0.3003
 1163SOL     OW14947   4.324   1.079   2.696 -0.1330 -0.3906  0.1072
 1163SOL    HW114948   4.293   0.998   2.736  1.4972 -0.3819  1.3996
 1163SOL    HW214949   4.312   1.062   2.602  0.4893  0.8467 -0.2009
 1164SOL     OW14950   1.885   0.775  11.463  0.3892  0.3300  0.4454
 1164SOL    HW114951   1.867   0.852  11.409  0.0984 -0.6981 -0.9376
 1164SOL    HW214952   1.829   0.790  11.539 -0.5717  0.8183 -0.3467
 1165SOL     OW14953   1.245   1.673   8.004 -0.0715 -1.1941 -0.3267
 1165SOL    HW114954   1.301   1.606   8.043 -0.5002 -1.3187  0.0717
 1165SOL    HW214955   1.309   1.738   7.974 -0.9022  0.0007  0.5055
 1166SOL     OW14956   1.649   4.699   9.195  0.2254  0.3400  0.2551
 1166SOL    HW114957   1.710   4.709   9.268  0.1832 -2.9569  0.7440
 1166SOL    HW214958   1.617   4.611   9.218  0.3057 -0.0941 -1.2484
 1167SOL     OW14959   1.288   4.221   4.096  0.1044  0.1544 -0.3510
 1167SOL    HW114960   1.293   4.243   4.189 -2.8361 -0.1189 -0.1298
 1167SOL    HW214961   1.240   4.139   4.112  0.7234 -0.1543 -0.0441
 1168SOL     OW14962   3.581   1.708  10.403 -0.1559  0.6123 -0.4493
 1168SOL    HW114963   3.611   1.638  10.461 -0.2067  1.3165  0.4293
 1168SOL    HW214964   3.598   1.785  10.457 -0.4306 -0.9362  1.8667
 1169SOL     OW14965   2.993   0.563   8.617  0.0496 -0.7345  0.3427
 1169SOL    HW114966   2.959   0.638   8.665 -0.0666 -1.6470  1.6825
 1169SOL    HW214967   3.078   0.553   8.660  1.5707  0.7331 -2.3212
 1170SOL     OW14968   1.891   4.500  13.943 -0.4768  0.3170  0.0927
 1170SOL    HW114969   1.843   4.576  13.976 -0.5731 -0.0909  0.8904
 1170SOL    HW214970   1.827   4.435  13.972  0.9455 -1.5007 -0.7898
 1171SOL     OW14971   0.876   0.107   6.480  0.5979  0.0954 -0.3307
 1171SOL    HW114972   0.928   0.079   6.405 -0.9504 -1.8223 -0.6757
 1171SOL    HW214973   0.819   0.170   6.437 -1.0719  0.2551  2.1207
 1172SOL     OW14974   4.019   0.784   8.782 -0.7504 -0.6380 -0.6895
 1172SOL    HW114975   4.016   0.848   8.854 -0.6281 -0.5642 -0.7498
 1172SOL    HW214976   4.093   0.726   8.800  0.6944  1.0939 -1.0297
 1173SOL     OW14977   4.596   3.711   5.596  0.1539  0.0627  0.3532
 1173SOL    HW114978   4.638   3.639   5.643 -2.5675 -1.6634  0.1897
 1173SOL    HW214979   4.651   3.783   5.627  1.0188 -0.5532  0.2542
 1174SOL     OW14980   3.203   4.203   0.137  0.0388  0.6237  0.1628
 1174SOL    HW114981   3.194   4.202   0.232 -0.3780 -1.5615  0.1019
 1174SOL    HW214982   3.117   4.240   0.119 -0.9792 -1.0895  1.4790
 1175SOL     OW14983   1.730   0.374   5.639 -0.1140 -0.1974 -0.1079
 1175SOL    HW114984   1.645   0.367   5.596 -0.9087 -0.5682  1.5232
 1175SOL    HW214985   1.783   0.416   5.572  1.9192 -0.2828  1.4503
 1176SOL     OW14986   4.514   0.196   8.078 -0.2861  0.0584 -0.2131
 1176SOL    HW114987   4.432   0.162   8.113 -0.5358 -1.0737 -1.9097
 1176SOL    HW214988   4.566   0.156   8.147 -1.4995  1.2413  1.3861
 1177SOL     OW14989   3.184   0.732   4.833 -0.0631  0.7193 -0.6433
 1177SOL    HW114990   3.147   0.752   4.747 -1.3742 -0.4341 -0.3636
 1177SOL    HW214991   3.148   0.645   4.854  0.3127  0.6152 -0.4355
 1178SOL     OW14992   0.809   1.752   6.173 -0.5558  0.0245 -0.0123
 1178SOL    HW114993   0.740   1.687   6.184 -0.1938 -0.3377  0.0916
 1178SOL    HW214994   0.770   1.822   6.225 -0.0823 -0.6796  1.2634
 1179SOL     OW14995   1.173   4.614  10.459 -0.3038  0.0451  0.0061
 1179SOL    HW114996   1.114   4.544  10.487  1.6978 -0.3325  3.2151
 1179SOL    HW214997   1.250   4.586  10.508 -0.4937 -0.1247  0.2106
 1180SOL     OW14998   1.011   4.019   9.860 -0.3089  0.5259 -0.0483
 1180SOL    HW114999   1.045   4.086   9.800 -1.7327  0.8585 -0.4738
 1180SOL    HW215000   0.928   4.000   9.817 -0.7277  0.9536  0.5885
 1181SOL     OW15001   4.615   2.027   4.787 -0.7491 -0.2291  0.0337
 1181SOL    HW115002   4.662   2.037   4.704 -0.7234 -1.6996 -0.1323
 1181SOL    HW215003   4.530   2.066   4.766  0.2923  2.3429  0.5680
 1182SOL     OW15004   1.666   1.462   0.095 -0.6630 -0.4249  0.4203
 1182SOL    HW115005   1.651   1.449   0.188  0.9914 -1.4553  0.5534
 1182SOL    HW215006   1.711   1.546   0.102 -0.5228 -0.7592  3.2918
 1183SOL     OW15007   4.030   2.799   6.002  0.1451 -0.5479 -0.1327
 1183SOL    HW115008   4.121   2.821   6.020 -0.0483 -1.3837  1.8973
 1183SOL    HW215009   3.977   2.863   6.050  0.5804 -0.0199 -0.3487
 1184SOL     OW15010   4.541   2.678  16.790 -0.2101  0.0909  0.3086
 1184SOL    HW115011   4.530   2.585  16.770 -0.0099  0.3804 -1.1042
 1184SOL    HW215012   4.461   2.699  16.840  0.0285 -0.0232  0.7392
 1185SOL     OW15013   3.634   2.862   2.699  0.0757  0.2880 -0.0223
 1185SOL    HW115014   3.702   2.839   2.636 -0.0920 -2.3286  0.7629
 1185SOL    HW215015   3.681   2.913   2.764 -0.3134  1.0296 -0.3257
 1186SOL     OW15016   3.537   4.078   3.196 -0.0103 -0.2139 -0.0272
 1186SOL    HW115017   3.608   4.111   3.140 -0.1571 -1.0627 -0.7193
 1186SOL    HW215018   3.554   4.125   3.277 -0.8570 -0.9288  0.5580
 1187SOL     OW15019   0.784   1.558  11.225 -0.1983 -0.1076  0.1609
 1187SOL    HW115020   0.764   1.482  11.170  0.9284 -1.7976  2.0907
 1187SOL    HW215021   0.740   1.528  11.304  1.4830  0.2744  1.2468
 1188SOL     OW15022   0.902   2.885   8.257 -0.4057 -0.2220  0.0658
 1188SOL    HW115023   0.925   2.856   8.345 -0.3380 -2.2429 -0.6084
 1188SOL    HW215024   0.821   2.847   8.223 -0.9928  1.4436 -0.3746
 1189SOL     OW15025   3.496   4.301   0.324 -0.0091  0.2850 -0.5426
 1189SOL    HW115026   3.431   4.298   0.394  0.8281 -1.3473  0.1792
 1189SOL    HW215027   3.483   4.214   0.287  1.6180  0.4646 -1.5555
 1190SOL     OW15028   1.102   0.155   8.819 -0.1863 -0.6315 -0.0431
 1190SOL    HW115029   1.054   0.072   8.809  1.5856 -1.4497 -1.9046
 1190SOL    HW215030   1.192   0.124   8.816  0.8840  2.5528  0.0670
 1191SOL     OW15031   2.621   3.072   1.655 -0.4579 -0.4273 -0.1340
 1191SOL    HW115032   2.699   3.023   1.632 -0.3733  0.6451 -2.1769
 1191SOL    HW215033   2.613   3.125   1.575  2.7252 -0.4759 -0.4576
 1192SOL     OW15034   4.429   0.505   1.862  0.3694  0.7040  0.5216
 1192SOL    HW115035   4.432   0.539   1.773  2.1250 -2.7950 -0.7599
 1192SOL    HW215036   4.393   0.417   1.853  0.2913  0.9355 -1.3392
 1193SOL     OW15037   4.568   3.122   9.364 -0.6620  0.1721 -0.2893
 1193SOL    HW115038   4.625   3.156   9.295  1.0050 -0.9762  0.5072
 1193SOL    HW215039   4.625   3.115   9.441 -1.3284  2.0959  0.4013
 1194SOL     OW15040   0.149   2.385   7.173 -0.0410 -0.1814 -0.1606
 1194SOL    HW115041   0.170   2.421   7.087 -0.5459 -1.3210 -0.7593
 1194SOL    HW215042   0.216   2.323   7.200  1.3555  0.9781 -0.9755
 1195SOL     OW15043   2.077   0.366   6.567  0.2805 -0.3109 -0.0966
 1195SOL    HW115044   2.142   0.433   6.587 -0.5382 -0.8619  4.3372
 1195SOL    HW215045   2.039   0.339   6.651  0.1367 -0.8059 -0.3200
 1196SOL     OW15046   3.234   2.729   5.675  0.2064 -0.0944  0.1535
 1196SOL    HW115047   3.197   2.739   5.763  0.8633  1.0023  0.3045
 1196SOL    HW215048   3.328   2.741   5.685  0.2715 -1.4090  1.0942
 1197SOL     OW15049   0.887   1.232   4.337  0.3342 -0.0619  0.1784
 1197SOL    HW115050   0.815   1.251   4.397  2.2914 -1.6124  3.0522
 1197SOL    HW215051   0.842   1.257   4.256  2.9371 -0.2581 -1.3353
 1198SOL     OW15052   0.225   0.035   5.094 -0.0606  0.2495  0.4451
 1198SOL    HW115053   0.192   0.003   5.010  1.3756 -0.7800  0.2673
 1198SOL    HW215054   0.274   4.690   5.141  2.1104  0.3893 -1.6135
 1199SOL     OW15055   3.421   0.585   6.275 -0.4277  0.0542  0.0480
 1199SOL    HW115056   3.455   0.585   6.186 -0.2803 -0.0745  0.1048
 1199SOL    HW215057   3.506   0.611   6.309  0.1225 -0.1270 -1.2017
 1200SOL     OW15058   1.570   2.597   2.368  0.3135  0.3210 -0.5538
 1200SOL    HW115059   1.651   2.552   2.345  1.9595  2.2134  1.5906
 1200SOL    HW215060   1.596   2.687   2.347 -2.0325  0.9834 -0.6334
 1201SOL     OW15061   2.396   2.013   7.149  0.4749  0.1483  0.6292
 1201SOL    HW115062   2.332   1.976   7.089  0.9913 -1.4205  1.0470
 1201SOL    HW215063   2.343   2.083   7.188  0.4899 -0.9281  2.5542
 1202SOL     OW15064   1.430   3.512   8.659 -0.1870  0.4164 -0.0384
 1202SOL    HW115065   1.399   3.427   8.689  1.3930  0.1791  0.8886
 1202SOL    HW215066   1.492   3.536   8.727 -0.3641 -0.8941  0.5836
 1203SOL     OW15067   0.895   0.464   5.669  0.7172  0.4873  0.5565
 1203SOL    HW115068   0.913   0.411   5.746 -1.6761  0.0051  0.7961
 1203SOL    HW215069   0.972   0.444   5.615 -0.3340 -4.5389  0.9093
 1204SOL     OW15070   3.683   2.132   2.643 -0.0607 -0.3089 -0.0231
 1204SOL    HW115071   3.691   2.109   2.735 -0.2357  0.2799  0.1441
 1204SOL    HW215072   3.733   2.069   2.592 -0.2799  0.1174 -0.7685
 1205SOL     OW15073   1.647   0.347  10.795 -0.4228  0.2990 -0.5209
 1205SOL    HW115074   1.577   0.284  10.813  1.4341 -0.7532  2.9350
 1205SOL    HW215075   1.695   0.348  10.878  0.1021  1.8990 -0.8436
 1206SOL     OW15076   4.495   0.749   2.379 -0.3725 -0.2227  0.0777
 1206SOL    HW115077   4.406   0.755   2.415  0.6380 -1.3208  2.7748
 1206SOL    HW215078   4.478   0.732   2.287  2.5227  1.4006 -0.7289
 1207SOL     OW15079   0.818   3.828   6.848 -0.5203  0.0772  0.0290
 1207SOL    HW115080   0.728   3.859   6.864 -1.2252 -1.5674 -0.7903
 1207SOL    HW215081   0.828   3.782   6.931 -1.2919 -0.5430 -0.2165
 1208SOL     OW15082   4.565   3.255   5.075  0.3073 -0.5347  0.3174
 1208SOL    HW115083   4.633   3.192   5.050  3.3258  2.8510 -0.0874
 1208SOL    HW215084   4.590   3.275   5.166 -0.4291 -1.6322  0.7582
 1209SOL     OW15085   2.232   2.477   9.402 -0.0011 -0.2950  0.0753
 1209SOL    HW115086   2.256   2.389   9.375  0.8180  1.1016 -3.8641
 1209SOL    HW215087   2.222   2.503   9.310 -3.1459  0.7981  0.7014
 1210SOL     OW15088   2.346   3.141   2.511  0.1235 -0.2818 -0.1991
 1210SOL    HW115089   2.429   3.121   2.467  0.5498 -0.7654  0.8302
 1210SOL    HW215090   2.309   3.059   2.545 -1.4533  0.7787  0.6168
 1211SOL     OW15091   0.594   4.266  16.000 -0.2276  0.0579 -0.2382
 1211SOL    HW115092   0.684   4.234  15.989 -0.3704 -1.4316  2.9153
 1211SOL    HW215093   0.616   4.359  16.000 -0.1729  0.0441  0.5121
 1212SOL     OW15094   2.384   3.784   5.686  0.4394 -0.0528  0.6001
 1212SOL    HW115095   2.343   3.853   5.739 -0.6253  0.2491 -0.6305
 1212SOL    HW215096   2.472   3.783   5.723  0.3264  0.1264  0.8723
 1213SOL     OW15097   3.744   0.374   3.122  0.1144 -0.0695 -0.0973
 1213SOL    HW115098   3.691   0.294   3.128  0.4678 -0.1629  1.5866
 1213SOL    HW215099   3.788   0.369   3.206  1.2283 -0.3569 -0.6886
 1214SOL     OW15100   3.848   2.684  17.593 -0.0885  0.5432  0.7084
 1214SOL    HW115101   3.888   2.620  17.535  1.5054  2.3679 -0.2161
 1214SOL    HW215102   3.916   2.750  17.578  1.3028 -0.9243  0.5940
 1215SOL     OW15103   0.333   3.717   9.498 -0.4315 -0.0659 -0.3822
 1215SOL    HW115104   0.260   3.720   9.560  0.2507  0.5013  0.3919
 1215SOL    HW215105   0.397   3.680   9.558 -1.9051 -3.7729 -1.0774
 1216SOL     OW15106   0.065   0.354  10.278 -0.3690  0.1917 -0.2854
 1216SOL    HW115107   0.139   0.408  10.305 -1.2546  0.4943  1.5276
 1216SOL    HW215108   0.070   0.367  10.183  1.9079 -1.0312 -0.3285
 1217SOL     OW15109   0.681   2.884  17.202 -0.3402 -0.0727 -0.0438
 1217SOL    HW115110   0.622   2.830  17.255  0.8005  0.1049  1.4265
 1217SOL    HW215111   0.765   2.838  17.202 -0.2855  0.0560 -2.0112
 1218SOL     OW15112   0.786   0.548   1.530  0.4823 -0.0561  0.5664
 1218SOL    HW115113   0.852   0.511   1.588 -0.9000  0.8758  2.7462
 1218SOL    HW215114   0.827   0.564   1.445 -1.5316  2.2831  0.0489
 1219SOL     OW15115   2.222   4.433   5.673 -0.0207 -0.7368 -0.1192
 1219SOL    HW115116   2.232   4.455   5.581 -0.9985 -1.2075 -0.3459
 1219SOL    HW215117   2.172   4.510   5.699  0.9560 -0.3965  0.7431
 1220SOL     OW15118   2.178   4.287   6.053  0.1822  0.2798  0.1624
 1220SOL    HW115119   2.229   4.278   5.973 -0.0858  1.6829 -0.1763
 1220SOL    HW215120   2.246   4.240   6.102  2.1831  0.6131 -2.2747
 1221SOL     OW15121   4.022   0.777  14.349  0.3647 -0.7134  0.8919
 1221SOL    HW115122   3.997   0.714  14.416 -2.8266 -0.4567 -0.0836
 1221SOL    HW215123   4.093   0.728  14.307 -0.5239 -1.3966  0.1681
 1222SOL     OW15124   3.588   4.429   2.484  0.4915  0.2221 -0.4788
 1222SOL    HW115125   3.586   4.366   2.412 -1.2417 -0.8897  0.5546
 1222SOL    HW215126   3.554   4.509   2.444  0.6589  1.5208  1.9908
 1223SOL     OW15127   1.554   1.775   2.377 -0.8794 -0.5447 -0.0786
 1223SOL    HW115128   1.568   1.725   2.297 -0.8765 -2.1899  0.9602
 1223SOL    HW215129   1.599   1.713   2.434 -0.3144 -0.7302 -0.7236
 1224SOL     OW15130   0.613   3.517   6.346 -0.4094  0.3535 -0.3902
 1224SOL    HW115131   0.694   3.538   6.394 -0.8083 -1.5942  1.1486
 1224SOL    HW215132   0.550   3.501   6.417 -2.1415  1.2165 -1.7308
 1225SOL     OW15133   0.074   2.761  16.883 -0.4484  0.1534 -0.1351
 1225SOL    HW115134   0.117   2.729  16.962 -0.2379  0.0473 -0.2943
 1225SOL    HW215135   0.018   2.686  16.863  1.2690 -0.7079 -1.7011
 1226SOL     OW15136   3.035   2.225  15.934  0.0332 -0.2071  0.2501
 1226SOL    HW115137   3.130   2.235  15.938  0.0045  0.8889 -1.4827
 1226SOL    HW215138   3.013   2.248  16.024  1.5653  1.1068  0.3018
 1227SOL     OW15139   1.870   2.460  11.311  0.3964 -0.3080  0.0879
 1227SOL    HW115140   1.874   2.553  11.332  0.2324 -0.0956 -0.8210
 1227SOL    HW215141   1.919   2.420  11.383  1.8705  1.3625  0.0011
 1228SOL     OW15142   4.563   3.965   8.743 -1.2065  0.2995 -0.4657
 1228SOL    HW115143   4.520   3.880   8.741 -1.4177  0.3971 -0.1493
 1228SOL    HW215144   4.611   3.960   8.661  1.2533 -0.3567  1.0026
 1229SOL     OW15145   0.904   1.348   4.977 -0.1209 -0.0106  0.1769
 1229SOL    HW115146   0.976   1.408   4.997  1.1713 -2.0182  1.5523
 1229SOL    HW215147   0.953   1.299   4.910 -0.2951 -2.0999  1.5796
 1230SOL     OW15148   3.930   3.135   2.675 -0.1756  0.2769  0.1037
 1230SOL    HW115149   3.866   3.182   2.621 -1.3100 -0.2691  0.9635
 1230SOL    HW215150   4.003   3.196   2.666  0.8634 -0.7826  1.3388
 1231SOL     OW15151   1.843   4.475   6.470 -0.0777 -0.3864  0.4302
 1231SOL    HW115152   1.859   4.381   6.480  0.5307 -0.1023  2.0736
 1231SOL    HW215153   1.790   4.490   6.548  1.6578 -0.3212  1.6046
 1232SOL     OW15154   2.404   0.955   5.491 -0.4937  0.8854 -0.3324
 1232SOL    HW115155   2.411   0.860   5.481 -1.3196  0.9336 -1.3842
 1232SOL    HW215156   2.450   0.985   5.412 -2.0366  0.4176 -1.4149
 1233SOL     OW15157   0.680   4.326   4.759 -0.0810 -0.6166  0.0933
 1233SOL    HW115158   0.656   4.397   4.700  2.1000  1.1920  1.3973
 1233SOL    HW215159   0.617   4.335   4.831  0.0189  2.5576 -0.1998
 1234SOL     OW15160   3.729   4.448   3.283  0.3747 -0.3221  0.3221
 1234SOL    HW115161   3.753   4.541   3.277  1.7742 -0.6643  0.6199
 1234SOL    HW215162   3.813   4.414   3.253  2.3238  2.4751  2.5057
 1235SOL     OW15163   2.928   4.098   7.490  0.1603 -0.7350  0.3361
 1235SOL    HW115164   3.014   4.105   7.448  1.9272 -1.9247  3.7672
 1235SOL    HW215165   2.954   4.062   7.575 -1.2952  0.8985  1.4690
 1236SOL     OW15166   2.946   0.830   2.743 -0.0351 -0.0645  0.2335
 1236SOL    HW115167   3.027   0.880   2.739  0.0250 -0.2161 -0.4443
 1236SOL    HW215168   2.943   0.810   2.649 -0.2357  3.5251 -0.4995
 1237SOL     OW15169   3.541   2.440   5.224  0.3255  0.6245  0.2795
 1237SOL    HW115170   3.635   2.453   5.210  0.2883 -0.4719 -1.0014
 1237SOL    HW215171   3.509   2.495   5.152  0.0928  1.1861  0.8105
 1238SOL     OW15172   4.018   4.198   0.513  0.1997 -0.5200 -0.1438
 1238SOL    HW115173   3.972   4.155   0.440 -0.2665 -4.5854  2.4920
 1238SOL    HW215174   4.074   4.256   0.462  0.0843 -0.6955 -0.4725
 1239SOL     OW15175   0.208   0.604   3.360  0.1097  0.3401 -0.5196
 1239SOL    HW115176   0.290   0.612   3.409  0.8653 -0.4428 -1.6546
 1239SOL    HW215177   0.229   0.542   3.290 -0.6089  0.6633 -1.0077
 1240SOL     OW15178   1.748   0.022   5.880  0.2959  0.4215  0.1985
 1240SOL    HW115179   1.777   4.695   5.957 -0.5688 -0.4034  0.0021
 1240SOL    HW215180   1.794   0.105   5.892  0.1946  0.7280 -1.6338
 1241SOL     OW15181   1.195   0.116   1.317 -0.1930 -0.2614  0.1627
 1241SOL    HW115182   1.278   0.117   1.271  0.8146  1.1536  2.0109
 1241SOL    HW215183   1.202   0.020   1.313  0.1186 -0.2451  0.3275
 1242SOL     OW15184   2.480   1.793   5.381  0.4619  0.1088 -0.0596
 1242SOL    HW115185   2.397   1.791   5.332  0.3069  0.3912  0.1963
 1242SOL    HW215186   2.464   1.711   5.429  0.9804 -0.8378 -1.4893
 1243SOL     OW15187   3.584   0.951  10.312 -0.0664  0.0166 -0.2413
 1243SOL    HW115188   3.506   0.922  10.264 -0.8278  1.3228  0.2148
 1243SOL    HW215189   3.582   0.885  10.382 -0.3247  0.2967  0.0185
 1244SOL     OW15190   1.352   0.411  13.517  0.3480 -0.4179 -0.0091
 1244SOL    HW115191   1.402   0.442  13.442 -0.1099  4.2297  1.5803
 1244SOL    HW215192   1.280   0.473  13.526 -0.2439 -1.2159  0.7451
 1245SOL     OW15193   2.518   1.099   5.280 -0.1272 -0.1771  0.2437
 1245SOL    HW115194   2.612   1.081   5.280 -0.1030 -0.0395 -0.8193
 1245SOL    HW215195   2.510   1.143   5.196  0.3376  0.9062  0.7642
 1246SOL     OW15196   4.082   2.782   7.765 -0.0809  0.2894  0.5621
 1246SOL    HW115197   4.128   2.797   7.847  0.3189 -0.0982  0.4125
 1246SOL    HW215198   4.139   2.815   7.695 -2.0135  1.7665 -0.2987
 1247SOL     OW15199   2.778   4.597   4.456 -0.1437  0.6817 -0.3299
 1247SOL    HW115200   2.723   4.543   4.400  0.0582  0.2738 -0.1349
 1247SOL    HW215201   2.850   4.617   4.396 -1.0104  0.0999 -1.5628
 1248SOL     OW15202   0.945   0.805  16.773 -0.2417  0.4679  0.1418
 1248SOL    HW115203   0.954   0.804  16.678 -1.9205 -0.6117  0.0036
 1248SOL    HW215204   0.849   0.799  16.774 -0.0124 -3.3643 -1.1393
 1249SOL     OW15205   2.538   3.598  16.562 -0.1011 -0.1579 -0.0677
 1249SOL    HW115206   2.545   3.642  16.478  1.9066  0.3799  0.3713
 1249SOL    HW215207   2.627   3.562  16.563  0.9627  2.4017 -2.9875
 1250SOL     OW15208   4.344   1.775   9.634  0.2803  0.0759 -0.5877
 1250SOL    HW115209   4.265   1.747   9.589  0.0089  1.2081 -0.8219
 1250SOL    HW215210   4.396   1.697   9.614  3.4080  2.2776 -1.0454
 1251SOL     OW15211   4.680   4.302   3.166 -0.3215  0.4176 -0.1356
 1251SOL    HW115212   4.674   4.218   3.210 -1.3015  1.3525  1.5239
 1251SOL    HW215213   4.617   4.358   3.212 -0.8118 -0.3007  0.0743
 1252SOL     OW15214   4.069   0.099  17.124  0.0361  0.1045 -0.5507
 1252SOL    HW115215   4.069   0.111  17.029 -0.8384 -0.5332 -0.6347
 1252SOL    HW215216   3.978   0.094  17.156  0.2759  0.9774  0.2575
 1253SOL     OW15217   1.443   4.069  11.127 -0.6567 -0.0719  0.2153
 1253SOL    HW115218   1.370   4.099  11.074 -2.4522 -0.3479  2.5418
 1253SOL    HW215219   1.433   4.121  11.207  1.0753 -0.9263  1.0003
 1254SOL     OW15220   3.250   0.047   8.068 -0.5186 -0.6245  0.2087
 1254SOL    HW115221   3.285   0.096   8.143 -0.5031  0.0549 -0.2465
 1254SOL    HW215222   3.331   0.030   8.021 -0.3539  1.8238 -0.4019
 1255SOL     OW15223   1.678   4.035   5.907 -0.6085 -0.1922 -0.0449
 1255SOL    HW115224   1.728   3.968   5.861  1.0270  0.5568  0.6360
 1255SOL    HW215225   1.657   4.083   5.827  1.7863 -1.0933 -1.2222
 1256SOL     OW15226   2.868   2.307  15.068 -0.7208  0.4966 -0.1427
 1256SOL    HW115227   2.812   2.248  15.017  2.7002 -2.0180 -1.0105
 1256SOL    HW215228   2.809   2.344  15.133 -1.4996 -1.6159  0.3483
 1257SOL     OW15229   3.032   3.105   6.877  0.3487 -0.3766  0.4336
 1257SOL    HW115230   3.083   3.093   6.957 -0.8193  0.1579  1.2726
 1257SOL    HW215231   2.947   3.088   6.920 -0.1353 -1.2241 -0.8577
 1258SOL     OW15232   0.153   1.194   6.259 -0.1189 -0.4871 -0.3950
 1258SOL    HW115233   0.089   1.241   6.205 -0.6491  0.5337  1.1382
 1258SOL    HW215234   0.114   1.206   6.346  4.4150  2.6911  1.1771
 1259SOL     OW15235   2.244   1.998   3.149  0.4927 -0.1528  0.1793
 1259SOL    HW115236   2.251   1.918   3.097 -0.3498  0.9638 -1.6841
 1259SOL    HW215237   2.207   2.057   3.082  0.3353  0.0162  0.4137
 1260SOL     OW15238   2.358   0.052  11.595 -0.8259  0.2601 -0.2677
 1260SOL    HW115239   2.320   4.688  11.614 -1.4424  0.2714 -1.4271
 1260SOL    HW215240   2.289   0.103  11.636 -1.0030 -0.8798  0.8384
 1261SOL     OW15241   0.879   1.128  11.266  0.3611 -0.2045 -0.1126
 1261SOL    HW115242   0.960   1.078  11.269  0.5421  0.1288  0.4552
 1261SOL    HW215243   0.894   1.194  11.199  1.6754  0.2788  0.6682
 1262SOL     OW15244   2.416   4.026   7.017  0.0602 -0.2851  0.2039
 1262SOL    HW115245   2.381   3.949   6.971 -0.6857  0.3211 -0.2390
 1262SOL    HW215246   2.510   4.009   7.021  0.0397 -0.4903 -0.1815
 1263SOL     OW15247   0.912   1.429   7.768 -0.1645  0.4634 -0.0923
 1263SOL    HW115248   0.884   1.418   7.859  0.8198 -0.1913  0.1350
 1263SOL    HW215249   0.965   1.508   7.774 -0.8085  0.6748  2.9379
 1264SOL     OW15250   4.703   3.722  15.707 -0.4948  0.1616  0.3991
 1264SOL    HW115251   4.706   3.691  15.616  0.3113  0.3786  0.3510
 1264SOL    HW215252   4.666   3.643  15.745  0.1732  1.6310  4.0526
 1265SOL     OW15253   2.047   1.929   7.317  0.1055  0.4233 -0.5002
 1265SOL    HW115254   2.011   2.001   7.265 -2.9800 -1.4697 -0.9852
 1265SOL    HW215255   1.965   1.890   7.348 -0.3088  2.2895  0.7771
 1266SOL     OW15256   2.542   2.577   3.105 -0.2096  0.2353  0.3175
 1266SOL    HW115257   2.493   2.651   3.069 -3.1275 -1.4059  0.9200
 1266SOL    HW215258   2.498   2.504   3.061 -1.1300  0.2229  1.2863
 1267SOL     OW15259   1.401   2.978   1.456 -0.1000 -0.5943  0.7229
 1267SOL    HW115260   1.465   3.045   1.431 -0.2167 -1.2658 -1.3257
 1267SOL    HW215261   1.380   2.941   1.371  0.5388 -1.1015  0.7895
 1268SOL     OW15262   2.609   3.771  11.133 -0.7956 -0.2598 -0.1627
 1268SOL    HW115263   2.622   3.796  11.224  3.5176 -2.8520 -0.0667
 1268SOL    HW215264   2.568   3.686  11.153  1.1170 -0.9990  0.6506
 1269SOL     OW15265   0.248   0.608   1.801  0.4084 -0.2184  0.1600
 1269SOL    HW115266   0.307   0.679   1.779  0.5746 -0.3475  0.1930
 1269SOL    HW215267   0.164   0.655   1.799  0.9707  0.8601  1.9260
 1270SOL     OW15268   4.228   2.479  17.314  0.0831 -0.0266  0.7622
 1270SOL    HW115269   4.193   2.493  17.402 -0.7616 -0.9129  0.5587
 1270SOL    HW215270   4.156   2.500  17.255  0.3696 -0.0177  0.4116
 1271SOL     OW15271   3.472   3.564   7.928 -0.6569  0.7428  0.5515
 1271SOL    HW115272   3.566   3.564   7.945 -0.6900 -0.5833  0.7506
 1271SOL    HW215273   3.460   3.471   7.908 -1.6409  0.5999  1.8233
 1272SOL     OW15274   0.502   1.014   5.962 -0.8787 -0.2205 -0.9575
 1272SOL    HW115275   0.427   1.073   5.951 -1.1520 -0.1594  1.4236
 1272SOL    HW215276   0.541   1.018   5.874 -0.1362 -0.0603 -0.6178
 1273SOL     OW15277   4.134   4.542   2.372  0.4972 -0.5844 -0.0179
 1273SOL    HW115278   4.132   4.568   2.464  2.0227 -0.5536  0.0107
 1273SOL    HW215279   4.213   4.488   2.376  1.5883  1.0510  0.4604
 1274SOL     OW15280   0.961   2.326  15.403 -0.6253 -0.4791  0.2023
 1274SOL    HW115281   1.027   2.299  15.339 -2.8982 -0.6377 -2.0646
 1274SOL    HW215282   0.892   2.266  15.377  0.6177 -0.9712 -1.9348
 1275SOL     OW15283   4.527   1.856  16.437  0.2177  0.1671  0.0904
 1275SOL    HW115284   4.512   1.778  16.384  1.1307 -0.1037  0.2212
 1275SOL    HW215285   4.529   1.930  16.377 -1.2942 -1.0232 -1.4375
 1276SOL     OW15286   0.962   0.063   8.447  0.3486 -0.4124  0.5642
 1276SOL    HW115287   1.052   0.096   8.454  0.1643  0.3632 -0.7207
 1276SOL    HW215288   0.952   0.052   8.541 -1.0317 -1.0105  0.3433
 1277SOL     OW15289   4.005   4.706   2.744  0.2065  0.4614  0.1268
 1277SOL    HW115290   4.046   4.619   2.744 -1.5780 -0.3877  2.3413
 1277SOL    HW215291   3.951   4.701   2.664  1.6615 -2.4123 -0.6692
 1278SOL     OW15292   3.746   1.657   2.149 -0.0885  0.2822 -0.4663
 1278SOL    HW115293   3.713   1.568   2.140  0.4882  0.0272  0.0279
 1278SOL    HW215294   3.662   1.704   2.156 -0.2605 -0.3131  1.4075
 1279SOL     OW15295   3.436   0.478  10.283 -0.0760  0.2343  0.0663
 1279SOL    HW115296   3.364   0.533  10.254 -1.1300 -0.0779  2.1391
 1279SOL    HW215297   3.399   0.457  10.368 -0.2387  0.3733  0.0288
 1280SOL     OW15298   0.257   1.438   9.285 -0.0070 -0.0019 -0.0775
 1280SOL    HW115299   0.287   1.364   9.231 -3.0932  0.2028 -2.0374
 1280SOL    HW215300   0.242   1.395   9.369 -1.7611 -0.9122 -0.8474
 1281SOL     OW15301   1.864   1.392  15.071  0.5074  0.2227  0.3725
 1281SOL    HW115302   1.889   1.463  15.011  0.5162  0.7009  0.9401
 1281SOL    HW215303   1.903   1.430  15.151  1.1216 -0.3596  0.3518
 1282SOL     OW15304   3.782   1.497   3.334  0.1823  0.3871  0.0032
 1282SOL    HW115305   3.698   1.519   3.295  0.4143 -0.6037 -1.0400
 1282SOL    HW215306   3.818   1.580   3.366 -0.9419 -0.2759  2.9163
 1283SOL     OW15307   1.075   3.347   4.682  0.2548 -0.4087  0.0275
 1283SOL    HW115308   1.111   3.260   4.668  1.4388  0.5795 -3.2002
 1283SOL    HW215309   1.135   3.379   4.749 -1.8580  0.8098  1.3519
 1284SOL     OW15310   1.050   0.627   2.176  0.0804  0.2810  0.0189
 1284SOL    HW115311   1.143   0.650   2.169  0.1426  0.2610  0.8230
 1284SOL    HW215312   1.015   0.715   2.194  1.7011  0.7273  0.9523
 1285SOL     OW15313   0.362   0.773  12.479 -0.0403  0.1540 -0.1053
 1285SOL    HW115314   0.318   0.844  12.431 -0.9352 -1.3788 -1.5570
 1285SOL    HW215315   0.333   0.809  12.563 -0.2731  0.3107 -0.2534
 1286SOL     OW15316   3.635   4.129   5.521 -0.4576  0.2113  0.1023
 1286SOL    HW115317   3.560   4.087   5.563 -0.0199  0.1090  0.7845
 1286SOL    HW215318   3.595   4.205   5.479 -0.7416  0.4654  0.8335
 1287SOL     OW15319   2.113   3.602   5.094 -0.5549 -0.1393 -0.8523
 1287SOL    HW115320   2.167   3.568   5.166 -4.6702 -4.7028  0.1042
 1287SOL    HW215321   2.180   3.647   5.042 -1.1977  1.1789 -0.5412
 1288SOL     OW15322   2.014   1.288   5.204  0.0698 -0.3053  0.0713
 1288SOL    HW115323   1.969   1.247   5.278  1.9177 -0.1656  1.2686
 1288SOL    HW215324   2.065   1.214   5.170  1.5794 -0.0410  1.7481
 1289SOL     OW15325   1.782   2.692   4.056 -0.8946  0.0416  0.2949
 1289SOL    HW115326   1.821   2.757   4.115 -2.2909  0.8258  0.3509
 1289SOL    HW215327   1.829   2.617   4.093 -1.2257  0.3908  1.4427
 1290SOL     OW15328   0.122   2.427   6.236  0.0479  0.0272  0.6279
 1290SOL    HW115329   0.090   2.479   6.309 -2.1927  1.8810 -1.6880
 1290SOL    HW215330   0.152   2.347   6.280 -0.4698  0.1892  1.2691
 1291SOL     OW15331   2.274   1.560   8.218 -0.2426 -0.1015 -0.3347
 1291SOL    HW115332   2.287   1.563   8.123  1.0905  0.5300 -0.1481
 1291SOL    HW215333   2.286   1.650   8.248 -0.1920 -0.7560  1.6358
 1292SOL     OW15334   0.180   1.045   4.009  0.3192 -0.3685 -0.3351
 1292SOL    HW115335   0.143   0.978   4.066 -1.1772  0.8902  0.1691
 1292SOL    HW215336   0.129   1.030   3.929 -1.3331 -0.8409  0.8068
 1293SOL     OW15337   1.343   0.045   3.456  0.5376  0.5457 -0.5932
 1293SOL    HW115338   1.293   0.061   3.376 -1.2878 -3.1576 -0.1515
 1293SOL    HW215339   1.430   0.035   3.418  0.7906 -1.7988  0.6026
 1294SOL     OW15340   4.462   3.551   9.867  0.6547  0.6239  0.3619
 1294SOL    HW115341   4.526   3.490   9.903 -1.2351  0.2478  3.0938
 1294SOL    HW215342   4.391   3.540   9.931  0.2521 -0.8943 -0.3593
 1295SOL     OW15343   4.641   1.389   5.333 -0.9702 -0.5134  0.2246
 1295SOL    HW115344   4.644   1.485   5.338 -2.2427 -0.3615 -1.8979
 1295SOL    HW215345   4.563   1.379   5.278 -0.5789 -2.3872  0.0239
 1296SOL     OW15346   1.373   2.139  13.306  0.3915 -0.1353  0.6324
 1296SOL    HW115347   1.427   2.065  13.278  1.6289  0.7408  0.6867
 1296SOL    HW215348   1.315   2.091  13.366  0.3527 -0.0831  0.6357
 1297SOL     OW15349   1.860   4.413   5.837 -0.4182  0.2457 -0.4285
 1297SOL    HW115350   1.845   4.467   5.914 -0.1160 -3.0420  1.9611
 1297SOL    HW215351   1.871   4.474   5.764 -0.5915  0.3262 -0.3871
 1298SOL     OW15352   1.341   0.776  10.789  0.5855  0.2531 -0.4726
 1298SOL    HW115353   1.300   0.731  10.715 -3.0907  0.0201  1.6872
 1298SOL    HW215354   1.386   0.850  10.748 -2.2873  1.5564 -1.2640
 1299SOL     OW15355   3.568   0.165   3.196 -0.4387  0.5110 -0.2132
 1299SOL    HW115356   3.544   0.079   3.161  0.9216  0.1673 -0.3330
 1299SOL    HW215357   3.493   0.207   3.238  0.1302 -0.1614  1.4385
 1300SOL     OW15358   3.684   0.905   0.274  0.0692 -0.4667  0.2477
 1300SOL    HW115359   3.620   0.976   0.280  1.2827  0.6517 -0.0691
 1300SOL    HW215360   3.689   0.875   0.364 -0.4256  0.0435  0.4483
 1301SOL     OW15361   1.458   1.483   7.969  0.4770 -0.7196  0.2952
 1301SOL    HW115362   1.464   1.417   7.900  1.6254 -0.8059  0.4911
 1301SOL    HW215363   1.537   1.451   8.011  0.1860 -0.7014  0.8618
 1302SOL     OW15364   2.306   2.389   4.679  0.3576 -0.1845 -0.0191
 1302SOL    HW115365   2.356   2.395   4.760  1.0482 -0.1412 -0.4503
 1302SOL    HW215366   2.233   2.341   4.718 -0.2032  1.0461  0.4812
 1303SOL     OW15367   0.789   0.894   4.974 -0.2126 -0.1945 -0.3662
 1303SOL    HW115368   0.837   0.813   4.988  1.6942  0.5762 -2.4595
 1303SOL    HW215369   0.828   0.931   4.895  1.5068  1.8548  1.4421
 1304SOL     OW15370   4.270   3.483  13.761 -0.4232 -0.7489  0.2637
 1304SOL    HW115371   4.225   3.492  13.676 -0.2246  1.2399  0.3733
 1304SOL    HW215372   4.206   3.524  13.819  0.9161  1.0997  0.4185
 1305SOL     OW15373   3.637   4.653   1.612  0.1230 -0.5061  0.1302
 1305SOL    HW115374   3.617   4.656   1.518 -1.3919  0.7363  0.4992
 1305SOL    HW215375   3.547   4.659   1.645  0.0942 -0.9521  0.1294
 1306SOL     OW15376   2.049   4.013   2.533 -0.4153  0.4071  0.0505
 1306SOL    HW115377   2.063   4.108   2.527 -2.4332  0.8491  2.4599
 1306SOL    HW215378   2.126   3.979   2.488  0.8664  2.8973  0.3710
 1307SOL     OW15379   1.371   1.551   0.892 -0.2500  0.7492  0.0318
 1307SOL    HW115380   1.291   1.586   0.853  0.6713  0.7705 -1.8465
 1307SOL    HW215381   1.421   1.633   0.897  0.6349  0.2302 -0.3401
 1308SOL     OW15382   0.534   0.148   6.536 -0.3229 -0.7642 -0.1579
 1308SOL    HW115383   0.583   0.217   6.490  0.0524 -0.9428 -0.0295
 1308SOL    HW215384   0.592   0.074   6.521 -0.0276 -0.6993  0.6561
 1309SOL     OW15385   3.025   1.933  11.236  0.1563  0.0162  0.1069
 1309SOL    HW115386   3.077   1.962  11.311  1.4138  0.9994 -1.1439
 1309SOL    HW215387   3.089   1.879  11.189 -0.3649  0.3353 -0.9695
 1310SOL     OW15388   0.946   3.132   7.686 -0.7175 -0.3414  0.1897
 1310SOL    HW115389   0.864   3.161   7.726 -0.8656 -0.8362  0.2490
 1310SOL    HW215390   0.956   3.048   7.731  0.4657 -0.6771 -0.6879
 1311SOL     OW15391   1.352   0.260  14.618  0.0761  0.4448  0.3533
 1311SOL    HW115392   1.364   0.218  14.533  0.7674 -1.0215  1.1834
 1311SOL    HW215393   1.273   0.222  14.656 -1.0105  1.1560 -1.2067
 1312SOL     OW15394   0.176   3.820   3.673 -0.3410 -0.3193 -0.6955
 1312SOL    HW115395   0.187   3.772   3.755  0.4598  0.1477 -0.5333
 1312SOL    HW215396   0.165   3.755   3.603  1.3650  0.6604 -1.8602
 1313SOL     OW15397   1.967   3.412   4.984  0.5071 -0.2274 -0.2783
 1313SOL    HW115398   2.014   3.486   5.021 -2.5073  1.4731  0.1629
 1313SOL    HW215399   1.887   3.409   5.036  0.7679  0.0202  0.1295
 1314SOL     OW15400   3.622   1.342   3.624 -0.0527  0.7686 -0.0204
 1314SOL    HW115401   3.688   1.280   3.591  0.0561  0.2464  1.1719
 1314SOL    HW215402   3.579   1.367   3.542  1.5085 -0.0582 -1.0854
 1315SOL     OW15403   0.833   4.591   7.491 -0.0350  0.4254  0.2045
 1315SOL    HW115404   0.875   4.547   7.418  1.2533  0.0448  1.1834
 1315SOL    HW215405   0.741   4.570   7.475  0.4243 -0.3352 -1.4353
 1316SOL     OW15406   0.005   3.731   2.207 -0.0608 -0.3494  0.2717
 1316SOL    HW115407   0.078   3.762   2.153  0.5951  0.2412  1.4999
 1316SOL    HW215408   4.718   3.643   2.170  2.3811 -0.6796  0.4780
 1317SOL     OW15409   3.734   2.438   0.908  0.6355  0.1145 -0.0868
 1317SOL    HW115410   3.754   2.426   0.815  3.5242 -2.6439  0.8569
 1317SOL    HW215411   3.791   2.370   0.945  0.5434 -1.1716 -2.3224
 1318SOL     OW15412   3.340   3.796   9.523 -0.5571 -0.1399 -0.1730
 1318SOL    HW115413   3.332   3.701   9.515  2.5321 -0.2583 -2.1558
 1318SOL    HW215414   3.301   3.823   9.440  1.7196 -0.8121 -1.4673
 1319SOL     OW15415   2.866   3.992   4.823  0.1038 -0.4685  0.2919
 1319SOL    HW115416   2.907   4.079   4.829 -0.5226 -0.1344 -0.3553
 1319SOL    HW215417   2.943   3.938   4.802 -0.6390 -1.0295 -0.9987
 1320SOL     OW15418   3.730   1.239   1.085 -0.0896  0.2418  0.7862
 1320SOL    HW115419   3.782   1.269   1.160  2.3203 -1.1587 -0.3091
 1320SOL    HW215420   3.671   1.184   1.137 -1.9643  0.7356 -0.8021
 1321SOL     OW15421   0.760   4.541   8.847 -0.1089  0.1455 -0.1721
 1321SOL    HW115422   0.830   4.530   8.783 -0.2032 -0.2936 -0.2001
 1321SOL    HW215423   0.740   4.634   8.837  0.4071  0.2924  0.1357
 1322SOL     OW15424   0.831   0.719   6.491  0.3309 -0.4163 -0.0904
 1322SOL    HW115425   0.774   0.657   6.536 -2.5356  2.0697 -0.2981
 1322SOL    HW215426   0.774   0.793   6.469  0.0849 -0.3752  0.6859
 1323SOL     OW15427   4.279   1.103   8.222  0.2400 -0.7423 -0.3155
 1323SOL    HW115428   4.357   1.097   8.167  0.3682  0.8007 -0.2950
 1323SOL    HW215429   4.231   1.180   8.192 -1.1824 -1.5512 -0.1123
 1324SOL     OW15430   1.071   2.666   3.494  0.5098  0.7998 -0.1672
 1324SOL    HW115431   0.979   2.646   3.513  1.4677 -0.3664  3.1789
 1324SOL    HW215432   1.094   2.698   3.581 -1.7955 -0.2466  0.8357
 1325SOL     OW15433   0.641   3.604   4.518 -0.1803  0.1070  1.1577
 1325SOL    HW115434   0.547   3.592   4.502  0.1332 -0.6801 -0.0821
 1325SOL    HW215435   0.687   3.522   4.501 -1.2311 -1.1069  4.1245
 1326SOL     OW15436   3.585   3.242   3.489  0.0502 -0.4610 -0.2814
 1326SOL    HW115437   3.549   3.328   3.514 -0.5502 -1.1822  1.3351
 1326SOL    HW215438   3.567   3.185   3.564 -1.8703  0.1801 -0.2362
 1327SOL     OW15439   0.737   0.731   7.461 -0.0751 -0.1515 -0.4033
 1327SOL    HW115440   0.781   0.782   7.529 -0.6460  0.2614 -0.3472
 1327SOL    HW215441   0.689   0.667   7.514  1.2917 -0.1078  0.9027
 1328SOL     OW15442   4.395   2.379   5.530 -0.0799 -0.2603  0.0446
 1328SOL    HW115443   4.301   2.364   5.522 -0.4262  2.6813 -1.5758
 1328SOL    HW215444   4.417   2.313   5.595  1.8289  0.6050  0.2600
 1329SOL     OW15445   0.110   2.062  15.088 -0.1988  0.3275  0.0091
 1329SOL    HW115446   0.124   2.155  15.070  2.1261 -0.5156 -2.4453
 1329SOL    HW215447   0.066   2.065  15.173  1.8006  2.3387  0.9667
 1330SOL     OW15448   3.516   2.147  11.944  0.1841  0.2522  0.4945
 1330SOL    HW115449   3.575   2.076  11.919 -1.0042 -1.4513  2.5566
 1330SOL    HW215450   3.448   2.095  11.988 -0.8325  1.6454  0.5853
 1331SOL     OW15451   3.173   0.324   1.722 -0.0690 -0.0857 -0.3365
 1331SOL    HW115452   3.232   0.317   1.647 -1.1325 -1.5747 -1.0309
 1331SOL    HW215453   3.180   0.232   1.749 -3.5259 -0.3732 -0.4892
 1332SOL     OW15454   4.085   2.008  10.100 -0.7736  0.0615 -0.0517
 1332SOL    HW115455   4.138   1.934  10.131 -1.4502 -0.2092  0.4565
 1332SOL    HW215456   4.122   2.034  10.016  0.3658  0.5592  0.6071
 1333SOL     OW15457   0.991   4.409   2.704  0.1760  0.2403  0.0121
 1333SOL    HW115458   0.983   4.318   2.730  1.4322 -0.5393 -2.2619
 1333SOL    HW215459   0.902   4.417   2.670 -0.0528 -1.5188  0.1888
 1334SOL     OW15460   0.789   2.594   4.130  0.3291  0.8670  0.4296
 1334SOL    HW115461   0.822   2.629   4.047 -0.4025  1.8574  0.5695
 1334SOL    HW215462   0.811   2.501   4.119  0.1177  0.3661  4.0976
 1335SOL     OW15463   2.813   4.529   5.231 -0.5709  0.8117 -0.4596
 1335SOL    HW115464   2.862   4.496   5.306 -0.7070  2.1776  0.2192
 1335SOL    HW215465   2.790   4.614   5.267 -0.8326  0.7522 -0.4890
 1336SOL     OW15466   1.532   1.472  10.120  0.0347 -0.6009 -0.3254
 1336SOL    HW115467   1.590   1.447  10.048 -0.2242 -1.6499 -0.1700
 1336SOL    HW215468   1.458   1.412  10.111 -0.6333 -0.0779  1.6952
 1337SOL     OW15469   4.049   1.363   5.398 -0.4513  0.5685  0.4743
 1337SOL    HW115470   4.033   1.453   5.426  0.0164  0.0760  2.3412
 1337SOL    HW215471   4.015   1.320   5.476  3.2214 -2.5293  0.3479
 1338SOL     OW15472   2.095   0.589  10.609  0.0624 -0.7778  0.0134
 1338SOL    HW115473   2.028   0.636  10.558  1.3919  0.5686 -0.4656
 1338SOL    HW215474   2.167   0.651  10.607 -2.7911  2.4577 -2.8856
 1339SOL     OW15475   2.573   4.219   6.120  0.1777 -0.1221 -0.2445
 1339SOL    HW115476   2.553   4.304   6.080 -0.3410  1.2090  2.8319
 1339SOL    HW215477   2.484   4.182   6.124 -0.3628  1.3977  1.6692
 1340SOL     OW15478   0.349   0.639   1.202 -0.4486 -0.0702  0.0569
 1340SOL    HW115479   0.359   0.553   1.244 -0.2911  0.7080  1.6040
 1340SOL    HW215480   0.343   0.682   1.287  1.3876 -3.2668  1.8131
 1341SOL     OW15481   2.384   4.406  16.845 -0.3644 -0.1093  0.5890
 1341SOL    HW115482   2.454   4.470  16.832 -1.6423  0.9514 -1.0670
 1341SOL    HW215483   2.439   4.333  16.871 -1.1411 -1.3692 -1.2750
 1342SOL     OW15484   4.361   3.864   8.124  0.3898 -0.0628 -0.2716
 1342SOL    HW115485   4.439   3.846   8.177  0.1759  1.7712  0.6667
 1342SOL    HW215486   4.367   3.796   8.057 -1.7925  0.3202 -0.8330
 1343SOL     OW15487   4.131   2.615  14.651  0.7102  0.1341  0.0856
 1343SOL    HW115488   4.142   2.601  14.745  0.0933  2.0487  0.4442
 1343SOL    HW215489   4.035   2.609  14.644  0.7339 -1.0745  0.7043
 1344SOL     OW15490   2.205   3.544   4.487  0.1640 -0.1221  0.0943
 1344SOL    HW115491   2.256   3.566   4.565 -1.9550  1.1496  1.1182
 1344SOL    HW215492   2.119   3.533   4.526 -0.4951  1.3663 -0.9441
 1345SOL     OW15493   0.744   4.438   9.744  0.4513  0.5678 -0.3583
 1345SOL    HW115494   0.649   4.447   9.741  0.1302 -2.0453  1.7296
 1345SOL    HW215495   0.778   4.522   9.713  1.4980 -0.7765 -2.8572
 1346SOL     OW15496   0.354   0.527  17.178 -0.3205 -0.3897 -0.1956
 1346SOL    HW115497   0.289   0.598  17.179 -0.6477 -0.6682 -1.5990
 1346SOL    HW215498   0.330   0.476  17.256 -0.3786 -1.4925 -0.9361
 1347SOL     OW15499   0.614   4.056   2.392  0.0584 -0.4254  0.0053
 1347SOL    HW115500   0.643   4.024   2.477 -0.3308 -0.2955  0.1888
 1347SOL    HW215501   0.613   3.982   2.332  1.8791  1.3270 -2.1847
 1348SOL     OW15502   0.225   0.626   3.717  0.0485 -0.2257 -0.0231
 1348SOL    HW115503   0.231   0.715   3.680  0.5823 -0.9569 -1.6770
 1348SOL    HW215504   0.311   0.584   3.716  0.4140  0.6018 -2.5401
 1349SOL     OW15505   0.214   2.580  12.575 -0.7398 -0.0701 -0.0156
 1349SOL    HW115506   0.270   2.505  12.553 -1.8299 -0.5218 -1.2891
 1349SOL    HW215507   0.282   2.635  12.614 -0.9292  0.3539 -0.2885
 1350SOL     OW15508   1.522   3.001  10.432  0.3165  0.1632  0.2132
 1350SOL    HW115509   1.582   3.014  10.359 -0.6959  2.0666 -0.2748
 1350SOL    HW215510   1.555   2.935  10.494 -1.0704 -1.0276 -0.3311
 1351SOL     OW15511   3.699   2.097  10.824 -0.3599  0.3913  0.5544
 1351SOL    HW115512   3.625   2.039  10.843 -0.7765  1.2362  1.5276
 1351SOL    HW215513   3.757   2.035  10.781 -2.1903 -0.1483 -1.1576
 1352SOL     OW15514   0.362   3.075   9.019 -0.0393 -0.2371  0.6952
 1352SOL    HW115515   0.433   3.015   9.042  1.8134  1.6218 -0.0698
 1352SOL    HW215516   0.391   3.094   8.930  0.0266  1.4880  1.0707
 1353SOL     OW15517   1.480   4.616   7.365  0.4915  0.2742  0.1839
 1353SOL    HW115518   1.530   4.644   7.443  0.3909  1.8992 -0.3356
 1353SOL    HW215519   1.398   4.586   7.405 -0.0356  0.0841 -1.0637
 1354SOL     OW15520   0.179   2.166  15.662 -1.0422 -0.3590 -0.0676
 1354SOL    HW115521   0.159   2.075  15.641 -3.0101  0.5879 -2.3633
 1354SOL    HW215522   0.099   2.202  15.624 -1.0678  1.0474  1.3178
 1355SOL     OW15523   2.269   4.056  15.157  0.4191 -0.2763 -0.0268
 1355SOL    HW115524   2.183   4.023  15.130 -0.3464  1.6142  0.1033
 1355SOL    HW215525   2.325   4.017  15.090  1.8078  1.8248 -0.0859
 1356SOL     OW15526   4.511   2.414  16.711 -0.5192 -0.6995 -0.1355
 1356SOL    HW115527   4.451   2.346  16.679 -0.7620 -0.0508 -1.0706
 1356SOL    HW215528   4.593   2.368  16.696 -1.0133 -1.2716 -1.1366
 1357SOL     OW15529   2.575   1.837  10.695 -0.0047  0.0734 -0.4012
 1357SOL    HW115530   2.631   1.902  10.653 -1.5246  1.6915  0.0750
 1357SOL    HW215531   2.619   1.769  10.644 -1.5369  0.1413 -1.8150
 1358SOL     OW15532   1.428   4.085   2.329 -0.7074 -0.8718 -0.3555
 1358SOL    HW115533   1.458   4.011   2.276  1.4997 -0.2437 -0.0134
 1358SOL    HW215534   1.413   4.141   2.253  2.2952 -0.9622 -1.0363
 1359SOL     OW15535   1.683   4.596   2.802 -0.3221  0.3679  0.0090
 1359SOL    HW115536   1.643   4.520   2.759 -0.1169 -0.4955  1.3203
 1359SOL    HW215537   1.619   4.667   2.807  0.5243  1.2275 -1.6103
 1360SOL     OW15538   2.659   3.024  12.397  0.0425 -0.3238  0.6585
 1360SOL    HW115539   2.569   3.010  12.368 -0.4123  2.6502  0.5967
 1360SOL    HW215540   2.647   3.021  12.492  0.5298  1.9005  0.7898
 1361SOL     OW15541   4.635   2.492   9.681  0.9459  0.1106  0.4765
 1361SOL    HW115542   4.703   2.466   9.743  1.4913  1.3161  0.4069
 1361SOL    HW215543   4.682   2.574   9.667 -3.9405  2.6335 -1.1434
 1362SOL     OW15544   0.027   3.924   5.692 -0.4260 -0.3046 -0.1712
 1362SOL    HW115545   0.094   3.855   5.691 -0.5121 -0.3766 -0.8487
 1362SOL    HW215546   0.040   3.970   5.775 -1.6485  0.4937 -0.4227
 1363SOL     OW15547   3.314   3.795   6.927  0.1586 -0.2439  0.6778
 1363SOL    HW115548   3.335   3.874   6.978 -1.0231  1.5295 -1.6227
 1363SOL    HW215549   3.285   3.735   6.995  0.8291 -0.2113  0.9966
 1364SOL     OW15550   1.299   2.890   8.880 -0.1953  0.3126 -1.0799
 1364SOL    HW115551   1.236   2.944   8.927 -1.1949 -1.0092 -0.9010
 1364SOL    HW215552   1.359   2.948   8.833  1.7368 -1.4645 -0.8148
 1365SOL     OW15553   1.184   2.504   4.834  0.1411 -0.0282 -0.5063
 1365SOL    HW115554   1.187   2.421   4.880 -0.0056  0.1185 -0.2290
 1365SOL    HW215555   1.121   2.498   4.762  0.6235  1.1751 -1.0403
 1366SOL     OW15556   1.935   2.536   9.452  0.4526 -0.0369 -0.1507
 1366SOL    HW115557   2.017   2.511   9.494 -0.5701 -3.5635 -0.2251
 1366SOL    HW215558   1.880   2.574   9.520 -0.6811 -2.0039  0.0492
 1367SOL     OW15559   4.000   1.658   5.415 -0.3242 -0.1699  0.9033
 1367SOL    HW115560   3.992   1.752   5.395  1.9288 -0.3262 -0.6908
 1367SOL    HW215561   3.918   1.643   5.462 -0.6984 -1.7846 -0.2807
 1368SOL     OW15562   1.149   3.362   9.130 -0.3082  0.1662  0.4133
 1368SOL    HW115563   1.221   3.381   9.190  0.9606 -2.1123 -0.4040
 1368SOL    HW215564   1.083   3.342   9.197 -0.2318 -0.5459  0.2823
 1369SOL     OW15565   3.613   4.433   7.513 -0.1581  0.3449 -0.5162
 1369SOL    HW115566   3.589   4.377   7.587  1.7475 -2.8047 -2.2883
 1369SOL    HW215567   3.626   4.520   7.551 -0.5272 -0.2135  0.8928
 1370SOL     OW15568   0.320   2.904   7.290 -0.3084 -0.7009 -1.0435
 1370SOL    HW115569   0.335   2.813   7.315  1.2296  0.0829  0.8696
 1370SOL    HW215570   0.406   2.940   7.269 -0.1518 -0.8946 -0.7374
 1371SOL     OW15571   0.333   1.852   2.065  0.0774  0.1716 -0.2151
 1371SOL    HW115572   0.320   1.941   2.035 -1.4470 -0.5252 -1.6065
 1371SOL    HW215573   0.249   1.806   2.067  0.2047 -0.0904 -0.8714
 1372SOL     OW15574   1.183   2.473   8.979  0.2349  0.3142  0.2733
 1372SOL    HW115575   1.226   2.499   9.060 -2.4906 -0.3402  1.9332
 1372SOL    HW215576   1.106   2.530   8.983 -1.0972 -1.6295  2.2947
 1373SOL     OW15577   1.472   2.571   4.803 -0.3187 -0.6948 -0.0494
 1373SOL    HW115578   1.522   2.618   4.736 -2.6982  2.8667  0.6587
 1373SOL    HW215579   1.388   2.566   4.756 -1.7116  0.7708  2.3146
 1374SOL     OW15580   3.373   2.444   5.906  0.8370  0.2015 -0.5244
 1374SOL    HW115581   3.333   2.530   5.895 -1.4946 -0.6301  1.3562
 1374SOL    HW215582   3.463   2.463   5.878  0.5384  0.7039 -1.1406
 1375SOL     OW15583   3.801   1.729   8.708 -0.7604  0.4464  0.4070
 1375SOL    HW115584   3.792   1.818   8.743 -0.2703  1.2106 -1.3781
 1375SOL    HW215585   3.851   1.676   8.770 -0.2999 -0.5799 -0.8365
 1376SOL     OW15586   3.468   2.910  13.466 -0.5492  0.6797 -0.0790
 1376SOL    HW115587   3.399   2.913  13.532 -2.0149 -0.7052 -1.5541
 1376SOL    HW215588   3.428   2.857  13.397  1.0178  1.1533 -1.3505
 1377SOL     OW15589   1.929   3.951  14.810  0.2241 -0.4379  0.0803
 1377SOL    HW115590   1.953   3.911  14.726 -3.2673  0.3340 -1.2911
 1377SOL    HW215591   1.848   3.998  14.788 -0.1467 -0.1851  2.0270
 1378SOL     OW15592   1.121   2.481  12.308  0.2324 -0.3825  0.1001
 1378SOL    HW115593   1.136   2.552  12.371 -0.9218  1.3968 -1.6543
 1378SOL    HW215594   1.183   2.409  12.324 -0.0875 -0.8243 -0.6355
 1379SOL     OW15595   2.666   1.628   7.817  0.0778  0.5524  0.1237
 1379SOL    HW115596   2.666   1.533   7.833 -0.2207  0.6272  0.5767
 1379SOL    HW215597   2.692   1.637   7.725 -2.0154  2.1908 -0.2843
 1380SOL     OW15598   3.072   1.075   2.631 -0.0068 -0.2353  0.4109
 1380SOL    HW115599   2.981   1.103   2.616 -0.0035  1.4392  3.3630
 1380SOL    HW215600   3.097   1.133   2.704 -5.0819  0.4361  1.6254
 1381SOL     OW15601   1.830   4.184   4.089  0.4733  0.8494  0.0308
 1381SOL    HW115602   1.871   4.151   4.169  2.9102  0.6960 -1.2977
 1381SOL    HW215603   1.884   4.133   4.029 -0.7272  0.2471 -0.5468
 1382SOL     OW15604   1.804   1.376   6.746 -0.6770  0.2708 -0.4715
 1382SOL    HW115605   1.740   1.369   6.817 -1.5699  0.5100 -1.2559
 1382SOL    HW215606   1.889   1.365   6.789 -0.9604  0.2743  0.0945
 1383SOL     OW15607   1.674   2.339   3.844  0.2938  0.2312 -0.3539
 1383SOL    HW115608   1.769   2.329   3.846  0.2838 -0.0182 -1.1495
 1383SOL    HW215609   1.665   2.430   3.816 -1.5134  0.1666  0.0068
 1384SOL     OW15610   4.566   3.247   6.703 -0.4589 -0.4599 -0.5803
 1384SOL    HW115611   4.598   3.241   6.612 -1.5663  0.4090 -1.0242
 1384SOL    HW215612   4.522   3.332   6.695 -2.1252 -1.2268  0.4640
 1385SOL     OW15613   3.288   2.923   6.741 -0.4597 -0.2546 -0.7456
 1385SOL    HW115614   3.226   2.935   6.814  2.4402  1.1245  1.4786
 1385SOL    HW215615   3.331   3.008   6.738  0.0071 -0.4633 -0.0319
 1386SOL     OW15616   1.476   3.318  14.549  0.0562 -0.1027 -0.8219
 1386SOL    HW115617   1.443   3.408  14.549 -0.1869 -0.1950 -1.8082
 1386SOL    HW215618   1.571   3.327  14.564 -0.3832  1.5784  1.0096
 1387SOL     OW15619   3.115   3.537   0.189  0.2141 -0.2052  0.1260
 1387SOL    HW115620   3.155   3.602   0.246  0.2491  1.5511 -1.9103
 1387SOL    HW215621   3.058   3.599   0.143  0.4231 -0.4661 -0.4867
 1388SOL     OW15622   1.935   0.528  10.863 -0.1386  0.0902 -0.2810
 1388SOL    HW115623   1.868   0.521  10.931  0.6915  0.2244  0.5533
 1388SOL    HW215624   1.941   0.620  10.836 -0.2972 -0.0862 -0.9144
 1389SOL     OW15625   0.419   0.215   5.826  0.1934 -0.2659  1.0129
 1389SOL    HW115626   0.401   0.199   5.733 -0.2216 -0.0776  1.0621
 1389SOL    HW215627   0.360   0.152   5.866 -0.8706 -0.1906 -0.4244
 1390SOL     OW15628   2.120   2.279  12.711  0.6761 -0.4034  0.0056
 1390SOL    HW115629   2.107   2.189  12.741  0.7943  0.4090  2.4897
 1390SOL    HW215630   2.046   2.329  12.748  2.7853  0.5145  3.0178
 1391SOL     OW15631   2.272   1.463   3.012  0.9380  0.3069 -0.4674
 1391SOL    HW115632   2.359   1.422   3.018  0.4177 -0.9134 -1.4336
 1391SOL    HW215633   2.243   1.437   2.925  1.0497 -0.5569 -0.2409
 1392SOL     OW15634   1.635   0.559   5.188  0.5347  0.3100 -0.4672
 1392SOL    HW115635   1.628   0.521   5.100 -0.6062 -1.5625  0.4338
 1392SOL    HW215636   1.551   0.528   5.222  2.4957  0.0914  4.0864
 1393SOL     OW15637   2.240   4.172   3.637 -0.1320  1.0024 -0.6110
 1393SOL    HW115638   2.288   4.252   3.616  0.1962  1.1411  0.6767
 1393SOL    HW215639   2.166   4.174   3.576 -0.9312 -1.0975  0.3034
 1394SOL     OW15640   4.699   1.997  14.853  0.0540 -0.4433 -0.7033
 1394SOL    HW115641   0.029   1.996  14.933  0.5341 -0.2082 -1.0123
 1394SOL    HW215642   4.609   2.000  14.886  1.2447 -0.4120  2.5514
 1395SOL     OW15643   3.824   4.498   4.916  0.1800 -0.2143  0.5031
 1395SOL    HW115644   3.800   4.590   4.911  3.3406  0.5804 -0.1446
 1395SOL    HW215645   3.736   4.460   4.914  0.6826 -1.4515  1.7181
 1396SOL     OW15646   0.977   3.437   3.424  0.2175  0.4069 -0.2195
 1396SOL    HW115647   0.945   3.482   3.502 -1.0984  0.3044 -0.7052
 1396SOL    HW215648   0.908   3.455   3.361 -0.6822 -0.5487  0.4923
 1397SOL     OW15649   1.982   0.721   2.207 -0.0986 -0.4531 -0.6373
 1397SOL    HW115650   2.015   0.633   2.189  0.4175 -0.7010  1.5371
 1397SOL    HW215651   1.954   0.736   2.116  1.0075  1.7958 -0.6204
 1398SOL     OW15652   1.005   2.125   3.614 -0.0102 -0.6867  0.4606
 1398SOL    HW115653   1.053   2.083   3.543  0.1345 -0.1838  0.2589
 1398SOL    HW215654   0.911   2.120   3.594 -0.3149  1.1859  1.4288
 1399SOL     OW15655   4.640   2.154   0.484 -0.6738 -0.1838 -0.1629
 1399SOL    HW115656   4.623   2.239   0.444  0.1204  0.9073  1.8277
 1399SOL    HW215657   4.685   2.126   0.404  1.7740  1.3411  0.6966
 1400SOL     OW15658   0.117   4.194   3.527  0.4237  0.1447 -0.1504
 1400SOL    HW115659   0.128   4.152   3.612 -1.6826 -0.9098 -0.4064
 1400SOL    HW215660   0.025   4.219   3.525  0.2753 -0.3291  1.1818
 1401SOL     OW15661   4.600   0.606   7.023 -0.8022 -0.0072 -0.2304
 1401SOL    HW115662   4.668   0.625   6.959 -0.3207 -1.3018 -0.1084
 1401SOL    HW215663   4.626   0.516   7.041  0.3512  0.3535 -0.0921
 1402SOL     OW15664   1.114   0.115   4.649  0.0732  1.1307  0.2772
 1402SOL    HW115665   1.169   0.192   4.663 -0.5089  1.2038  2.1215
 1402SOL    HW215666   1.031   0.140   4.691 -1.4372 -2.5674 -0.4457
 1403SOL     OW15667   3.253   4.688   0.652 -0.0253  0.0500 -0.0771
 1403SOL    HW115668   3.246   4.637   0.571  3.2052 -0.3018 -0.1341
 1403SOL    HW215669   3.290   4.621   0.710  0.7198  1.2324  0.8150
 1404SOL     OW15670   2.943   1.426   2.188  0.2095 -0.5584  0.2837
 1404SOL    HW115671   2.926   1.453   2.279 -1.7672  2.5985 -1.0221
 1404SOL    HW215672   2.876   1.358   2.182  0.1045 -0.5207  0.9691
 1405SOL     OW15673   1.334   3.627   8.271 -0.5840 -0.1642  0.3786
 1405SOL    HW115674   1.238   3.630   8.262 -0.7446  0.0535  2.2122
 1405SOL    HW215675   1.351   3.651   8.180 -0.6078 -1.2549  0.0851
 1406SOL     OW15676   3.661   4.662   8.683 -0.1291  0.0657 -0.1131
 1406SOL    HW115677   3.667   0.012   8.621  2.1689  1.5532  1.8551
 1406SOL    HW215678   3.663   4.588   8.622 -1.2484 -0.4803  0.5207
 1407SOL     OW15679   3.743   3.430   7.724 -0.1073  0.0728 -0.0677
 1407SOL    HW115680   3.826   3.427   7.676 -1.1470 -0.5753 -1.8219
 1407SOL    HW215681   3.772   3.460   7.810 -0.3426  0.0032  0.0365
 1408SOL     OW15682   2.448   4.308  10.577 -0.3582  0.0508  0.4138
 1408SOL    HW115683   2.498   4.375  10.530 -1.0362  0.2255 -0.0615
 1408SOL    HW215684   2.398   4.360  10.641  2.4627  1.6559  1.3325
 1409SOL     OW15685   4.234   0.461   2.374  0.4569 -0.3656 -0.1744
 1409SOL    HW115686   4.163   0.448   2.311  0.8914 -1.7345 -0.3834
 1409SOL    HW215687   4.223   0.552   2.399 -1.8487 -1.3380  2.4740
 1410SOL     OW15688   2.533   4.205   7.779  0.2711 -0.3513  0.2605
 1410SOL    HW115689   2.554   4.263   7.705  0.1096  2.0626  2.1099
 1410SOL    HW215690   2.443   4.185   7.756 -0.4901  2.8700  0.4542
 1411SOL     OW15691   4.684   4.559   7.714 -0.3830 -0.2113  0.0794
 1411SOL    HW115692   4.676   4.653   7.698  0.5605 -0.0049  0.8266
 1411SOL    HW215693   4.619   4.565   7.784 -0.6404 -0.0372 -0.1755
 1412SOL     OW15694   2.752   3.919   3.890  0.2289 -0.4573 -0.0669
 1412SOL    HW115695   2.761   3.834   3.847  1.1114  0.8869 -2.5426
 1412SOL    HW215696   2.805   3.890   3.964  1.1059  0.4217 -0.3557
 1413SOL     OW15697   4.416   0.316  10.270 -0.7801  0.0817  0.0654
 1413SOL    HW115698   4.421   0.411  10.260  1.0526 -0.0404 -0.1634
 1413SOL    HW215699   4.322   0.312  10.289 -0.7022  0.7006  0.5884
 1414SOL     OW15700   2.966   2.651   4.668  0.1920  0.1190  0.0291
 1414SOL    HW115701   2.960   2.572   4.615  1.3299 -1.1166  1.7574
 1414SOL    HW215702   3.054   2.631   4.702  0.4729 -0.0503 -0.8091
 1415SOL     OW15703   3.993   2.649  15.419 -0.5336 -0.2946  0.1108
 1415SOL    HW115704   4.013   2.565  15.460  1.3697  0.3033  0.3890
 1415SOL    HW215705   3.922   2.630  15.358 -0.1265  1.1068 -0.7933
 1416SOL     OW15706   4.186   0.271   1.991 -0.2338  0.2643  0.1949
 1416SOL    HW115707   4.270   0.253   2.034  0.3199  0.8159 -0.6437
 1416SOL    HW215708   4.123   0.281   2.062 -0.9053  0.9987 -0.5028
 1417SOL     OW15709   0.116   4.643   7.490  0.6910  0.3792 -0.3000
 1417SOL    HW115710   0.197   4.686   7.519  0.5079 -0.2535  1.1692
 1417SOL    HW215711   0.092   4.593   7.568  1.0466  0.7200  0.0265
 1418SOL     OW15712   3.608   0.520   3.739  0.4530 -0.0510 -0.0350
 1418SOL    HW115713   3.595   0.587   3.672  0.4409  2.4595  2.5099
 1418SOL    HW215714   3.654   0.456   3.683  0.5122 -0.6561  0.7032
 1419SOL     OW15715   0.929   1.030  14.746 -0.6334  0.0809  0.1602
 1419SOL    HW115716   0.902   1.077  14.667  0.9219  2.9967  1.3517
 1419SOL    HW215717   0.922   1.099  14.812 -1.2528 -2.5607  2.8935
 1420SOL     OW15718   3.846   2.214   5.419 -0.3616 -0.4545  0.2747
 1420SOL    HW115719   3.813   2.212   5.509 -0.1002 -1.6915  0.3349
 1420SOL    HW215720   3.762   2.219   5.373 -1.1808 -0.8611  1.7065
 1421SOL     OW15721   1.767   0.364  11.039 -0.4477 -0.1750  0.4698
 1421SOL    HW115722   1.853   0.343  11.074 -1.3088 -2.9787  0.8944
 1421SOL    HW215723   1.730   0.361  11.128  0.0337 -0.4098  0.6597
 1422SOL     OW15724   2.071   0.023   5.929 -0.6683  0.0780 -0.0859
 1422SOL    HW115725   2.107   0.102   5.970 -0.1510 -0.3181  0.2248
 1422SOL    HW215726   2.102   0.037   5.840 -0.8956 -0.4161 -0.2425
 1423SOL     OW15727   1.310   0.781  15.687 -0.5503  0.4011  0.3266
 1423SOL    HW115728   1.384   0.805  15.633  2.5133 -3.1813  2.9610
 1423SOL    HW215729   1.298   0.855  15.747 -0.1802  0.8562 -0.1640
 1424SOL     OW15730   3.861   0.576   4.991 -0.1020  0.4915 -0.0591
 1424SOL    HW115731   3.803   0.650   5.008 -0.8460 -0.1931  0.4085
 1424SOL    HW215732   3.854   0.534   5.077 -2.0754 -1.7136 -1.2992
 1425SOL     OW15733   4.011   0.063   7.432  0.2313  0.1355  0.6392
 1425SOL    HW115734   3.984   0.153   7.449  0.2548 -0.0859  1.8564
 1425SOL    HW215735   4.107   0.055   7.430  0.3120  1.3631  0.1808
 1426SOL     OW15736   4.394   0.147  16.791  0.2428 -0.0287  0.5171
 1426SOL    HW115737   4.483   0.134  16.757  0.4433  0.7531  0.7416
 1426SOL    HW215738   4.403   0.238  16.819  1.8258 -0.0165  0.0163
 1427SOL     OW15739   2.570   2.702   2.044  0.4297  0.7862 -0.0071
 1427SOL    HW115740   2.647   2.750   2.074  1.7311  0.2931 -2.6435
 1427SOL    HW215741   2.543   2.767   1.979 -1.5228 -2.6205 -2.5810
 1428SOL     OW15742   2.300   3.031  17.061  0.3473 -0.3906 -0.0154
 1428SOL    HW115743   2.281   3.123  17.041 -1.9521 -0.4845  1.6447
 1428SOL    HW215744   2.317   3.039  17.155 -1.7139  0.0106  0.3223
 1429SOL     OW15745   3.513   0.004   5.736  0.2927  0.7013 -0.3188
 1429SOL    HW115746   3.531   4.714   5.829  0.8448 -0.0825 -0.5268
 1429SOL    HW215747   3.590   0.052   5.705  1.5226 -0.3345  1.1606
 1430SOL     OW15748   1.601   2.775   8.690  0.1479  0.2052  0.1349
 1430SOL    HW115749   1.621   2.854   8.740 -1.3915  2.1776 -2.3362
 1430SOL    HW215750   1.688   2.740   8.671  0.9620  1.7654  0.9522
 1431SOL     OW15751   3.756   4.519  10.903 -0.6949  0.0828 -0.2336
 1431SOL    HW115752   3.777   4.505  10.995 -2.0212  0.5113  0.1331
 1431SOL    HW215753   3.664   4.498  10.885 -0.4903 -1.0515  0.0718
 1432SOL     OW15754   3.659   0.868   1.733  0.5105 -0.1456 -0.6876
 1432SOL    HW115755   3.586   0.841   1.788  0.0072 -0.1731 -1.3690
 1432SOL    HW215756   3.693   0.785   1.700  0.6542 -0.4837  0.3105
 1433SOL     OW15757   1.358   4.482  12.781  0.2033  0.0544 -0.1157
 1433SOL    HW115758   1.282   4.517  12.734 -0.5620 -0.2264  0.9126
 1433SOL    HW215759   1.321   4.405  12.825  2.4464 -1.0440 -0.1437
 1434SOL     OW15760   2.644   2.177   3.641 -0.1654 -0.3340  0.6585
 1434SOL    HW115761   2.694   2.134   3.572 -0.2723  1.1724 -0.3652
 1434SOL    HW215762   2.635   2.122   3.719 -2.1608 -1.5901 -0.4543
 1435SOL     OW15763   3.880   2.682   0.906  0.5449 -0.0063 -0.1051
 1435SOL    HW115764   3.900   2.723   0.990  0.3978 -0.8383  0.3344
 1435SOL    HW215765   3.858   2.592   0.929  0.2898  0.1116  0.1169
 1436SOL     OW15766   1.305   4.599   1.319 -0.2917 -0.0627  0.2319
 1436SOL    HW115767   1.369   4.589   1.249 -0.0424  0.4208  0.3863
 1436SOL    HW215768   1.283   4.506   1.319  0.0429 -0.1385 -2.6605
 1437SOL     OW15769   2.858   1.352   3.983 -0.0603  0.0879 -0.0216
 1437SOL    HW115770   2.812   1.323   3.904  0.5373 -1.0068  0.0384
 1437SOL    HW215771   2.936   1.381   3.937 -1.1768  1.9914 -0.7047
 1438SOL     OW15772   3.547   0.982  10.025  0.2105  0.0305  0.1218
 1438SOL    HW115773   3.503   0.905  10.060 -1.1505  0.8258  0.1645
 1438SOL    HW215774   3.621   0.997  10.084 -1.9201  1.5190  2.4332
 1439SOL     OW15775   3.188   3.203  14.864 -0.1909  0.4889  0.1229
 1439SOL    HW115776   3.189   3.203  14.768  1.5641 -0.2463  0.1370
 1439SOL    HW215777   3.281   3.213  14.886  0.2784  1.4153 -2.2736
 1440SOL     OW15778   1.810   4.212   1.631 -0.1746  0.1707 -0.1934
 1440SOL    HW115779   1.875   4.142   1.619 -0.5007  0.0416 -1.1997
 1440SOL    HW215780   1.836   4.249   1.715  0.9696  2.9369 -1.7745
 1441SOL     OW15781   0.163   2.497  15.440  0.6081 -0.6776  0.4024
 1441SOL    HW115782   0.199   2.459  15.520 -0.0016  0.7552  1.3509
 1441SOL    HW215783   0.069   2.478  15.439  0.0378  2.2862 -2.1564
 1442SOL     OW15784   0.248   2.316   1.568  0.4419 -0.0600  0.3827
 1442SOL    HW115785   0.293   2.391   1.529 -1.2911  0.1785 -1.1577
 1442SOL    HW215786   0.209   2.271   1.494  0.0686  1.4499 -0.3374
 1443SOL     OW15787   3.713   2.604   9.618 -0.6005 -0.3859  0.0004
 1443SOL    HW115788   3.779   2.570   9.678  0.8137  0.8579 -0.8600
 1443SOL    HW215789   3.635   2.592   9.672 -0.3199  0.3355  0.5684
 1444SOL     OW15790   4.447   0.470   4.427  0.6184  0.2439 -0.0166
 1444SOL    HW115791   4.423   0.383   4.459 -0.0442  0.0750 -0.9574
 1444SOL    HW215792   4.519   0.489   4.488  0.4644  0.1482  0.1959
 1445SOL     OW15793   3.577   1.803   0.485  0.5571  0.3476  0.2133
 1445SOL    HW115794   3.532   1.756   0.415  0.2110  2.1327 -0.7541
 1445SOL    HW215795   3.507   1.794   0.550  0.3470  0.2744 -0.0234
 1446SOL     OW15796   0.072   3.127  16.645  0.6211 -0.2207 -0.0667
 1446SOL    HW115797   0.009   3.147  16.576 -0.2829 -0.0209  0.8097
 1446SOL    HW215798   0.109   3.214  16.659  1.5624 -0.6076 -0.1230
 1447SOL     OW15799   1.086   2.431   7.981 -0.3953 -0.3150  0.4242
 1447SOL    HW115800   1.108   2.338   7.979  0.0883 -0.1698 -0.9852
 1447SOL    HW215801   1.036   2.435   8.062  1.1195 -2.4962  1.4753
 1448SOL     OW15802   2.963   2.324   1.873 -0.2358  0.2556  0.3982
 1448SOL    HW115803   2.893   2.350   1.933  1.0747  4.7015  0.0186
 1448SOL    HW215804   3.005   2.251   1.917  0.9775  1.3016  0.9792
 1449SOL     OW15805   1.400   1.905  14.393 -0.4824  0.2561 -0.6346
 1449SOL    HW115806   1.430   1.844  14.460 -0.9118  1.2377  0.4473
 1449SOL    HW215807   1.356   1.969  14.449 -0.9469  0.6460 -1.4376
 1450SOL     OW15808   3.939   1.903   6.338 -0.1534  0.2966  0.4001
 1450SOL    HW115809   3.898   1.895   6.252  1.3741  0.8448 -0.3916
 1450SOL    HW215810   3.867   1.956   6.374 -2.4592 -1.1737 -2.0803
 1451SOL     OW15811   2.187   0.143   2.097  0.1130  0.5558  0.0396
 1451SOL    HW115812   2.214   0.212   2.037  0.4741  2.0753  1.9671
 1451SOL    HW215813   2.105   0.122   2.052 -0.2232 -1.1083  1.4274
 1452SOL     OW15814   4.315   2.082   2.974 -0.1700 -0.0054 -0.7728
 1452SOL    HW115815   4.389   2.056   2.919 -1.2448 -0.0461 -2.2167
 1452SOL    HW215816   4.352   2.154   3.023  0.9107 -0.7319 -0.5255
 1453SOL     OW15817   1.492   0.538  10.660 -0.4075 -0.1303 -0.2635
 1453SOL    HW115818   1.560   0.603  10.680  2.5127 -3.3320  0.3025
 1453SOL    HW215819   1.542   0.465  10.696 -1.7036 -1.2605 -0.7674
 1454SOL     OW15820   0.832   2.276   3.299 -0.6191  0.1147 -0.4637
 1454SOL    HW115821   0.783   2.246   3.223 -0.9501  0.7234 -0.4867
 1454SOL    HW215822   0.809   2.368   3.304  0.8514  0.4341  0.5327
 1455SOL     OW15823   1.085   3.018   8.989  0.6343 -0.3868  0.2694
 1455SOL    HW115824   1.055   3.023   9.080  1.4988 -0.4233  0.5504
 1455SOL    HW215825   1.048   3.090   8.938  0.9627  1.1495  2.1946
 1456SOL     OW15826   1.553   4.551   6.437  0.4126  0.4178  0.3012
 1456SOL    HW115827   1.623   4.611   6.465  1.1647 -0.5388  0.4656
 1456SOL    HW215828   1.592   4.469   6.466  2.0627  1.7890  2.0416
 1457SOL     OW15829   4.213   4.522   8.752 -0.3139  0.0659 -0.4535
 1457SOL    HW115830   4.247   4.576   8.681 -1.4660  0.5146 -0.6639
 1457SOL    HW215831   4.221   4.436   8.710 -1.1705 -1.1693  1.9065
 1458SOL     OW15832   0.053   3.886   4.734  0.2619  0.8796 -0.1493
 1458SOL    HW115833   0.102   3.940   4.796 -0.7320  2.5192 -0.8102
 1458SOL    HW215834   0.099   3.893   4.650  1.1653 -2.1321  0.0970
 1459SOL     OW15835   4.702   2.712  17.398 -0.0025 -0.1368  0.4846
 1459SOL    HW115836   4.684   2.623  17.367 -1.8982  1.0572 -1.8757
 1459SOL    HW215837   4.674   2.764  17.322  2.4026 -1.1326 -1.0894
 1460SOL     OW15838   0.843   4.604   3.014 -0.4439  0.0221 -0.3521
 1460SOL    HW115839   0.909   4.599   2.945 -0.1468  0.6703 -0.1145
 1460SOL    HW215840   0.767   4.599   2.955  0.3510  0.0458 -1.3696
 1461SOL     OW15841   3.109   2.088   8.247 -0.4728  0.4381 -0.2961
 1461SOL    HW115842   3.101   2.040   8.164 -0.9966 -1.9288  1.1564
 1461SOL    HW215843   3.042   2.045   8.299 -1.8493 -1.4272 -3.5830
 1462SOL     OW15844   3.209   2.299   7.580 -0.2157 -0.2433 -0.3199
 1462SOL    HW115845   3.155   2.247   7.639  0.4700  0.5063  0.9789
 1462SOL    HW215846   3.150   2.321   7.509 -0.4442 -0.6831 -0.2631
 1463SOL     OW15847   1.831   1.120   1.144 -0.4311  0.0822  0.4333
 1463SOL    HW115848   1.921   1.127   1.114  0.0043 -2.0959  1.2435
 1463SOL    HW215849   1.780   1.123   1.063  0.2296  1.2283  0.0597
 1464SOL     OW15850   0.651   4.399   7.200 -0.6521 -0.1850  0.1475
 1464SOL    HW115851   0.580   4.440   7.250  0.3125  1.2095  0.3807
 1464SOL    HW215852   0.726   4.451   7.228  0.6941 -0.8259 -2.2444
 1465SOL     OW15853   3.543   1.046  17.433 -0.1829 -0.2211  0.1575
 1465SOL    HW115854   3.586   1.128  17.408 -0.8092  0.4310  1.2405
 1465SOL    HW215855   3.580   1.035  17.520  0.5295 -0.5957 -0.1905
 1466SOL     OW15856   3.812   4.332   9.176 -0.7180  0.0003 -0.4736
 1466SOL    HW115857   3.769   4.290   9.251 -2.4636  0.8405 -1.0000
 1466SOL    HW215858   3.906   4.319   9.191 -0.7960 -0.9450 -0.7914
 1467SOL     OW15859   3.435   2.335  12.876 -0.3337 -0.4688  0.1975
 1467SOL    HW115860   3.530   2.322  12.875 -0.2268  0.2668  0.4056
 1467SOL    HW215861   3.428   2.431  12.874 -0.7033 -0.4880  0.4267
 1468SOL     OW15862   4.414   3.250   5.822  0.2667 -0.3143 -0.0170
 1468SOL    HW115863   4.487   3.312   5.815 -1.6544  1.5161 -3.7944
 1468SOL    HW215864   4.339   3.309   5.830 -0.7595 -1.7681  1.0216
 1469SOL     OW15865   2.471   1.397   7.024 -0.5568  0.1663  0.1279
 1469SOL    HW115866   2.470   1.492   7.010  0.6884  0.1190 -0.3349
 1469SOL    HW215867   2.512   1.374   6.940 -2.6962 -0.4879 -0.7402
 1470SOL     OW15868   0.170   1.805  11.368  0.2385 -0.2982  0.2822
 1470SOL    HW115869   0.162   1.808  11.463 -0.0524 -2.6254  0.3241
 1470SOL    HW215870   0.134   1.892  11.351 -1.6637 -1.5730 -2.1767
 1471SOL     OW15871   3.458   1.881  12.047 -0.0655  0.0561 -0.5692
 1471SOL    HW115872   3.385   1.819  12.044 -0.5110  0.4895  1.8999
 1471SOL    HW215873   3.515   1.841  12.112  0.7749  1.2319 -0.5941
 1472SOL     OW15874   1.109   2.686  14.226  0.3703  0.4477  0.2963
 1472SOL    HW115875   1.047   2.682  14.152 -1.3450 -0.4872  1.7703
 1472SOL    HW215876   1.148   2.599  14.218 -0.7313 -0.0423  0.1461
 1473SOL     OW15877   2.671   2.637   5.544 -0.3118  0.4593 -0.3177
 1473SOL    HW115878   2.742   2.652   5.481 -0.6364 -1.3894 -1.1100
 1473SOL    HW215879   2.670   2.722   5.589  1.7722  0.5742 -0.4942
 1474SOL     OW15880   1.951   3.730   4.036 -0.4484  0.4701  0.1034
 1474SOL    HW115881   1.921   3.732   4.127 -1.3769  1.0049 -0.2159
 1474SOL    HW215882   1.979   3.821   4.022  1.8685 -0.1651  0.5609
 1475SOL     OW15883   4.439   0.937   3.457  0.4278 -0.1862  0.0757
 1475SOL    HW115884   4.482   0.968   3.377  1.1600  1.1308  0.9838
 1475SOL    HW215885   4.451   0.842   3.458 -1.7689 -0.4857 -0.0284
 1476SOL     OW15886   3.882   1.884  12.028  0.6515 -0.4255 -0.0494
 1476SOL    HW115887   3.974   1.862  12.017  0.3375 -2.2750  0.8504
 1476SOL    HW215888   3.865   1.818  12.096  1.6516 -1.4217 -0.7652
 1477SOL     OW15889   3.199   2.437   6.188 -0.2155  0.8020  0.4209
 1477SOL    HW115890   3.105   2.452   6.191 -0.3736 -0.4146  1.1572
 1477SOL    HW215891   3.195   2.351   6.146  0.8598  0.7899  0.3375
 1478SOL     OW15892   2.848   0.585   4.164 -0.1791  0.3678  0.7040
 1478SOL    HW115893   2.761   0.618   4.140 -0.2612 -0.0945  0.3630
 1478SOL    HW215894   2.889   0.589   4.078  1.5719  0.3498  1.5452
 1479SOL     OW15895   1.640   0.267  16.597 -0.4384  0.2729 -0.3006
 1479SOL    HW115896   1.709   0.204  16.619 -0.8126 -0.0886 -0.1488
 1479SOL    HW215897   1.572   0.242  16.660 -2.9424 -3.1768 -4.3702
 1480SOL     OW15898   3.010   0.731   2.458 -0.5749  0.3577 -0.0674
 1480SOL    HW115899   3.104   0.738   2.443 -0.2445 -0.8910  1.4437
 1480SOL    HW215900   3.001   0.637   2.441  0.2639  0.4752 -1.1604
 1481SOL     OW15901   4.502   0.928   5.443  0.1996 -0.0079 -0.9161
 1481SOL    HW115902   4.578   0.931   5.385 -0.6275  1.1120 -1.9447
 1481SOL    HW215903   4.506   1.019   5.472 -1.3859 -0.8064  1.7943
 1482SOL     OW15904   0.974   3.615   2.959  0.0863 -0.4011  0.1307
 1482SOL    HW115905   1.053   3.596   2.909  0.6651 -2.6082  1.8847
 1482SOL    HW215906   0.986   3.707   2.985 -1.6809 -0.9757  2.9382
 1483SOL     OW15907   3.749   3.460   8.456 -0.1671 -0.8527 -0.2696
 1483SOL    HW115908   3.703   3.393   8.405  0.9550 -1.7869 -0.0584
 1483SOL    HW215909   3.770   3.414   8.537  0.6959 -0.8218 -0.4825
 1484SOL     OW15910   3.058   1.459   7.169  0.3653  0.0305  0.8447
 1484SOL    HW115911   3.109   1.423   7.097  1.0221  1.1296  0.7622
 1484SOL    HW215912   3.050   1.375   7.214 -3.4707  0.2929  0.7223
 1485SOL     OW15913   0.936   4.603   7.901  0.0684 -0.0897  0.1050
 1485SOL    HW115914   0.985   4.562   7.972  0.3745 -1.2541 -0.7819
 1485SOL    HW215915   1.016   4.626   7.853  0.5252 -0.0123  0.9117
 1486SOL     OW15916   1.621   0.747  10.496  0.1552 -0.3624  0.1009
 1486SOL    HW115917   1.645   0.808  10.427 -1.6701 -0.5896 -0.7375
 1486SOL    HW215918   1.533   0.716  10.474  0.5409 -2.1707  1.0220
 1487SOL     OW15919   4.457   2.409   8.069  0.3044 -0.6050 -0.0686
 1487SOL    HW115920   4.455   2.329   8.121  0.0035 -0.4865  0.1081
 1487SOL    HW215921   4.393   2.466   8.112  2.1118 -0.3538  2.2850
 1488SOL     OW15922   1.947   1.676   4.892  0.0000 -0.0616 -0.7391
 1488SOL    HW115923   2.033   1.652   4.856  1.9949 -0.1826  4.0176
 1488SOL    HW215924   1.896   1.649   4.816 -1.5592 -0.1221  0.3353
 1489SOL     OW15925   3.958   4.143  10.931  0.0709 -0.5837  0.6923
 1489SOL    HW115926   3.866   4.121  10.915  0.1252 -1.1591  1.1599
 1489SOL    HW215927   4.016   4.070  10.909 -0.8341 -0.4952 -1.9626
 1490SOL     OW15928   3.946   2.751   3.033  0.1747 -0.3550 -0.5908
 1490SOL    HW115929   3.938   2.823   2.970 -0.1422 -0.6458 -0.8877
 1490SOL    HW215930   3.876   2.757   3.098  0.1269 -1.6108 -0.5310
 1491SOL     OW15931   3.769   2.705   9.358  0.3238 -0.0006 -0.7254
 1491SOL    HW115932   3.731   2.633   9.308  0.8332 -2.6858  2.7692
 1491SOL    HW215933   3.737   2.686   9.446  1.7666  0.7521 -0.0379
 1492SOL     OW15934   0.843   3.649   7.716  0.3258  0.0693 -0.4604
 1492SOL    HW115935   0.925   3.636   7.763  0.4240 -0.6709 -0.8446
 1492SOL    HW215936   0.857   3.704   7.639 -1.7878  3.0398  1.2453
 1493SOL     OW15937   1.987   4.500   3.144 -0.5507 -0.1971 -0.0063
 1493SOL    HW115938   1.975   4.591   3.117 -0.3962 -0.1909 -0.0573
 1493SOL    HW215939   2.013   4.512   3.235  2.8224  0.5506 -1.0343
 1494SOL     OW15940   1.545   2.186   7.359  0.4172 -0.2892 -0.2571
 1494SOL    HW115941   1.484   2.139   7.416  0.6210 -1.1616 -0.7479
 1494SOL    HW215942   1.577   2.253   7.419 -0.0908 -0.7396  0.5167
 1495SOL     OW15943   1.781   1.113   5.618 -0.1545 -0.1384 -0.0423
 1495SOL    HW115944   1.750   1.197   5.583 -2.6182 -0.9546  0.1310
 1495SOL    HW215945   1.697   1.081   5.651 -2.0288  3.6998 -1.0756
 1496SOL     OW15946   3.934   2.458   2.989  0.1336 -0.3516  0.2026
 1496SOL    HW115947   3.968   2.532   3.039 -2.5341 -0.8089  2.7121
 1496SOL    HW215948   3.909   2.498   2.906  1.2958 -1.0857 -0.4906
 1497SOL     OW15949   1.368   2.192   2.836  0.1350 -1.0592 -0.0726
 1497SOL    HW115950   1.344   2.205   2.928  2.4754 -0.0115  0.3860
 1497SOL    HW215951   1.376   2.097   2.827  1.9709 -1.0123  1.0198
 1498SOL     OW15952   1.786   3.821   2.831 -0.1923  0.4225  0.4933
 1498SOL    HW115953   1.862   3.879   2.829 -1.4603  2.0545 -0.2768
 1498SOL    HW215954   1.739   3.860   2.905 -2.1343  0.0658 -0.5534
 1499SOL     OW15955   3.564   4.212   3.707  0.6144  0.3560  0.5575
 1499SOL    HW115956   3.513   4.215   3.788  1.6985 -0.6785  1.2622
 1499SOL    HW215957   3.596   4.303   3.710  1.1882  0.1500  0.6868
 1500SOL     OW15958   4.137   0.948   9.917 -0.4785  0.3352 -0.0380
 1500SOL    HW115959   4.083   0.920   9.843  1.1196 -0.9738 -0.7001
 1500SOL    HW215960   4.092   1.025   9.951 -3.7271 -1.2777 -0.6829
 1501SOL     OW15961   2.880   2.500  13.962  0.3014 -0.3132  0.1346
 1501SOL    HW115962   2.912   2.583  13.927 -0.4539 -0.9179 -2.0229
 1501SOL    HW215963   2.840   2.457  13.887  1.3160 -2.0687  0.5888
 1502SOL     OW15964   0.261   2.860   5.529 -0.4270  0.0413 -0.7515
 1502SOL    HW115965   0.288   2.865   5.437 -0.4292  2.2630 -0.6229
 1502SOL    HW215966   0.246   2.766   5.544 -0.8304  0.2132 -0.1195
 1503SOL     OW15967   2.699   0.500   4.516  0.0646  0.0073  0.1464
 1503SOL    HW115968   2.677   0.462   4.601  1.7768 -1.2028  0.0393
 1503SOL    HW215969   2.669   0.428   4.460 -1.0875 -1.0891  2.1658
 1504SOL     OW15970   3.628   0.994   8.760  0.0275  0.4331 -0.3323
 1504SOL    HW115971   3.664   1.081   8.778  2.4002 -0.5707 -0.2791
 1504SOL    HW215972   3.552   0.999   8.818  1.7730 -1.0309  2.0509
 1505SOL     OW15973   4.540   4.632  14.430  0.3979  0.1254 -0.1447
 1505SOL    HW115974   4.528   4.568  14.501  0.5701 -1.2203 -1.3244
 1505SOL    HW215975   4.585   4.576  14.367 -1.2107 -0.7874 -0.5067
 1506SOL     OW15976   1.966   2.648  16.593 -0.6113  0.7948 -1.0393
 1506SOL    HW115977   1.877   2.617  16.576  0.2806 -1.8554 -0.8685
 1506SOL    HW215978   1.954   2.711  16.664  0.6717  2.1209 -1.9911
 1507SOL     OW15979   3.373   0.187  15.464  0.0124  0.1262  0.4015
 1507SOL    HW115980   3.331   0.123  15.406 -0.0626  0.6456 -0.1121
 1507SOL    HW215981   3.441   0.219  15.405 -2.9796  1.2170 -2.4688
 1508SOL     OW15982   1.027   3.714  17.097  0.2745  0.0871  0.0410
 1508SOL    HW115983   1.084   3.687  17.025 -1.3122  1.1670 -1.6233
 1508SOL    HW215984   1.007   3.805  17.073  0.6900  0.3929  0.8408
 1509SOL     OW15985   2.286   2.862   3.679  0.0210 -0.2537 -0.1606
 1509SOL    HW115986   2.241   2.900   3.603  0.2614  0.2176 -0.0679
 1509SOL    HW215987   2.217   2.886   3.741  0.0728 -0.3746 -0.0561
 1510SOL     OW15988   2.585   0.476   8.345 -0.4059  0.3062 -0.6732
 1510SOL    HW115989   2.639   0.527   8.405  0.3014  0.3005 -1.3088
 1510SOL    HW215990   2.565   0.410   8.412  1.1682 -0.2065 -0.7127
 1511SOL     OW15991   3.476   3.047   7.024  0.0266  0.3323 -0.3095
 1511SOL    HW115992   3.519   3.109   6.965  0.3679 -0.2190 -0.6370
 1511SOL    HW215993   3.553   3.006   7.064  1.4249  0.6537 -2.6856
 1512SOL     OW15994   1.374   1.429   8.823  0.2645  0.2552 -0.1765
 1512SOL    HW115995   1.407   1.368   8.757  1.4804  1.3680 -0.6137
 1512SOL    HW215996   1.440   1.419   8.892  0.1847 -0.9669 -0.2815
 1513SOL     OW15997   0.709   1.413   8.276 -0.2857 -0.3196  0.2798
 1513SOL    HW115998   0.685   1.504   8.294  0.4958 -0.0704  0.0504
 1513SOL    HW215999   0.685   1.370   8.359  0.9106 -0.4269  0.5669
 1514SOL     OW16000   2.985   0.335   4.143  0.1059  0.6611  0.4824
 1514SOL    HW116001   2.952   0.424   4.134 -2.3708 -0.3838 -0.7187
 1514SOL    HW216002   3.010   0.346   4.234 -0.2422 -1.5928  0.8463
 1515SOL     OW16003   3.365   2.770   0.686 -0.2365 -0.4020  0.4693
 1515SOL    HW116004   3.343   2.721   0.607 -0.7678  0.8781 -0.1828
 1515SOL    HW216005   3.419   2.713   0.742  2.6053 -0.0559 -1.9273
 1516SOL     OW16006   2.634   4.356   1.982 -0.2372  0.3452 -0.3014
 1516SOL    HW116007   2.582   4.350   1.902  1.5990 -0.6574 -1.4307
 1516SOL    HW216008   2.712   4.311   1.951  0.2340  0.5900  0.5122
 1517SOL     OW16009   2.084   0.561   8.789  0.3812 -0.4844 -0.1295
 1517SOL    HW116010   2.019   0.492   8.800  2.8487 -2.6298  0.7337
 1517SOL    HW216011   2.165   0.521   8.820  0.7820  1.1529  0.9173
 1518SOL     OW16012   4.425   4.229  16.677  0.2404 -0.0501 -0.0709
 1518SOL    HW116013   4.472   4.299  16.723 -2.9128  1.3401  1.0048
 1518SOL    HW216014   4.375   4.186  16.746  0.8443  0.3464  0.6227
 1519SOL     OW16015   3.857   4.370   9.516 -0.1430 -0.1279  0.3946
 1519SOL    HW116016   3.947   4.373   9.484 -0.0759 -2.0257  0.3990
 1519SOL    HW216017   3.834   4.463   9.516 -2.1867 -0.6318  0.3164
 1520SOL     OW16018   3.352   4.134  17.354  0.5005 -0.7124  0.1452
 1520SOL    HW116019   3.357   4.160  17.262  0.4358  0.3131  0.4258
 1520SOL    HW216020   3.442   4.151  17.381  0.1118  0.6532  0.6075
 1521SOL     OW16021   3.313   3.428   9.971 -0.5839 -0.5523 -1.1043
 1521SOL    HW116022   3.295   3.517   9.941 -0.1715  0.3709  1.3849
 1521SOL    HW216023   3.225   3.391   9.966 -1.4323  0.9090  3.5615
 1522SOL     OW16024   1.272   1.606   7.107  0.5369 -0.1474  0.2821
 1522SOL    HW116025   1.189   1.650   7.088  1.5083  0.3500 -2.7965
 1522SOL    HW216026   1.301   1.571   7.023 -0.3001  1.9042 -0.8549
 1523SOL     OW16027   1.703   4.251   5.406 -0.2272 -0.7458  0.6884
 1523SOL    HW116028   1.675   4.341   5.424 -0.7000 -0.6321 -0.6307
 1523SOL    HW216029   1.716   4.265   5.312 -1.3239  4.4857  1.3531
 1524SOL     OW16030   0.354   2.662   9.220 -0.2485 -0.4384 -0.3138
 1524SOL    HW116031   0.325   2.748   9.248  1.5377  0.1045 -0.1280
 1524SOL    HW216032   0.427   2.652   9.281 -1.2695  0.6473  1.0692
 1525SOL     OW16033   3.187   3.549   8.234  0.1244 -0.1349 -0.2953
 1525SOL    HW116034   3.232   3.614   8.181  2.7725 -0.9103  0.9954
 1525SOL    HW216035   3.133   3.601   8.294 -0.6391  0.2542 -1.3192
 1526SOL     OW16036   4.264   3.232   4.775 -0.0171 -0.0620  0.1223
 1526SOL    HW116037   4.332   3.298   4.789 -1.9857  1.9437  0.1299
 1526SOL    HW216038   4.190   3.284   4.745  1.8692  2.1424 -0.7630
 1527SOL     OW16039   0.021   2.154   4.320  0.6497 -0.0302 -0.0005
 1527SOL    HW116040   4.722   2.094   4.391 -0.3774 -0.6322 -0.7994
 1527SOL    HW216041   0.112   2.173   4.342  1.2320 -1.1190 -1.3994
 1528SOL     OW16042   0.959   0.163   2.359  0.6244  0.6543  0.0946
 1528SOL    HW116043   0.933   0.203   2.441  0.0560  1.1539 -0.3251
 1528SOL    HW216044   1.008   0.220   2.299  0.7764  1.4899  1.0162
 1529SOL     OW16045   0.521   1.679  11.274 -0.6382 -0.3151  0.8333
 1529SOL    HW116046   0.554   1.669  11.185  0.4273  1.7622  0.9894
 1529SOL    HW216047   0.514   1.774  11.277  0.2136 -0.2399  0.6391
 1530SOL     OW16048   3.283   2.926   1.972 -0.1111  0.2753  0.0413
 1530SOL    HW116049   3.211   2.970   1.926 -0.2054  0.8537  0.7441
 1530SOL    HW216050   3.225   2.872   2.025  0.5294 -1.2307 -0.7702
 1531SOL     OW16051   3.334   1.629   3.592  0.3087 -0.3641  0.1157
 1531SOL    HW116052   3.253   1.586   3.620  0.2514  0.8812  1.8448
 1531SOL    HW216053   3.364   1.643   3.682 -0.7482  0.8192  0.2804
 1532SOL     OW16054   2.907   4.234   6.433  0.1054  0.0722 -0.3124
 1532SOL    HW116055   2.895   4.281   6.351 -0.8699  0.1349 -0.1308
 1532SOL    HW216056   2.879   4.305   6.492 -0.3441 -0.0308 -0.4049
 1533SOL     OW16057   3.328   3.078   4.223  0.2608 -0.0618  0.2290
 1533SOL    HW116058   3.375   3.130   4.157 -0.3123  1.1733  0.7984
 1533SOL    HW216059   3.276   3.014   4.174 -2.0900  1.8944  0.1568
 1534SOL     OW16060   2.096   3.872  12.041  0.5558  0.3603 -0.5039
 1534SOL    HW116061   2.180   3.849  12.081 -0.3674  1.6400  2.1051
 1534SOL    HW216062   2.117   3.909  11.955  0.8443 -0.1025 -0.6330
 1535SOL     OW16063   1.485   1.410   3.369 -0.5202 -0.3815 -0.1268
 1535SOL    HW116064   1.529   1.372   3.293 -1.3547  0.5147 -1.0433
 1535SOL    HW216065   1.449   1.489   3.330  0.6747 -0.3312 -1.1347
 1536SOL     OW16066   0.767   1.606   7.952 -0.2376  0.1372  0.4942
 1536SOL    HW116067   0.729   1.533   7.905 -2.3242 -0.0831  2.5335
 1536SOL    HW216068   0.849   1.576   7.992  0.6195  0.8608 -0.7228
 1537SOL     OW16069   2.746   3.396   3.992 -0.0311  0.0883  0.4730
 1537SOL    HW116070   2.739   3.453   4.069  1.8630 -2.0552  2.2419
 1537SOL    HW216071   2.706   3.451   3.925 -1.0912 -0.9185  0.2767
 1538SOL     OW16072   3.433   3.477  14.479  0.0814  0.6647  0.4133
 1538SOL    HW116073   3.348   3.486  14.435 -0.1211 -0.6770  0.5334
 1538SOL    HW216074   3.477   3.439  14.403  2.3590 -0.8513  2.4984
 1539SOL     OW16075   1.772   0.475  16.176 -0.2617 -0.1359  0.1670
 1539SOL    HW116076   1.706   0.535  16.212 -0.4881 -0.1939 -0.1481
 1539SOL    HW216077   1.777   0.497  16.083  0.5090 -0.9181  0.0270
 1540SOL     OW16078   0.433   2.556  13.384 -0.8000  0.2798  0.3352
 1540SOL    HW116079   0.371   2.546  13.312  0.4119 -0.8838 -0.5500
 1540SOL    HW216080   0.421   2.649  13.406 -0.3221  0.3155  0.4475
 1541SOL     OW16081   0.479   4.001   9.909 -0.1810 -0.3622  0.7877
 1541SOL    HW116082   0.420   4.005   9.834  0.2626 -0.4034  0.4380
 1541SOL    HW216083   0.441   4.066   9.968  0.5847 -0.4420  1.3630
 1542SOL     OW16084   0.838   2.517  14.064  1.3491  0.5538  0.1902
 1542SOL    HW116085   0.840   2.609  14.037 -0.5863  0.3393 -0.6250
 1542SOL    HW216086   0.750   2.498  14.033  1.8003 -1.9916  0.4940
 1543SOL     OW16087   1.519   3.655  13.054  0.1794 -0.0767  0.8083
 1543SOL    HW116088   1.498   3.658  12.961  0.2897  1.3927  0.8363
 1543SOL    HW216089   1.495   3.743  13.083 -1.1626  1.3026 -4.5749
 1544SOL     OW16090   3.343   3.736  12.016  0.0394 -0.6976 -0.9572
 1544SOL    HW116091   3.393   3.783  12.082 -1.0136  0.3365 -0.9013
 1544SOL    HW216092   3.407   3.665  12.008  1.8848  0.9218 -0.4382
 1545SOL     OW16093   1.132   1.577  13.765 -0.2464  0.0414  0.2451
 1545SOL    HW116094   1.223   1.553  13.784 -0.0020  1.0738  0.3954
 1545SOL    HW216095   1.116   1.637  13.838  0.5121 -1.1144  1.3742
 1546SOL     OW16096   2.183   1.240   9.490  0.1473  0.5697 -0.1345
 1546SOL    HW116097   2.096   1.215   9.458 -0.3832  1.6663  0.4765
 1546SOL    HW216098   2.162   1.321   9.536 -1.3472  0.4663 -0.6218
 1547SOL     OW16099   1.391   4.366   1.664  0.7028 -0.0188  0.0380
 1547SOL    HW116100   1.345   4.294   1.707  0.1449 -0.7860 -1.8397
 1547SOL    HW216101   1.470   4.325   1.626  1.1459  0.0621  0.8634
 1548SOL     OW16102   2.017   2.215   5.665  0.0541  0.0240  0.0177
 1548SOL    HW116103   1.946   2.251   5.612  1.3288  0.3207 -1.4816
 1548SOL    HW216104   2.082   2.272   5.624  1.3401 -1.6189 -0.2482
 1549SOL     OW16105   1.904   0.539   6.447 -0.2877  0.0368 -0.5712
 1549SOL    HW116106   1.934   0.551   6.357  0.5022  1.3503 -0.1202
 1549SOL    HW216107   1.979   0.496   6.488 -1.4672  0.2269  1.7944
 1550SOL     OW16108   0.617   0.455  17.140  0.3798 -0.3545  0.2902
 1550SOL    HW116109   0.636   0.468  17.233 -1.9043  0.6308  0.6161
 1550SOL    HW216110   0.522   0.464  17.151  0.4161 -0.0255  0.3636
 1551SOL     OW16111   2.528   1.830  11.587  0.8103 -0.0483  0.2040
 1551SOL    HW116112   2.527   1.808  11.494  0.8846 -2.8592  0.8526
 1551SOL    HW216113   2.435   1.814  11.604  0.2129 -0.0881 -3.1233
 1552SOL     OW16114   4.489   2.838  13.395 -0.1845 -0.3305 -0.5758
 1552SOL    HW116115   4.409   2.888  13.378  0.7748  0.0924 -3.7364
 1552SOL    HW216116   4.438   2.759  13.414  0.1444  0.6210  4.2719
 1553SOL     OW16117   2.615   0.793   3.696 -0.5129  0.6584  0.1706
 1553SOL    HW116118   2.700   0.786   3.652 -0.0307  1.7517  0.9408
 1553SOL    HW216119   2.648   0.804   3.785 -1.5829 -1.2390  0.8063
 1554SOL     OW16120   0.607   2.580   7.966  0.1363 -0.2586  0.4946
 1554SOL    HW116121   0.588   2.504   8.022 -0.6855  0.4853  1.2181
 1554SOL    HW216122   0.555   2.562   7.887  0.6642 -2.6796  0.6834
 1555SOL     OW16123   1.978   4.648   7.604 -0.2396  0.2147 -0.0496
 1555SOL    HW116124   1.987   4.558   7.636  1.9318  1.3142  2.3734
 1555SOL    HW216125   2.070   4.672   7.606 -0.2860  0.4665 -1.0689
 1556SOL     OW16126   1.790   3.485   9.682  0.6281 -0.2982  0.5990
 1556SOL    HW116127   1.832   3.539   9.748  0.1482  0.4664  0.2706
 1556SOL    HW216128   1.771   3.553   9.617 -0.1525  0.5311  1.6984
 1557SOL     OW16129   4.240   2.832   6.401  0.1449  0.9626  0.6961
 1557SOL    HW116130   4.224   2.747   6.442  1.3621  0.0660 -0.6916
 1557SOL    HW216131   4.286   2.873   6.474  0.0360  0.2703  1.1547
 1558SOL     OW16132   3.635   2.661  14.747  0.4477  0.1513  0.2069
 1558SOL    HW116133   3.570   2.625  14.688  2.5859  0.2446 -2.1968
 1558SOL    HW216134   3.574   2.685  14.817 -0.6982 -0.8330 -0.4611
 1559SOL     OW16135   4.552   4.019   5.473 -0.2944 -0.0413 -0.4247
 1559SOL    HW116136   4.620   3.968   5.515 -1.3309 -1.4238 -0.4107
 1559SOL    HW216137   4.479   3.982   5.523  0.7097 -1.5419 -0.0965
 1560SOL     OW16138   1.433   0.788   7.393 -0.5646 -0.1788 -1.1280
 1560SOL    HW116139   1.342   0.813   7.379 -0.6850  0.6133  0.9594
 1560SOL    HW216140   1.423   0.735   7.472  1.8889  2.3938  0.9308
 1561SOL     OW16141   0.213   1.455   2.185 -0.4925  0.4410 -0.0237
 1561SOL    HW116142   0.170   1.406   2.115  2.3326 -0.4254 -1.1695
 1561SOL    HW216143   0.147   1.519   2.212 -1.3938  0.6914 -2.8966
 1562SOL     OW16144   3.144   1.701   7.894 -0.6365  0.0474  0.3946
 1562SOL    HW116145   3.118   1.618   7.854  1.8819 -1.6597  2.2749
 1562SOL    HW216146   3.150   1.758   7.818  2.8284  1.6763  1.8824
 1563SOL     OW16147   4.310   3.617   9.484 -0.0150 -0.5499 -0.2875
 1563SOL    HW116148   4.321   3.565   9.405  2.7939  1.2118 -1.0614
 1563SOL    HW216149   4.244   3.566   9.531  1.0176 -0.5847  1.1041
 1564SOL     OW16150   0.275   0.950   6.862  0.0938  0.1393 -0.0308
 1564SOL    HW116151   0.291   0.910   6.948  2.1738 -0.6718 -0.7905
 1564SOL    HW216152   0.259   0.881   6.798 -1.8809 -1.8601  2.6625
 1565SOL     OW16153   4.032   4.533   6.215  0.0906  0.1447  0.0974
 1565SOL    HW116154   3.983   4.577   6.145  0.1169  0.1165  0.0616
 1565SOL    HW216155   4.113   4.584   6.218 -1.1236  2.1154 -0.2256
 1566SOL     OW16156   4.544   2.340   6.416 -0.1059 -0.2625 -0.5886
 1566SOL    HW116157   4.558   2.246   6.406 -0.2645 -0.1952 -1.4639
 1566SOL    HW216158   4.622   2.372   6.463  0.3929 -2.6503  0.1771
 1567SOL     OW16159   1.053   4.390   6.934 -0.4149  0.3073  0.0343
 1567SOL    HW116160   1.125   4.452   6.921 -0.4754  0.6210  1.1330
 1567SOL    HW216161   0.974   4.445   6.928 -0.1727  0.6578  0.0186
 1568SOL     OW16162   1.520   4.423   2.640 -0.1232  0.5872 -0.1990
 1568SOL    HW116163   1.501   4.403   2.548  2.5158  0.1968 -0.6702
 1568SOL    HW216164   1.528   4.332   2.670 -0.1738  0.2176 -1.2983
 1569SOL     OW16165   3.701   1.606   4.300  0.3260 -0.5420 -0.0295
 1569SOL    HW116166   3.750   1.616   4.381  1.4029 -0.9564 -0.6255
 1569SOL    HW216167   3.622   1.559   4.328  0.0980  0.1359  0.4598
 1570SOL     OW16168   1.245   1.040   0.467 -0.6033  0.3764 -0.0397
 1570SOL    HW116169   1.263   1.122   0.420 -0.3555 -0.8217 -2.0423
 1570SOL    HW216170   1.323   1.040   0.522  0.3481 -1.3745 -1.3923
 1571SOL     OW16171   2.410   2.556  12.420  0.2686 -0.1888  0.6647
 1571SOL    HW116172   2.345   2.620  12.390  0.3300 -0.7535 -0.6574
 1571SOL    HW216173   2.456   2.599  12.492  1.3136  1.2371 -0.8429
 1572SOL     OW16174   3.906   2.717  11.078 -0.2571 -0.1306 -0.2672
 1572SOL    HW116175   3.933   2.633  11.116 -0.6665 -0.0662  0.1723
 1572SOL    HW216176   3.815   2.701  11.052  0.2662 -2.1099 -0.8737
 1573SOL     OW16177   2.871   0.146   1.544 -0.3561 -1.0150 -0.6517
 1573SOL    HW116178   2.792   0.093   1.528  0.0125 -1.9558  0.6126
 1573SOL    HW216179   2.938   0.080   1.559 -0.8324 -0.9130  1.9028
 1574SOL     OW16180   4.595   2.516  10.714  0.3457 -0.2576  0.1009
 1574SOL    HW116181   4.509   2.500  10.676  0.9013 -1.1280 -0.7959
 1574SOL    HW216182   4.625   2.425  10.722 -0.9258 -0.5416  1.5804
 1575SOL     OW16183   2.126   1.967   4.647 -0.2288  0.0563 -0.2155
 1575SOL    HW116184   2.155   1.882   4.615 -0.4382 -0.1683  0.2004
 1575SOL    HW216185   2.080   1.949   4.728  0.5942  2.1413  0.7306
 1576SOL     OW16186   0.238   0.911   3.650  0.2324 -0.2382 -0.1324
 1576SOL    HW116187   0.165   0.931   3.709  1.4193  1.0613  0.8717
 1576SOL    HW216188   0.198   0.918   3.563  1.2484  2.1662 -0.3868
 1577SOL     OW16189   2.365   1.603   9.430  0.1388  0.4890 -0.1709
 1577SOL    HW116190   2.402   1.692   9.432 -1.4262  1.0606  3.3923
 1577SOL    HW216191   2.318   1.592   9.513 -0.8476  0.3073 -0.7576
 1578SOL     OW16192   2.224   4.190   3.931 -0.0878  0.1242  0.1354
 1578SOL    HW116193   2.285   4.192   3.857  0.3159  0.6736  0.4802
 1578SOL    HW216194   2.268   4.252   3.990 -1.7083  1.0998  0.3327
 1579SOL     OW16195   4.019   1.757   2.602 -0.0641  0.0082  0.1474
 1579SOL    HW116196   4.054   1.675   2.567 -1.3398 -0.1085 -0.8611
 1579SOL    HW216197   4.046   1.824   2.539  1.2971  1.0005  1.7580
 1580SOL     OW16198   0.356   0.512  14.240  0.0664  0.1226  0.6187
 1580SOL    HW116199   0.297   0.462  14.296 -0.1758 -0.4986 -0.1826
 1580SOL    HW216200   0.322   0.492  14.152  0.9860  2.4848 -0.2766
 1581SOL     OW16201   3.956   2.850   8.377  0.1511 -0.3159 -0.1861
 1581SOL    HW116202   3.880   2.792   8.372  1.5115 -2.3385  2.3692
 1581SOL    HW216203   3.968   2.856   8.283 -0.7092 -0.3863 -0.2971
 1582SOL     OW16204   2.746   2.474   9.915 -0.2771 -0.1498  0.7810
 1582SOL    HW116205   2.657   2.441   9.917 -0.2713 -0.1329  1.3293
 1582SOL    HW216206   2.794   2.395   9.941  0.4361  0.1799  0.4901
 1583SOL     OW16207   3.907   0.978   3.332  0.0820 -0.3656 -0.1703
 1583SOL    HW116208   3.876   1.033   3.260 -1.5431  0.6637  1.3233
 1583SOL    HW216209   3.977   1.032   3.368  1.2039 -1.1603 -1.1634
 1584SOL     OW16210   0.339   3.693   6.184 -0.2511  0.0001  0.3553
 1584SOL    HW116211   0.264   3.746   6.157  0.0509  0.4525  0.3973
 1584SOL    HW216212   0.349   3.716   6.276 -0.2229 -1.0052  0.5933
 1585SOL     OW16213   2.855   3.655   2.453  0.7268 -0.8293 -0.2089
 1585SOL    HW116214   2.939   3.699   2.461  0.2686  0.5532 -2.8376
 1585SOL    HW216215   2.807   3.712   2.392 -2.5784 -1.0165  2.2197
 1586SOL     OW16216   3.925   2.538   6.105 -0.3414 -0.3870 -0.1880
 1586SOL    HW116217   3.964   2.610   6.056  0.8765 -1.8208 -1.2967
 1586SOL    HW216218   3.861   2.582   6.161  1.4073  1.6085  0.2540
 1587SOL     OW16219   0.129   2.713  14.593  0.4312 -1.0753 -0.1026
 1587SOL    HW116220   0.047   2.704  14.545 -0.1467 -1.9335  1.0253
 1587SOL    HW216221   0.113   2.784  14.655  0.4569 -1.5722  0.4804
 1588SOL     OW16222   4.218   4.565   6.621 -0.0550  0.2336 -0.0037
 1588SOL    HW116223   4.282   4.507   6.579  1.2437  0.9858  0.9343
 1588SOL    HW216224   4.258   4.584   6.706 -2.6957 -0.9849  1.5185
 1589SOL     OW16225   3.810   0.068   1.789 -0.0053 -0.3968 -0.5663
 1589SOL    HW116226   3.739   0.021   1.745  0.4259 -0.9503 -0.6660
 1589SOL    HW216227   3.846   0.104   1.708 -0.3415 -1.0535 -1.0051
 1590SOL     OW16228   3.896   0.921   0.121  0.6136 -0.0974 -0.0914
 1590SOL    HW116229   3.811   0.897   0.157  1.1126 -1.0216  0.4619
 1590SOL    HW216230   3.918   0.837   0.081 -1.7677 -0.3564 -0.8453
 1591SOL     OW16231   0.055   3.029   3.405 -0.0085  0.0102 -0.7912
 1591SOL    HW116232   0.011   2.972   3.468  1.0886 -1.5910 -1.4772
 1591SOL    HW216233   4.707   3.093   3.391  0.1438  0.7265  1.7073
 1592SOL     OW16234   0.710   2.175   8.276  0.5381  0.4675  0.1623
 1592SOL    HW116235   0.661   2.250   8.313  2.0864  0.9411  1.2617
 1592SOL    HW216236   0.798   2.189   8.312  0.3947 -0.4048  0.8351
 1593SOL     OW16237   1.958   3.422  12.011  0.8320  0.4218 -0.1378
 1593SOL    HW116238   1.925   3.504  11.972  1.0910  0.2136 -0.7997
 1593SOL    HW216239   2.008   3.455  12.085  1.9079 -0.7922 -0.3344
 1594SOL     OW16240   1.700   3.151   5.191 -0.3214  0.2612 -0.0072
 1594SOL    HW116241   1.656   3.068   5.171  2.0956 -1.3284  1.3549
 1594SOL    HW216242   1.747   3.130   5.271 -1.7159 -0.3227  0.6661
 1595SOL     OW16243   3.365   0.345   4.849 -0.0615 -0.0190 -0.3602
 1595SOL    HW116244   3.401   0.265   4.888 -0.1173  0.5822  0.9289
 1595SOL    HW216245   3.277   0.334   4.884  0.4640 -0.7428  0.7166
 1596SOL     OW16246   0.342   4.406   3.765  0.5040  0.5412  0.3233
 1596SOL    HW116247   0.272   4.363   3.815  1.0264  1.4652  1.8396
 1596SOL    HW216248   0.418   4.348   3.764  0.7359  0.8006  2.1300
 1597SOL     OW16249   0.444   4.168   4.659 -0.0807 -0.1073  0.0274
 1597SOL    HW116250   0.390   4.240   4.693 -0.2794 -0.7872  1.1343
 1597SOL    HW216251   0.527   4.184   4.704 -0.0575 -1.1580  0.3581
 1598SOL     OW16252   1.524   4.121  12.477 -0.5662  0.7425  0.2571
 1598SOL    HW116253   1.471   4.046  12.502  0.7950  0.1483  1.3098
 1598SOL    HW216254   1.526   4.176  12.556  0.7104  0.7982  0.1777
 1599SOL     OW16255   2.987   3.415   1.764  0.1688  0.4148 -0.1711
 1599SOL    HW116256   2.990   3.377   1.852  1.5121 -2.0407 -1.2783
 1599SOL    HW216257   3.080   3.430   1.747  0.4529 -0.7194  0.3496
 1600SOL     OW16258   0.434   2.990   2.103 -0.2324 -0.4012 -0.4204
 1600SOL    HW116259   0.344   3.009   2.077  1.5363  4.4613 -2.9942
 1600SOL    HW216260   0.471   3.078   2.100 -1.0033 -0.0610  0.3010
 1601SOL     OW16261   0.993   0.875  12.583  0.6693  0.2124 -0.2352
 1601SOL    HW116262   0.930   0.808  12.557 -0.0899  1.2206 -0.9983
 1601SOL    HW216263   1.038   0.826  12.652  0.1740  0.6299  0.3913
 1602SOL     OW16264   4.254   1.725   5.294  0.6943 -0.2932  0.2093
 1602SOL    HW116265   4.201   1.741   5.216  3.1922  0.7371 -1.3038
 1602SOL    HW216266   4.185   1.712   5.358  1.0616 -3.1164  0.0003
 1603SOL     OW16267   3.081   3.516   3.911  0.1506  0.7024  0.5810
 1603SOL    HW116268   3.148   3.581   3.890  1.1898 -0.9118 -1.0544
 1603SOL    HW216269   3.135   3.438   3.923  1.7266  1.6139 -0.5889
 1604SOL     OW16270   3.744   3.867   6.835 -0.9509  0.6691 -0.0855
 1604SOL    HW116271   3.703   3.886   6.919 -0.0527  0.3820  0.4161
 1604SOL    HW216272   3.673   3.830   6.783  0.6756 -1.8155 -0.5250
 1605SOL     OW16273   0.735   4.305  15.135  0.3510  0.1922 -0.3133
 1605SOL    HW116274   0.703   4.260  15.057 -1.2674  1.5214 -0.4013
 1605SOL    HW216275   0.657   4.355  15.160  1.7383  1.2314  1.9918
 1606SOL     OW16276   2.588   1.392   6.036  0.0742  0.1693  0.0260
 1606SOL    HW116277   2.608   1.421   6.125  2.6399 -2.2163  0.1877
 1606SOL    HW216278   2.667   1.419   5.989 -0.4986  1.9139  0.0661
 1607SOL     OW16279   2.093   2.183   8.071 -0.4912 -0.3557  0.3093
 1607SOL    HW116280   2.153   2.125   8.119 -1.4601  0.0469  2.0049
 1607SOL    HW216281   2.101   2.258   8.130  0.1080 -0.3543  0.2267
 1608SOL     OW16282   2.858   1.798  14.701  0.9382 -0.3747  0.1003
 1608SOL    HW116283   2.850   1.713  14.743 -0.7824  0.3500  1.2714
 1608SOL    HW216284   2.896   1.842  14.777  0.4684  0.6256 -0.2443
 1609SOL     OW16285   0.013   1.475   9.137  0.7625  0.4397 -0.1588
 1609SOL    HW116286   0.068   1.467   9.215  1.2122 -0.6250 -0.5828
 1609SOL    HW216287   4.706   1.566   9.144  1.2386  0.7667 -2.2451
 1610SOL     OW16288   2.415   4.434   4.701  0.0874  0.2224  1.0176
 1610SOL    HW116289   2.370   4.432   4.617 -0.3595 -2.2594  1.3052
 1610SOL    HW216290   2.482   4.502   4.694  0.5314 -0.3286 -0.0013
 1611SOL     OW16291   2.002   4.383   7.427 -0.5318 -0.1914 -0.2417
 1611SOL    HW116292   2.009   4.477   7.444 -0.2059 -0.2382 -0.1179
 1611SOL    HW216293   1.914   4.367   7.460 -0.9622  0.3568 -1.1167
 1612SOL     OW16294   1.130   0.659   8.777 -1.0041 -0.0626 -0.8180
 1612SOL    HW116295   1.137   0.575   8.822  1.1411 -0.8887 -2.7459
 1612SOL    HW216296   1.035   0.671   8.782 -0.6685  2.1613  0.0802
 1613SOL     OW16297   2.980   1.963   2.577 -0.2456 -0.7660  0.2265
 1613SOL    HW116298   3.061   2.014   2.565 -0.2390 -0.6495  0.7714
 1613SOL    HW216299   2.918   2.036   2.576 -2.2443 -2.4913 -1.4235
 1614SOL     OW16300   1.348   4.459   3.524 -0.3623  0.0684 -0.0041
 1614SOL    HW116301   1.416   4.466   3.592 -1.3450  1.5586  0.8197
 1614SOL    HW216302   1.398   4.485   3.446 -0.3704 -0.3360 -0.1412
 1615SOL     OW16303   1.791   3.859   5.391  0.2112  0.0482  0.0403
 1615SOL    HW116304   1.851   3.811   5.334  0.2164  2.7714 -2.2647
 1615SOL    HW216305   1.837   3.935   5.427 -0.3719  0.8679 -0.9515
 1616SOL     OW16306   2.168   0.189  11.768  0.2381 -0.5369  0.0525
 1616SOL    HW116307   2.082   0.220  11.741 -0.4114 -1.9173  0.4959
 1616SOL    HW216308   2.148   0.176  11.861 -3.1891  2.8577 -0.2243
 1617SOL     OW16309   1.513   3.122  10.784  0.7569  0.1008  0.5404
 1617SOL    HW116310   1.575   3.183  10.743 -0.4363  2.2993  2.0130
 1617SOL    HW216311   1.561   3.039  10.779 -0.7620 -0.6419 -1.8256
 1618SOL     OW16312   1.021   1.995   3.345  0.8634  0.6814 -0.2220
 1618SOL    HW116313   1.033   1.959   3.257  1.4868 -3.0031  1.3565
 1618SOL    HW216314   0.976   2.076   3.321  0.7795 -0.0272 -2.4685
 1619SOL     OW16315   1.107   1.109   2.307  0.9273  0.0304 -0.2299
 1619SOL    HW116316   1.045   1.176   2.334  0.0164 -0.0000 -2.2395
 1619SOL    HW216317   1.126   1.075   2.395 -0.0423  2.3074  0.8452
 1620SOL     OW16318   1.134   1.353  11.431  0.2347 -0.2008  0.8127
 1620SOL    HW116319   1.133   1.414  11.358 -2.5064 -0.3558  0.7198
 1620SOL    HW216320   1.178   1.411  11.492 -0.1195  0.2640  0.6252
 1621SOL     OW16321   1.696   2.850   2.266  0.2620 -0.3229  0.1411
 1621SOL    HW116322   1.677   2.827   2.176 -1.9980  0.4079  0.4515
 1621SOL    HW216323   1.773   2.902   2.241  0.3222 -0.5846 -0.2241
 1622SOL     OW16324   4.656   3.626   8.159  0.1849  0.4430  0.7264
 1622SOL    HW116325   4.636   3.643   8.067 -1.7216 -2.0433  0.6814
 1622SOL    HW216326   4.699   3.541   8.155  1.5096  1.1209  0.5194
 1623SOL     OW16327   3.032   0.813   3.110  0.3870 -0.2949 -0.0918
 1623SOL    HW116328   3.115   0.806   3.158 -0.0568 -0.8906  0.5797
 1623SOL    HW216329   3.039   0.890   3.054  0.7712 -1.5933 -1.8256
 1624SOL     OW16330   0.061   4.627  13.175 -0.1846  0.1605  0.1175
 1624SOL    HW116331   4.721   4.697  13.193 -0.1898 -0.1473  1.3588
 1624SOL    HW216332   0.131   4.639  13.240  1.2586 -0.0584 -1.3849
 1625SOL     OW16333   2.207   0.034   7.056  0.4287 -0.3691  0.2373
 1625SOL    HW116334   2.152   4.706   6.996 -3.4438  3.9651  0.1807
 1625SOL    HW216335   2.271   0.070   6.995  1.4982 -0.7216  1.1502
 1626SOL     OW16336   1.028   1.683   2.081  0.3462  0.4053 -0.0783
 1626SOL    HW116337   0.987   1.619   2.024 -1.1240  0.5538  0.8057
 1626SOL    HW216338   0.964   1.754   2.087  0.9784  1.1653 -2.3509
 1627SOL     OW16339   0.952   2.163   8.938 -0.0432 -0.3106  0.4396
 1627SOL    HW116340   0.857   2.174   8.938 -0.1847 -1.7729 -2.6523
 1627SOL    HW216341   0.963   2.116   8.856 -0.3678  2.0986 -0.9847
 1628SOL     OW16342   2.589   0.132   8.161  0.1706 -0.8200 -0.1728
 1628SOL    HW116343   2.628   0.164   8.080 -1.2426 -2.6538 -1.6073
 1628SOL    HW216344   2.500   0.111   8.131  0.0004 -0.1866 -0.1072
 1629SOL     OW16345   1.079   3.892  15.083  0.2751 -0.2340 -0.2904
 1629SOL    HW116346   1.133   3.900  15.161  1.1958  1.0199 -1.0661
 1629SOL    HW216347   1.052   3.983  15.072  1.8051  0.1834 -0.5080
 1630SOL     OW16348   3.243   1.768   4.089 -0.2194 -0.3432 -0.1508
 1630SOL    HW116349   3.278   1.702   4.148 -1.2838  1.2709  2.2848
 1630SOL    HW216350   3.265   1.851   4.132 -0.4878 -1.2050  1.6342
 1631SOL     OW16351   2.072   4.362   1.918  0.0533  0.0138  0.9146
 1631SOL    HW116352   2.137   4.395   1.856  0.5419 -0.7470  1.0105
 1631SOL    HW216353   2.090   4.423   1.989 -0.4706 -0.8305  1.7791
 1632SOL     OW16354   0.284   4.497   2.991  0.6721 -0.1012  0.3858
 1632SOL    HW116355   0.318   4.433   3.053 -1.3416 -0.2350  1.3488
 1632SOL    HW216356   0.352   4.506   2.923 -0.3556  0.2958 -0.5933
 1633SOL     OW16357   3.016   2.917  13.248  0.2749 -0.3159  0.0786
 1633SOL    HW116358   3.106   2.928  13.217  0.2517  0.9637  0.4685
 1633SOL    HW216359   2.982   2.850  13.188 -0.5344 -0.0112  0.1954
 1634SOL     OW16360   4.242   0.176   1.121 -0.3382 -0.2211  0.2059
 1634SOL    HW116361   4.233   0.271   1.119 -1.6107 -0.3342  0.5697
 1634SOL    HW216362   4.254   0.159   1.027 -0.1669 -2.9525  0.7197
 1635SOL     OW16363   3.323   3.580   7.387 -0.0627  0.2137  0.1928
 1635SOL    HW116364   3.286   3.493   7.403 -2.9814  2.1172  3.7602
 1635SOL    HW216365   3.283   3.630   7.458 -1.3761 -0.6555  0.0540
 1636SOL     OW16366   3.508   2.117   2.888  0.2561 -0.0616 -0.1631
 1636SOL    HW116367   3.448   2.168   2.943  2.1027  2.1488 -0.1992
 1636SOL    HW216368   3.528   2.182   2.821 -1.8352  0.0767 -0.6673
 1637SOL     OW16369   1.317   3.648   3.179 -0.0140 -0.4237 -0.1820
 1637SOL    HW116370   1.344   3.740   3.190 -3.1201  0.3989  0.6092
 1637SOL    HW216371   1.314   3.644   3.083 -0.8507  3.2128 -0.3172
 1638SOL     OW16372   0.210   4.652   7.218 -0.6530 -0.3319  0.1042
 1638SOL    HW116373   0.143   4.712   7.185 -0.3425 -0.0127  0.0601
 1638SOL    HW216374   0.179   4.633   7.307 -1.9888  0.9085 -0.0977
 1639SOL     OW16375   0.901   0.788   3.597 -0.0634  0.5332  0.4899
 1639SOL    HW116376   0.941   0.783   3.510 -0.6750 -1.3510  0.3041
 1639SOL    HW216377   0.871   0.878   3.608  0.0207  0.8493 -1.8917
 1640SOL     OW16378   0.972   1.243   3.489  0.0200 -0.7571 -0.2935
 1640SOL    HW116379   1.051   1.208   3.530  0.2690 -0.4739 -0.5335
 1640SOL    HW216380   0.921   1.162   3.484  1.1447 -1.3521 -1.9152
 1641SOL     OW16381   0.564   2.611   9.391 -0.1755 -0.3724 -0.3804
 1641SOL    HW116382   0.584   2.531   9.439 -0.0492 -0.7283 -1.0182
 1641SOL    HW216383   0.655   2.631   9.368 -0.1466  1.4735  1.3176
 1642SOL     OW16384   3.745   3.256   4.704 -0.5795  0.7070 -0.5154
 1642SOL    HW116385   3.793   3.176   4.723 -0.8982  0.4495 -0.8129
 1642SOL    HW216386   3.747   3.266   4.609 -1.1167  2.9708 -0.3036
 1643SOL     OW16387   3.015   2.163   2.326 -0.0678 -0.1947 -0.2300
 1643SOL    HW116388   3.097   2.129   2.291  0.4161 -0.0735  0.8123
 1643SOL    HW216389   3.036   2.220   2.400 -0.3800  2.1216 -1.9047
 1644SOL     OW16390   0.117   3.819   7.035  0.1118 -0.2332  0.1696
 1644SOL    HW116391   0.075   3.839   6.951 -1.4709  0.5777  1.1573
 1644SOL    HW216392   0.159   3.895   7.074 -0.6759 -0.6225  1.7642
 1645SOL     OW16393   3.542   2.023   5.030  0.1340 -1.0041  0.2231
 1645SOL    HW116394   3.480   2.088   4.997  0.7986 -0.1065  0.7279
 1645SOL    HW216395   3.528   1.954   4.965  0.5414 -0.7148 -0.1763
 1646SOL     OW16396   0.393   3.059   7.970  0.6935 -0.0900  0.0642
 1646SOL    HW116397   0.398   2.964   7.980 -0.6649 -0.0127  1.4558
 1646SOL    HW216398   0.337   3.075   8.046  0.0317  0.1418 -0.4781
 1647SOL     OW16399   4.080   2.667  13.601 -0.0956  0.5261 -0.1030
 1647SOL    HW116400   4.050   2.738  13.544 -1.1034  0.3213  0.1649
 1647SOL    HW216401   4.055   2.701  13.687 -0.6378 -0.7493  0.2475
 1648SOL     OW16402   1.901   2.970   1.428  0.5074  0.6104  0.6299
 1648SOL    HW116403   1.824   2.936   1.474  0.7431  2.3247  2.2852
 1648SOL    HW216404   1.889   3.065   1.423 -3.1325  0.0463 -1.4380
 1649SOL     OW16405   3.661   1.573  12.497 -0.1984 -0.1643  0.4014
 1649SOL    HW116406   3.680   1.512  12.426 -1.2179 -0.7927  0.6653
 1649SOL    HW216407   3.565   1.571  12.499 -0.1169 -3.9614  0.4845
 1650SOL     OW16408   4.594   4.049   3.270 -0.1779 -0.0119 -0.1605
 1650SOL    HW116409   4.506   4.017   3.288  0.1971  0.9939  3.2727
 1650SOL    HW216410   4.635   3.962   3.272  0.3754  0.2260 -0.9836
 1651SOL     OW16411   0.654   3.494  10.046 -0.1443 -0.1756  0.6852
 1651SOL    HW116412   0.586   3.533   9.991  0.2914  0.5276  0.6344
 1651SOL    HW216413   0.732   3.550  10.037 -0.9433  0.7282 -0.6528
 1652SOL     OW16414   3.198   1.428  15.817  0.2382  0.2658 -0.6639
 1652SOL    HW116415   3.216   1.490  15.887 -0.5383 -0.7887  0.4655
 1652SOL    HW216416   3.133   1.371  15.858  0.7838  0.0423 -0.1115
 1653SOL     OW16417   3.910   1.313   7.421 -0.3758  0.1665  0.1428
 1653SOL    HW116418   3.898   1.248   7.490 -1.2817 -0.7985 -0.9216
 1653SOL    HW216419   3.847   1.279   7.358 -1.0709  2.0421 -0.1651
 1654SOL     OW16420   0.940   1.762   3.946 -0.6926 -0.1091  0.1654
 1654SOL    HW116421   0.970   1.837   3.894  0.0391 -1.2765 -1.0859
 1654SOL    HW216422   1.027   1.747   3.984  0.2205  0.4629 -1.6972
 1655SOL     OW16423   2.382   3.120   8.672 -0.4748 -0.2905 -0.7110
 1655SOL    HW116424   2.465   3.089   8.636  0.1564 -1.6754  1.9513
 1655SOL    HW216425   2.324   3.060   8.625  1.4486 -1.6073 -1.4291
 1656SOL     OW16426   3.322   1.770  11.239  0.0800 -0.1015 -0.4182
 1656SOL    HW116427   3.306   1.677  11.254 -0.3480  0.5307  2.9633
 1656SOL    HW216428   3.390   1.765  11.306  0.1948  0.3307 -0.5000
 1657SOL     OW16429   3.872   4.412   4.360 -0.6900  0.1001  0.1774
 1657SOL    HW116430   3.823   4.371   4.431 -2.0492 -4.6313 -3.5546
 1657SOL    HW216431   3.896   4.497   4.398  2.9555 -1.0538  0.5096
 1658SOL     OW16432   4.462   4.241   5.322 -0.1932  0.6824  0.0843
 1658SOL    HW116433   4.454   4.159   5.370 -2.7400 -0.5998 -2.5147
 1658SOL    HW216434   4.545   4.281   5.346 -0.1372 -0.8510  2.4018
 1659SOL     OW16435   2.234   1.684  10.769 -0.6042 -0.1149  0.6197
 1659SOL    HW116436   2.156   1.723  10.810 -0.3767 -0.3886  1.3011
 1659SOL    HW216437   2.287   1.680  10.848  1.6440  1.9175 -0.7838
 1660SOL     OW16438   4.263   4.196   4.889  0.3623  0.2130 -0.1418
 1660SOL    HW116439   4.241   4.108   4.859  2.8404 -1.1130  1.9645
 1660SOL    HW216440   4.174   4.229   4.898  0.1397  0.1821 -2.2646
 1661SOL     OW16441   3.967   1.878   8.958  0.3307 -0.2035  0.4305
 1661SOL    HW116442   3.984   1.881   9.052 -0.7894 -1.0079  0.6543
 1661SOL    HW216443   3.895   1.939   8.951  0.3623 -0.4178 -1.9857
 1662SOL     OW16444   1.820   0.627   4.618  0.2812  0.2653  0.2991
 1662SOL    HW116445   1.832   0.715   4.584 -1.0810  0.5662  0.6137
 1662SOL    HW216446   1.812   0.581   4.534 -0.4685  2.0930 -0.6020
 1663SOL     OW16447   3.000   4.706   3.405  0.2444  0.0694  0.7042
 1663SOL    HW116448   3.012   4.654   3.326 -0.1454  0.8004  0.1670
 1663SOL    HW216449   3.066   4.665   3.462 -0.1644  1.2882  2.0576
 1664SOL     OW16450   3.825   0.608   4.647 -0.0599 -0.3862 -0.2681
 1664SOL    HW116451   3.877   0.656   4.712 -1.4216 -0.3239  0.8004
 1664SOL    HW216452   3.733   0.612   4.676  0.6867  0.6252  1.9707
 1665SOL     OW16453   2.566   2.222   2.762  0.3857 -0.2218 -0.1034
 1665SOL    HW116454   2.508   2.148   2.744  2.7836 -2.1137 -0.0000
 1665SOL    HW216455   2.627   2.211   2.690  2.6454 -1.6718  2.0316
 1666SOL     OW16456   3.447   4.545   4.401  0.2071  0.1243  0.3783
 1666SOL    HW116457   3.371   4.509   4.446 -1.3666  0.9466 -1.6215
 1666SOL    HW216458   3.480   4.607   4.466 -2.0135  0.2118  1.4133
 1667SOL     OW16459   1.064   1.208   6.092 -0.6286 -0.2605 -0.7366
 1667SOL    HW116460   1.017   1.182   6.171  3.3787 -3.1619  0.6710
 1667SOL    HW216461   1.040   1.301   6.090 -0.1577 -0.1564 -1.4462
 1668SOL     OW16462   0.582   3.896  13.242 -0.0525  0.3105  0.0688
 1668SOL    HW116463   0.574   3.828  13.175  0.1268  0.8768 -0.5363
 1668SOL    HW216464   0.677   3.902  13.235  0.0016  0.6227  1.0983
 1669SOL     OW16465   1.848   1.888   2.385 -0.0011  0.6242 -0.6359
 1669SOL    HW116466   1.934   1.860   2.414 -0.4334 -1.3168 -1.2302
 1669SOL    HW216467   1.798   1.894   2.467 -0.9709 -1.9510 -1.0439
 1670SOL     OW16468   1.624   1.792   5.196  0.8053  0.1842 -0.6440
 1670SOL    HW116469   1.621   1.832   5.283  2.7446  0.8038 -0.8439
 1670SOL    HW216470   1.715   1.767   5.179  1.0570  0.2648  0.5606
 1671SOL     OW16471   3.828   3.682  13.203 -1.3050 -0.6851  0.0124
 1671SOL    HW116472   3.789   3.703  13.118 -2.3766 -1.7782  0.2327
 1671SOL    HW216473   3.851   3.767  13.242  1.2139 -2.8926  3.3237
 1672SOL     OW16474   0.329   1.705   7.567 -0.2047 -0.5355  0.2221
 1672SOL    HW116475   0.349   1.718   7.660 -3.0324  1.0713  0.6159
 1672SOL    HW216476   0.414   1.673   7.536  0.3475  0.9641  0.1857
 1673SOL     OW16477   2.819   3.084   2.568  0.7638 -0.0675  0.3578
 1673SOL    HW116478   2.850   3.122   2.486  1.2871 -0.4611  0.3780
 1673SOL    HW216479   2.795   3.160   2.622  0.0402 -0.2588  0.3028
 1674SOL     OW16480   4.183   3.847   9.237  0.1196 -0.7499 -0.0132
 1674SOL    HW116481   4.193   3.878   9.327 -0.4034 -0.2356 -0.1355
 1674SOL    HW216482   4.137   3.922   9.200 -2.0216 -0.9379  2.2764
 1675SOL     OW16483   4.705   2.669  11.103 -0.1802  0.2027 -0.1447
 1675SOL    HW116484   4.677   2.682  11.012  1.3431 -0.9832 -0.7830
 1675SOL    HW216485   0.053   2.734  11.110  0.0676 -0.2714  1.6351
 1676SOL     OW16486   2.720   3.060   3.628  0.0744  0.0487 -0.8566
 1676SOL    HW116487   2.626   3.065   3.643  0.3181 -1.9825  1.2404
 1676SOL    HW216488   2.752   3.145   3.660  1.8118 -0.5212 -1.0429
 1677SOL     OW16489   1.195   0.734   9.288 -0.3388 -0.0418 -0.0992
 1677SOL    HW116490   1.127   0.798   9.263 -2.1955 -2.4894 -1.2917
 1677SOL    HW216491   1.137   0.659   9.284 -0.4857  0.0051  1.4499
 1678SOL     OW16492   2.168   0.791   7.197  0.0458  0.2126  0.1955
 1678SOL    HW116493   2.086   0.795   7.246  0.5923 -2.7816  1.3357
 1678SOL    HW216494   2.176   0.879   7.160 -1.8676 -0.4779 -1.8574
 1679SOL     OW16495   3.628   2.935   9.575  0.3896  0.2458  0.1043
 1679SOL    HW116496   3.598   2.847   9.599 -0.2749  0.4602  0.0638
 1679SOL    HW216497   3.704   2.931   9.632 -0.2072  1.6445  0.9884
 1680SOL     OW16498   1.991   2.454   9.949  0.0149 -0.2773  0.3465
 1680SOL    HW116499   1.943   2.491  10.023 -1.5842  0.7323 -1.2036
 1680SOL    HW216500   2.048   2.387   9.987 -1.1926 -0.2681  2.2081
 1681SOL     OW16501   1.229   4.707  11.412  0.1432  0.3123 -0.5964
 1681SOL    HW116502   1.266   0.033  11.485 -1.3854 -0.5104  0.7398
 1681SOL    HW216503   1.272   4.622  11.422 -3.6910 -1.7516 -1.5761
 1682SOL     OW16504   0.185   2.985   1.215 -0.1134  0.0306 -0.2403
 1682SOL    HW116505   0.136   3.047   1.161 -0.1682 -1.1433 -1.5283
 1682SOL    HW216506   0.160   3.035   1.293  1.2479  0.8174 -0.3111
 1683SOL     OW16507   2.382   1.051   1.959 -0.3336 -0.1684  0.0981
 1683SOL    HW116508   2.461   1.103   1.968 -0.4567  0.2743 -1.3186
 1683SOL    HW216509   2.392   0.988   1.887  5.8284 -0.1981  0.9876
 1684SOL     OW16510   0.364   2.981   4.198 -0.2849 -0.0323 -0.0776
 1684SOL    HW116511   0.325   3.063   4.227 -0.7147 -0.4330  0.4869
 1684SOL    HW216512   0.295   2.914   4.193 -1.1836  0.7638  1.5837
 1685SOL     OW16513   3.769   1.500   7.248  0.5096  0.4120  0.4876
 1685SOL    HW116514   3.693   1.444   7.262  0.0014  0.7338 -1.0393
 1685SOL    HW216515   3.793   1.438   7.179 -1.0651 -0.8626  1.0773
 1686SOL     OW16516   0.971   2.966   4.790  0.7684 -0.4369  0.1418
 1686SOL    HW116517   0.944   3.053   4.820  1.5694 -0.0516 -0.2344
 1686SOL    HW216518   0.950   2.927   4.875 -1.3730  0.6429  0.1064
 1687SOL     OW16519   0.759   0.637   9.410  0.2298  0.1821  0.3835
 1687SOL    HW116520   0.849   0.612   9.393  0.1804  0.5194 -0.3919
 1687SOL    HW216521   0.711   0.562   9.376 -0.8078  1.3693 -0.7969
 1688SOL     OW16522   1.169   4.668   6.886 -0.0759  0.1570  0.2157
 1688SOL    HW116523   1.257   4.686   6.852  1.3879 -3.4124  2.0510
 1688SOL    HW216524   1.115   4.667   6.807  0.3711  2.2855 -0.0978
 1689SOL     OW16525   2.715   0.559   7.525  0.1183  0.2294 -0.3867
 1689SOL    HW116526   2.636   0.608   7.548  0.8556  0.8555  0.7758
 1689SOL    HW216527   2.685   0.517   7.444  0.8058 -1.3335  0.1752
 1690SOL     OW16528   4.235   2.834  12.115 -0.2002  0.6071 -0.0691
 1690SOL    HW116529   4.142   2.857  12.118 -0.9810 -2.4277 -0.7493
 1690SOL    HW216530   4.238   2.764  12.181  0.9330  2.4925  1.8804
 1691SOL     OW16531   1.072   1.308  11.103 -0.5669  0.1253 -0.3842
 1691SOL    HW116532   1.162   1.276  11.099  0.2443  2.2842  0.5803
 1691SOL    HW216533   1.085   1.389  11.154 -2.0832  1.0907 -1.5358
 1692SOL     OW16534   0.311   1.439  12.317 -0.6082  0.1090 -0.0776
 1692SOL    HW116535   0.298   1.510  12.381  3.6672  1.2511 -0.4642
 1692SOL    HW216536   0.353   1.495  12.252  2.9302 -2.7475 -0.2467
 1693SOL     OW16537   2.808   3.049   4.665 -0.0860 -0.8807  0.0152
 1693SOL    HW116538   2.812   2.997   4.745  2.0356  1.7100  1.5726
 1693SOL    HW216539   2.820   2.984   4.595 -2.4953 -0.2090 -1.0389
 1694SOL     OW16540   3.115   3.960   3.965  0.0799 -0.0417  0.2859
 1694SOL    HW116541   3.036   3.907   3.970  0.8429 -1.1328  0.7834
 1694SOL    HW216542   3.186   3.896   3.961 -0.3376 -0.5450  0.9630
 1695SOL     OW16543   4.294   1.404  13.736  0.4958  0.1600  0.2801
 1695SOL    HW116544   4.370   1.443  13.694 -0.7503  0.4733 -1.6934
 1695SOL    HW216545   4.255   1.354  13.665 -1.4520 -0.2010  1.5895
 1696SOL     OW16546   2.167   1.732  13.915 -0.2208  0.1442 -0.0818
 1696SOL    HW116547   2.101   1.727  13.984  0.1990 -1.2781  0.2131
 1696SOL    HW216548   2.234   1.791  13.949 -0.3187  0.6458 -0.7589
 1697SOL     OW16549   1.423   1.323   6.473  0.3732 -0.1907  0.3757
 1697SOL    HW116550   1.458   1.411   6.482  1.2570 -0.3388 -1.7828
 1697SOL    HW216551   1.502   1.268   6.479  1.0857  1.0245  2.2380
 1698SOL     OW16552   4.064   4.554   8.240 -0.1175 -0.2154 -0.3510
 1698SOL    HW116553   4.008   4.630   8.253 -1.2546 -0.9564 -0.9539
 1698SOL    HW216554   4.018   4.488   8.291  1.1959 -1.4804 -0.8103
 1699SOL     OW16555   4.074   0.452   4.540  0.4894 -0.2585 -0.7016
 1699SOL    HW116556   4.126   0.532   4.545 -0.0609 -0.0953  2.2834
 1699SOL    HW216557   4.137   0.380   4.545  0.8216  0.1656  1.2052
 1700SOL     OW16558   1.510   4.093   9.763  0.1965 -0.2868 -0.2911
 1700SOL    HW116559   1.530   4.002   9.742 -3.4190 -1.2815  0.4017
 1700SOL    HW216560   1.595   4.126   9.790 -1.6003  1.7465  2.9689
 1701SOL     OW16561   2.459   3.343   7.630 -0.2853  0.5017 -0.4992
 1701SOL    HW116562   2.395   3.314   7.564  1.3236  0.2190 -1.9474
 1701SOL    HW216563   2.392   3.370   7.693 -0.5314 -0.1304 -0.4921
 1702SOL     OW16564   0.995   1.318   3.231 -0.9877  0.6801 -0.0241
 1702SOL    HW116565   1.044   1.395   3.202 -0.1227  1.2261  2.8798
 1702SOL    HW216566   0.991   1.338   3.325 -1.0985  3.9411 -0.7407
 1703SOL     OW16567   4.327   3.301   5.369  0.6064 -0.1608  0.4802
 1703SOL    HW116568   4.386   3.371   5.400 -0.5901  0.1844  1.9775
 1703SOL    HW216569   4.393   3.232   5.374  0.5959 -0.3353 -1.8362
 1704SOL     OW16570   0.528   1.990  10.706  0.5324 -0.1433  0.1251
 1704SOL    HW116571   0.591   1.918  10.701  1.2751  0.5007  0.2813
 1704SOL    HW216572   0.588   2.063  10.689  0.0908 -0.2739 -2.0521
 1705SOL     OW16573   4.232   4.200   6.292 -0.0079  0.1897 -0.2773
 1705SOL    HW116574   4.199   4.281   6.251 -0.4254  0.7835  1.2363
 1705SOL    HW216575   4.223   4.209   6.386  2.2027 -0.1086 -0.0332
 1706SOL     OW16576   0.108   0.278   6.831  0.1424 -0.6085  0.6855
 1706SOL    HW116577   0.198   0.247   6.839  0.0309 -1.1867 -0.2685
 1706SOL    HW216578   0.105   0.308   6.740  0.1975  0.7211  1.1179
 1707SOL     OW16579   2.772   3.752   6.573  0.3176 -0.1265 -0.5349
 1707SOL    HW116580   2.799   3.839   6.543 -0.8953 -0.6137 -2.9872
 1707SOL    HW216581   2.833   3.741   6.647  1.6296  0.7337 -1.4884
 1708SOL     OW16582   2.213   4.686   4.928  0.0903  0.6519  0.0742
 1708SOL    HW116583   2.139   4.642   4.885  0.7812  0.3549 -0.8007
 1708SOL    HW216584   2.245   0.026   4.863  0.7933 -0.3836 -0.5765
 1709SOL     OW16585   1.258   1.328   7.724  0.1189 -0.0850  0.0711
 1709SOL    HW116586   1.183   1.386   7.738  0.4575  0.1973  0.7072
 1709SOL    HW216587   1.224   1.239   7.719 -1.8107  0.6085  0.6448
 1710SOL     OW16588   3.360   1.786   0.606  0.1063  0.1487  0.2821
 1710SOL    HW116589   3.313   1.749   0.681 -0.1643 -1.1850 -0.5382
 1710SOL    HW216590   3.321   1.872   0.589 -0.6988 -0.1961  0.3604
 1711SOL     OW16591   3.806   0.860   3.709  0.3623 -0.5174  0.0981
 1711SOL    HW116592   3.782   0.781   3.757 -0.7107 -0.3947 -0.2424
 1711SOL    HW216593   3.897   0.843   3.686  0.8895  1.9036  0.3461
 1712SOL     OW16594   2.677   0.828   3.940 -0.2688  0.2858 -0.0647
 1712SOL    HW116595   2.680   0.917   3.975 -0.4064  0.4727 -0.5289
 1712SOL    HW216596   2.666   0.775   4.020  1.9271  2.8412  1.9205
 1713SOL     OW16597   4.339   4.635   8.558 -0.3462  0.1379  0.2600
 1713SOL    HW116598   4.304   0.002   8.548  0.0692  0.3985  1.1448
 1713SOL    HW216599   4.427   4.648   8.593 -0.5272 -0.2908  0.8589
 1714SOL     OW16600   3.808   0.422   6.146 -0.3047  0.0775 -0.0147
 1714SOL    HW116601   3.795   0.489   6.079 -2.2882 -2.3997 -2.1080
 1714SOL    HW216602   3.870   0.463   6.207 -2.3289  0.9989  1.4231
 1715SOL     OW16603   3.705   2.066   6.398  0.5754 -0.0270 -0.0372
 1715SOL    HW116604   3.688   2.104   6.484 -0.0878 -0.4559  0.0267
 1715SOL    HW216605   3.617   2.053   6.362  0.3843  0.4312  0.2604
 1716SOL     OW16606   0.272   1.887   4.152 -0.1069 -0.8538 -0.2470
 1716SOL    HW116607   0.342   1.883   4.087  0.1655 -1.2826  0.0753
 1716SOL    HW216608   0.314   1.924   4.230  2.0292  2.1283 -2.8256
 1717SOL     OW16609   4.303   3.141   0.369  0.1797 -0.2243 -0.6446
 1717SOL    HW116610   4.224   3.127   0.422  0.7626 -1.3478 -0.0750
 1717SOL    HW216611   4.366   3.079   0.404  0.3652 -0.1197 -0.7958
 1718SOL     OW16612   4.434   2.285   3.091 -0.2670 -0.0526  0.5057
 1718SOL    HW116613   4.527   2.311   3.089 -0.0527 -0.7548  1.1586
 1718SOL    HW216614   4.407   2.279   3.182 -2.0630 -2.4195 -0.1600
 1719SOL     OW16615   1.460   0.281   8.384  0.3413  0.0456  0.6322
 1719SOL    HW116616   1.485   0.343   8.315 -0.2781 -1.7843 -1.2545
 1719SOL    HW216617   1.481   0.317   8.470 -2.2276 -1.5744  1.9342
 1720SOL     OW16618   1.764   2.952  16.577  0.2601  0.3068 -0.1370
 1720SOL    HW116619   1.846   2.935  16.624 -0.2255 -0.7681  0.2967
 1720SOL    HW216620   1.781   3.035  16.533  0.8233 -0.0178 -0.5349
 1721SOL     OW16621   4.087   1.201  14.069 -0.1276 -0.5990  0.3259
 1721SOL    HW116622   4.135   1.255  14.132  1.3533  1.0289 -2.2340
 1721SOL    HW216623   4.079   1.261  13.995 -0.2593 -1.1680 -0.1187
 1722SOL     OW16624   4.473   1.599   2.740 -0.0153  0.5587 -0.4777
 1722SOL    HW116625   4.443   1.687   2.762  0.6163  0.1495  2.0501
 1722SOL    HW216626   4.419   1.570   2.666 -0.1206  1.0678 -0.6035
 1723SOL     OW16627   4.210   3.473   8.258  0.7416 -0.2466 -0.3061
 1723SOL    HW116628   4.194   3.446   8.167  1.3720 -1.6482 -0.0093
 1723SOL    HW216629   4.281   3.536   8.244 -1.0154  1.5963 -0.7198
 1724SOL     OW16630   4.676   2.477  13.560  0.1298  0.2409 -0.1996
 1724SOL    HW116631   4.691   2.383  13.552  0.4824  0.0633  2.6705
 1724SOL    HW216632   4.634   2.491  13.475 -0.1525 -1.3751 -0.3227
 1725SOL     OW16633   3.917   3.958  15.176 -0.0403 -0.3602 -0.1138
 1725SOL    HW116634   3.984   3.988  15.114  0.1670 -0.6774 -0.0436
 1725SOL    HW216635   3.863   3.903  15.120 -1.4885  1.1245 -0.1741
 1726SOL     OW16636   4.400   4.362   5.076 -0.5301  0.2668 -0.1238
 1726SOL    HW116637   4.352   4.307   5.014  0.1760 -1.7097  1.1044
 1726SOL    HW216638   4.392   4.315   5.159 -0.6277 -0.1243 -0.3542
 1727SOL     OW16639   0.061   3.122   4.434 -0.2314  0.0433 -0.0212
 1727SOL    HW116640   0.111   3.106   4.514 -0.2873  1.6258  0.3319
 1727SOL    HW216641   4.695   3.136   4.470 -0.3459  0.4494 -0.4619
 1728SOL     OW16642   2.652   2.827   2.441 -0.1885  0.3986 -0.6456
 1728SOL    HW116643   2.575   2.775   2.464  0.7581  0.1267  1.9422
 1728SOL    HW216644   2.689   2.786   2.362  3.0100  0.3132  0.8629
 1729SOL     OW16645   3.088   3.018  15.112 -0.1930 -0.3156 -0.1842
 1729SOL    HW116646   3.147   3.009  15.186  0.3426 -0.4715 -0.6265
 1729SOL    HW216647   3.145   3.052  15.043 -1.4571  1.4152 -0.3836
 1730SOL     OW16648   3.658   0.127   8.917 -0.4747  0.7520  0.0192
 1730SOL    HW116649   3.568   0.112   8.945 -0.4847  0.1290 -0.3303
 1730SOL    HW216650   3.660   0.212   8.874  0.0327  0.6732 -0.1184
 1731SOL     OW16651   3.521   0.701  16.379  0.4295 -0.0118  0.4306
 1731SOL    HW116652   3.450   0.705  16.442 -1.0610  0.4769 -1.2937
 1731SOL    HW216653   3.497   0.625  16.326 -2.2026  1.0807  0.0700
 1732SOL     OW16654   0.506   0.216  14.094 -0.3323 -0.0844  0.3558
 1732SOL    HW116655   0.582   0.274  14.084 -0.4196 -0.0826 -0.2548
 1732SOL    HW216656   0.528   0.150  14.160 -0.9473  1.1066  1.7652
 1733SOL     OW16657   3.522   0.270   4.471 -0.3668 -0.2208  0.1377
 1733SOL    HW116658   3.469   0.272   4.391  1.3554 -3.0175 -1.1048
 1733SOL    HW216659   3.603   0.258   4.422 -0.8038 -2.1742 -0.1280
 1734SOL     OW16660   0.586   2.430   9.803  0.3794  0.4401  0.2126
 1734SOL    HW116661   0.563   2.418   9.711  0.0457  0.1351  0.3373
 1734SOL    HW216662   0.646   2.502   9.782  1.0011 -0.7825 -2.1727
 1735SOL     OW16663   1.761   0.031   7.830  0.4669  0.2269 -0.1372
 1735SOL    HW116664   1.759   0.120   7.795  2.5383  0.7426  1.0399
 1735SOL    HW216665   1.855   0.013   7.826 -0.0289 -2.3997 -0.0211
 1736SOL     OW16666   2.775   2.004   2.937  0.0641 -0.1358  0.1062
 1736SOL    HW116667   2.777   2.083   2.883 -0.5435 -0.4847 -0.4392
 1736SOL    HW216668   2.721   2.032   3.010 -0.6892 -0.6992 -0.2346
 1737SOL     OW16669   1.725   4.490  13.170 -0.0453 -0.3082  0.0456
 1737SOL    HW116670   1.701   4.520  13.082  1.0614  0.3684 -0.0376
 1737SOL    HW216671   1.694   4.400  13.158 -0.9520  0.0186 -0.0851
 1738SOL     OW16672   2.136   1.437  14.203 -0.8324  0.1968  0.0877
 1738SOL    HW116673   2.045   1.413  14.222 -1.3706  0.9773 -1.4853
 1738SOL    HW216674   2.130   1.462  14.110 -2.4803 -0.1459  0.0866
 1739SOL     OW16675   4.632   1.288   2.673 -0.3813 -0.3569 -0.0641
 1739SOL    HW116676   4.694   1.217   2.687  0.6847  0.8177  1.1394
 1739SOL    HW216677   4.693   1.362   2.672  1.3045 -1.7442  1.7558
 1740SOL     OW16678   0.463   4.429   9.728 -0.2995 -0.0322  0.0182
 1740SOL    HW116679   0.463   4.514   9.771 -2.9049  1.3723 -2.6641
 1740SOL    HW216680   0.430   4.368   9.793 -1.7340  0.1103 -0.5613
 1741SOL     OW16681   3.680   0.643  13.295 -0.4881 -0.3464 -0.1029
 1741SOL    HW116682   3.601   0.590  13.304  0.2496 -1.6718 -1.4801
 1741SOL    HW216683   3.658   0.731  13.325  3.9831  0.1193  1.8582
 1742SOL     OW16684   4.677   0.253   4.013  0.0754  0.1912  0.0991
 1742SOL    HW116685   4.585   0.228   3.997  0.6838 -1.7313 -0.4367
 1742SOL    HW216686   4.699   0.281   3.925 -0.5233  1.0702  0.2291
 1743SOL     OW16687   0.991   1.043  16.852 -0.0043 -0.3794  0.2301
 1743SOL    HW116688   1.033   1.008  16.931 -0.7076 -2.5082 -0.3570
 1743SOL    HW216689   0.964   0.957  16.820  0.0525  0.5032 -2.1745
 1744SOL     OW16690   3.667   3.032   1.740  0.4668  0.2378 -0.3884
 1744SOL    HW116691   3.658   2.968   1.669  0.5620 -0.0782 -0.1206
 1744SOL    HW216692   3.752   3.071   1.718 -0.1634  1.2200 -1.0571
 1745SOL     OW16693   0.568   2.557   3.471 -0.0362  0.0153 -0.2431
 1745SOL    HW116694   0.628   2.568   3.397 -1.1751 -1.9542 -1.4874
 1745SOL    HW216695   0.504   2.628   3.458 -0.1251 -0.2381 -1.1951
 1746SOL     OW16696   2.599   3.704   5.845  0.3990  0.0037 -0.0896
 1746SOL    HW116697   2.542   3.658   5.907  0.2733 -1.3898 -1.2421
 1746SOL    HW216698   2.668   3.732   5.905  0.3489 -1.0172  0.4374
 1747SOL     OW16699   3.681   2.022   3.096  0.4139 -0.3980  0.3450
 1747SOL    HW116700   3.748   2.090   3.104  0.1153 -0.1721  0.9099
 1747SOL    HW216701   3.668   2.024   3.001 -0.0091 -1.1880  0.3849
 1748SOL     OW16702   4.101   1.093  14.357  0.4619  0.1785  0.3594
 1748SOL    HW116703   4.103   1.145  14.437  2.1767 -1.3518  1.3046
 1748SOL    HW216704   4.195   1.100  14.341  0.2272  2.5593 -0.0245
 1749SOL     OW16705   2.932   3.283   4.566  0.6179 -0.5401  0.3026
 1749SOL    HW116706   2.916   3.344   4.637 -0.2268  0.6616 -0.9336
 1749SOL    HW216707   2.897   3.199   4.597 -1.1544 -0.3810 -1.2971
 1750SOL     OW16708   2.779   2.492   6.793  0.3060  0.3816  0.2327
 1750SOL    HW116709   2.709   2.550   6.822 -1.3658  0.6615 -4.4336
 1750SOL    HW216710   2.772   2.409   6.841  0.2227  0.3663  0.1941
 1751SOL     OW16711   4.321   3.193   9.135 -1.0104 -0.6808 -0.0309
 1751SOL    HW116712   4.413   3.165   9.130 -1.3600 -1.9470  0.7963
 1751SOL    HW216713   4.281   3.106   9.139 -1.7679 -0.4064 -1.6920
 1752SOL     OW16714   3.268   2.948  13.199  0.7403 -0.4423  0.2879
 1752SOL    HW116715   3.311   2.877  13.246  1.1389  0.9484  2.0249
 1752SOL    HW216716   3.338   3.011  13.185 -1.9321  2.6762  0.8142
 1753SOL     OW16717   3.806   0.120   9.334 -0.6110  0.1199  0.0632
 1753SOL    HW116718   3.768   0.161   9.257 -1.3507  0.4502  0.6070
 1753SOL    HW216719   3.896   0.103   9.305 -0.2865  2.4673 -0.3606
 1754SOL     OW16720   0.678   0.041  12.389 -0.0722 -0.1092  0.2619
 1754SOL    HW116721   0.749   0.041  12.325 -2.2894 -1.9412 -2.1522
 1754SOL    HW216722   0.683   0.133  12.415 -1.1711 -0.2773  1.0784
 1755SOL     OW16723   1.649   3.145   4.563 -0.2353  0.6316  0.1382
 1755SOL    HW116724   1.742   3.158   4.580  0.4156 -2.9810 -0.6407
 1755SOL    HW216725   1.653   3.105   4.476 -0.2388 -2.4785  1.5383
 1756SOL     OW16726   4.594   3.972   5.985 -0.1228 -0.5026 -0.0951
 1756SOL    HW116727   4.624   4.020   5.908  1.9711 -1.0189  0.3882
 1756SOL    HW216728   4.572   4.046   6.041  0.8374 -1.8977  2.0958
 1757SOL     OW16729   1.358   4.603   7.993 -0.2469  0.1630  0.3182
 1757SOL    HW116730   1.326   4.651   8.070  0.5091  0.5446  0.3887
 1757SOL    HW216731   1.295   4.531   7.991 -3.3048  2.9743 -2.3248
 1758SOL     OW16732   3.331   1.853   8.031  0.0428  0.1596  0.1825
 1758SOL    HW116733   3.342   1.809   8.116  1.3192  0.9791  0.4557
 1758SOL    HW216734   3.258   1.807   7.990  0.4058 -0.5795  0.3556
 1759SOL     OW16735   0.936   1.215  14.437 -0.3720  0.5074 -0.1768
 1759SOL    HW116736   1.029   1.210  14.460  0.0021 -1.5459 -2.1745
 1759SOL    HW216737   0.898   1.262  14.511 -0.6593  0.2498 -0.1593
 1760SOL     OW16738   3.233   4.484   4.549  0.1233  0.3481 -0.4867
 1760SOL    HW116739   3.233   4.562   4.604  2.8741  0.5369 -0.7715
 1760SOL    HW216740   3.146   4.446   4.560  0.2670  0.0498 -0.3885
 1761SOL     OW16741   1.659   0.945  14.676  0.2847  0.3996 -0.2331
 1761SOL    HW116742   1.728   0.897  14.722  0.2947  1.9031  1.2813
 1761SOL    HW216743   1.603   0.873  14.646 -0.2009  0.1865  1.2108
 1762SOL     OW16744   3.160   1.390   0.710  0.3264 -0.4883 -0.4578
 1762SOL    HW116745   3.107   1.369   0.787 -0.7446 -5.6691 -2.6368
 1762SOL    HW216746   3.082   1.389   0.655  0.5142  1.9134 -0.7622
 1763SOL     OW16747   1.290   1.697  10.321  0.0281  0.3035  0.4402
 1763SOL    HW116748   1.330   1.719  10.405  0.2300 -2.2758  1.0218
 1763SOL    HW216749   1.297   1.602  10.322 -0.7743  0.2526  0.7525
 1764SOL     OW16750   2.716   2.874   5.655 -0.3597  0.1006 -0.0507
 1764SOL    HW116751   2.628   2.907   5.669 -0.4846  0.5130 -1.7554
 1764SOL    HW216752   2.765   2.952   5.627 -0.5193 -0.8535 -2.9763
 1765SOL     OW16753   2.371   2.718  10.014 -0.0435 -0.5437 -0.3815
 1765SOL    HW116754   2.363   2.691   9.922 -1.3798 -4.0166  0.7636
 1765SOL    HW216755   2.447   2.667  10.042  0.2253 -0.0567 -0.2291
 1766SOL     OW16756   1.829   1.075   4.925 -0.2501  0.2376 -0.5001
 1766SOL    HW116757   1.775   1.119   4.992  1.2839  0.4258  0.6102
 1766SOL    HW216758   1.761   1.018   4.888  1.3158 -0.8241 -1.7039
 1767SOL     OW16759   0.935   1.703  11.038 -0.3731 -0.2213  0.3970
 1767SOL    HW116760   0.852   1.723  10.993 -2.2373 -3.5975  2.3360
 1767SOL    HW216761   0.900   1.665  11.119  0.1618  3.4506  2.3354
 1768SOL     OW16762   0.965   0.725  15.660  0.4059  0.5404 -0.1962
 1768SOL    HW116763   0.897   0.791  15.648 -0.1872 -0.0823 -0.2195
 1768SOL    HW216764   0.971   0.736  15.755  0.0877  0.9338 -0.2232
 1769SOL     OW16765   4.622   2.737   7.954 -0.2055 -0.5475  0.3705
 1769SOL    HW116766   4.621   2.826   7.919 -1.5511 -0.4321  0.7083
 1769SOL    HW216767   4.691   2.745   8.020 -2.1771 -0.0480  2.3882
 1770SOL     OW16768   3.668   0.566  12.450  0.3791  0.4550  0.2055
 1770SOL    HW116769   3.724   0.496  12.485 -0.0429  0.7638  1.4787
 1770SOL    HW216770   3.731   0.638  12.455  1.5050 -0.6155  1.5259
 1771SOL     OW16771   1.682   3.043  16.176  0.3102  0.0971  0.1956
 1771SOL    HW116772   1.645   3.126  16.145  3.0356  1.0337 -0.5991
 1771SOL    HW216773   1.726   3.026  16.093 -0.9276  2.1624 -0.9010
 1772SOL     OW16774   0.376   0.175   8.166  0.8072 -0.4215  0.3179
 1772SOL    HW116775   0.443   0.214   8.110 -1.3909  2.6808 -0.1539
 1772SOL    HW216776   0.357   0.088   8.132  1.2350  0.2425 -1.6000
 1773SOL     OW16777   1.524   4.568  10.486  0.5812  0.2350  0.0361
 1773SOL    HW116778   1.466   4.511  10.536 -2.0085  1.9910 -1.0128
 1773SOL    HW216779   1.576   4.596  10.562 -0.9828 -2.1480  1.9917
 1774SOL     OW16780   1.997   2.479   1.784 -0.1465 -0.2393 -0.3895
 1774SOL    HW116781   2.046   2.561   1.785  1.3237 -1.1180 -1.1408
 1774SOL    HW216782   2.064   2.418   1.816  0.1018  0.0309 -0.3959
 1775SOL     OW16783   3.303   0.303  15.728  0.9101 -0.0074 -0.1562
 1775SOL    HW116784   3.330   0.249  15.653  0.6562  1.2441 -1.1521
 1775SOL    HW216785   3.338   0.250  15.800  1.9392  1.0900  0.1566
 1776SOL     OW16786   4.517   2.464  13.976 -0.0731  0.1305  0.0189
 1776SOL    HW116787   4.452   2.464  13.905 -0.3915  1.7357  0.3215
 1776SOL    HW216788   4.576   2.532  13.945  1.6766 -1.9377 -1.1514
 1777SOL     OW16789   1.157   3.773  16.145  0.2334  0.4678 -0.5063
 1777SOL    HW116790   1.145   3.698  16.086 -0.3519  0.3175 -0.1916
 1777SOL    HW216791   1.251   3.761  16.160  0.0705 -1.1149 -0.6968
 1778SOL     OW16792   0.214   2.881   3.223 -0.1890 -0.0228  0.8389
 1778SOL    HW116793   0.157   2.948   3.260  0.7849  0.6983  1.0265
 1778SOL    HW216794   0.288   2.937   3.202  0.0834  0.2307  2.5478
 1779SOL     OW16795   3.361   2.558   2.308 -0.0364  0.0807  0.8196
 1779SOL    HW116796   3.292   2.623   2.315 -2.7830 -2.4866 -1.9309
 1779SOL    HW216797   3.438   2.588   2.357 -0.2237  0.6933  0.7363
 1780SOL     OW16798   4.061   1.059  11.916  0.6849 -0.1793 -0.1671
 1780SOL    HW116799   4.043   0.991  11.980  0.0189  3.3756  3.4734
 1780SOL    HW216800   4.138   1.019  11.877  1.7997  2.4239 -0.6223
 1781SOL     OW16801   0.810   1.492  12.848 -0.5626  0.2424  0.4045
 1781SOL    HW116802   0.744   1.454  12.790  1.1524 -0.0743 -1.3304
 1781SOL    HW216803   0.776   1.457  12.930  1.2751 -2.8034 -0.1542
 1782SOL     OW16804   1.246   1.917  16.365  0.3637  0.3526  0.2140
 1782SOL    HW116805   1.160   1.937  16.326 -1.1325 -1.8908  2.3437
 1782SOL    HW216806   1.301   1.899  16.289  0.2159  2.4200 -0.3892
 1783SOL     OW16807   3.258   0.909  17.295  0.0979 -0.2300  0.1979
 1783SOL    HW116808   3.300   0.939  17.375  1.3031  1.0670 -0.9098
 1783SOL    HW216809   3.334   0.888  17.241 -0.1516  1.5877 -0.8674
 1784SOL     OW16810   4.097   3.025  12.655  0.0008 -0.0601  0.0705
 1784SOL    HW116811   4.174   2.986  12.695  0.0091  0.6243  0.7256
 1784SOL    HW216812   4.116   3.029  12.561  2.4392 -1.7645  0.4693
 1785SOL     OW16813   2.117   4.041   9.484 -0.1981 -0.4019 -0.6294
 1785SOL    HW116814   2.165   3.983   9.542 -0.1794 -0.8451 -1.0961
 1785SOL    HW216815   2.129   4.127   9.525 -0.7529 -0.2288 -0.8311
 1786SOL     OW16816   3.766   3.655   0.111  0.2335 -0.2955 -0.9536
 1786SOL    HW116817   3.763   3.747   0.085  0.6277  0.4847  1.8056
 1786SOL    HW216818   3.859   3.643   0.090  0.4475  0.0423 -0.1944
 1787SOL     OW16819   0.408   2.707   9.590  0.3756 -0.7486 -0.4657
 1787SOL    HW116820   0.476   2.690   9.524  1.3523 -1.9615  0.8548
 1787SOL    HW216821   0.376   2.796   9.579 -1.7906 -1.3563  0.9964
 1788SOL     OW16822   2.888   0.320   3.103  0.3238  0.6172  1.0179
 1788SOL    HW116823   2.792   0.317   3.100  0.3510  1.2231 -0.5281
 1788SOL    HW216824   2.907   0.411   3.078  0.1858  0.7044  1.2304
 1789SOL     OW16825   0.707   1.065   7.170 -0.3806 -0.3051  0.1065
 1789SOL    HW116826   0.728   1.047   7.078  1.1197  0.8566  0.2249
 1789SOL    HW216827   0.778   1.124   7.195 -0.8827  0.2965  0.0929
 1790SOL     OW16828   1.013   1.030   8.060  0.6799  0.1920 -0.1720
 1790SOL    HW116829   0.937   1.045   8.003  0.2356 -0.0565  0.3655
 1790SOL    HW216830   0.980   1.083   8.133  1.8236  1.3435 -0.4946
 1791SOL     OW16831   0.747   4.128   3.519  0.6329  0.0218  0.7512
 1791SOL    HW116832   0.721   4.159   3.432  0.6007  0.9735  1.1038
 1791SOL    HW216833   0.792   4.201   3.561 -1.1225 -0.1972  2.9710
 1792SOL     OW16834   1.657   0.738   2.049  0.6933 -0.4542  0.0669
 1792SOL    HW116835   1.670   0.816   2.103  0.5742  0.6812 -1.5534
 1792SOL    HW216836   1.744   0.700   2.062 -0.8108 -3.1146  2.2932
 1793SOL     OW16837   2.912   0.521  13.145 -0.0595  0.6163  0.5796
 1793SOL    HW116838   2.915   0.576  13.223 -1.6232  2.6356 -0.7828
 1793SOL    HW216839   2.820   0.494  13.146  0.0170  0.2796 -2.8140
 1794SOL     OW16840   3.743   2.144   7.858 -0.2403 -0.4715  0.1357
 1794SOL    HW116841   3.835   2.137   7.882 -0.2965  1.2656  0.8433
 1794SOL    HW216842   3.714   2.057   7.886  2.2892 -0.7137  1.9612
 1795SOL     OW16843   3.716   1.150   4.467  0.1389 -0.4840 -0.1476
 1795SOL    HW116844   3.702   1.094   4.544  1.2317 -0.9224 -0.2616
 1795SOL    HW216845   3.807   1.124   4.449  0.1373  0.7132 -1.8113
 1796SOL     OW16846   1.760   0.221   0.817  0.0703 -0.4690  0.8613
 1796SOL    HW116847   1.812   0.152   0.775 -0.2948  0.4822 -1.1742
 1796SOL    HW216848   1.823   0.257   0.879  0.7779  0.3145 -0.2975
 1797SOL     OW16849   0.860   0.810   1.737  0.0022 -0.0833  0.8472
 1797SOL    HW116850   0.785   0.845   1.689 -0.0121 -1.0695  0.1572
 1797SOL    HW216851   0.868   0.726   1.692 -1.4569  0.1754  0.1016
 1798SOL     OW16852   1.550   2.412  13.224 -0.3607  0.6677 -0.1313
 1798SOL    HW116853   1.542   2.350  13.152 -0.6941  0.4002  0.1301
 1798SOL    HW216854   1.591   2.358  13.292  2.2339 -0.5903 -2.7367
 1799SOL     OW16855   3.093   1.389   6.904 -0.1485 -0.4095  0.0777
 1799SOL    HW116856   3.108   1.465   6.848 -0.7292 -1.7706 -1.8978
 1799SOL    HW216857   3.002   1.366   6.888  0.0188 -0.2145 -1.1396
 1800SOL     OW16858   4.493   1.053   3.194 -0.2031  0.4747  0.2475
 1800SOL    HW116859   4.456   1.085   3.112 -1.7654 -2.8750 -0.3577
 1800SOL    HW216860   4.506   1.126   3.255  0.4326 -1.3253  2.2795
 1801SOL     OW16861   0.082   0.942   9.276 -1.1810 -0.0514  0.1394
 1801SOL    HW116862   0.069   0.848   9.287  0.0774 -0.4626 -1.8813
 1801SOL    HW216863   0.152   0.944   9.212 -1.7892 -0.1110 -0.5251
 1802SOL     OW16864   4.413   0.223   5.937 -0.1728 -0.1718 -0.1682
 1802SOL    HW116865   4.346   0.165   5.901  0.5347 -2.2416  1.7980
 1802SOL    HW216866   4.461   0.162   5.995 -0.4917 -0.5868 -0.3390
 1803SOL     OW16867   1.401   2.558   6.820 -0.1154  0.1854  0.0619
 1803SOL    HW116868   1.417   2.539   6.728 -0.8031 -0.5781  0.1001
 1803SOL    HW216869   1.482   2.587   6.861 -1.4536  0.7966  2.2818
 1804SOL     OW16870   0.899   4.364   6.023  0.1315  0.6407 -0.3519
 1804SOL    HW116871   0.855   4.320   6.096 -0.0818  2.9034  0.8569
 1804SOL    HW216872   0.837   4.338   5.955  0.3816  0.1217 -0.3886
 1805SOL     OW16873   4.186   2.224  12.883  0.0736 -0.2219  0.4703
 1805SOL    HW116874   4.276   2.212  12.855  0.1825 -1.0510  1.1912
 1805SOL    HW216875   4.196   2.225  12.978  3.4308  1.3970  0.0869
 1806SOL     OW16876   2.132   3.782  13.242 -0.3136  0.1769 -0.6089
 1806SOL    HW116877   2.040   3.796  13.218 -0.5335 -0.3582 -0.1019
 1806SOL    HW216878   2.144   3.837  13.319  0.8066 -1.5494  0.4582
 1807SOL     OW16879   1.719   1.343  16.096  0.0165 -0.1261 -0.0052
 1807SOL    HW116880   1.633   1.374  16.068  0.6026  2.3727  1.0421
 1807SOL    HW216881   1.747   1.424  16.137  3.0282 -0.7752 -0.7528
 1808SOL     OW16882   2.811   0.479   1.031 -0.3463  0.7038  0.0531
 1808SOL    HW116883   2.786   0.561   0.989  1.6317  1.5265  0.4691
 1808SOL    HW216884   2.811   0.418   0.957 -0.6092  0.5490  0.1832
 1809SOL     OW16885   4.465   4.457  14.637  0.2882  0.9163  0.3113
 1809SOL    HW116886   4.435   4.442  14.726  0.2324 -0.4678  0.0584
 1809SOL    HW216887   4.495   4.367  14.626 -2.1323  0.2801 -0.9656
 1810SOL     OW16888   4.413   3.510   0.899  0.2154  0.2955 -0.0302
 1810SOL    HW116889   4.467   3.431   0.898 -0.7368 -0.4246  3.8501
 1810SOL    HW216890   4.423   3.543   0.810  0.3078  1.2071  0.3111
 1811SOL     OW16891   3.844   1.319   5.613  0.2659  0.1338 -0.5410
 1811SOL    HW116892   3.858   1.414   5.615  1.0446 -0.0405  2.0450
 1811SOL    HW216893   3.856   1.298   5.706 -1.5084  0.0462 -0.3326
 1812SOL     OW16894   1.242   4.227  15.401 -0.6843  0.4132  1.1829
 1812SOL    HW116895   1.315   4.166  15.393  0.3845  1.6176  1.7787
 1812SOL    HW216896   1.261   4.281  15.477 -0.4572  1.2520  0.5345
 1813SOL     OW16897   2.606   4.469   3.595 -0.4202  0.1758  0.2648
 1813SOL    HW116898   2.530   4.463   3.653 -0.4466  1.3340  0.3419
 1813SOL    HW216899   2.574   4.404   3.533  0.3207 -0.2206  0.2961
 1814SOL     OW16900   0.261   4.078   8.790  0.3367 -1.1250 -0.4896
 1814SOL    HW116901   0.277   4.059   8.883 -0.4600 -0.8445 -0.2939
 1814SOL    HW216902   0.288   4.003   8.737 -1.3635 -1.1261 -1.3613
 1815SOL     OW16903   1.573   4.315   4.858  0.0434 -0.0544  0.2630
 1815SOL    HW116904   1.630   4.239   4.868 -0.6094 -0.3818  1.5742
 1815SOL    HW216905   1.624   4.360   4.791 -0.4392  2.8343  1.8355
 1816SOL     OW16906   2.203   2.610  14.104 -0.3530  0.2435 -1.0116
 1816SOL    HW116907   2.248   2.561  14.035 -0.5123 -0.7022 -0.4425
 1816SOL    HW216908   2.191   2.547  14.175 -1.5914  1.1732 -0.3973
 1817SOL     OW16909   0.262   4.194   0.734  0.2537  0.4077  0.5555
 1817SOL    HW116910   0.277   4.109   0.692 -3.2497 -0.1358  0.3964
 1817SOL    HW216911   0.252   4.163   0.825 -0.0188 -0.5463  0.2022
 1818SOL     OW16912   1.504   4.556   8.819 -0.3166  0.7875  0.0643
 1818SOL    HW116913   1.442   4.512   8.761 -0.2278  1.3407 -0.4429
 1818SOL    HW216914   1.572   4.579   8.756  1.2735  2.1900  2.2678
 1819SOL     OW16915   3.221   4.627   5.692  0.3806 -0.3136  0.3956
 1819SOL    HW116916   3.203   4.536   5.717  1.3066 -0.4804  0.4735
 1819SOL    HW216917   3.315   4.640   5.707 -0.5533  3.9870  2.5238
 1820SOL     OW16918   4.493   1.289   9.601  0.4629  0.3283  0.2944
 1820SOL    HW116919   4.451   1.228   9.661  0.9205  1.7976  2.1142
 1820SOL    HW216920   4.520   1.240   9.523 -0.0588  1.4724 -0.5962
 1821SOL     OW16921   3.824   2.829   2.515 -0.5789 -0.1866 -0.5555
 1821SOL    HW116922   3.915   2.820   2.544 -0.7838 -2.9320 -0.7752
 1821SOL    HW216923   3.822   2.918   2.482  1.1558 -0.4689 -1.4292
 1822SOL     OW16924   1.195   1.736   2.875  0.6982 -0.0093  0.4210
 1822SOL    HW116925   1.138   1.791   2.930  0.1919  0.3582 -0.4665
 1822SOL    HW216926   1.274   1.788   2.889  0.9907 -0.1767 -0.6731
 1823SOL     OW16927   3.165   0.419   4.458  0.0397 -0.3087  0.1894
 1823SOL    HW116928   3.105   0.487   4.429  1.4958  0.6782 -0.5304
 1823SOL    HW216929   3.250   0.463   4.447 -0.6816  0.9896 -0.1765
 1824SOL     OW16930   3.735   1.370   0.263 -0.2021  0.3722  0.5580
 1824SOL    HW116931   3.750   1.312   0.337  1.9752 -1.6634 -1.4979
 1824SOL    HW216932   3.827   1.396   0.251 -0.0724 -0.9449 -1.2229
 1825SOL     OW16933   0.313   0.640  12.783  0.2252 -0.3397  0.1015
 1825SOL    HW116934   0.358   0.720  12.757  1.6723 -1.3199 -0.4021
 1825SOL    HW216935   0.374   0.579  12.740  0.7752 -0.5830  1.2248
 1826SOL     OW16936   2.388   2.750   2.770  0.2122 -0.0865 -0.4537
 1826SOL    HW116937   2.372   2.655   2.774  0.6357 -0.1325  0.1945
 1826SOL    HW216938   2.389   2.759   2.865  0.3449  2.0486 -0.6628
 1827SOL     OW16939   2.508   0.075   3.769  0.3298 -0.2358 -0.1853
 1827SOL    HW116940   2.476   4.707   3.760  3.0087 -0.9707 -2.2026
 1827SOL    HW216941   2.602   0.057   3.771  0.3394 -0.0824  0.6666
 1828SOL     OW16942   3.548   2.670   8.628  0.3164 -0.4401 -0.3438
 1828SOL    HW116943   3.562   2.764   8.613  1.4863 -1.0385 -3.0994
 1828SOL    HW216944   3.626   2.640   8.675 -0.5528  2.1321  2.7126
 1829SOL     OW16945   3.831   3.674   5.126  0.1937 -0.2431 -0.6117
 1829SOL    HW116946   3.825   3.583   5.100  2.2304 -0.9629  1.4172
 1829SOL    HW216947   3.737   3.689   5.124  0.0560 -0.9859  0.1965
 1830SOL     OW16948   4.444   3.699   1.946  0.0492  0.3035  0.1756
 1830SOL    HW116949   4.518   3.724   1.889  0.3885 -2.6325 -0.7067
 1830SOL    HW216950   4.430   3.781   1.993  1.5085  0.5973  0.1017
 1831SOL     OW16951   1.151   2.954   9.596 -0.0459 -0.1771 -0.0844
 1831SOL    HW116952   1.238   2.926   9.567  0.3787  1.1471 -0.1201
 1831SOL    HW216953   1.185   2.982   9.682 -0.8698  2.1052 -0.4929
 1832SOL     OW16954   1.872   1.662   4.610  0.3589 -0.9328 -0.0210
 1832SOL    HW116955   1.804   1.712   4.565  0.1299 -0.1190  1.2197
 1832SOL    HW216956   1.932   1.675   4.536  1.1453 -2.5177  0.3354
 1833SOL     OW16957   3.567   1.731   4.614  0.9992  0.8113 -0.0809
 1833SOL    HW116958   3.500   1.671   4.583  0.0620  2.0397 -0.4270
 1833SOL    HW216959   3.641   1.673   4.593 -0.1479 -0.4365 -0.7034
 1834SOL     OW16960   3.677   2.208   2.174  0.5244 -0.4821 -0.4354
 1834SOL    HW116961   3.704   2.120   2.146  1.4977 -0.9341  1.8859
 1834SOL    HW216962   3.721   2.257   2.104  1.7614  2.4339  2.3745
 1835SOL     OW16963   4.035   2.531   6.368  0.2167 -0.1265  0.7628
 1835SOL    HW116964   4.023   2.490   6.282 -1.9966  0.3205  0.8587
 1835SOL    HW216965   4.129   2.545   6.353 -0.0149  2.5980  1.8821
 1836SOL     OW16966   1.639   2.936   2.556  0.3291 -0.4605 -0.0894
 1836SOL    HW116967   1.632   2.846   2.587 -2.1426 -0.3714 -0.4291
 1836SOL    HW216968   1.656   2.915   2.464 -0.7371 -2.3667  0.1590
 1837SOL     OW16969   2.489   0.755   7.879 -0.2651  0.2228 -0.3246
 1837SOL    HW116970   2.504   0.661   7.888  0.3941  0.2403 -1.2390
 1837SOL    HW216971   2.394   0.756   7.891 -0.3974 -1.4488 -1.2635
 1838SOL     OW16972   1.400   1.982  10.094  0.1042 -0.2025  0.6071
 1838SOL    HW116973   1.415   1.889  10.112  1.8508 -0.0365  0.0177
 1838SOL    HW216974   1.313   1.978  10.054 -0.5321 -2.0979  2.1700
 1839SOL     OW16975   2.183   1.179   6.253  0.2450 -0.1220 -0.0862
 1839SOL    HW116976   2.151   1.150   6.167 -0.2456  0.7716 -0.2062
 1839SOL    HW216977   2.274   1.202   6.237  0.7558 -1.9087  0.2424
 1840SOL     OW16978   3.547   1.348   9.628  0.3011  0.1398 -0.0729
 1840SOL    HW116979   3.495   1.281   9.672  0.3906 -1.2451 -2.0913
 1840SOL    HW216980   3.638   1.328   9.653  0.6291  2.3410  0.4899
 1841SOL     OW16981   4.154   4.272   6.536 -0.1927 -0.1688 -0.3494
 1841SOL    HW116982   4.102   4.204   6.579  1.5354 -0.7162  0.8514
 1841SOL    HW216983   4.186   4.335   6.601  1.9861 -2.4008  0.7753
 1842SOL     OW16984   4.262   0.922   3.834  0.7716  0.1158  0.1839
 1842SOL    HW116985   4.295   0.871   3.760  1.6251  0.2355  0.4830
 1842SOL    HW216986   4.181   0.962   3.802  1.8846  2.1531 -0.0546
 1843SOL     OW16987   1.271   3.764  14.934  0.3982  0.6729 -0.0354
 1843SOL    HW116988   1.204   3.814  14.981 -1.0991 -0.4755 -0.9743
 1843SOL    HW216989   1.262   3.678  14.975 -0.8332  1.8536  2.2079
 1844SOL     OW16990   0.923   3.375   6.731  0.5989 -0.5522 -0.3498
 1844SOL    HW116991   0.980   3.315   6.779  1.3686  0.5222  0.0905
 1844SOL    HW216992   0.846   3.322   6.711  1.4000 -1.3996 -1.1776
 1845SOL     OW16993   1.796   3.445   8.672 -0.0496  0.2423 -0.3988
 1845SOL    HW116994   1.741   3.522   8.683 -1.1106 -0.4793 -0.5936
 1845SOL    HW216995   1.820   3.476   8.585  0.6548  1.1206  0.1092
 1846SOL     OW16996   0.739   3.210   2.219  0.0882 -0.2915 -0.0589
 1846SOL    HW116997   0.766   3.301   2.224 -0.7906 -0.0204 -0.2584
 1846SOL    HW216998   0.667   3.216   2.156 -0.9348 -0.9368  1.0286
 1847SOL     OW16999   0.707   4.114   7.097  0.4985 -0.5608  0.1609
 1847SOL    HW117000   0.658   4.196   7.101  2.4363  0.6664 -1.4317
 1847SOL    HW217001   0.635   4.051   7.101 -0.9498  1.2098  2.3768
 1848SOL     OW17002   1.905   3.725   3.064  0.1398  0.1194 -0.7709
 1848SOL    HW117003   1.818   3.759   3.086 -0.9935 -0.7871 -3.8318
 1848SOL    HW217004   1.872   3.709   2.976 -0.8667  1.0800 -0.5763
 1849SOL     OW17005   4.050   1.123   6.029 -0.2467 -0.1671 -0.3444
 1849SOL    HW117006   3.966   1.152   6.065  0.7489  0.3308  1.6118
 1849SOL    HW217007   4.019   1.104   5.941 -3.5627  0.3553  0.7360
 1850SOL     OW17008   0.982   1.840   0.327  0.1845  0.5906  0.1205
 1850SOL    HW117009   0.993   1.846   0.233  1.0624 -0.3914  0.1567
 1850SOL    HW217010   0.985   1.933   0.352  1.1348  0.0894  1.9287
 1851SOL     OW17011   3.984   2.335   7.127  0.0795  0.9377  0.4114
 1851SOL    HW117012   4.053   2.327   7.193  0.7097  1.9136 -0.1167
 1851SOL    HW217013   3.964   2.242   7.121  1.0887  0.6912  0.8628
 1852SOL     OW17014   1.381   4.491   7.664  0.1616  0.2024  0.1345
 1852SOL    HW117015   1.393   4.443   7.746 -1.8752 -0.5723 -0.0197
 1852SOL    HW217016   1.450   4.557   7.657  0.0224  0.4149  0.8221
 1853SOL     OW17017   4.363   3.685  10.787  0.2449  0.1148 -0.1829
 1853SOL    HW117018   4.328   3.774  10.787 -0.7943 -0.2877 -1.3735
 1853SOL    HW217019   4.294   3.635  10.743  1.0240 -0.2130 -1.0204
 1854SOL     OW17020   1.054   2.978   3.485  0.2024 -0.0959  0.5130
 1854SOL    HW117021   1.028   2.921   3.413 -0.7030 -0.4241  1.0959
 1854SOL    HW217022   1.150   2.974   3.488  0.2434  0.5386  0.0541
 1855SOL     OW17023   0.335   3.066   5.701  0.4646 -0.1921 -0.1065
 1855SOL    HW117024   0.427   3.085   5.716  0.5188  0.3481 -1.0992
 1855SOL    HW217025   0.338   2.995   5.637 -1.0658 -0.5633  0.2216
 1856SOL     OW17026   4.446   2.916  11.097 -0.1916  0.2422  0.0963
 1856SOL    HW117027   4.492   2.878  11.172 -0.4783  0.4959  0.3981
 1856SOL    HW217028   4.376   2.851  11.092 -0.3608  0.2030  2.7511
 1857SOL     OW17029   4.458   2.791   8.154  0.4641  0.3882 -0.3738
 1857SOL    HW117030   4.495   2.872   8.120 -0.8977  1.3435  0.4269
 1857SOL    HW217031   4.507   2.723   8.107 -1.0437 -1.2219  0.3755
 1858SOL     OW17032   3.891   2.659   4.316  0.1290 -0.0457  0.2745
 1858SOL    HW117033   3.850   2.622   4.394 -4.2301 -0.8396 -2.3759
 1858SOL    HW217034   3.975   2.690   4.351  0.2085  0.3997 -0.3116
 1859SOL     OW17035   4.009   0.355   7.464  0.0965 -0.6272 -0.0662
 1859SOL    HW117036   3.962   0.434   7.436 -0.4449 -0.9980 -0.2229
 1859SOL    HW217037   4.100   0.382   7.460 -0.4469  1.1963  0.0452
 1860SOL     OW17038   2.213   0.179   5.544 -0.5015 -0.7994  0.0956
 1860SOL    HW117039   2.293   0.155   5.497  0.9032  0.8681  1.6358
 1860SOL    HW217040   2.148   0.160   5.476 -1.2498  0.8634  0.3475
 1861SOL     OW17041   1.959   3.950   3.326  0.3172  0.3402  0.6734
 1861SOL    HW117042   2.008   3.869   3.313  1.3293  0.5320  3.2484
 1861SOL    HW217043   2.014   4.003   3.267  1.5846  0.0171  1.5590
 1862SOL     OW17044   1.694   0.389   6.898 -0.2909 -0.4340 -0.3088
 1862SOL    HW117045   1.680   0.358   6.988  0.9871  0.4268  0.1848
 1862SOL    HW217046   1.607   0.398   6.858 -0.0886  0.8114 -0.4559
 1863SOL     OW17047   0.461   1.221   0.648 -0.1015  0.4186 -0.3190
 1863SOL    HW117048   0.406   1.265   0.583 -1.2080  2.3103  1.8762
 1863SOL    HW217049   0.401   1.198   0.719  1.2420  1.4386  1.1434
 1864SOL     OW17050   4.369   4.585   6.848 -0.5803 -0.0479 -1.0012
 1864SOL    HW117051   4.307   4.557   6.915  0.5927  0.7683  0.4389
 1864SOL    HW217052   4.374   4.680   6.862  1.6419 -0.6869  2.4670
 1865SOL     OW17053   4.358   1.364  11.793 -0.1443 -0.5921  0.1769
 1865SOL    HW117054   4.265   1.344  11.791 -0.6959  2.2492 -1.8569
 1865SOL    HW217055   4.394   1.277  11.812 -0.8742 -1.0789 -0.6701
 1866SOL     OW17056   0.189   1.515   2.900 -0.1631 -0.0882  0.4067
 1866SOL    HW117057   0.151   1.543   2.816 -1.9356 -2.6001  0.3625
 1866SOL    HW217058   0.250   1.453   2.858  2.0620  1.9175  0.6469
 1867SOL     OW17059   2.982   2.605  15.490  0.4805  0.1722 -0.5254
 1867SOL    HW117060   2.970   2.675  15.426 -0.7059  1.9685  1.6702
 1867SOL    HW217061   2.893   2.597  15.526  0.8003  0.0471  0.2390
 1868SOL     OW17062   0.280   0.866   4.873 -0.5236 -0.3580  0.0481
 1868SOL    HW117063   0.313   0.891   4.959  0.5874  0.4679 -0.6261
 1868SOL    HW217064   0.209   0.928   4.857 -2.3004 -1.6631  2.7777
 1869SOL     OW17065   2.112   2.845   1.300  0.0734 -0.2536  0.0136
 1869SOL    HW117066   2.191   2.898   1.303 -0.1768  0.1191  0.1131
 1869SOL    HW217067   2.046   2.903   1.339 -1.2095 -0.9079 -1.1428
 1870SOL     OW17068   1.906   3.709  10.823  0.3489 -0.2464  0.3082
 1870SOL    HW117069   1.958   3.633  10.847  1.1396  0.3088  0.3733
 1870SOL    HW217070   1.853   3.656  10.764  0.1358 -0.9717  1.1726
 1871SOL     OW17071   0.857   1.818   5.458 -0.0080  0.0258  0.0807
 1871SOL    HW117072   0.849   1.790   5.549 -0.5196  1.1629  0.3854
 1871SOL    HW217073   0.952   1.819   5.446  0.0250  0.2037  0.3617
 1872SOL     OW17074   1.231   3.085   2.681 -0.3975  0.9977 -0.0002
 1872SOL    HW117075   1.251   3.023   2.612 -0.2431 -1.9203  2.6441
 1872SOL    HW217076   1.205   3.026   2.752 -1.9379 -0.4095 -1.7518
 1873SOL     OW17077   1.977   3.243   0.146 -0.2676  0.4173 -0.6393
 1873SOL    HW117078   1.993   3.164   0.095 -2.1197  0.0094 -0.5681
 1873SOL    HW217079   1.927   3.218   0.224  1.5649 -0.4404  0.2839
 1874SOL     OW17080   1.485   0.902   5.192  0.1060  0.3562  0.2113
 1874SOL    HW117081   1.444   0.834   5.246 -2.4542  2.6155  1.1547
 1874SOL    HW217082   1.486   0.967   5.263  2.1826 -0.2160  0.6927
 1875SOL     OW17083   0.797   1.535   0.719  0.1888  0.6094  0.6334
 1875SOL    HW117084   0.829   1.586   0.645 -1.3838  0.7432  0.0477
 1875SOL    HW217085   0.833   1.586   0.792  0.1843 -0.0283  1.0867
 1876SOL     OW17086   2.316   2.568   3.611  0.2477 -0.1658  0.4184
 1876SOL    HW117087   2.330   2.476   3.632  0.6688 -0.3917 -0.8504
 1876SOL    HW217088   2.354   2.576   3.524  2.1740  1.0218  1.3491
 1877SOL     OW17089   1.652   4.284  16.292 -0.2812  0.1722 -0.0058
 1877SOL    HW117090   1.674   4.337  16.368 -0.7215  0.0114  0.2348
 1877SOL    HW217091   1.558   4.267  16.296 -0.5914  1.9813  0.4239
 1878SOL     OW17092   2.687   2.606   7.205  0.5956 -0.2009 -0.7342
 1878SOL    HW117093   2.594   2.622   7.190  0.2598 -1.5325 -0.0508
 1878SOL    HW217094   2.731   2.676   7.155  0.6071 -0.7219 -1.4532
 1879SOL     OW17095   3.880   2.605   1.597  0.2093 -0.0132 -0.1537
 1879SOL    HW117096   3.932   2.665   1.650  0.4992 -1.9754  1.7512
 1879SOL    HW217097   3.804   2.603   1.655 -1.8202 -0.4678 -2.8060
 1880SOL     OW17098   2.111   1.099  10.894 -0.0873 -0.2555 -0.0078
 1880SOL    HW117099   2.191   1.149  10.877  1.3723 -2.0683  1.4942
 1880SOL    HW217100   2.131   1.011  10.861  0.4874  0.0696 -0.5483
 1881SOL     OW17101   2.634   2.646  14.982 -0.4092  0.0186  0.1692
 1881SOL    HW117102   2.686   2.615  14.908 -0.7444  1.0376 -0.4960
 1881SOL    HW217103   2.547   2.656  14.945 -0.1784  3.1013  0.4567
 1882SOL     OW17104   2.814   2.468  16.127  0.1303 -0.0976 -0.2391
 1882SOL    HW117105   2.872   2.401  16.163  0.2283 -0.1279 -0.4505
 1882SOL    HW217106   2.852   2.543  16.173 -1.2773  1.1061 -1.0044
 1883SOL     OW17107   2.602   4.358   8.303 -0.5385  0.3460  0.3705
 1883SOL    HW117108   2.628   4.447   8.278  1.6348 -0.2213  0.6311
 1883SOL    HW217109   2.600   4.317   8.217  1.9388 -1.2868  1.0989
 1884SOL     OW17110   3.463   3.163   4.013  0.0838 -0.2181  0.3368
 1884SOL    HW117111   3.512   3.080   4.013  1.8469  0.8362  0.2228
 1884SOL    HW217112   3.535   3.220   4.038  1.1348 -1.8309  1.0153
 1885SOL     OW17113   3.809   4.396   0.861 -0.0770 -0.0018 -0.2710
 1885SOL    HW117114   3.769   4.335   0.923  1.0037 -0.1266  0.3143
 1885SOL    HW217115   3.758   4.476   0.864 -0.5153 -0.3645  1.8566
 1886SOL     OW17116   0.846   4.622   4.158 -0.4871 -0.4445 -0.3067
 1886SOL    HW117117   0.843   4.601   4.064  1.4449 -2.1217  0.0123
 1886SOL    HW217118   0.856   4.718   4.159  0.3931 -0.5448  0.6838
 1887SOL     OW17119   4.311   1.911   6.419 -0.1568  0.2236  0.3836
 1887SOL    HW117120   4.294   1.866   6.502 -0.5822 -1.8581 -0.8445
 1887SOL    HW217121   4.405   1.899   6.412 -0.5909 -0.9308 -3.1285
 1888SOL     OW17122   4.322   1.697   8.305  0.0904  0.2746  0.2885
 1888SOL    HW117123   4.376   1.761   8.351  1.0829 -0.1002 -0.3679
 1888SOL    HW217124   4.248   1.686   8.365 -1.8502 -0.9809 -2.3502
 1889SOL     OW17125   2.729   0.504   7.912  0.1643  0.0374  0.2559
 1889SOL    HW117126   2.668   0.491   7.840  0.9088 -0.9903 -0.1880
 1889SOL    HW217127   2.673   0.543   7.979  2.5251  3.6298  0.1602
 1890SOL     OW17128   2.072   2.561   0.555 -0.5053  0.1657 -0.2148
 1890SOL    HW117129   2.040   2.471   0.547  1.9237 -0.7886  0.4999
 1890SOL    HW217130   2.157   2.552   0.511  0.5041  1.1001  1.5250
 1891SOL     OW17131   4.098   3.034   1.482  0.0540 -0.2355 -0.1469
 1891SOL    HW117132   4.125   3.126   1.480 -0.5242 -0.0429  0.4746
 1891SOL    HW217133   4.074   3.018   1.574 -1.7886 -0.4503 -0.6521
 1892SOL     OW17134   0.671   1.304  11.379  0.3792  0.2131 -0.4384
 1892SOL    HW117135   0.602   1.250  11.417 -0.5118  2.4579  1.1518
 1892SOL    HW217136   0.729   1.236  11.345 -0.7949 -1.4351  0.8322
 1893SOL     OW17137   0.475   2.301   5.664 -0.6908 -0.1115 -0.2408
 1893SOL    HW117138   0.418   2.343   5.599 -0.9460 -0.2353 -0.0983
 1893SOL    HW217139   0.497   2.374   5.723 -0.3044 -1.0344  0.7495
 1894SOL     OW17140   0.654   1.854   3.057 -0.4680  0.7017  0.1225
 1894SOL    HW117141   0.695   1.768   3.055 -1.3913  0.2855 -1.0771
 1894SOL    HW217142   0.598   1.851   3.135  0.5998  1.0994  0.8986
 1895SOL     OW17143   0.198   4.346   3.327 -0.0645 -0.1976  0.1050
 1895SOL    HW117144   0.120   4.352   3.272  1.2174 -1.4235 -1.8357
 1895SOL    HW217145   0.171   4.282   3.393 -1.9398 -1.1158 -1.5459
 1896SOL     OW17146   0.704   3.987   6.213  0.1146 -0.1804  0.0672
 1896SOL    HW117147   0.609   3.989   6.218  0.1930  0.8126  1.0845
 1896SOL    HW217148   0.723   4.076   6.182  0.7591 -0.4014 -0.1899
 1897SOL     OW17149   2.767   2.318  16.426  0.1258  0.1701  0.2610
 1897SOL    HW117150   2.859   2.297  16.439  0.3881 -0.4545 -2.6006
 1897SOL    HW217151   2.768   2.414  16.433 -1.9200  0.0172  2.7893
 1898SOL     OW17152   1.710   2.670   9.572 -0.5881  0.0445 -0.2668
 1898SOL    HW117153   1.722   2.738   9.506  3.6893 -0.0034  0.5012
 1898SOL    HW217154   1.691   2.725   9.648  0.2094 -0.2429  0.1355
 1899SOL     OW17155   4.227   3.760   0.613  0.2191  0.0489  0.1559
 1899SOL    HW117156   4.202   3.719   0.531 -1.9497 -1.8300  1.7778
 1899SOL    HW217157   4.152   3.743   0.669  0.5611 -1.5195  0.1385
 1900SOL     OW17158   4.710   4.543   8.636  0.3368  0.7920 -0.1521
 1900SOL    HW117159   4.681   4.628   8.601  0.7501  0.6521 -0.8493
 1900SOL    HW217160   0.066   4.515   8.588  0.7608  1.9387 -0.1494
 1901SOL     OW17161   0.163   3.270   5.649  0.2179  0.1554  0.4281
 1901SOL    HW117162   0.208   3.200   5.698  1.1170  0.6280  0.2823
 1901SOL    HW217163   0.240   3.324   5.632  1.1242 -0.6378  2.0194
 1902SOL     OW17164   2.658   3.010   8.554 -0.3003  0.1068  0.4061
 1902SOL    HW117165   2.666   2.917   8.575 -2.1276  0.3795  2.4105
 1902SOL    HW217166   2.714   3.043   8.625  0.3428 -0.7474  0.2918
 1903SOL     OW17167   3.942   3.481  16.980  0.2426 -0.5581  0.2718
 1903SOL    HW117168   3.955   3.445  16.893  0.8401  0.0024  0.1344
 1903SOL    HW217169   4.013   3.437  17.027 -0.5410 -0.8351  1.2115
 1904SOL     OW17170   3.616   3.030   3.760 -0.2804 -0.1464 -0.1453
 1904SOL    HW117171   3.524   3.058   3.762 -0.1250  0.3628 -0.0986
 1904SOL    HW217172   3.603   2.940   3.729 -3.0597  0.1055  0.2794
 1905SOL     OW17173   0.396   2.818   8.071 -0.0146  0.6456 -0.0161
 1905SOL    HW117174   0.322   2.760   8.057 -0.6290  1.0014  1.7434
 1905SOL    HW217175   0.383   2.840   8.163 -0.8700  1.5358 -0.3559
 1906SOL     OW17176   2.133   1.388   4.423  0.4560  0.2022  0.4476
 1906SOL    HW117177   2.133   1.305   4.375  2.0593  0.4234  0.0308
 1906SOL    HW217178   2.095   1.366   4.508  0.0815 -1.5936 -0.1888
 1907SOL     OW17179   0.252   1.952  12.416  0.1664 -0.0393  0.4928
 1907SOL    HW117180   0.221   1.924  12.330  1.3010 -1.3353  0.4991
 1907SOL    HW217181   0.339   1.913  12.413 -0.2210 -0.8087 -0.9163
 1908SOL     OW17182   4.671   1.537   4.276 -0.1645 -0.6356 -0.5279
 1908SOL    HW117183   0.028   1.569   4.233  0.1054  0.7209  1.0096
 1908SOL    HW217184   4.609   1.609   4.265 -0.1161 -1.0041 -3.1640
 1909SOL     OW17185   1.792   3.368   3.297 -0.0451  0.4594  0.1619
 1909SOL    HW117186   1.700   3.391   3.307 -0.0007  0.8981 -0.4541
 1909SOL    HW217187   1.838   3.443   3.260  2.2829 -1.2520 -0.4364
 1910SOL     OW17188   1.994   1.718   9.079  0.4055  0.4520 -0.8341
 1910SOL    HW117189   2.005   1.765   8.996 -1.8441  0.2716 -1.2449
 1910SOL    HW217190   1.978   1.630   9.044  0.3104 -0.0235  0.4303
 1911SOL     OW17191   2.363   4.317   9.242  0.4465  0.1574 -0.0411
 1911SOL    HW117192   2.410   4.321   9.159 -2.3837 -1.6653 -1.7285
 1911SOL    HW217193   2.326   4.229   9.235 -1.1831  0.7741  0.8268
 1912SOL     OW17194   0.285   3.238   8.732  0.2110 -0.5039  0.3722
 1912SOL    HW117195   0.318   3.328   8.733  0.2565 -0.5248  0.6449
 1912SOL    HW217196   0.366   3.202   8.769 -0.0441 -0.0714  1.3568
 1913SOL     OW17197   4.187   2.063   5.701 -0.1543 -0.3313  0.1474
 1913SOL    HW117198   4.148   2.042   5.786  2.5824  0.8597  1.6929
 1913SOL    HW217199   4.278   2.082   5.724  0.0960  0.0668 -1.2053
 1914SOL     OW17200   3.060   2.989   1.854  0.4626 -0.1018 -0.2889
 1914SOL    HW117201   3.057   2.898   1.823 -0.9398  0.2054 -1.0734
 1914SOL    HW217202   3.083   3.024   1.768  0.9038  1.4860  0.4742
 1915SOL     OW17203   3.336   2.359  16.377 -0.8456  0.2991  0.6943
 1915SOL    HW117204   3.245   2.389  16.367 -1.0062 -0.6884 -0.6967
 1915SOL    HW217205   3.369   2.423  16.440 -0.5126  1.5568 -0.7486
 1916SOL     OW17206   2.326   2.621  14.607  0.2220  0.2844  0.0931
 1916SOL    HW117207   2.398   2.678  14.582  0.5220  0.8807  2.3007
 1916SOL    HW217208   2.310   2.576  14.524 -1.2427 -0.2081  0.6379
 1917SOL     OW17209   3.634   2.367   3.127  0.6806 -0.0866  0.0841
 1917SOL    HW117210   3.616   2.397   3.039  4.1471  1.2463 -0.1705
 1917SOL    HW217211   3.711   2.313   3.107 -0.2128 -1.1915 -0.3847
 1918SOL     OW17212   0.858   2.736   9.364 -0.1604  0.2691  0.0848
 1918SOL    HW117213   0.874   2.774   9.451  1.0961 -1.7817  0.7631
 1918SOL    HW217214   0.940   2.749   9.317 -1.9676  0.0832 -3.1412
 1919SOL     OW17215   2.577   2.362  14.434  0.2074 -0.0666  0.3167
 1919SOL    HW117216   2.647   2.306  14.466  0.3796  0.9914  1.7785
 1919SOL    HW217217   2.516   2.296  14.400 -0.4489 -0.4499  2.2329
 1920SOL     OW17218   0.305   0.628  15.324 -0.0232 -0.0839 -0.5377
 1920SOL    HW117219   0.253   0.570  15.268 -2.4325  1.4689  0.0724
 1920SOL    HW217220   0.242   0.635  15.396  0.1053 -1.3349 -0.3037
 1921SOL     OW17221   3.867   2.710   5.039  0.0874 -0.5723  0.3349
 1921SOL    HW117222   3.899   2.683   4.953 -1.0379 -1.6109  0.2399
 1921SOL    HW217223   3.940   2.753   5.084 -0.7478 -0.3787  1.5057
 1922SOL     OW17224   1.855   0.346  10.617  0.3788  0.1879  0.1904
 1922SOL    HW117225   1.792   0.355  10.688  1.9366 -2.5564  1.9259
 1922SOL    HW217226   1.830   0.405  10.546 -0.3766 -0.7177 -0.2963
 1923SOL     OW17227   4.607   3.663   4.862 -0.2417 -0.1923  0.0798
 1923SOL    HW117228   4.547   3.730   4.894 -1.1485 -0.5301 -0.9250
 1923SOL    HW217229   4.660   3.708   4.797  0.6677 -1.0285  0.2441
 1924SOL     OW17230   0.183   3.674  16.785  0.1306 -0.5792  0.4047
 1924SOL    HW117231   0.236   3.692  16.707  1.7995  1.3249  1.9655
 1924SOL    HW217232   0.105   3.638  16.744  1.4703 -0.8554 -1.9107
 1925SOL     OW17233   1.887   1.050   2.582 -0.2593 -0.3811 -0.0740
 1925SOL    HW117234   1.868   1.021   2.493  1.5221  0.0244 -0.5907
 1925SOL    HW217235   1.800   1.031   2.616 -0.0401  1.6614  1.6458
 1926SOL     OW17236   0.913   0.360   7.603  0.3545 -0.0057 -0.9692
 1926SOL    HW117237   0.882   0.346   7.513 -0.3136 -0.1647 -0.7087
 1926SOL    HW217238   0.853   0.429   7.631  0.1647 -0.7617  0.4729
 1927SOL     OW17239   1.066   3.543   7.850  0.4157 -0.1962 -0.2881
 1927SOL    HW117240   1.126   3.491   7.903 -0.2580 -0.3974  0.2814
 1927SOL    HW217241   1.092   3.628   7.887 -1.9418  0.8462 -1.0271
 1928SOL     OW17242   3.112   1.495  15.583 -0.2097  0.4662  0.0136
 1928SOL    HW117243   3.162   1.484  15.663 -0.0512 -1.4478 -0.3451
 1928SOL    HW217244   3.086   1.403  15.574  0.0554  0.4990 -1.1113
 1929SOL     OW17245   1.926   3.096   4.653  0.4713 -0.4779  0.6538
 1929SOL    HW117246   1.994   3.151   4.692 -1.9004  2.9468  0.0094
 1929SOL    HW217247   1.881   3.065   4.732 -0.0448 -0.0772  0.5124
 1930SOL     OW17248   2.782   4.200   9.293 -0.1158  0.2455 -0.2351
 1930SOL    HW117249   2.779   4.276   9.235  1.3230  0.6196  0.1920
 1930SOL    HW217250   2.694   4.207   9.330  0.2865  1.2313  0.5474
 1931SOL     OW17251   1.301   4.117   1.472 -0.2399 -0.2572  0.2671
 1931SOL    HW117252   1.323   4.036   1.518  0.2779  0.3356  1.0532
 1931SOL    HW217253   1.392   4.143   1.457  0.6875 -3.8563 -0.4134
 1932SOL     OW17254   0.127   4.596   3.969 -0.1137 -0.0624  0.5579
 1932SOL    HW117255   0.082   4.549   3.898 -1.1841 -0.9370  1.8155
 1932SOL    HW217256   0.215   4.562   3.950 -0.2622  1.0429 -2.1323
 1933SOL     OW17257   4.489   3.642   0.679  0.2687 -0.0452 -0.0354
 1933SOL    HW117258   4.527   3.646   0.591  0.9703  4.0425  0.4252
 1933SOL    HW217259   4.398   3.664   0.656  0.1628  1.2788  1.6169
 1934SOL     OW17260   0.437   3.321  15.603 -0.1301 -0.2891  0.2332
 1934SOL    HW117261   0.464   3.236  15.638 -3.4477 -1.7022 -0.6666
 1934SOL    HW217262   0.433   3.375  15.682 -0.1381  0.1824 -0.0896
 1935SOL     OW17263   2.455   3.357   5.328 -0.0909 -0.2971  0.5369
 1935SOL    HW117264   2.408   3.278   5.301  0.4584 -0.3264 -0.3278
 1935SOL    HW217265   2.469   3.388   5.238  1.6174  0.5459  1.0981
 1936SOL     OW17266   4.088   0.409   8.737 -0.4387 -0.5895 -0.4483
 1936SOL    HW117267   4.096   0.395   8.642 -3.8244  0.2430 -0.8481
 1936SOL    HW217268   3.994   0.425   8.747 -0.0943  0.9370  0.2807
 1937SOL     OW17269   3.168   2.171   6.127  0.2216  0.0316  0.0506
 1937SOL    HW117270   3.231   2.148   6.059 -0.3585 -1.4185  0.0037
 1937SOL    HW217271   3.092   2.121   6.099 -0.3649  1.8040 -1.5006
 1938SOL     OW17272   1.436   3.678   4.600  0.6246  0.2099  0.3011
 1938SOL    HW117273   1.497   3.748   4.576  1.6261  0.1920  2.7590
 1938SOL    HW217274   1.469   3.660   4.688  3.6915 -0.1692 -0.9198
 1939SOL     OW17275   0.909   2.326   6.137 -0.2378 -0.0185  0.1687
 1939SOL    HW117276   0.997   2.289   6.127 -0.2658 -0.7880  2.7470
 1939SOL    HW217277   0.874   2.303   6.051 -1.2009 -1.0006  0.8217
 1940SOL     OW17278   2.065   3.070  17.246 -0.7800  0.8737 -0.2332
 1940SOL    HW117279   2.160   3.083  17.235 -0.3615 -2.1404 -0.0871
 1940SOL    HW217280   2.042   3.041  17.157  0.4800  0.5573 -0.4615
 1941SOL     OW17281   4.368   2.381   9.003 -0.6744 -0.6160  0.3350
 1941SOL    HW117282   4.445   2.327   8.984  2.0437  3.5670 -0.5814
 1941SOL    HW217283   4.401   2.437   9.074 -1.0010  0.8931 -0.6961
 1942SOL     OW17284   1.092   0.573   7.676 -0.3990 -0.1489 -0.0006
 1942SOL    HW117285   1.147   0.570   7.598 -0.3872 -2.5658  0.0994
 1942SOL    HW217286   1.036   0.499   7.654  1.2165 -0.9095 -1.5433
 1943SOL     OW17287   2.387   2.791   3.039  0.1134  0.1902  0.4681
 1943SOL    HW117288   2.343   2.804   3.124 -2.6394  0.3491 -0.9734
 1943SOL    HW217289   2.391   2.884   3.017  0.1845  0.0727 -0.0048
 1944SOL     OW17290   4.721   4.721   9.421 -0.1143 -0.1781  0.3665
 1944SOL    HW117291   0.012   4.635   9.383 -0.9241 -0.4640  0.7476
 1944SOL    HW217292   4.633   0.001   9.459 -0.1162  2.4727  0.2304
 1945SOL     OW17293   0.594   1.517   4.220 -0.0912 -0.0164 -0.4367
 1945SOL    HW117294   0.659   1.584   4.197  0.0835 -0.3619 -0.9414
 1945SOL    HW217295   0.593   1.528   4.315  0.6252 -2.5219 -0.1436
 1946SOL     OW17296   2.788   3.918   8.284  0.1236 -0.0421  0.5969
 1946SOL    HW117297   2.802   3.959   8.370 -0.3745 -0.6099  0.9549
 1946SOL    HW217298   2.757   3.831   8.308  1.7588 -0.0183  2.8170
 1947SOL     OW17299   0.468   0.476   5.926 -0.0052  0.0017  0.5498
 1947SOL    HW117300   0.437   0.386   5.927 -1.6895  0.5842 -0.7876
 1947SOL    HW217301   0.440   0.490   5.836 -0.1856  4.2367  1.2399
 1948SOL     OW17302   0.565   3.150   8.797  0.0723  0.1547 -0.5999
 1948SOL    HW117303   0.633   3.166   8.863  0.9949 -1.7870 -1.0802
 1948SOL    HW217304   0.596   3.206   8.726 -2.0345  1.4392 -0.5143
 1949SOL     OW17305   3.255   3.886   5.814  0.2276  0.1364 -0.2812
 1949SOL    HW117306   3.326   3.893   5.879  1.5069  0.0017 -1.6712
 1949SOL    HW217307   3.218   3.798   5.811  0.7584 -0.1591  1.7220
 1950SOL     OW17308   1.652   3.629   5.467  0.8670 -0.5858 -0.3325
 1950SOL    HW117309   1.686   3.714   5.438 -0.1098 -1.0794 -2.9440
 1950SOL    HW217310   1.565   3.650   5.501  0.5864  0.3801 -1.6231
 1951SOL     OW17311   3.992   1.117   8.281  0.2082 -0.0132 -0.0333
 1951SOL    HW117312   4.005   1.113   8.187  1.9603  0.1082  0.1966
 1951SOL    HW217313   3.979   1.024   8.299  3.0516 -0.1613  1.2940
 1952SOL     OW17314   4.060   2.729   4.520 -0.1015  0.4731 -0.4285
 1952SOL    HW117315   4.102   2.777   4.591 -1.6400 -0.9408  1.4536
 1952SOL    HW217316   4.012   2.665   4.573  0.6365  0.0300 -0.2845
 1953SOL     OW17317   2.136   3.476   8.232  0.0933 -0.7989 -0.3447
 1953SOL    HW117318   2.103   3.388   8.214 -1.6341  0.2663 -2.4190
 1953SOL    HW217319   2.222   3.444   8.261 -1.2760 -2.3547  1.9632
 1954SOL     OW17320   2.515   3.047  10.666 -0.1053  0.1016  0.4521
 1954SOL    HW117321   2.562   2.964  10.659  2.8763  1.6585  2.0730
 1954SOL    HW217322   2.537   3.089  10.583  1.6950 -1.2930  0.2065
 1955SOL     OW17323   4.328   0.986   9.721  0.3400 -0.0776 -0.3549
 1955SOL    HW117324   4.408   0.941   9.749  0.6773  0.6187 -0.2088
 1955SOL    HW217325   4.261   0.974   9.789 -2.2349  2.6287 -2.4290
 1956SOL     OW17326   3.800   2.434   3.390  0.2785 -0.3470 -0.8668
 1956SOL    HW117327   3.742   2.408   3.319 -3.1575  1.1406  1.3736
 1956SOL    HW217328   3.850   2.500   3.342  0.5725 -0.1301 -0.2684
 1957SOL     OW17329   2.575   3.951   1.521  0.3450  0.2921 -0.2852
 1957SOL    HW117330   2.490   3.950   1.564 -0.2532 -2.1839 -1.4752
 1957SOL    HW217331   2.608   4.038   1.540 -2.6793  1.0312  1.5909
 1958SOL     OW17332   1.694   1.235   0.592 -0.3769  0.2315 -0.0971
 1958SOL    HW117333   1.681   1.144   0.617  0.2950  0.3231  0.5939
 1958SOL    HW217334   1.788   1.222   0.604  0.2550  2.9714 -2.1470
 1959SOL     OW17335   3.976   0.706   3.385 -0.4619 -0.2202  0.5610
 1959SOL    HW117336   4.072   0.701   3.375 -0.7711 -2.8247 -1.2118
 1959SOL    HW217337   3.950   0.797   3.372  0.3459 -0.0639  0.0013
 1960SOL     OW17338   2.918   1.162   2.368 -0.2590  0.4232 -0.2164
 1960SOL    HW117339   2.928   1.127   2.280 -2.3097 -0.4668 -0.0924
 1960SOL    HW217340   3.006   1.197   2.379  0.3502 -0.7427 -1.4584
 1961SOL     OW17341   2.734   1.678  10.541  0.2171  0.0663  0.0634
 1961SOL    HW117342   2.829   1.693  10.539  0.4080 -0.9614  1.4993
 1961SOL    HW217343   2.727   1.592  10.582 -0.7417  1.3143  2.5540
 1962SOL     OW17344   4.469   2.601  12.006  0.2259 -0.1885 -0.0124
 1962SOL    HW117345   4.418   2.679  12.028  1.3073  0.4460  0.2344
 1962SOL    HW217346   4.392   2.561  11.967  1.6600 -2.7045 -0.2768
 1963SOL     OW17347   0.508   0.921   6.642 -0.5055  0.2173  0.0134
 1963SOL    HW117348   0.467   0.996   6.686  0.9089 -1.0561  3.4811
 1963SOL    HW217349   0.431   0.871   6.613 -0.6583 -0.3278  1.3457
 1964SOL     OW17350   0.244   2.989   5.945  0.0727  0.0058 -0.0314
 1964SOL    HW117351   0.272   2.899   5.929 -0.0590  0.3367 -2.1530
 1964SOL    HW217352   0.288   3.035   5.874  1.7527  1.7320  2.1566
 1965SOL     OW17353   1.810   3.555   4.350 -0.2900 -0.6816  0.0250
 1965SOL    HW117354   1.752   3.509   4.290 -0.4439 -0.6726  0.1684
 1965SOL    HW217355   1.844   3.479   4.398  0.0817  0.7537  2.0286
 1966SOL     OW17356   4.457   0.525   7.335  0.0488 -0.5666 -0.5183
 1966SOL    HW117357   4.418   0.475   7.264  1.0034  0.9098 -2.0828
 1966SOL    HW217358   4.460   0.607   7.285 -0.4426 -0.1866  0.0705
 1967SOL     OW17359   2.900   3.723   3.559 -0.1535  0.5489 -0.1652
 1967SOL    HW117360   2.954   3.802   3.548  0.3077  0.1479 -0.7751
 1967SOL    HW217361   2.909   3.673   3.478  0.9930  0.3329  0.1003
 1968SOL     OW17362   0.440   2.574   1.740 -0.0891  0.0110  0.2431
 1968SOL    HW117363   0.428   2.596   1.648 -1.6790 -0.7882  0.2714
 1968SOL    HW217364   0.515   2.633   1.755 -1.2733  2.1828 -2.4139
 1969SOL     OW17365   3.556   2.880   7.603 -0.6516 -0.4357 -0.3439
 1969SOL    HW117366   3.648   2.855   7.611 -0.7373 -0.0723  1.8098
 1969SOL    HW217367   3.557   2.953   7.665  1.3581 -0.7085 -0.0490
 1970SOL     OW17368   0.684   3.728   8.664 -0.4376 -0.4083 -0.2359
 1970SOL    HW117369   0.643   3.722   8.750  2.3190 -0.9178  1.0556
 1970SOL    HW217370   0.742   3.651   8.663 -2.5215 -1.9605 -1.9277
 1971SOL     OW17371   2.984   0.661   8.373  0.1670  0.8056 -0.5612
 1971SOL    HW117372   2.941   0.580   8.343  2.1413 -1.0325  1.5744
 1971SOL    HW217373   2.992   0.634   8.464 -0.7434  0.2095 -0.6601
 1972SOL     OW17374   2.454   1.095  10.385  0.1147  0.7312  0.2769
 1972SOL    HW117375   2.525   1.049  10.429  0.7735  1.2237 -0.2682
 1972SOL    HW217376   2.473   1.186  10.406 -0.6214  0.8362  0.4893
 1973SOL     OW17377   0.253   2.122   1.977 -0.7390  0.0519 -0.3164
 1973SOL    HW117378   0.303   2.190   1.931 -1.7629  2.0006  1.4853
 1973SOL    HW217379   0.268   2.153   2.066  0.4050 -0.4736 -0.3237
 1974SOL     OW17380   1.352   2.353   8.125 -0.2213 -0.3045  0.0802
 1974SOL    HW117381   1.265   2.320   8.144 -0.0802 -0.4050  0.5442
 1974SOL    HW217382   1.362   2.402   8.207  0.0022 -1.1572  0.5621
 1975SOL     OW17383   0.986   3.394  15.752  0.1973  0.1925  0.1862
 1975SOL    HW117384   0.926   3.414  15.680 -0.0336 -2.9377 -0.4630
 1975SOL    HW217385   1.033   3.320  15.715 -1.3431 -0.7260  0.0679
 1976SOL     OW17386   3.120   0.331   1.087  0.4397 -0.6642 -0.0388
 1976SOL    HW117387   3.061   0.376   1.148 -1.1028 -1.2700 -1.0775
 1976SOL    HW217388   3.066   0.329   1.008 -0.9439 -2.0158  0.9275
 1977SOL     OW17389   1.577   4.680  11.826  0.1234  0.2647  0.6245
 1977SOL    HW117390   1.574   0.038  11.878  2.1132  0.0881  1.0089
 1977SOL    HW217391   1.663   4.702  11.790 -0.1905  0.5209  0.0371
 1978SOL     OW17392   3.738   3.940  14.001 -0.6370 -0.0177 -0.3010
 1978SOL    HW117393   3.810   3.933  14.065 -0.8414 -0.5686 -0.1270
 1978SOL    HW217394   3.673   3.975  14.062 -0.7659  1.7163 -1.4406
 1979SOL     OW17395   1.431   1.489   9.876  0.3049  0.5048 -0.1106
 1979SOL    HW117396   1.421   1.529   9.789  1.9449 -0.4226 -0.7358
 1979SOL    HW217397   1.437   1.574   9.919 -0.4522  0.5098 -0.0128
 1980SOL     OW17398   0.876   4.189   6.899  1.1158 -0.2776 -0.2955
 1980SOL    HW117399   0.945   4.254   6.914  1.0929  0.1867 -2.1972
 1980SOL    HW217400   0.832   4.180   6.983 -0.3665 -2.6671 -1.2974
 1981SOL     OW17401   4.489   2.178   5.714  0.0426 -0.1783 -0.8241
 1981SOL    HW117402   4.500   2.176   5.809  0.3996 -1.2725 -0.8867
 1981SOL    HW217403   4.573   2.145   5.682  0.1335 -1.3940  0.6584
 1982SOL     OW17404   4.388   4.388   9.283  0.4696  0.0437  0.3865
 1982SOL    HW117405   4.404   4.300   9.317  0.6157 -0.2002 -0.3218
 1982SOL    HW217406   4.398   4.388   9.188 -0.5862  1.9417  0.2833
 1983SOL     OW17407   4.609   4.282   6.293  0.2926  0.0368 -0.5200
 1983SOL    HW117408   4.693   4.322   6.315  0.7081 -1.7925  1.2230
 1983SOL    HW217409   4.578   4.250   6.378  1.1061  1.6234  0.3923
 1984SOL     OW17410   3.593   0.042  12.083  0.3624 -0.1681 -0.3559
 1984SOL    HW117411   3.571   0.134  12.076  1.0957 -0.0977 -1.7330
 1984SOL    HW217412   3.668   0.027  12.025 -0.6047 -2.8776 -0.8920
 1985SOL     OW17413   0.915   2.304   7.638  1.0002 -0.1822 -0.0857
 1985SOL    HW117414   1.010   2.315   7.644  0.7277  0.7328  2.3988
 1985SOL    HW217415   0.909   2.227   7.582 -0.4634 -0.0189 -0.1395
 1986SOL     OW17416   4.306   2.091  17.332  0.2333  0.1315  0.5266
 1986SOL    HW117417   4.229   2.111  17.279  1.7603 -0.5537 -1.9363
 1986SOL    HW217418   4.266   2.053  17.410  1.0240 -0.1875  0.7815
 1987SOL     OW17419   2.269   4.595  14.354  0.0890 -0.0355 -0.1467
 1987SOL    HW117420   2.319   4.676  14.339 -1.1680  0.2682 -2.6976
 1987SOL    HW217421   2.192   4.604  14.298  0.2143 -0.9617 -0.4753
 1988SOL     OW17422   3.453   1.631   2.677  0.1792 -0.3792  0.1103
 1988SOL    HW117423   3.535   1.666   2.712 -0.7959  0.8977  1.1039
 1988SOL    HW217424   3.428   1.697   2.612  1.7055  0.8979  0.8386
 1989SOL     OW17425   2.179   0.474  11.021  0.0354  0.1444  1.0211
 1989SOL    HW117426   2.144   0.408  10.962 -0.4740  0.1728  1.2903
 1989SOL    HW217427   2.192   0.552  10.967  0.6491 -0.6413  0.0505
 1990SOL     OW17428   4.088   0.385   1.754  0.3363 -0.0851 -0.2657
 1990SOL    HW117429   4.119   0.341   1.834  2.2845 -2.1905 -2.1769
 1990SOL    HW217430   4.173   0.412   1.720 -0.3707 -0.3845 -2.2766
 1991SOL     OW17431   1.815   3.160  13.892 -0.2596  0.3775 -0.3986
 1991SOL    HW117432   1.787   3.225  13.956  1.7376  3.8485 -3.0739
 1991SOL    HW217433   1.860   3.097  13.950  1.3530  0.4966 -1.5213
 1992SOL     OW17434   0.890   0.570   7.302 -0.3789 -0.8250 -0.4080
 1992SOL    HW117435   0.835   0.625   7.357  1.2826 -0.5228  0.9588
 1992SOL    HW217436   0.845   0.485   7.305  1.4535 -1.7477  1.1777
 1993SOL     OW17437   0.272   0.182   8.618 -0.1435  1.2432 -0.1271
 1993SOL    HW117438   0.342   0.132   8.575 -1.4586 -1.0178  0.3890
 1993SOL    HW217439   0.205   0.116   8.602 -0.2720  1.5180 -0.7352
 1994SOL     OW17440   4.410   0.182   3.707  0.5518 -0.8978 -0.6151
 1994SOL    HW117441   4.338   0.165   3.647  0.6692  0.5019 -1.1356
 1994SOL    HW217442   4.474   0.111   3.696  2.1014  0.3305  0.4562
 1995SOL     OW17443   0.835   3.288   5.762 -0.0044 -0.0230 -0.3523
 1995SOL    HW117444   0.816   3.378   5.787 -2.8871 -0.7284  0.0011
 1995SOL    HW217445   0.882   3.258   5.840  1.4197  0.5667 -0.9801
 1996SOL     OW17446   0.251   3.924  16.867 -0.1347 -0.0236 -0.1271
 1996SOL    HW117447   0.259   3.830  16.853  1.0466 -0.0645  0.8589
 1996SOL    HW217448   0.245   3.956  16.777  0.8868  0.3043 -0.0829
 1997SOL     OW17449   4.236   2.932   5.280 -0.1781  0.4807 -0.0959
 1997SOL    HW117450   4.296   2.918   5.354 -1.5853 -1.1171  0.7275
 1997SOL    HW217451   4.296   2.949   5.207  0.1544 -3.2928 -0.7057
 1998SOL     OW17452   0.698   4.663   6.151 -0.4785 -0.3118  0.4634
 1998SOL    HW117453   0.657   0.027   6.158  2.4748  1.2257 -1.2499
 1998SOL    HW217454   0.661   4.624   6.071  1.2498  0.7631 -0.8405
 1999SOL     OW17455   4.683   3.894   8.509 -0.1142 -0.1446  0.0217
 1999SOL    HW117456   0.014   3.947   8.450 -1.0429 -0.2266 -0.8889
 1999SOL    HW217457   0.007   3.811   8.511 -0.0583 -0.1007  0.6501
 2000SOL     OW17458   1.109   1.300   4.818  0.0071 -0.3258 -0.1577
 2000SOL    HW117459   1.143   1.212   4.835  1.0202  0.1198  0.1494
 2000SOL    HW217460   1.193   1.342   4.799  0.0629 -1.8562 -3.3710
 2001SOL     OW17461   4.639   3.889   7.606 -0.0503  0.4190  0.2158
 2001SOL    HW117462   4.715   3.947   7.609  1.8232 -2.1450  2.7220
 2001SOL    HW217463   4.587   3.927   7.536 -0.0231  0.0753  0.0095
 2002SOL     OW17464   1.497   1.583   8.590 -0.1254 -0.4932 -0.1119
 2002SOL    HW117465   1.510   1.489   8.602  2.2112 -0.2562 -0.7726
 2002SOL    HW217466   1.428   1.605   8.652  0.7360  0.6759  0.4221
 2003SOL     OW17467   3.284   2.205  14.979 -0.3783 -0.0639 -0.1479
 2003SOL    HW117468   3.275   2.111  14.966  0.2522 -0.3555  1.5057
 2003SOL    HW217469   3.263   2.221  15.072 -1.4289  0.1968 -0.4257
 2004SOL     OW17470   3.249   0.217   7.825 -0.4860  0.1444  0.5448
 2004SOL    HW117471   3.340   0.235   7.800 -0.6658 -1.3300 -1.1784
 2004SOL    HW217472   3.244   0.193   7.917 -1.3429  1.3940  0.8252
 2005SOL     OW17473   1.884   2.424  12.876  0.4360  0.9533  0.2202
 2005SOL    HW117474   1.817   2.357  12.884  1.7568 -0.3853  0.1571
 2005SOL    HW217475   1.889   2.439  12.781 -2.3814 -1.6797 -0.3215
 2006SOL     OW17476   4.306   2.884   6.075 -0.2169  0.1362  0.2156
 2006SOL    HW117477   4.340   2.906   5.988 -1.5369 -0.5324 -0.4481
 2006SOL    HW217478   4.288   2.971   6.111  0.9457  0.6253 -0.3532
 2007SOL     OW17479   0.010   0.984   8.653  0.2641  0.5979  0.5304
 2007SOL    HW117480   0.065   0.906   8.646  0.3297  0.7245 -0.3078
 2007SOL    HW217481   0.077   1.047   8.681 -0.4784  1.8270 -0.4791
 2008SOL     OW17482   1.104   1.446   1.185  0.5028 -0.3717 -0.1168
 2008SOL    HW117483   1.195   1.419   1.195  0.3635 -0.4094  1.1416
 2008SOL    HW217484   1.070   1.387   1.118  1.2876 -3.1893  1.9667
 2009SOL     OW17485   0.017   2.380   3.183 -0.5967  0.3145  0.0886
 2009SOL    HW117486   0.032   2.339   3.267  1.6910  1.8556  0.4321
 2009SOL    HW217487   0.097   2.354   3.138 -1.0486  0.0206 -0.5553
 2010SOL     OW17488   1.477   3.531   1.923  0.2149 -0.3878  0.2060
 2010SOL    HW117489   1.517   3.465   1.866 -0.4186  0.2210 -0.9292
 2010SOL    HW217490   1.524   3.514   2.005  0.9505 -1.1349 -0.3594
 2011SOL     OW17491   4.324   1.647  11.849  0.2908  0.3025 -0.1984
 2011SOL    HW117492   4.329   1.553  11.836 -1.1777  0.2876 -0.6913
 2011SOL    HW217493   4.342   1.656  11.942  1.5018  0.1640 -0.4174
 2012SOL     OW17494   0.662   2.123   8.910  0.3285 -0.3461  0.7031
 2012SOL    HW117495   0.700   2.040   8.939  1.8269 -0.7422 -2.3339
 2012SOL    HW217496   0.578   2.120   8.954  0.6485 -1.5416  1.2211
 2013SOL     OW17497   0.567   3.701   7.696  0.6332 -0.0166 -0.6147
 2013SOL    HW117498   0.587   3.794   7.707 -2.1121  0.8449 -2.8952
 2013SOL    HW217499   0.654   3.672   7.671  0.4235 -0.0267 -1.3248
 2014SOL     OW17500   4.576   1.467   2.943 -0.3469  0.0618 -0.2891
 2014SOL    HW117501   4.574   1.391   2.886 -0.1306 -1.3462  1.5728
 2014SOL    HW217502   4.563   1.528   2.871 -0.6279  1.3511  0.8468
 2015SOL     OW17503   3.957   3.744  16.987 -0.2888  0.2907  0.0445
 2015SOL    HW117504   3.963   3.652  16.963 -3.2131  0.5130 -1.4946
 2015SOL    HW217505   3.862   3.742  16.990 -0.2577 -0.5477  0.3681
 2016SOL     OW17506   1.167   4.282  15.678  0.2532  0.3390  0.2705
 2016SOL    HW117507   1.148   4.347  15.746  2.2272  0.8930  0.2810
 2016SOL    HW217508   1.100   4.214  15.690  1.3760 -0.2938  2.6734
 2017SOL     OW17509   3.354   2.299   3.985  0.7321  0.5089 -0.5986
 2017SOL    HW117510   3.262   2.324   3.998  0.8407 -0.8565  2.7807
 2017SOL    HW217511   3.348   2.209   4.016  0.7658  0.3919 -0.9392
 2018SOL     OW17512   2.649   3.817  15.101  0.3242  0.8931  0.3505
 2018SOL    HW117513   2.679   3.784  15.016 -2.8772 -0.0138 -0.4073
 2018SOL    HW217514   2.698   3.764  15.165 -0.3006 -1.1534 -0.8628
 2019SOL     OW17515   3.642   4.216   2.298 -0.3533  0.2071  0.5965
 2019SOL    HW117516   3.673   4.247   2.213 -2.7425 -0.2660 -0.4306
 2019SOL    HW217517   3.605   4.130   2.278 -0.3172 -0.5525  3.7631
 2020SOL     OW17518   1.553   2.067   2.409 -0.5684  0.1568  0.2073
 2020SOL    HW117519   1.613   2.097   2.340 -0.2180  2.0351  1.3147
 2020SOL    HW217520   1.570   1.973   2.411 -1.7867 -0.0927 -0.9559
 2021SOL     OW17521   0.334   1.187  16.992  0.0586 -0.4182 -0.8998
 2021SOL    HW117522   0.407   1.249  16.986  0.9302 -1.2541  1.0197
 2021SOL    HW217523   0.260   1.245  17.011 -0.6291 -1.2646 -1.0244
 2022SOL     OW17524   1.907   1.490   0.357  0.3398 -0.0430  0.3539
 2022SOL    HW117525   1.826   1.443   0.342  0.3097  1.1670 -3.2259
 2022SOL    HW217526   1.873   1.572   0.394 -0.7330 -0.0790 -0.5801
 2023SOL     OW17527   3.855   4.067  13.032 -0.3209 -0.7700 -0.2480
 2023SOL    HW117528   3.912   4.137  13.066 -2.4964  1.5597 -1.4130
 2023SOL    HW217529   3.775   4.088  13.079  0.8866  0.9232  1.0815
 2024SOL     OW17530   2.519   2.444   5.456 -0.0568  0.4972  0.0715
 2024SOL    HW117531   2.427   2.466   5.463 -0.1942 -0.2842  0.7589
 2024SOL    HW217532   2.572   2.517   5.489  0.2268  0.1106  0.4724
 2025SOL     OW17533   1.684   4.398   4.620 -0.7231 -0.1067 -0.2426
 2025SOL    HW117534   1.694   4.323   4.561 -0.3696  1.0202 -1.5985
 2025SOL    HW217535   1.608   4.431   4.572  0.4131  1.7870 -0.7297
 2026SOL     OW17536   4.158   2.895   7.337  0.4914 -0.1078  0.1882
 2026SOL    HW117537   4.240   2.898   7.287  0.5772  1.0648  0.4120
 2026SOL    HW217538   4.179   2.821   7.394  1.7975  0.2584  0.1859
 2027SOL     OW17539   3.651   2.856  15.318 -0.0049  0.0475 -0.3018
 2027SOL    HW117540   3.561   2.828  15.329 -0.3446  1.7494  1.3724
 2027SOL    HW217541   3.686   2.782  15.269  4.2646  0.6524  1.7582
 2028SOL     OW17542   3.964   3.709   2.590  0.0841  0.4371  0.4343
 2028SOL    HW117543   3.951   3.799   2.621 -1.0267  0.0096  1.1955
 2028SOL    HW217544   3.899   3.706   2.520  0.0612 -0.2154  0.4840
 2029SOL     OW17545   3.516   4.374   7.139  0.0436 -0.5625 -1.0361
 2029SOL    HW117546   3.521   4.461   7.179  2.8276 -1.0701 -0.2549
 2029SOL    HW217547   3.424   4.364   7.116 -0.3717 -0.1641  0.4994
 2030SOL     OW17548   2.498   3.126  11.416  0.5061  0.6014 -0.6733
 2030SOL    HW117549   2.459   3.039  11.407 -1.1429  1.2742 -0.1283
 2030SOL    HW217550   2.557   3.104  11.488  0.0860 -2.4824 -1.2442
 2031SOL     OW17551   0.752   4.136   5.618  0.2960 -0.2898  0.0846
 2031SOL    HW117552   0.837   4.099   5.595  0.2389 -0.0194 -0.5574
 2031SOL    HW217553   0.742   4.200   5.548  0.6123 -0.5100 -0.1662
 2032SOL     OW17554   0.119   2.110  10.412 -0.2294 -0.2056  0.7328
 2032SOL    HW117555   0.170   2.191  10.413  2.8619 -2.0724 -2.5091
 2032SOL    HW217556   0.160   2.073  10.490 -1.1688 -3.5269 -0.3428
 2033SOL     OW17557   2.367   3.965   3.351 -0.2940 -0.0511  0.4620
 2033SOL    HW117558   2.436   3.929   3.295 -0.3790 -0.3858  0.5683
 2033SOL    HW217559   2.401   3.948   3.439  1.5785  1.3877  0.0039
 2034SOL     OW17560   2.765   1.063   5.261  0.3130  0.2359 -0.6115
 2034SOL    HW117561   2.831   1.053   5.192  0.0358 -1.2437 -0.6809
 2034SOL    HW217562   2.827   1.079   5.332 -0.2235 -1.9480  0.3491
 2035SOL     OW17563   0.389   4.350   9.163 -0.2780  0.2778 -0.2315
 2035SOL    HW117564   0.359   4.413   9.228  0.1595  0.5827 -0.3237
 2035SOL    HW217565   0.362   4.273   9.213 -0.1882  0.2474 -0.2299
 2036SOL     OW17566   0.811   4.661   9.182 -0.1843  0.2441 -0.0091
 2036SOL    HW117567   0.734   4.648   9.237 -0.5816 -1.0373 -0.8608
 2036SOL    HW217568   0.843   0.021   9.219  1.2377 -0.0250 -0.6684
 2037SOL     OW17569   0.520   0.586   8.116 -0.4402  0.2692  0.1269
 2037SOL    HW117570   0.566   0.544   8.188 -2.2883 -2.7932 -0.4790
 2037SOL    HW217571   0.555   0.674   8.106  1.6830 -0.8411 -2.1782
 2038SOL     OW17572   0.226   0.419   5.535 -0.2134  0.3511 -0.0756
 2038SOL    HW117573   0.267   0.505   5.536  3.0716 -1.2144 -0.2788
 2038SOL    HW217574   0.153   0.435   5.476  0.3574  3.4635  0.0868
 2039SOL     OW17575   2.398   0.264   7.522 -0.5077  0.0057 -0.2241
 2039SOL    HW117576   2.316   0.242   7.567  0.1026 -0.1871  0.7951
 2039SOL    HW217577   2.367   0.223   7.441 -2.3246  0.9647 -0.0142
 2040SOL     OW17578   2.224   1.310   7.111 -0.1380 -0.0050 -0.1753
 2040SOL    HW117579   2.306   1.352   7.085 -1.1589  0.5621 -2.4831
 2040SOL    HW217580   2.190   1.376   7.172  0.6508  2.1478 -2.0651
 2041SOL     OW17581   1.595   3.630  15.367  0.5515 -0.4641 -0.1207
 2041SOL    HW117582   1.567   3.590  15.449 -1.0123  0.2530 -0.3005
 2041SOL    HW217583   1.675   3.674  15.396  1.5074 -2.2485 -0.0748
 2042SOL     OW17584   4.244   3.029  15.633  0.3599  0.1680  0.6166
 2042SOL    HW117585   4.219   3.112  15.672 -0.5318 -0.3543  1.1400
 2042SOL    HW217586   4.295   2.996  15.707 -0.0124  0.1988  0.8879
 2043SOL     OW17587   4.281   0.061   3.477 -0.6559 -0.3854  0.3809
 2043SOL    HW117588   4.332   4.704   3.461 -0.7853 -0.3934 -0.0013
 2043SOL    HW217589   4.260   0.086   3.387 -2.6918  1.6645  1.4065
 2044SOL     OW17590   1.744   1.195  15.878  0.6707 -0.5427 -0.1576
 2044SOL    HW117591   1.671   1.149  15.920  0.3602 -0.5366 -0.6809
 2044SOL    HW217592   1.765   1.257  15.948 -0.2918 -0.0533 -0.2885
 2045SOL     OW17593   2.236   0.534   8.536  0.5566  0.4863 -0.0024
 2045SOL    HW117594   2.267   0.622   8.514  1.0603 -0.6914 -3.9927
 2045SOL    HW217595   2.207   0.542   8.627  2.3780 -0.6869  0.6859
 2046SOL     OW17596   0.008   0.308   6.448  0.0531 -0.1066 -0.6419
 2046SOL    HW117597   4.713   0.288   6.356 -2.1727  0.6771 -0.3931
 2046SOL    HW217598   0.080   0.245   6.461 -2.2341 -2.8001 -0.9466
 2047SOL     OW17599   4.331   1.539   5.719  0.3618 -0.1817  0.0204
 2047SOL    HW117600   4.373   1.599   5.781 -0.7364  1.1996 -0.5678
 2047SOL    HW217601   4.356   1.454   5.755 -0.9455 -0.4001  0.4194
 2048SOL     OW17602   3.760   4.622   9.120 -0.2562 -0.4600  0.3218
 2048SOL    HW117603   3.785   4.534   9.149  0.7363  0.5107  2.4045
 2048SOL    HW217604   3.748   4.679   9.196  1.8908 -0.0214  0.3305
 2049SOL     OW17605   3.327   2.217  11.351 -0.0692 -0.4306 -0.0936
 2049SOL    HW117606   3.369   2.280  11.409  0.3944 -2.7555  2.1314
 2049SOL    HW217607   3.388   2.143  11.358  1.1946  0.6925  0.7978
 2050SOL     OW17608   4.307   2.346   3.649  0.5073 -0.4129 -0.4894
 2050SOL    HW117609   4.305   2.408   3.722  2.2513  0.8730 -1.5099
 2050SOL    HW217610   4.365   2.278   3.684 -0.3753 -0.2131  1.3806
 2051SOL     OW17611   4.295   3.973  13.035  0.0437  0.5299  0.3382
 2051SOL    HW117612   4.290   4.057  13.081 -1.7606  0.3634  0.4730
 2051SOL    HW217613   4.339   3.996  12.954 -1.0067  1.2837 -0.0193
 2052SOL     OW17614   0.997   4.582  16.387  0.2920 -0.7265  0.4173
 2052SOL    HW117615   0.980   4.669  16.425  0.9734 -0.2181 -0.4288
 2052SOL    HW217616   0.926   4.529  16.421 -0.4529  0.5119  0.7717
 2053SOL     OW17617   0.688   0.607  14.849  0.0123 -0.5746  0.0376
 2053SOL    HW117618   0.763   0.646  14.803 -1.7426  0.4726 -1.9234
 2053SOL    HW217619   0.618   0.633  14.790  0.8068 -0.0433 -0.6780
 2054SOL     OW17620   1.479   2.820   2.974  0.3595  0.5494 -0.4773
 2054SOL    HW117621   1.385   2.825   2.992  1.2681  3.5615  3.4646
 2054SOL    HW217622   1.502   2.912   2.962 -0.1371  0.3901 -2.6163
 2055SOL     OW17623   2.699   3.637   7.984  0.2064 -0.2039 -0.0961
 2055SOL    HW117624   2.776   3.622   8.039  0.0608  2.5971  0.8626
 2055SOL    HW217625   2.637   3.594   8.044 -0.6395 -1.2936 -1.7434
 2056SOL     OW17626   0.459   0.742   6.155 -0.1758 -0.1050 -0.1804
 2056SOL    HW117627   0.409   0.818   6.187  0.4290 -0.9518  2.7626
 2056SOL    HW217628   0.542   0.782   6.129 -0.5549 -0.2340 -1.5650
 2057SOL     OW17629   1.822   3.058   6.871 -0.5277 -0.2351  0.4206
 2057SOL    HW117630   1.881   2.999   6.917  1.0892 -0.1125 -1.5157
 2057SOL    HW217631   1.849   3.140   6.914 -1.5890 -0.1122  0.8709
 2058SOL     OW17632   2.728   1.883  14.464 -0.4622  0.4262 -0.4542
 2058SOL    HW117633   2.783   1.930  14.402 -0.8802  1.4175 -0.0675
 2058SOL    HW217634   2.792   1.848  14.526 -0.3304 -0.2719 -0.9758
 2059SOL     OW17635   0.901   0.229   5.268 -0.2534 -0.0963 -0.4523
 2059SOL    HW117636   0.901   0.172   5.191  3.9235 -0.8221  0.0687
 2059SOL    HW217637   0.971   0.294   5.264 -1.3135  1.0752  0.0552
 2060SOL     OW17638   3.584   0.685   1.946  0.1560  0.3514  0.1737
 2060SOL    HW117639   3.505   0.734   1.969  0.2401 -0.2829  1.7614
 2060SOL    HW217640   3.569   0.596   1.976 -2.8798  0.6489 -0.4376
 2061SOL     OW17641   3.866   1.822   5.858 -0.2464 -0.2026  0.1875
 2061SOL    HW117642   3.864   1.870   5.776 -0.3812 -0.2842  0.1425
 2061SOL    HW217643   3.938   1.871   5.896 -0.8295 -0.0207  1.0793
 2062SOL     OW17644   4.204   3.036   7.577 -0.1436 -0.6014 -0.3485
 2062SOL    HW117645   4.218   3.020   7.484 -1.2843 -0.3920 -0.5587
 2062SOL    HW217646   4.109   3.040   7.569 -0.2252 -0.1056  0.7954
 2063SOL     OW17647   4.099   2.145   3.718  0.5325  0.6242 -0.1196
 2063SOL    HW117648   4.033   2.157   3.650 -1.3660 -2.1453  1.2575
 2063SOL    HW217649   4.149   2.225   3.701  1.1001 -0.1698 -2.1157
 2064SOL     OW17650   1.601   1.328   7.251  0.6547 -0.0163 -0.0128
 2064SOL    HW117651   1.691   1.296   7.243  1.8297  3.0189  1.2290
 2064SOL    HW217652   1.573   1.334   7.159  0.2109 -1.0426  0.0573
 2065SOL     OW17653   2.755   2.133   0.969  0.2302  0.5566 -0.1585
 2065SOL    HW117654   2.734   2.225   0.961 -1.8873  0.2102  1.3343
 2065SOL    HW217655   2.724   2.110   1.057  2.3212  1.6656  0.8783
 2066SOL     OW17656   0.068   3.051   5.462 -1.1098  0.0432  0.3651
 2066SOL    HW117657   0.099   3.120   5.521 -0.9862 -0.9881  1.5253
 2066SOL    HW217658   0.129   2.984   5.493  0.6232  1.7706  0.6463
 2067SOL     OW17659   0.531   2.471  16.756 -0.1060 -0.1534  0.4592
 2067SOL    HW117660   0.524   2.547  16.697 -1.0441 -1.1169 -0.6549
 2067SOL    HW217661   0.585   2.510  16.825  0.0575  0.5277 -0.0490
 2068SOL     OW17662   4.112   3.531   3.112 -0.3822 -0.3079 -0.3386
 2068SOL    HW117663   4.110   3.452   3.166  0.5427  2.0825  3.1828
 2068SOL    HW217664   4.204   3.557   3.111  0.5780 -3.7039  0.0011
 2069SOL     OW17665   0.128   2.601   7.564 -0.2498 -0.1293  0.0223
 2069SOL    HW117666   0.121   2.505   7.558  1.7798 -0.2132 -1.2830
 2069SOL    HW217667   0.145   2.621   7.472 -1.0035  0.0751 -0.0764
 2070SOL     OW17668   2.291   2.875   2.538  0.3692  0.0933  0.0240
 2070SOL    HW117669   2.315   2.822   2.614  2.3444 -1.4856 -1.6702
 2070SOL    HW217670   2.334   2.821   2.471 -2.2719 -1.6989 -0.2605
 2071SOL     OW17671   4.484   2.163   6.741  0.5483  0.1303 -0.1729
 2071SOL    HW117672   4.405   2.169   6.687 -1.8835 -0.1246  3.3678
 2071SOL    HW217673   4.530   2.096   6.690 -0.1394 -0.5109  0.0535
 2072SOL     OW17674   4.300   4.466   8.312 -0.0058 -0.4622  0.0529
 2072SOL    HW117675   4.219   4.511   8.287  1.5071  2.2413  0.0943
 2072SOL    HW217676   4.316   4.501   8.399  3.1170 -0.2014 -0.6573
 2073SOL     OW17677   1.131   4.133   9.370 -0.6728  0.2141 -0.2577
 2073SOL    HW117678   1.156   4.064   9.309  1.2150  0.1081  0.6388
 2073SOL    HW217679   1.203   4.142   9.432 -0.3123  1.1965 -0.8239
 2074SOL     OW17680   2.591   4.314   8.020  0.6785 -0.2275  0.1168
 2074SOL    HW117681   2.535   4.390   8.000 -0.5347 -0.8010  1.2955
 2074SOL    HW217682   2.585   4.266   7.938  1.0817 -0.0073 -0.0403
 2075SOL     OW17683   3.609   1.961   9.238  0.0642  0.2930  0.6451
 2075SOL    HW117684   3.641   1.872   9.249 -2.3301 -0.4693  1.6017
 2075SOL    HW217685   3.519   1.955   9.271  0.0596  0.1422  0.6027
 2076SOL     OW17686   2.332   3.250  10.774 -0.4623 -0.6368  0.8236
 2076SOL    HW117687   2.242   3.224  10.756  0.0634 -1.3648 -0.7192
 2076SOL    HW217688   2.374   3.164  10.775 -1.0192 -0.9069  0.6820
 2077SOL     OW17689   2.419   1.250   7.645 -0.1522 -0.4210 -0.1655
 2077SOL    HW117690   2.361   1.258   7.721  0.5699  1.5366  0.1827
 2077SOL    HW217691   2.419   1.342   7.619  1.1898 -1.0701 -2.4687
 2078SOL     OW17692   4.116   2.157  17.145  0.1443 -0.1570  0.7527
 2078SOL    HW117693   4.064   2.083  17.114 -1.5315  0.8037  1.3255
 2078SOL    HW217694   4.049   2.215  17.180  0.5331 -0.1848  1.5375
 2079SOL     OW17695   4.233   3.660   0.357  0.4407 -0.6670 -0.0235
 2079SOL    HW117696   4.306   3.690   0.303  0.6851  1.5040  1.5269
 2079SOL    HW217697   4.270   3.578   0.390  1.2175 -0.9918 -1.6920
 2080SOL     OW17698   1.528   2.319  13.727  0.3747 -0.1602 -0.1896
 2080SOL    HW117699   1.458   2.270  13.772  2.1945  0.2076  3.0289
 2080SOL    HW217700   1.571   2.353  13.806  1.5165  1.6240 -1.6024
 2081SOL     OW17701   3.592   3.841   7.855 -0.1499  0.4107  0.2320
 2081SOL    HW117702   3.545   3.765   7.891 -0.6203  1.3915  1.7067
 2081SOL    HW217703   3.584   3.821   7.762 -0.3621 -0.6027  0.4724
 2082SOL     OW17704   0.332   1.088   3.363 -0.0053  0.7901 -0.3928
 2082SOL    HW117705   0.406   1.041   3.403 -2.1795 -1.0217  1.4972
 2082SOL    HW217706   0.362   1.096   3.272 -0.5052  1.7498 -0.4709
 2083SOL     OW17707   4.161   3.555   5.553 -0.8889 -0.1590 -0.1528
 2083SOL    HW117708   4.190   3.621   5.489  0.3565  0.4845  1.0838
 2083SOL    HW217709   4.066   3.564   5.554 -1.1671 -3.3811 -0.1259
 2084SOL     OW17710   1.807   2.784   7.669 -0.3680 -0.3682  0.5154
 2084SOL    HW117711   1.784   2.835   7.747  2.2053  0.8741  0.4588
 2084SOL    HW217712   1.749   2.825   7.605 -0.6854 -0.6828  0.5978
 2085SOL     OW17713   2.414   0.282  11.787  0.2756  0.1679  0.3360
 2085SOL    HW117714   2.327   0.252  11.760  0.5420 -0.1241 -0.2012
 2085SOL    HW217715   2.474   0.211  11.767 -0.5432 -0.2237 -0.7476
 2086SOL     OW17716   3.523   3.029   2.241 -0.6538  0.0066  0.4778
 2086SOL    HW117717   3.553   2.967   2.174  1.4122  2.7961 -1.1499
 2086SOL    HW217718   3.475   3.097   2.194 -0.7722 -1.1775 -1.1358
 2087SOL     OW17719   1.259   4.672   4.905 -0.3472  0.1387  0.0084
 2087SOL    HW117720   1.194   0.020   4.907  0.8165  1.2105  0.0868
 2087SOL    HW217721   1.205   4.608   4.859 -0.2197 -1.9787  2.8397
 2088SOL     OW17722   2.455   2.640   2.500 -0.2705  0.6239 -0.1675
 2088SOL    HW117723   2.439   2.595   2.417 -0.3757 -1.3466  0.9221
 2088SOL    HW217724   2.448   2.564   2.557 -0.5397  0.1029 -0.8995
 2089SOL     OW17725   4.078   3.264   8.530 -0.0050  0.2808  0.3602
 2089SOL    HW117726   4.102   3.285   8.620 -0.8560  3.2581 -0.1130
 2089SOL    HW217727   3.984   3.282   8.526 -0.1429 -0.2716  1.2344
 2090SOL     OW17728   1.164   3.382  16.643  0.1966  0.2011 -0.1465
 2090SOL    HW117729   1.114   3.459  16.673  3.1616  1.4525  1.5577
 2090SOL    HW217730   1.119   3.362  16.561 -1.0111 -1.0041  0.8068
 2091SOL     OW17731   4.160   2.445   3.400  0.0379 -0.0826 -0.0032
 2091SOL    HW117732   4.214   2.424   3.476 -0.0045 -2.7995 -0.7516
 2091SOL    HW217733   4.151   2.352   3.380  3.3121 -0.2768 -0.6349
 2092SOL     OW17734   2.322   2.189   3.993 -0.2413  0.0681 -0.4025
 2092SOL    HW117735   2.308   2.105   3.950 -2.0745 -0.1949  0.6901
 2092SOL    HW217736   2.247   2.241   3.964  0.3512  1.4150  0.4535
 2093SOL     OW17737   0.189   2.462   9.210  0.6041  0.6398 -0.4297
 2093SOL    HW117738   0.101   2.498   9.205  0.7643  1.1960  0.8003
 2093SOL    HW217739   0.244   2.540   9.214  1.4916  0.0389 -0.7236
 2094SOL     OW17740   1.098   0.959   1.726 -0.0121  0.3784 -0.0470
 2094SOL    HW117741   1.134   0.875   1.700 -1.6317 -0.9772  2.0459
 2094SOL    HW217742   1.009   0.932   1.750  0.6429 -1.3128  0.4697
 2095SOL     OW17743   3.749   2.554   1.221 -0.2642 -0.1263  0.5397
 2095SOL    HW117744   3.747   2.640   1.263  2.1753  0.3612 -0.3670
 2095SOL    HW217745   3.676   2.503   1.257 -1.4952  1.3599  0.1229
 2096SOL     OW17746   0.364   3.736   5.737  0.1291  0.2596 -0.0740
 2096SOL    HW117747   0.319   3.678   5.799  0.6460  2.9202  2.8154
 2096SOL    HW217748   0.456   3.732   5.763  0.8995  0.0145 -2.9426
 2097SOL     OW17749   3.477   0.813   4.826 -0.0465 -0.1964  0.0973
 2097SOL    HW117750   3.430   0.893   4.853 -1.0212  0.0103 -2.1677
 2097SOL    HW217751   3.411   0.744   4.823 -0.1726 -0.0929  0.4334
 2098SOL     OW17752   2.286   3.573  12.031  0.1410  0.1286  0.4113
 2098SOL    HW117753   2.230   3.551  12.105  0.5699 -0.8309  0.4479
 2098SOL    HW217754   2.237   3.642  11.986  1.1982  1.2372  0.9660
 2099SOL     OW17755   1.361   1.728   6.653  0.4524  0.0120  0.0783
 2099SOL    HW117756   1.400   1.697   6.572 -2.1169 -0.4937 -0.9707
 2099SOL    HW217757   1.387   1.666   6.722 -0.1686 -1.3314 -0.9016
 2100SOL     OW17758   3.333   1.083   5.521  0.1656  0.1302 -0.1519
 2100SOL    HW117759   3.283   1.034   5.457 -0.7712 -0.3152  0.9104
 2100SOL    HW217760   3.349   1.166   5.477 -1.0899  0.1715 -0.5164
 2101SOL     OW17761   1.779   0.888  15.092  0.8981  0.4586 -0.0953
 2101SOL    HW117762   1.764   0.982  15.099  0.6476  0.3357  1.0707
 2101SOL    HW217763   1.741   0.859  15.175  0.4775  1.2354 -0.0143
 2102SOL     OW17764   2.527   2.468  16.243 -0.2774 -0.7903  0.3729
 2102SOL    HW117765   2.478   2.433  16.316 -0.3834 -0.3995  0.4914
 2102SOL    HW217766   2.506   2.561  16.249 -0.5240 -0.9281  1.5029
 2103SOL     OW17767   2.452   1.049   4.934 -0.3936  0.6012  0.4601
 2103SOL    HW117768   2.534   1.051   4.886 -0.3345  1.4346  0.6006
 2103SOL    HW217769   2.391   1.053   4.860 -0.6368 -1.4770  0.5392
 2104SOL     OW17770   1.368   0.701   5.332  0.4873 -0.4580 -0.6355
 2104SOL    HW117771   1.357   0.624   5.275 -2.1261 -1.5713  1.3903
 2104SOL    HW217772   1.428   0.674   5.402 -0.1884  1.5226  0.6822
 2105SOL     OW17773   1.328   2.714   9.063  0.4112  0.3588 -0.3138
 2105SOL    HW117774   1.311   2.778   8.994  0.4709  0.4688 -0.2270
 2105SOL    HW217775   1.382   2.650   9.017 -0.1933  0.0474 -0.5809
 2106SOL     OW17776   2.386   0.033   8.656  0.1290  0.5860 -0.3825
 2106SOL    HW117777   2.300   0.076   8.655  0.7010  1.7233 -1.9504
 2106SOL    HW217778   2.381   4.693   8.583 -0.0069 -0.2103  0.3180
 2107SOL     OW17779   1.174   4.247   7.954  0.3098  0.0242  0.3629
 2107SOL    HW117780   1.169   4.260   8.048 -1.3102 -0.2034  0.3149
 2107SOL    HW217781   1.079   4.252   7.940  0.1403 -1.3793  1.0192
 2108SOL     OW17782   1.521   1.297   8.626  0.3753 -0.0626  0.7610
 2108SOL    HW117783   1.541   1.205   8.639  1.7396  0.2285  0.7554
 2108SOL    HW217784   1.502   1.292   8.532 -0.6322 -0.1843  0.9728
 2109SOL     OW17785   1.564   3.994   5.127  0.0034  0.3026  0.0900
 2109SOL    HW117786   1.507   4.009   5.201 -0.7065  1.7975 -0.7543
 2109SOL    HW217787   1.502   3.965   5.060 -0.4934 -0.7397  1.0132
 2110SOL     OW17788   3.611   1.579   5.301 -0.1479  0.1861  0.0892
 2110SOL    HW117789   3.636   1.637   5.229  0.5776  0.2146  0.3655
 2110SOL    HW217790   3.522   1.609   5.319 -0.0314 -1.4147  3.3879
 2111SOL     OW17791   3.581   0.350   1.388 -0.2655  0.5893 -0.2986
 2111SOL    HW117792   3.604   0.318   1.300 -2.6814  1.2065 -1.1599
 2111SOL    HW217793   3.628   0.433   1.393 -0.2388  0.4729  1.3613
 2112SOL     OW17794   3.852   3.757   8.612  0.6331 -0.0992 -0.6457
 2112SOL    HW117795   3.788   3.687   8.625  0.7556 -0.1038 -0.0902
 2112SOL    HW217796   3.926   3.709   8.575  2.5081  1.3339  1.1963
 2113SOL     OW17797   0.584   3.786  12.966 -0.5797 -0.2141  0.2337
 2113SOL    HW117798   0.656   3.750  12.914  1.1416  1.1347  1.6831
 2113SOL    HW217799   0.576   3.875  12.931  2.9323 -0.0713 -0.1382
 2114SOL     OW17800   0.248   2.170  16.386 -0.5022  0.4833 -0.0365
 2114SOL    HW117801   0.308   2.217  16.443  0.3808 -0.3504 -0.2754
 2114SOL    HW217802   0.164   2.202  16.418  0.2049  0.6401  1.6326
 2115SOL     OW17803   2.828   0.065   3.600 -0.0554  0.3046 -0.1082
 2115SOL    HW117804   2.899   0.022   3.552 -0.2713  0.5598 -0.6553
 2115SOL    HW217805   2.779   0.107   3.530 -0.5811  2.4311  1.5140
 2116SOL     OW17806   3.773   2.978   7.113  0.0435  0.0078  0.0876
 2116SOL    HW117807   3.795   2.983   7.206  1.8433 -1.8731 -0.2495
 2116SOL    HW217808   3.800   3.066   7.085  1.3657 -1.1276 -2.1707
 2117SOL     OW17809   2.151   0.520  17.095  0.2907 -0.5143 -0.0993
 2117SOL    HW117810   2.136   0.608  17.061  0.9829 -1.0215 -1.7519
 2117SOL    HW217811   2.216   0.535  17.163  0.8948  2.6900 -1.3673
 2118SOL     OW17812   0.096   0.909   5.401 -0.5933  0.5312  0.0863
 2118SOL    HW117813   0.090   0.826   5.354  0.1938  0.0497  0.8484
 2118SOL    HW217814   0.136   0.874   5.480  2.7363  0.2018 -1.7364
 2119SOL     OW17815   3.446   1.079   3.198  0.1627 -0.4294  0.2535
 2119SOL    HW117816   3.441   1.069   3.293  0.5972  0.7124  0.4056
 2119SOL    HW217817   3.424   0.990   3.172  0.1037 -0.0289 -1.0680
 2120SOL     OW17818   2.993   2.057  16.394 -0.7189  0.4786  0.2540
 2120SOL    HW117819   3.082   2.051  16.360 -0.4524 -0.3258  1.0923
 2120SOL    HW217820   3.010   2.037  16.486  0.0429  0.9533  0.2169
 2121SOL     OW17821   4.665   4.543   4.584 -0.3836  0.6166 -0.0859
 2121SOL    HW117822   4.624   4.622   4.549 -0.3948  0.6237 -0.0568
 2121SOL    HW217823   4.595   4.488   4.620  3.1028 -1.8829  2.8498
 2122SOL     OW17824   2.844   0.333   9.332  0.1956 -0.0811  0.3929
 2122SOL    HW117825   2.824   0.410   9.386  3.1185  0.9830 -0.0583
 2122SOL    HW217826   2.934   0.327   9.364  0.5116 -0.7160 -0.6250
 2123SOL     OW17827   2.801   0.616   7.091 -0.2015  0.1677  0.1481
 2123SOL    HW117828   2.850   0.538   7.066  0.8587  0.8725 -0.0038
 2123SOL    HW217829   2.724   0.606   7.035 -0.0144  1.2600 -0.3008
 2124SOL     OW17830   1.778   1.068  16.462  0.1042 -0.1919 -0.2272
 2124SOL    HW117831   1.822   1.153  16.471 -0.1338  0.0810 -1.5460
 2124SOL    HW217832   1.842   1.007  16.500  1.6471 -0.7187 -3.6360
 2125SOL     OW17833   0.362   0.118  15.094 -0.2971 -0.2354  0.1148
 2125SOL    HW117834   0.365   0.145  15.002  2.2723  0.0099  0.2601
 2125SOL    HW217835   0.414   0.193  15.124 -0.4952  0.9066 -2.3467
 2126SOL     OW17836   0.830   3.276   5.109  0.6417 -0.2096 -0.1038
 2126SOL    HW117837   0.785   3.358   5.090 -0.8388 -1.1123 -0.4644
 2126SOL    HW217838   0.773   3.244   5.179  0.1692 -0.1834 -0.4752
 2127SOL     OW17839   1.369   3.542  16.710 -0.2144 -0.1324 -0.2963
 2127SOL    HW117840   1.383   3.589  16.628  1.5336 -2.3701 -1.2606
 2127SOL    HW217841   1.317   3.468  16.678  1.1641 -1.0191 -0.4639
 2128SOL     OW17842   2.647   2.961   3.132  0.3623 -0.5740  0.1789
 2128SOL    HW117843   2.611   2.975   3.220  2.0543  0.2277  0.7467
 2128SOL    HW217844   2.574   2.989   3.077  0.5779  1.8579  1.1153
 2129SOL     OW17845   4.340   3.550  11.394 -0.3812  0.0433  0.8662
 2129SOL    HW117846   4.290   3.622  11.432 -1.4309 -1.3762  2.1850
 2129SOL    HW217847   4.275   3.485  11.368  1.2778 -1.2913  0.0943
 2130SOL     OW17848   0.895   3.946  15.984 -0.4171 -0.2256  0.2352
 2130SOL    HW117849   0.806   3.928  16.014  0.2060 -1.1932  1.4908
 2130SOL    HW217850   0.917   3.871  15.929 -1.1317 -1.0241  1.0389
 2131SOL     OW17851   3.385   2.420   6.957 -0.3647 -0.0127  0.0786
 2131SOL    HW117852   3.335   2.340   6.943 -1.4209  0.7002 -0.2590
 2131SOL    HW217853   3.347   2.483   6.896 -0.6236 -1.4962 -1.2918
 2132SOL     OW17854   2.597   4.353   7.277 -0.3049 -0.8608  0.0916
 2132SOL    HW117855   2.618   4.427   7.220 -0.4139  1.1308  2.6624
 2132SOL    HW217856   2.505   4.372   7.295 -0.4916 -1.8818  0.1890
 2133SOL     OW17857   3.247   4.280   5.369  0.6634 -1.1329  0.1277
 2133SOL    HW117858   3.223   4.280   5.277  1.2531 -1.3379 -0.0225
 2133SOL    HW217859   3.160   4.310   5.397  1.2633  1.0121 -0.3478
 2134SOL     OW17860   1.583   1.354   1.642 -0.1134  0.3721 -0.5304
 2134SOL    HW117861   1.644   1.302   1.694 -0.2774  1.1383  0.4322
 2134SOL    HW217862   1.503   1.347   1.696 -1.2823 -1.5087 -2.4982
 2135SOL     OW17863   2.154   1.257   6.501  0.0393 -0.1867 -0.0998
 2135SOL    HW117864   2.172   1.219   6.415  0.5735 -2.0438  0.8354
 2135SOL    HW217865   2.132   1.174   6.543 -0.9648 -0.0640 -0.3929
 2136SOL     OW17866   0.416   1.568  12.103 -0.4116 -0.1792  0.1919
 2136SOL    HW117867   0.401   1.637  12.039  0.9031  0.5624  0.6683
 2136SOL    HW217868   0.424   1.494  12.043 -0.8510 -0.2252  0.1937
 2137SOL     OW17869   3.522   3.428  15.019 -0.0740 -0.3263  0.1221
 2137SOL    HW117870   3.476   3.469  14.946  0.8205  2.3507  1.0457
 2137SOL    HW217871   3.602   3.402  14.974  1.0884  2.9854  0.2912
 2138SOL     OW17872   0.423   3.430   9.780 -0.3535  0.0512  0.1426
 2138SOL    HW117873   0.488   3.488   9.739  1.8524 -2.0203  0.7423
 2138SOL    HW217874   0.357   3.487   9.819  2.5019  3.6725 -0.2858
 2139SOL     OW17875   4.231   4.022   0.985 -0.2824  0.4464  0.1894
 2139SOL    HW117876   4.325   4.008   0.977  0.0631  2.6281  0.3625
 2139SOL    HW217877   4.204   3.933   1.006 -0.1739  0.6593  1.2057
 2140SOL     OW17878   1.864   2.640   2.559  0.0626  0.4413  0.1632
 2140SOL    HW117879   1.858   2.549   2.529 -0.8178  0.3616  0.5832
 2140SOL    HW217880   1.775   2.645   2.592  0.1393 -2.3846  0.7834
 2141SOL     OW17881   1.568   4.143   3.498 -0.3150 -0.2362  0.6914
 2141SOL    HW117882   1.631   4.192   3.551  0.7480  1.0455 -1.7672
 2141SOL    HW217883   1.501   4.135   3.566 -0.3225  0.1695  0.7292
 2142SOL     OW17884   0.842   4.035   6.681  0.2251  0.4195 -0.0323
 2142SOL    HW117885   0.834   4.096   6.754 -1.4065  1.3487 -0.9865
 2142SOL    HW217886   0.820   3.956   6.731 -1.6692 -0.1500 -1.7196
 2143SOL     OW17887   1.061   2.564   7.230  0.2444 -0.0320  0.4084
 2143SOL    HW117888   1.130   2.499   7.227 -0.0421 -0.2862 -0.9105
 2143SOL    HW217889   1.002   2.546   7.157 -0.2299  1.1142  0.5109
 2144SOL     OW17890   2.074   1.036   6.049  0.0413 -0.8035  0.4289
 2144SOL    HW117891   2.078   1.000   5.961 -0.1282 -3.1617  1.4014
 2144SOL    HW217892   2.005   0.978   6.081 -2.7959  1.4946 -1.5099
 2145SOL     OW17893   0.282   0.274   6.245 -0.2057  0.1722 -0.3114
 2145SOL    HW117894   0.290   0.368   6.231 -2.0712  0.4310  0.3494
 2145SOL    HW217895   0.233   0.245   6.169  2.4795 -2.8633 -0.9198
 2146SOL     OW17896   1.007   0.277  13.236 -0.6444 -0.3782 -0.0277
 2146SOL    HW117897   1.042   0.365  13.229 -0.0097 -0.5436  1.0772
 2146SOL    HW217898   1.065   0.243  13.304  0.7231  1.5332 -0.2605
 2147SOL     OW17899   2.098   2.149  13.221 -0.0371 -0.2409 -0.5631
 2147SOL    HW117900   2.059   2.226  13.179 -1.2928 -0.9067 -0.6433
 2147SOL    HW217901   2.031   2.115  13.280  0.3297 -1.8392 -1.0706
 2148SOL     OW17902   4.711   0.891   0.387  0.3851  0.0585  0.3466
 2148SOL    HW117903   0.065   0.835   0.406 -0.8944 -1.2374  1.6141
 2148SOL    HW217904   4.638   0.840   0.422  2.4870  0.0309  4.6840
 2149SOL     OW17905   1.041   1.694   7.461 -0.2724  0.7166 -0.2440
 2149SOL    HW117906   1.056   1.785   7.434  0.2981  0.3442 -1.1729
 2149SOL    HW217907   1.124   1.662   7.496 -0.5425 -0.5287 -0.7551
 2150SOL     OW17908   2.336   4.208   1.911 -0.3162  0.3361 -0.4261
 2150SOL    HW117909   2.252   4.254   1.910 -0.8215 -0.5744 -0.1753
 2150SOL    HW217910   2.365   4.229   2.000  0.8852  1.8632 -1.1977
 2151SOL     OW17911   1.925   1.823  14.934 -0.2847 -0.5127 -0.2716
 2151SOL    HW117912   1.889   1.767  14.865  2.2770  1.5669 -3.2825
 2151SOL    HW217913   1.961   1.748  14.981 -1.8118 -0.9310  0.2227
 2152SOL     OW17914   4.088   0.468   8.480 -0.3375 -0.0798 -0.2907
 2152SOL    HW117915   4.113   0.463   8.388  2.2068  0.7125  0.3765
 2152SOL    HW217916   4.031   0.545   8.479 -0.7064 -0.3777 -2.1462
 2153SOL     OW17917   0.203   3.579  15.837  0.7728 -0.3402  0.4327
 2153SOL    HW117918   0.180   3.627  15.757 -0.2840 -0.8265  0.4431
 2153SOL    HW217919   0.119   3.595  15.880  0.7683 -0.4160  0.4515
 2154SOL     OW17920   2.914   4.625  14.952  0.0867  0.1991 -0.0026
 2154SOL    HW117921   2.999   4.586  14.973  0.2925  0.0477 -1.1296
 2154SOL    HW217922   2.856   4.555  14.981 -0.4449  0.2241 -1.0206
 2155SOL     OW17923   1.082   4.491   8.976 -0.4344  0.6488  0.4280
 2155SOL    HW117924   1.088   4.397   8.990 -0.7936  0.1446 -2.7131
 2155SOL    HW217925   1.147   4.525   9.038 -0.6426 -0.1989  1.0974
 2156SOL     OW17926   0.660   4.519  14.843 -0.1529  0.0325  0.3308
 2156SOL    HW117927   0.752   4.494  14.846  0.8707  3.5982 -1.2939
 2156SOL    HW217928   0.672   4.606  14.806 -0.3250  0.3883  1.1198
 2157SOL     OW17929   2.940   0.674  14.621  0.3191 -0.6676 -0.7837
 2157SOL    HW117930   3.025   0.635  14.601  0.1421 -0.7105 -1.4474
 2157SOL    HW217931   2.870   0.609  14.614  0.0848 -0.3840 -1.0414
 2158SOL     OW17932   4.019   0.009   6.482 -0.3308  0.8668 -0.2397
 2158SOL    HW117933   3.988   0.012   6.572 -0.3903  1.1221 -0.2703
 2158SOL    HW217934   4.083   4.659   6.489  0.4120  1.8341  2.9047
 2159SOL     OW17935   0.839   3.678   9.609 -0.6470  0.0688 -0.0692
 2159SOL    HW117936   0.815   3.768   9.628 -2.1109 -0.4639  0.6070
 2159SOL    HW217937   0.933   3.670   9.628 -0.1521  0.3820 -2.4152
 2160SOL     OW17938   1.158   4.465   2.016 -0.1699 -0.0404 -0.4557
 2160SOL    HW117939   1.093   4.409   1.973  0.6754 -0.9933 -0.4840
 2160SOL    HW217940   1.111   4.547   2.030  2.8800  1.7131 -0.6911
 2161SOL     OW17941   2.638   3.141   4.264 -0.2047  0.1191  0.3754
 2161SOL    HW117942   2.575   3.110   4.330  1.2034  0.9186  2.1050
 2161SOL    HW217943   2.581   3.189   4.205 -2.4151 -4.1911 -0.9872
 2162SOL     OW17944   3.621   4.144   8.563 -0.5087 -0.6023  0.0524
 2162SOL    HW117945   3.682   4.109   8.627 -2.0163 -1.4892  0.9926
 2162SOL    HW217946   3.553   4.078   8.565 -0.4515 -0.6184  1.2623
 2163SOL     OW17947   1.685   0.383   9.008  0.2345 -0.3554  0.0188
 2163SOL    HW117948   1.658   0.435   8.932 -0.0459 -2.1066 -1.0877
 2163SOL    HW217949   1.661   0.443   9.079 -1.9732 -1.1971 -0.0051
 2164SOL     OW17950   0.972   2.041   5.766 -0.5770  0.2091 -0.7210
 2164SOL    HW117951   0.883   2.064   5.740 -1.2192  0.3878  1.6581
 2164SOL    HW217952   0.952   1.988   5.843  0.3855  0.2912 -0.4204
 2165SOL     OW17953   3.787   0.444   0.387 -0.1055  0.3469 -0.3740
 2165SOL    HW117954   3.770   0.470   0.478 -1.2098 -0.2798 -0.3978
 2165SOL    HW217955   3.703   0.467   0.348 -0.2143 -0.8537 -0.8419
 2166SOL     OW17956   1.001   2.127   2.225 -0.9477 -0.1189 -0.2641
 2166SOL    HW117957   0.906   2.135   2.214 -1.1315  1.6251  2.7702
 2166SOL    HW217958   1.036   2.165   2.145 -1.1530 -0.2663 -0.4238
 2167SOL     OW17959   1.344   2.699   2.719 -0.0630  0.3240 -0.3474
 2167SOL    HW117960   1.269   2.646   2.691  0.6527 -1.1426  0.5290
 2167SOL    HW217961   1.369   2.655   2.800  0.2409  1.6509  0.2812
 2168SOL     OW17962   3.376   3.704  13.034 -0.3971  0.7445 -0.0225
 2168SOL    HW117963   3.408   3.651  12.961  1.2196  1.4946  0.1403
 2168SOL    HW217964   3.330   3.772  12.984 -1.6440  0.6828  1.0519
 2169SOL     OW17965   3.952   2.986   1.910  0.2172  0.4306  0.6112
 2169SOL    HW117966   3.938   3.058   1.848 -0.4650 -0.4549 -0.2559
 2169SOL    HW217967   4.019   3.027   1.965  0.9830 -0.4788  0.3550
 2170SOL     OW17968   2.872   0.509   9.727  0.4077  0.1261  0.5098
 2170SOL    HW117969   2.828   0.488   9.809 -1.1614 -2.0450 -0.8718
 2170SOL    HW217970   2.945   0.447   9.735  0.5726  0.0712 -1.4342
 2171SOL     OW17971   0.971   3.604  17.331 -0.5400 -0.2071  0.0968
 2171SOL    HW117972   0.997   3.656  17.255 -0.0706 -0.7044 -0.0886
 2171SOL    HW217973   0.956   3.521  17.285  0.7042  1.4059 -3.2016
 2172SOL     OW17974   1.628   1.740   6.298 -0.1927 -0.6195 -0.1938
 2172SOL    HW117975   1.701   1.779   6.347  2.0405 -0.9472 -3.2166
 2172SOL    HW217976   1.647   1.647   6.309  1.5929  0.0345  2.3114
 2173SOL     OW17977   4.094   4.040   6.766  0.1309 -0.1787 -0.1339
 2173SOL    HW117978   4.189   4.027   6.769 -0.1357 -2.2784 -0.7568
 2173SOL    HW217979   4.081   4.128   6.801  1.1228  0.5096 -1.5174
 2174SOL     OW17980   0.923   3.699  15.340 -0.4010  0.3327 -0.0258
 2174SOL    HW117981   0.998   3.658  15.297  1.4701  1.7236  1.8807
 2174SOL    HW217982   0.868   3.739  15.274 -0.5393 -0.2381 -0.2578
 2175SOL     OW17983   0.884   2.470   6.963 -0.1653  0.2693  0.0510
 2175SOL    HW117984   0.948   2.401   6.947  0.8424  1.0152  0.8870
 2175SOL    HW217985   0.933   2.547   6.935  1.4389 -0.6960  0.2094
 2176SOL     OW17986   0.018   3.360   5.317 -0.2196  0.4140 -0.5244
 2176SOL    HW117987   4.657   3.405   5.335  0.5984  1.3699  0.7956
 2176SOL    HW217988   0.034   3.317   5.401  0.3208 -1.0021 -1.3563
 2177SOL     OW17989   0.173   4.100   6.329  0.3225 -0.4689 -0.0818
 2177SOL    HW117990   0.152   4.050   6.408  2.7225 -3.6072 -1.4194
 2177SOL    HW217991   0.141   4.186   6.355  1.2737 -0.0590 -0.2687
 2178SOL     OW17992   1.767   3.684   2.051 -0.0638  0.6492  0.0292
 2178SOL    HW117993   1.726   3.618   2.106 -0.9753  0.9834 -0.2572
 2178SOL    HW217994   1.830   3.726   2.109 -2.2125  1.1267  2.0207
 2179SOL     OW17995   2.026   0.481  14.317  0.3301 -0.4452 -0.7261
 2179SOL    HW117996   1.979   0.487  14.234 -0.7761 -2.5480 -0.2420
 2179SOL    HW217997   1.978   0.541  14.373  0.9791 -1.2075  0.6395
 2180SOL     OW17998   1.357   3.220   3.480 -0.2767  0.2811  0.0586
 2180SOL    HW117999   1.334   3.135   3.442 -0.5098  0.5275 -0.3559
 2180SOL    HW218000   1.301   3.274   3.424  0.0234  1.3632  0.8079
 2181SOL     OW18001   4.243   1.974   8.942 -0.5043 -0.6090 -0.2294
 2181SOL    HW118002   4.150   1.953   8.946 -0.6583 -0.2303 -1.8845
 2181SOL    HW218003   4.279   1.885   8.945 -0.5347 -0.6368 -0.7673
 2182SOL     OW18004   0.905   2.794   8.551 -0.0291  0.5817  0.9006
 2182SOL    HW118005   0.970   2.771   8.618 -0.3126  0.0357  0.9933
 2182SOL    HW218006   0.835   2.793   8.617  0.3549 -0.7065  1.3007
 2183SOL     OW18007   2.533   3.889   9.868  0.0846 -0.1960  0.4266
 2183SOL    HW118008   2.522   3.983   9.858  2.0626  0.1130  1.1027
 2183SOL    HW218009   2.596   3.876   9.797 -0.4402 -0.8830  0.0819
 2184SOL     OW18010   0.715   0.819   6.109  0.4079 -0.4338 -0.0009
 2184SOL    HW118011   0.694   0.900   6.156 -3.3291 -0.5190 -1.5336
 2184SOL    HW218012   0.782   0.775   6.161  0.2406  0.3108  0.8493
 2185SOL     OW18013   1.338   4.142   9.545  0.2861 -0.0931  0.1862
 2185SOL    HW118014   1.332   4.164   9.638 -2.0892 -0.2115  0.0619
 2185SOL    HW218015   1.424   4.180   9.532 -0.5203  1.3005 -1.0073
 2186SOL     OW18016   3.427   4.184  15.250 -0.5586 -0.0508 -0.1930
 2186SOL    HW118017   3.424   4.089  15.235 -2.5515  0.4076 -2.7402
 2186SOL    HW218018   3.398   4.224  15.168 -1.3845  0.7124  0.4659
 2187SOL     OW18019   0.630   4.467   3.527 -0.2646 -0.4402  0.4750
 2187SOL    HW118020   0.561   4.442   3.465 -1.2551  0.0670  1.3762
 2187SOL    HW218021   0.652   4.554   3.492 -1.1578 -1.4189 -2.5250
 2188SOL     OW18022   1.397   0.019   3.763  0.3875  0.0253 -0.7724
 2188SOL    HW118023   1.337   4.701   3.701  1.5579 -0.0856 -1.8505
 2188SOL    HW218024   1.417   0.100   3.715  0.7325  0.2594 -0.2426
 2189SOL     OW18025   2.967   0.558   2.980 -0.4636  0.1712 -0.3226
 2189SOL    HW118026   2.945   0.560   2.887  0.6856 -2.0499 -0.6366
 2189SOL    HW218027   2.959   0.652   2.995 -1.9187  0.3355 -2.0713
 2190SOL     OW18028   4.405   0.511  13.075 -0.0651  0.4675 -0.0973
 2190SOL    HW118029   4.419   0.466  12.992 -0.7765  0.9925 -0.5090
 2190SOL    HW218030   4.495   0.506  13.106  0.9561 -0.3617 -3.2540
 2191SOL     OW18031   1.867   3.850   1.844  0.0495  0.3083  0.7489
 2191SOL    HW118032   1.869   3.775   1.903 -1.4181 -0.0682  0.3291
 2191SOL    HW218033   1.942   3.832   1.787 -0.1860  1.5825  0.0372
 2192SOL     OW18034   3.110   0.685   0.448  0.7338 -0.5009  0.2480
 2192SOL    HW118035   3.028   0.669   0.494  1.0872  0.7564  1.3357
 2192SOL    HW218036   3.079   0.650   0.365  0.8135 -3.1150  1.3395
 2193SOL     OW18037   1.924   2.575   8.060 -0.3982 -0.1278 -0.5743
 2193SOL    HW118038   1.918   2.555   7.967 -0.5568 -0.3559 -0.5147
 2193SOL    HW218039   1.838   2.546   8.091 -0.8719  0.6633 -1.1701
 2194SOL     OW18040   2.237   1.597   4.265 -0.0203 -0.0044  0.1016
 2194SOL    HW118041   2.218   1.506   4.290  3.7619 -1.1066 -1.0376
 2194SOL    HW218042   2.220   1.594   4.171 -0.7200 -2.1859  0.2903
 2195SOL     OW18043   4.271   1.383   4.199  0.2935  0.1157  0.2197
 2195SOL    HW118044   4.225   1.334   4.132 -0.4811 -0.1994  0.9936
 2195SOL    HW218045   4.361   1.351   4.187 -0.0827 -0.9121  0.2082
 2196SOL     OW18046   0.893   3.385  16.339  0.1550 -0.1751  0.5434
 2196SOL    HW118047   0.902   3.305  16.391 -3.6300 -0.4925  0.7488
 2196SOL    HW218048   0.929   3.371  16.252 -1.0035  0.2484 -0.0075
 2197SOL     OW18049   0.928   3.171   8.284 -0.2255  0.3177 -0.4343
 2197SOL    HW118050   0.906   3.078   8.276 -0.0332  0.3174 -0.9301
 2197SOL    HW218051   1.020   3.174   8.256  0.1881  2.5032  1.1578
 2198SOL     OW18052   2.912   1.098   7.868 -0.2324  0.1239 -0.3977
 2198SOL    HW118053   2.836   1.041   7.881 -0.3781  0.3578 -0.2084
 2198SOL    HW218054   2.893   1.164   7.935  0.9883  1.4529 -1.3676
 2199SOL     OW18055   0.036   0.149  15.864  0.3495 -0.1710 -0.4355
 2199SOL    HW118056   0.027   0.221  15.802  0.2561  1.0535  1.0097
 2199SOL    HW218057   0.094   0.190  15.928  1.2265  0.9356 -1.9528
 2200SOL     OW18058   1.769   0.707   8.994 -0.0587 -0.0763 -0.3300
 2200SOL    HW118059   1.718   0.654   8.933 -0.1943 -3.0991  2.4320
 2200SOL    HW218060   1.853   0.724   8.950  0.1795 -2.0210 -0.6357
 2201SOL     OW18061   4.072   0.143   3.714  0.2412  0.2125 -0.4701
 2201SOL    HW118062   4.091   0.070   3.654 -1.3690  1.6224 -2.7058
 2201SOL    HW218063   4.027   0.201   3.653  0.8815  0.9585 -0.2286
 2202SOL     OW18064   3.463   0.295   5.805  0.2141  0.0582 -0.2100
 2202SOL    HW118065   3.533   0.311   5.742 -0.1493  2.9328  0.1217
 2202SOL    HW218066   3.437   0.207   5.779 -0.8549 -0.0871  1.3686
 2203SOL     OW18067   1.603   1.244   2.102  0.1746 -0.2169  0.1330
 2203SOL    HW118068   1.654   1.323   2.088 -0.6372  0.0575 -1.2714
 2203SOL    HW218069   1.564   1.260   2.189  1.1701 -0.0626  0.5473
 2204SOL     OW18070   4.680   1.256   2.245  0.1491  0.2765  0.6237
 2204SOL    HW118071   0.001   1.307   2.176  0.2611  3.4269  3.0473
 2204SOL    HW218072   4.590   1.245   2.212  0.7956 -0.0274 -1.0372
 2205SOL     OW18073   4.550   4.194  14.633  0.0750  0.3958 -0.5126
 2205SOL    HW118074   4.511   4.129  14.691 -1.3982  2.4484  0.8189
 2205SOL    HW218075   4.594   4.141  14.567  0.0555  1.2462 -1.2087
 2206SOL     OW18076   4.153   2.588  16.578  0.5847  0.4208  0.0842
 2206SOL    HW118077   4.194   2.636  16.506  2.4181  0.7765  1.3530
 2206SOL    HW218078   4.111   2.663  16.621  2.6236  2.2952 -1.1455
 2207SOL     OW18079   3.776   4.099   6.604 -0.9453 -0.2345 -0.4235
 2207SOL    HW118080   3.828   4.023   6.578  3.1795  1.9770  1.1872
 2207SOL    HW218081   3.802   4.090   6.696  0.0207  1.0685 -0.5694
 2208SOL     OW18082   2.881   2.343   3.144 -0.6042  0.2922 -0.2598
 2208SOL    HW118083   2.795   2.329   3.105 -0.6153 -1.0445  0.2445
 2208SOL    HW218084   2.857   2.341   3.236  4.1884  1.6533  1.0055
 2209SOL     OW18085   3.908   3.859  13.575 -0.2378  0.0425 -0.7290
 2209SOL    HW118086   3.887   3.916  13.500 -1.4525 -1.9579 -1.9251
 2209SOL    HW218087   3.936   3.778  13.531 -0.9994 -0.6952  0.1494
 2210SOL     OW18088   3.391   4.553  12.954  0.5242 -0.2379  0.3775
 2210SOL    HW118089   3.337   4.491  12.906  1.1415  1.5917 -2.6847
 2210SOL    HW218090   3.338   4.632  12.940  0.7081 -0.7154 -3.0439
 2211SOL     OW18091   1.527   1.001   3.448  0.4147 -0.2723  0.6644
 2211SOL    HW118092   1.471   1.059   3.399 -0.1711  0.3077  2.0148
 2211SOL    HW218093   1.620   1.020   3.436 -0.7475  2.6930 -3.2665
 2212SOL     OW18094   0.070   4.150   4.338 -0.7604  0.8523  0.3929
 2212SOL    HW118095   0.062   4.237   4.299 -0.7595 -0.1434 -1.8218
 2212SOL    HW218096   4.721   4.151   4.402 -1.2537  2.8863 -0.2146
 2213SOL     OW18097   0.761   2.317   5.906  0.0642 -0.4303  0.0792
 2213SOL    HW118098   0.680   2.368   5.903  0.7316  0.6708  0.3764
 2213SOL    HW218099   0.748   2.283   5.818  2.3234 -0.4912 -0.2322
 2214SOL     OW18100   1.255   2.532   6.265 -0.6453  0.3077  0.3330
 2214SOL    HW118101   1.348   2.551   6.267 -0.6029  0.0129  1.0724
 2214SOL    HW218102   1.241   2.490   6.180  0.1980  0.0160  0.3395
 2215SOL     OW18103   2.921   1.009  10.423 -0.2429  0.4274  0.0388
 2215SOL    HW118104   2.936   1.092  10.467 -1.7111  0.3928  0.6294
 2215SOL    HW218105   2.887   1.048  10.342  0.5857 -0.8679 -0.9310
 2216SOL     OW18106   2.464   4.191   2.471 -0.4092  0.4399 -0.0880
 2216SOL    HW118107   2.506   4.112   2.506  0.6320  0.1512 -1.9953
 2216SOL    HW218108   2.515   4.202   2.391  0.5062 -1.1281  0.2675
 2217SOL     OW18109   1.455   4.461  12.011  0.1046  0.0609  0.2738
 2217SOL    HW118110   1.375   4.500  12.045  0.0828  0.9211 -0.7408
 2217SOL    HW218111   1.479   4.532  11.951 -1.4788  1.4871  1.3396
 2218SOL     OW18112   3.274   4.643   7.310 -0.4567  0.4338  0.1407
 2218SOL    HW118113   3.252   4.675   7.398  0.3906 -2.1000  1.2757
 2218SOL    HW218114   3.354   4.594   7.329 -1.2119 -1.2171 -1.0065
 2219SOL     OW18115   4.358   0.057   7.126 -0.8918  0.1013  0.7333
 2219SOL    HW118116   4.380   0.106   7.047 -0.0716 -2.4526 -0.6253
 2219SOL    HW218117   4.266   0.081   7.138 -0.4407  2.3221 -0.3279
 2220SOL     OW18118   1.792   4.513   4.345 -0.0810  0.3738 -0.0560
 2220SOL    HW118119   1.719   4.505   4.283 -0.9293 -0.1482  1.0053
 2220SOL    HW218120   1.778   4.463   4.425 -0.4351  0.6826  0.0775
 2221SOL     OW18121   0.298   4.095   9.060 -0.3563  0.6223 -0.2299
 2221SOL    HW118122   0.379   4.058   9.093 -0.2613 -0.6232 -1.8527
 2221SOL    HW218123   0.263   4.120   9.146  2.6743 -0.2451  1.2269
 2222SOL     OW18124   4.382   1.285   4.453 -0.0669 -0.1483 -0.0782
 2222SOL    HW118125   4.436   1.232   4.394 -0.0397  0.4252 -0.5668
 2222SOL    HW218126   4.324   1.328   4.390  0.4985  1.7519  0.6997
 2223SOL     OW18127   4.301   3.369  10.739  0.5522  0.2232  0.1842
 2223SOL    HW118128   4.244   3.443  10.717  2.2740  0.9902 -1.7921
 2223SOL    HW218129   4.337   3.354  10.651 -1.8643  1.4596 -1.0014
 2224SOL     OW18130   3.353   2.129   5.962  0.2039 -0.1232  0.5427
 2224SOL    HW118131   3.420   2.079   5.915  2.2446  1.3475  1.8993
 2224SOL    HW218132   3.381   2.218   5.941  0.7493 -1.0068 -2.5406
 2225SOL     OW18133   3.240   2.995  11.525 -0.0086  0.1665  0.3914
 2225SOL    HW118134   3.271   3.029  11.441 -1.8933 -0.6840 -0.6436
 2225SOL    HW218135   3.318   2.971  11.575  0.2033 -2.5434 -1.2630
 2226SOL     OW18136   0.164   0.416   3.149  0.4445  0.0936 -0.7171
 2226SOL    HW118137   0.090   0.369   3.109 -0.2103 -0.4126  1.1155
 2226SOL    HW218138   0.148   0.504   3.114 -0.6904 -0.4365 -1.5766
 2227SOL     OW18139   1.620   3.453  12.619 -1.1892  0.5027  0.3413
 2227SOL    HW118140   1.591   3.497  12.540  1.5535 -1.4738 -1.7586
 2227SOL    HW218141   1.714   3.466  12.629 -0.7654 -2.5135  0.4080
 2228SOL     OW18142   4.335   3.608   8.010 -0.4451 -0.2453  0.7121
 2228SOL    HW118143   4.344   3.514   7.991 -1.8749 -0.0242 -0.9724
 2228SOL    HW218144   4.316   3.645   7.924 -2.0857  0.6999  1.4842
 2229SOL     OW18145   1.545   1.461   1.267  0.2942  0.5375 -0.0939
 2229SOL    HW118146   1.609   1.416   1.321 -0.4638 -2.2803 -1.5463
 2229SOL    HW218147   1.505   1.525   1.326  3.1378  1.3616  0.8953
 2230SOL     OW18148   1.373   4.203   9.113 -0.1813 -0.5194  0.5612
 2230SOL    HW118149   1.407   4.293   9.117  2.2987 -1.4310 -0.5122
 2230SOL    HW218150   1.413   4.165   9.192  0.1562 -1.2619  0.0249
 2231SOL     OW18151   1.935   2.962   5.693 -0.1384  0.8225  0.9406
 2231SOL    HW118152   2.004   3.025   5.716 -0.2690  1.4687 -0.4321
 2231SOL    HW218153   1.979   2.884   5.726  1.1426  0.6597 -1.1672
 2232SOL     OW18154   0.790   3.822   5.401 -0.1468 -0.1101  0.1077
 2232SOL    HW118155   0.842   3.867   5.334  0.1954 -1.4748 -0.5362
 2232SOL    HW218156   0.708   3.849   5.358  1.4713  1.3163 -2.0846
 2233SOL     OW18157   2.797   4.092   6.001  0.1666  0.3214 -0.4770
 2233SOL    HW118158   2.732   4.114   6.067  1.7317  2.2855  0.4156
 2233SOL    HW218159   2.735   4.075   5.931 -0.5741 -1.8478  0.6938
 2234SOL     OW18160   1.083   0.206  11.350 -0.0878 -0.1130 -0.5125
 2234SOL    HW118161   1.021   0.234  11.418  1.1013  0.3001  0.4064
 2234SOL    HW218162   1.117   0.121  11.377  0.1991  0.1358 -0.0883
 2235SOL     OW18163   3.144   1.324   6.100  0.3002  0.3441 -0.3193
 2235SOL    HW118164   3.122   1.327   6.007  0.0983 -0.5893 -0.2997
 2235SOL    HW218165   3.231   1.361   6.088  0.7966 -0.8967 -0.4978
 2236SOL     OW18166   4.175   4.420   0.133 -0.5431  0.6184  0.1962
 2236SOL    HW118167   4.231   4.495   0.112  1.2580 -0.2029  2.0514
 2236SOL    HW218168   4.087   4.453   0.114 -1.0776 -0.1749  1.2974
 2237SOL     OW18169   3.531   1.712   8.618 -0.1987  0.5120  0.6223
 2237SOL    HW118170   3.624   1.697   8.634 -0.0995 -0.5808 -0.9961
 2237SOL    HW218171   3.539   1.803   8.588  2.3849  0.6631  1.7053
 2238SOL     OW18172   4.151   0.015   1.313 -0.2305 -0.4097 -0.1111
 2238SOL    HW118173   4.062   4.707   1.331 -0.8889  0.9225 -1.0895
 2238SOL    HW218174   4.140   0.075   1.240  0.6751  1.1558  1.0191
 2239SOL     OW18175   2.863   1.195   9.224  0.2959 -0.5071  0.0186
 2239SOL    HW118176   2.807   1.239   9.288 -3.3984 -0.1258 -3.4103
 2239SOL    HW218177   2.803   1.178   9.151  0.9660  2.2109 -1.1725
 2240SOL     OW18178   4.125   0.767  16.919  0.3610  0.3204 -0.3701
 2240SOL    HW118179   4.112   0.747  17.011  2.1029 -0.0330 -0.1990
 2240SOL    HW218180   4.107   0.677  16.890 -1.6698  0.4399  0.5667
 2241SOL     OW18181   1.355   4.250   2.856 -0.1583  0.3229 -0.4798
 2241SOL    HW118182   1.323   4.163   2.881 -2.1590  1.0755 -0.4609
 2241SOL    HW218183   1.417   4.264   2.927 -0.5790 -0.0477 -0.0409
 2242SOL     OW18184   1.967   0.126   1.972 -0.1190  0.3222 -0.2934
 2242SOL    HW118185   1.895   0.063   1.967 -1.3862  1.7615 -0.1454
 2242SOL    HW218186   1.974   0.159   1.883  0.1439 -0.8246 -0.7000
 2243SOL     OW18187   3.991   0.234   3.270 -0.1710  0.1265  0.4323
 2243SOL    HW118188   3.907   0.190   3.260 -0.5507  0.8776  0.2884
 2243SOL    HW218189   4.053   0.166   3.245  0.1601  0.9784 -1.0491
 2244SOL     OW18190   3.415   4.253   4.745 -0.2532 -0.4653  0.0181
 2244SOL    HW118191   3.338   4.200   4.761 -0.4504 -0.5204 -1.1445
 2244SOL    HW218192   3.437   4.226   4.656 -1.9899  0.2942 -0.6278
 2245SOL     OW18193   3.780   1.264   8.153 -0.2394 -0.2615  0.3136
 2245SOL    HW118194   3.811   1.235   8.238 -1.1080 -3.2713 -0.4146
 2245SOL    HW218195   3.705   1.205   8.148 -0.6231  0.3403 -1.0672
 2246SOL     OW18196   1.111   1.608  10.070  0.4607  0.3692  0.0957
 2246SOL    HW118197   1.151   1.537  10.121 -1.5405  0.3161  1.5888
 2246SOL    HW218198   1.047   1.639  10.134  0.4363 -0.5419  0.5134
 2247SOL     OW18199   2.461   2.650  15.925  0.0836 -0.5847 -0.3670
 2247SOL    HW118200   2.494   2.711  15.992  0.0169  0.1515 -1.0079
 2247SOL    HW218201   2.537   2.593  15.916 -0.2064 -1.0777  0.3109
 2248SOL     OW18202   3.912   1.865  12.357 -0.6342  0.1114  0.5715
 2248SOL    HW118203   3.970   1.838  12.428  0.5990  0.7353 -0.1952
 2248SOL    HW218204   3.876   1.789  12.311  1.9751 -0.5465 -0.3427
 2249SOL     OW18205   0.990   2.305   3.847 -0.1713 -0.1772 -0.0040
 2249SOL    HW118206   1.026   2.222   3.816  0.3279  0.7512 -1.9040
 2249SOL    HW218207   0.987   2.356   3.767  0.2580  0.4586  0.3838
 2250SOL     OW18208   4.082   0.569   6.999  0.2266  0.0638 -0.3315
 2250SOL    HW118209   4.056   0.637   7.061 -1.9095  1.2277 -2.4834
 2250SOL    HW218210   4.169   0.600   6.976  1.0269 -1.0437  1.2616
 2251SOL     OW18211   0.278   1.128   5.665 -1.2060 -0.1693  0.3592
 2251SOL    HW118212   0.215   1.175   5.610 -0.1935 -0.3243 -0.9196
 2251SOL    HW218213   0.240   1.041   5.677 -1.3062  0.0481  1.5614
 2252SOL     OW18214   0.682   3.319   6.201  0.1212  0.5336 -0.2498
 2252SOL    HW118215   0.676   3.260   6.277 -1.8989  1.8882  0.6569
 2252SOL    HW218216   0.683   3.403   6.247  0.4627  0.7617 -0.6815
 2253SOL     OW18217   0.641   1.524   3.577  0.7407  0.5299 -0.0522
 2253SOL    HW118218   0.694   1.585   3.527  2.4241 -0.4086  0.6146
 2253SOL    HW218219   0.628   1.587   3.649  1.5295  0.7400 -0.1022
 2254SOL     OW18220   0.420   1.175   6.776  0.0509 -0.3275  0.1116
 2254SOL    HW118221   0.444   1.152   6.866 -0.0582 -0.6385  0.0632
 2254SOL    HW218222   0.326   1.156   6.781  0.0539 -0.3453  0.1030
 2255SOL     OW18223   0.505   1.968   2.264  0.1814 -0.1041  0.0990
 2255SOL    HW118224   0.453   1.908   2.211  1.1654 -0.1004 -0.8696
 2255SOL    HW218225   0.465   1.962   2.351 -0.2359  0.6197 -0.0477
 2256SOL     OW18226   0.178   4.643  15.793 -0.6294  0.2227 -0.3499
 2256SOL    HW118227   0.143   0.009  15.808 -1.5410 -0.1828 -0.1159
 2256SOL    HW218228   0.161   4.638  15.699 -2.5049  2.5332 -0.1467
 2257SOL     OW18229   0.151   1.920  11.671  0.0669  0.1810 -0.1257
 2257SOL    HW118230   0.107   1.840  11.643  1.5739 -1.5483  2.5573
 2257SOL    HW218231   0.241   1.893  11.653  0.2552  1.4741 -1.1415
 2258SOL     OW18232   0.220   0.942   7.991  0.2488 -0.4168 -0.0179
 2258SOL    HW118233   0.128   0.961   7.970 -0.4454 -2.4954  1.1110
 2258SOL    HW218234   0.219   0.961   8.085 -1.7683  0.0398 -0.1233
 2259SOL     OW18235   0.434   0.944  11.646 -0.2697  0.5459  0.2819
 2259SOL    HW118236   0.399   0.903  11.567  0.6440 -0.8661  0.5973
 2259SOL    HW218237   0.466   1.021  11.599 -2.2419  0.5106 -1.1008
 2260SOL     OW18238   1.716   1.857   2.111 -0.1545  0.2881 -0.0275
 2260SOL    HW118239   1.665   1.777   2.123 -0.5269  0.4249 -0.6910
 2260SOL    HW218240   1.727   1.878   2.204  1.0589 -0.6045  0.0248
 2261SOL     OW18241   0.143   2.466  10.107  0.2505 -0.6082  0.0343
 2261SOL    HW118242   0.088   2.544  10.120 -0.1827 -1.0111  0.6573
 2261SOL    HW218243   0.178   2.452  10.195  1.1110 -1.1549 -0.4044
 2262SOL     OW18244   2.784   3.066  15.082  0.2301 -0.1928  0.1299
 2262SOL    HW118245   2.862   3.032  15.126 -1.0207 -0.0902  2.4303
 2262SOL    HW218246   2.714   3.010  15.117  1.4802 -0.8646  1.5675
 2263SOL     OW18247   4.508   0.229   8.399  0.3813 -0.4520  0.0306
 2263SOL    HW118248   4.594   0.246   8.361 -0.0531 -0.8386 -1.1059
 2263SOL    HW218249   4.490   0.140   8.369 -0.1055 -0.7571  1.2377
 2264SOL     OW18250   4.239   3.215   6.528 -0.6964 -0.0209 -0.3790
 2264SOL    HW118251   4.185   3.159   6.584  0.1060 -0.8416 -0.4161
 2264SOL    HW218252   4.183   3.290   6.508 -0.3037  0.2257 -0.5350
 2265SOL     OW18253   0.972   0.349   6.858  0.0401  0.3629  0.2556
 2265SOL    HW118254   1.025   0.306   6.925 -0.1728  0.7981  0.7061
 2265SOL    HW218255   0.983   0.441   6.885  0.6726  0.6465 -0.9760
 2266SOL     OW18256   4.492   2.196  10.247 -0.0005 -0.3826  0.4312
 2266SOL    HW118257   4.566   2.206  10.187  0.0126 -2.7502  0.0851
 2266SOL    HW218258   4.418   2.192  10.186 -0.0132 -1.8944  0.5680
 2267SOL     OW18259   1.627   0.479   4.153  0.4556  0.1839  0.3498
 2267SOL    HW118260   1.677   0.467   4.073  0.8628  1.9002  0.3324
 2267SOL    HW218261   1.571   0.556   4.138 -1.3495 -1.4458 -1.2317
 2268SOL     OW18262   2.767   3.551  17.678  0.4368 -0.3950  0.2020
 2268SOL    HW118263   2.711   3.603  17.621 -0.5349 -2.5034 -0.7452
 2268SOL    HW218264   2.842   3.611  17.676 -0.3189  0.4650 -1.6628
 2269SOL     OW18265   0.856   3.031  17.485  0.4734  0.6166  0.2176
 2269SOL    HW118266   0.807   2.987  17.555 -0.6905  2.0804  0.3317
 2269SOL    HW218267   0.781   3.045  17.427  0.9892 -3.9559 -1.5188
 2270SOL     OW18268   1.056   2.277   6.872 -0.2034  0.3440 -0.7332
 2270SOL    HW118269   1.022   2.264   6.783 -0.4955  0.6952 -0.6728
 2270SOL    HW218270   1.048   2.187   6.902  2.0191  0.0995 -0.8736
 2271SOL     OW18271   1.138   0.415  10.385 -0.0726  0.6452  0.4528
 2271SOL    HW118272   1.134   0.445  10.294  0.3633  0.7347  0.4660
 2271SOL    HW218273   1.130   0.320  10.376 -0.1525  0.5170  1.8732
 2272SOL     OW18274   3.379   4.710   5.263 -0.0674  0.4548 -0.1265
 2272SOL    HW118275   3.432   4.666   5.329 -1.5400 -0.2461  0.5842
 2272SOL    HW218276   3.375   0.071   5.310 -2.5643 -0.7924  1.8021
 2273SOL     OW18277   1.109   2.072   4.758 -0.0757  0.0121 -0.1027
 2273SOL    HW118278   1.031   2.122   4.781 -0.4071 -1.2019  1.3927
 2273SOL    HW218279   1.147   2.129   4.691 -0.6613  0.9560  0.3859
 2274SOL     OW18280   1.139   1.804   1.875  0.2044 -0.0850 -0.2267
 2274SOL    HW118281   1.138   1.787   1.969 -1.2526  0.1594 -0.2058
 2274SOL    HW218282   1.048   1.813   1.848  0.1274  3.0612  1.0392
 2275SOL     OW18283   3.908   1.382   3.651  0.0819 -0.4484 -0.0100
 2275SOL    HW118284   3.820   1.405   3.621 -0.1785 -1.0346  0.3098
 2275SOL    HW218285   3.903   1.286   3.654 -3.4968 -0.2603 -0.2072
 2276SOL     OW18286   3.313   0.060   3.736  0.3552  0.1236  0.4645
 2276SOL    HW118287   3.389   0.052   3.793 -0.4062 -2.2579  1.1365
 2276SOL    HW218288   3.343   0.122   3.669 -2.1233 -1.1562 -1.8064
 2277SOL     OW18289   2.088   1.200   1.754  0.2716  0.2258  1.0535
 2277SOL    HW118290   2.083   1.137   1.826 -1.1924 -0.0604  0.6977
 2277SOL    HW218291   2.159   1.260   1.778  2.5040 -2.0134 -0.0061
 2278SOL     OW18292   1.539   2.948   5.150  0.3437 -0.5895  0.2744
 2278SOL    HW118293   1.448   2.946   5.178  0.2634  0.1913  0.0495
 2278SOL    HW218294   1.537   2.859   5.115 -0.2472 -0.7842  0.8077
 2279SOL     OW18295   1.468   3.285  10.216  0.0426  0.8323  0.5954
 2279SOL    HW118296   1.522   3.297  10.294 -0.2079 -0.4717  0.9752
 2279SOL    HW218297   1.536   3.283  10.149 -1.2114  1.9650 -0.7253
 2280SOL     OW18298   4.128   4.557  13.628 -0.3292 -0.4485  0.1670
 2280SOL    HW118299   4.170   4.564  13.543  0.3588 -0.9536  0.4716
 2280SOL    HW218300   4.196   4.569  13.694 -0.1109  2.2978 -0.5651
 2281SOL     OW18301   2.018   3.654   9.265  0.5300 -0.4110 -0.0611
 2281SOL    HW118302   2.098   3.666   9.315  1.2976  0.8991 -1.6111
 2281SOL    HW218303   1.968   3.605   9.331 -0.4378 -0.3625 -0.7456
 2282SOL     OW18304   0.961   0.715   3.855  0.2785 -0.0954  0.4857
 2282SOL    HW118305   0.924   0.760   3.779  1.7287 -1.5139 -1.0538
 2282SOL    HW218306   1.054   0.735   3.853  0.6937 -2.1439 -0.8518
 2283SOL     OW18307   1.798   3.257  16.876 -0.0544 -0.7946  0.1186
 2283SOL    HW118308   1.845   3.340  16.865 -0.1542 -0.3269  3.1594
 2283SOL    HW218309   1.736   3.264  16.804  1.3013  0.7921 -0.8928
 2284SOL     OW18310   4.652   2.669  10.055 -0.0504  0.2462 -0.3238
 2284SOL    HW118311   4.561   2.690  10.035 -0.5040 -1.3340  0.0721
 2284SOL    HW218312   4.665   2.739  10.119  0.7421 -0.6540  0.5001
 2285SOL     OW18313   1.786   0.801   5.114 -0.3910  0.1432 -0.8392
 2285SOL    HW118314   1.800   0.779   5.022 -0.1576 -0.1948 -0.7239
 2285SOL    HW218315   1.726   0.732   5.142 -1.5948  1.5801  0.1384
 2286SOL     OW18316   3.918   1.130  11.705 -0.2244 -0.2514  0.0892
 2286SOL    HW118317   3.993   1.181  11.672 -3.0171  2.2842 -2.3739
 2286SOL    HW218318   3.963   1.094  11.781 -0.1359  0.6278  0.4523
 2287SOL     OW18319   3.473   0.529   2.336  0.3018  0.1258 -0.1160
 2287SOL    HW118320   3.559   0.544   2.374  1.0822  0.0622 -1.8576
 2287SOL    HW218321   3.452   0.621   2.319 -2.9540 -0.6749 -0.3790
 2288SOL     OW18322   4.646   4.212   4.556  0.4073 -0.3566  0.6659
 2288SOL    HW118323   4.587   4.285   4.573  0.3010 -0.4668  0.7733
 2288SOL    HW218324   4.620   4.152   4.626  0.2682  0.9563  1.7285
 2289SOL     OW18325   2.742   1.499   5.029  0.1400 -0.2361  0.0165
 2289SOL    HW118326   2.810   1.530   5.089  0.9953 -2.2436  0.0947
 2289SOL    HW218327   2.795   1.507   4.950 -2.0733  1.5970 -1.2484
 2290SOL     OW18328   2.619   3.758   4.139  0.0824 -0.1791  0.5103
 2290SOL    HW118329   2.653   3.818   4.205  1.6613 -0.9081  0.3552
 2290SOL    HW218330   2.693   3.699   4.124 -0.7287 -0.5442 -1.9862
 2291SOL     OW18331   3.486   0.329   6.894 -0.1773 -0.1225 -0.4485
 2291SOL    HW118332   3.392   0.346   6.904  0.2728  1.2608  1.4911
 2291SOL    HW218333   3.513   0.359   6.981 -1.3597 -0.4542  0.0328
 2292SOL     OW18334   3.680   0.628   3.328 -0.4801  0.8295  0.0127
 2292SOL    HW118335   3.648   0.650   3.416 -0.0325  1.4941  0.0137
 2292SOL    HW218336   3.774   0.647   3.337  0.1308 -2.9538  1.2720
 2293SOL     OW18337   1.859   0.365   3.198  0.2041 -0.9860  0.3780
 2293SOL    HW118338   1.940   0.357   3.148  0.6617  0.1776  0.9380
 2293SOL    HW218339   1.900   0.338   3.281 -0.0365 -2.2509  0.0901
 2294SOL     OW18340   3.556   2.527   2.071 -0.3505 -0.8944  0.2200
 2294SOL    HW118341   3.498   2.572   2.010  0.7806  0.0600 -0.1672
 2294SOL    HW218342   3.600   2.595   2.122 -0.2134 -1.9727  1.5365
 2295SOL     OW18343   4.181   2.249   6.813  0.2259 -0.3817 -0.0511
 2295SOL    HW118344   4.119   2.316   6.842  0.5465 -1.4176  3.0746
 2295SOL    HW218345   4.210   2.282   6.728 -0.0023 -0.9719 -0.3501
 2296SOL     OW18346   3.642   2.390  11.939  0.1034  0.6531  0.0189
 2296SOL    HW118347   3.729   2.355  11.959  0.2283  1.8592  1.6164
 2296SOL    HW218348   3.585   2.314  11.955 -2.0225  1.5723 -3.2244
 2297SOL     OW18349   3.524   1.961   5.818  0.0610 -0.2928 -0.6977
 2297SOL    HW118350   3.576   1.952   5.898  0.7027 -0.2100 -1.1037
 2297SOL    HW218351   3.460   1.892   5.835  0.1063  0.1792  1.3849
 2298SOL     OW18352   1.430   2.406   4.165  0.6253 -0.4384  0.5966
 2298SOL    HW118353   1.383   2.479   4.205 -1.8909 -1.4281 -0.5835
 2298SOL    HW218354   1.517   2.429   4.198  0.6548 -2.0437  1.6210
 2299SOL     OW18355   1.951   2.558   5.081 -0.5114 -0.3442 -0.1968
 2299SOL    HW118356   1.864   2.520   5.098 -1.1508  1.0828 -0.2807
 2299SOL    HW218357   1.937   2.646   5.048  1.3716  0.3374  0.8298
 2300SOL     OW18358   0.872   1.711   0.920  0.1871 -0.7203  0.6985
 2300SOL    HW118359   0.834   1.653   0.986  1.0710  0.0561  1.8841
 2300SOL    HW218360   0.863   1.797   0.961 -0.0418 -0.5170  0.2228
 2301SOL     OW18361   4.296   2.541   3.854 -0.8486  0.3036  0.4450
 2301SOL    HW118362   4.363   2.609   3.858 -0.4351  0.0592 -2.9533
 2301SOL    HW218363   4.327   2.471   3.911 -1.1737 -0.3678 -0.2144
 2302SOL     OW18364   4.019   3.454   4.057  0.0390  0.0601 -0.2846
 2302SOL    HW118365   4.085   3.512   4.094  0.5506 -0.7697  0.1112
 2302SOL    HW218366   3.941   3.490   4.099  0.5390 -2.6434  3.0347
 2303SOL     OW18367   1.793   4.151   2.894  0.2810 -0.2540 -0.4932
 2303SOL    HW118368   1.823   4.221   2.952  0.5526 -0.2993 -0.5789
 2303SOL    HW218369   1.713   4.128   2.941  1.0675  0.0260  0.9844
 2304SOL     OW18370   1.941   4.569   9.100 -0.4364  0.2181  0.1194
 2304SOL    HW118371   1.912   4.647   9.149 -2.2195  0.1549 -0.8243
 2304SOL    HW218372   1.927   4.595   9.009  0.5612 -1.0060 -0.3771
 2305SOL     OW18373   1.476   3.261  13.771 -0.0179 -0.0206 -0.4019
 2305SOL    HW118374   1.460   3.258  13.676  1.6496  2.6500 -0.7482
 2305SOL    HW218375   1.561   3.302  13.779  0.6702 -1.7801  1.2121
 2306SOL     OW18376   2.330   1.625   5.520 -0.1624 -0.2340  0.4352
 2306SOL    HW118377   2.263   1.596   5.459 -1.2434  3.1147  0.0334
 2306SOL    HW218378   2.281   1.624   5.602 -1.0697 -1.0525 -0.1249
 2307SOL     OW18379   1.403   0.604   8.018 -0.3119 -0.3717  0.1896
 2307SOL    HW118380   1.326   0.660   8.015  0.6117  0.9328  0.6219
 2307SOL    HW218381   1.401   0.553   7.937 -2.9670  0.3156 -0.1852
 2308SOL     OW18382   1.896   2.289   9.062 -0.5500 -0.7079 -0.2243
 2308SOL    HW118383   1.887   2.240   9.144 -1.0494  1.2073  0.8568
 2308SOL    HW218384   1.971   2.240   9.028  0.8899  1.1807  0.2990
 2309SOL     OW18385   3.726   1.993   8.995  0.1529  0.1992  0.1619
 2309SOL    HW118386   3.650   2.013   8.940 -1.4162 -0.7105  2.0015
 2309SOL    HW218387   3.688   1.972   9.080 -0.2777  3.1673  0.7236
 2310SOL     OW18388   2.109   0.190  12.028 -0.4044  0.3243  0.2178
 2310SOL    HW118389   2.060   0.108  12.042 -0.0115  0.2289  1.0306
 2310SOL    HW218390   2.198   0.166  12.052 -0.7888 -0.0781  1.2392
 2311SOL     OW18391   2.572   2.086   6.302  0.2357  0.0813 -0.0108
 2311SOL    HW118392   2.538   2.072   6.214  0.8876  1.3397 -0.4654
 2311SOL    HW218393   2.650   2.141   6.288  0.4126  0.0528  0.8517
 2312SOL     OW18394   1.395   3.802   2.658 -0.4433  0.2444  0.0570
 2312SOL    HW118395   1.400   3.735   2.589  1.7396  1.7507 -1.2539
 2312SOL    HW218396   1.487   3.806   2.686  0.0972 -1.2532 -1.4512
 2313SOL     OW18397   2.715   4.045   7.008  0.1148  0.4210 -0.1908
 2313SOL    HW118398   2.803   4.074   6.980  0.2958  1.5244  1.5240
 2313SOL    HW218399   2.690   3.981   6.941  0.7366 -1.6004  1.5069
 2314SOL     OW18400   4.641   0.471   4.638  0.4571  0.0041 -0.0187
 2314SOL    HW118401   4.641   0.377   4.653 -1.7646  0.2218  1.4097
 2314SOL    HW218402   4.610   0.500   4.724 -0.5823 -1.4519  0.1066
 2315SOL     OW18403   4.118   4.053  12.730 -0.3812 -0.0009  0.3269
 2315SOL    HW118404   4.062   3.979  12.755  1.1637 -0.3547  2.7109
 2315SOL    HW218405   4.197   4.031  12.778  0.3533  0.5572 -0.6295
 2316SOL     OW18406   0.552   0.718  16.125 -0.1030 -0.3335  0.2698
 2316SOL    HW118407   0.472   0.760  16.097  0.5297  1.8210  1.6624
 2316SOL    HW218408   0.585   0.679  16.044 -2.5815  0.9611 -1.3404
 2317SOL     OW18409   1.754   1.419   1.442 -0.1110 -0.7322  0.1850
 2317SOL    HW118410   1.686   1.421   1.510  0.4052  0.7933  0.6442
 2317SOL    HW218411   1.833   1.440   1.492 -1.1866  0.2303  1.4806
 2318SOL     OW18412   3.454   3.193  12.319  1.1196 -0.0353 -0.4012
 2318SOL    HW118413   3.492   3.187  12.231 -0.3359 -1.2692 -0.9407
 2318SOL    HW218414   3.437   3.102  12.343  0.8206  0.4339  1.1556
 2319SOL     OW18415   3.404   2.086   6.267 -0.9004  1.0842 -0.4537
 2319SOL    HW118416   3.315   2.103   6.236 -0.4230  1.3443 -1.7075
 2319SOL    HW218417   3.378   2.087   6.359  1.3099  0.3622  0.1739
 2320SOL     OW18418   0.016   0.546   5.436  0.1393  0.0710 -0.2833
 2320SOL    HW118419   4.661   0.577   5.484  0.8863  2.4707 -0.6157
 2320SOL    HW218420   0.002   0.593   5.354 -0.2266 -1.9689 -1.3913
 2321SOL     OW18421   0.660   0.185   5.913  0.0982 -0.3589  0.4465
 2321SOL    HW118422   0.680   0.105   5.865 -0.5630 -1.4550  1.9977
 2321SOL    HW218423   0.565   0.176   5.923 -0.0418 -0.1684 -0.6973
 2322SOL     OW18424   2.966   0.575  12.808  0.4966  0.2622 -0.0977
 2322SOL    HW118425   2.881   0.583  12.852  0.6169 -1.7439  0.5328
 2322SOL    HW218426   3.022   0.578  12.885  1.2307 -0.7187 -0.5873
 2323SOL     OW18427   4.304   1.753   6.649 -0.4445 -0.1465 -0.3847
 2323SOL    HW118428   4.271   1.664   6.633 -1.1001 -0.0560  0.5043
 2323SOL    HW218429   4.230   1.790   6.696 -0.2498 -0.5804  0.2754
 2324SOL     OW18430   3.077   4.140   2.998  0.0451 -0.4046 -0.2400
 2324SOL    HW118431   3.106   4.120   2.909  2.6246  0.6470  0.3848
 2324SOL    HW218432   3.160   4.138   3.045 -0.2377 -0.5832  0.2484
 2325SOL     OW18433   0.333   2.849   8.612  0.2889 -0.3017  0.0676
 2325SOL    HW118434   0.372   2.929   8.575  0.5354 -1.8722 -3.0789
 2325SOL    HW218435   0.257   2.884   8.658 -0.5737 -1.5417 -0.4316
 2326SOL     OW18436   1.086   4.449   6.214  0.7485  0.1752 -0.7088
 2326SOL    HW118437   1.031   4.413   6.144 -1.0605  1.2222  0.1856
 2326SOL    HW218438   1.046   4.532   6.241  1.4439  0.6982 -1.2741
 2327SOL     OW18439   2.890   3.281  14.964  0.1195 -0.3388  0.6910
 2327SOL    HW118440   2.853   3.203  15.006  1.5150 -1.6263 -0.4575
 2327SOL    HW218441   2.979   3.250  14.947  0.3461  0.3437  0.6600
 2328SOL     OW18442   4.283   1.805   3.199 -0.2444 -0.6968  0.5604
 2328SOL    HW118443   4.340   1.864   3.151 -0.6510  0.0298  0.9655
 2328SOL    HW218444   4.315   1.720   3.169  0.8473 -0.2836  0.5454
 2329SOL     OW18445   1.896   3.464   2.264  0.5118  0.0495 -0.6736
 2329SOL    HW118446   1.904   3.440   2.172  0.7849 -0.4970 -0.5083
 2329SOL    HW218447   1.986   3.446   2.289  0.8160  2.4069 -0.0964
 2330SOL     OW18448   1.240   4.656  15.878 -0.0136 -0.2082  0.4718
 2330SOL    HW118449   1.307   4.722  15.861 -0.3458 -0.1990 -0.8385
 2330SOL    HW218450   1.162   4.707  15.853  0.6606  0.0103 -1.1917
 2331SOL     OW18451   2.394   1.145   8.825 -0.5754  0.6579 -0.4896
 2331SOL    HW118452   2.334   1.214   8.855 -2.5682  0.1707 -3.3366
 2331SOL    HW218453   2.430   1.167   8.739  1.9269  0.3492  0.4927
 2332SOL     OW18454   2.728   0.882  13.447  0.3734  0.0477 -0.0905
 2332SOL    HW118455   2.667   0.827  13.496  1.0432 -1.2765 -0.7374
 2332SOL    HW218456   2.680   0.963  13.461  1.4048  0.3643  1.6394
 2333SOL     OW18457   1.251   4.003   2.937  0.2840 -0.4251  0.3138
 2333SOL    HW118458   1.169   4.007   2.985  0.2578  2.1228  0.0606
 2333SOL    HW218459   1.291   3.922   2.967 -1.2571 -0.8860  1.1351
 2334SOL     OW18460   0.586   4.215   1.073  0.0636  0.3164 -0.2084
 2334SOL    HW118461   0.652   4.199   1.005  1.1295  3.0137  0.1911
 2334SOL    HW218462   0.608   4.305   1.093  1.3684 -0.2375  0.8173
 2335SOL     OW18463   4.405   3.287   3.464 -0.1275  0.2799 -0.0935
 2335SOL    HW118464   4.497   3.278   3.439 -0.1279 -0.2775  0.1212
 2335SOL    HW218465   4.365   3.225   3.403  1.4917  0.4160 -1.2866
 2336SOL     OW18466   2.432   0.603   1.567 -0.1453 -0.5958 -0.3869
 2336SOL    HW118467   2.423   0.649   1.483 -1.4416  1.5319  0.9327
 2336SOL    HW218468   2.441   0.510   1.548  0.3470 -0.9776  1.7380
 2337SOL     OW18469   3.472   2.693   2.825  0.0290 -0.1014  0.0648
 2337SOL    HW118470   3.530   2.751   2.777 -1.5505  0.6129 -0.9794
 2337SOL    HW218471   3.432   2.751   2.890 -0.3937  0.7546 -0.9720
 2338SOL     OW18472   1.221   2.343  14.596  0.1272  0.0673  0.3071
 2338SOL    HW118473   1.273   2.264  14.589 -1.3442 -0.7380 -1.4601
 2338SOL    HW218474   1.272   2.395  14.534 -1.5144 -0.7525 -1.7549
 2339SOL     OW18475   2.483   3.510  15.142  0.2755 -0.0270 -0.5839
 2339SOL    HW118476   2.536   3.478  15.068 -0.2299 -1.7927 -0.1749
 2339SOL    HW218477   2.510   3.449  15.211 -0.1584 -0.4533 -0.7864
 2340SOL     OW18478   4.364   0.422   9.459 -0.0408  0.1629 -0.3739
 2340SOL    HW118479   4.338   0.461   9.375 -6.3909 -0.8206  1.0920
 2340SOL    HW218480   4.315   0.475   9.522  2.5197  1.6257  0.3721
 2341SOL     OW18481   2.215   0.167   6.403 -0.1218 -0.2558 -0.5223
 2341SOL    HW118482   2.176   0.235   6.459 -2.7536  0.2315 -2.9623
 2341SOL    HW218483   2.301   0.208   6.410 -0.3757  0.5158 -1.8318
 2342SOL     OW18484   2.445   4.718  16.334  0.0923  0.1250 -0.3281
 2342SOL    HW118485   2.473   4.651  16.273 -0.6884 -0.9772  0.5191
 2342SOL    HW218486   2.480   0.070  16.283 -1.3488  0.4098 -0.9172
 2343SOL     OW18487   0.594   3.771   9.878 -0.3533 -0.4816 -0.0436
 2343SOL    HW118488   0.671   3.792   9.931 -0.8612 -1.0213  0.9058
 2343SOL    HW218489   0.549   3.855   9.883  2.1304  0.8754 -0.3875
 2344SOL     OW18490   3.882   4.321   2.862  0.0256 -0.0042  0.1611
 2344SOL    HW118491   3.819   4.295   2.795 -1.4547  1.7221  0.8619
 2344SOL    HW218492   3.955   4.261   2.850  0.8125  1.1878 -1.1325
 2345SOL     OW18493   4.413   0.351   8.648 -0.1160  0.0338 -0.1409
 2345SOL    HW118494   4.337   0.294   8.643  0.0967 -0.5069  3.3393
 2345SOL    HW218495   4.440   0.346   8.556  0.6553  1.5942 -0.0067
 2346SOL     OW18496   1.319   3.174   5.294  0.2885  0.0034 -0.2274
 2346SOL    HW118497   1.292   3.156   5.204  0.5049  0.8887 -0.4722
 2346SOL    HW218498   1.247   3.131   5.340  1.7905  0.2936  2.4097
 2347SOL     OW18499   0.151   3.385   1.541  0.0438  0.3060 -0.1880
 2347SOL    HW118500   0.224   3.324   1.555 -1.8449 -2.0138 -0.4655
 2347SOL    HW218501   0.131   3.376   1.448  1.9354 -0.8735 -0.4825
 2348SOL     OW18502   1.351   2.931  12.233  0.0548  0.7322 -0.0312
 2348SOL    HW118503   1.371   3.008  12.179 -1.9786  0.2834 -1.4165
 2348SOL    HW218504   1.414   2.939  12.304  0.6559 -1.4033 -0.2990
 2349SOL     OW18505   2.418   3.538  11.224 -0.0898 -0.5600 -0.3557
 2349SOL    HW118506   2.429   3.485  11.303  1.1019 -1.1415 -0.9099
 2349SOL    HW218507   2.409   3.479  11.149  5.1030 -2.5878  0.6900
 2350SOL     OW18508   1.865   2.404   7.354 -0.5854 -0.1081 -0.4138
 2350SOL    HW118509   1.833   2.400   7.264 -2.6371 -0.5883  0.3351
 2350SOL    HW218510   1.928   2.476   7.360  0.6316 -1.0051 -2.4054
 2351SOL     OW18511   3.206   3.125   4.971  0.9657  0.2551 -0.2067
 2351SOL    HW118512   3.201   3.031   4.954  2.5009 -0.0448  0.9941
 2351SOL    HW218513   3.212   3.169   4.886 -0.8784 -0.4672 -0.7206
 2352SOL     OW18514   0.385   4.509  13.069  0.0339 -0.3423  0.0337
 2352SOL    HW118515   0.327   4.438  13.097 -0.1289  0.7455  2.3914
 2352SOL    HW218516   0.471   4.477  13.042  0.3000  1.5258 -1.3583
 2353SOL     OW18517   1.196   0.772   4.716 -0.2794  0.1242  0.4001
 2353SOL    HW118518   1.181   0.864   4.692  0.8605 -0.3417 -2.1767
 2353SOL    HW218519   1.114   0.733   4.688  0.2849 -0.3994 -0.5435
 2354SOL     OW18520   1.561   3.463   8.912  0.3185  0.3177 -0.4147
 2354SOL    HW118521   1.604   3.547   8.899 -1.7318  1.3932 -0.3203
 2354SOL    HW218522   1.629   3.413   8.957  1.2318  1.2976 -0.6965
 2355SOL     OW18523   1.061   3.565   8.285  0.1689  0.1507 -0.0573
 2355SOL    HW118524   1.000   3.510   8.334  1.1505  0.1838  1.2017
 2355SOL    HW218525   1.002   3.638   8.266  1.2934  0.3836 -2.6910
 2356SOL     OW18526   3.333   4.248  15.912  0.0002 -0.3967 -0.5924
 2356SOL    HW118527   3.330   4.216  15.821  1.3115 -0.1525 -0.7275
 2356SOL    HW218528   3.314   4.340  15.892 -1.2442 -0.8980 -1.7722
 2357SOL     OW18529   3.778   2.492   8.528  0.1748  0.1864  0.3277
 2357SOL    HW118530   3.768   2.566   8.469  0.6644  0.0773  0.1083
 2357SOL    HW218531   3.699   2.441   8.512 -0.0786 -0.1826  2.7060
 2358SOL     OW18532   0.470   4.345  14.842 -0.1023 -0.1410 -0.0513
 2358SOL    HW118533   0.524   4.270  14.818  0.3602 -0.0311  0.6541
 2358SOL    HW218534   0.543   4.405  14.854 -0.2436  0.0463 -0.1196
 2359SOL     OW18535   4.277   0.959   1.835 -0.5224  0.0076  0.0430
 2359SOL    HW118536   4.255   0.866   1.841  0.0071  0.0581  3.1981
 2359SOL    HW218537   4.215   0.994   1.771  0.9240  2.8260  0.1667
 2360SOL     OW18538   0.132   3.925   6.531 -0.3351 -0.5590 -1.0098
 2360SOL    HW118539   0.112   3.838   6.494 -0.1955 -0.4659 -1.3094
 2360SOL    HW218540   0.075   3.914   6.607  0.5072  0.7533 -0.1985
 2361SOL     OW18541   0.726   3.210   6.697 -0.6832  0.5975 -0.4361
 2361SOL    HW118542   0.771   3.126   6.706 -1.9738 -0.0020  0.6256
 2361SOL    HW218543   0.641   3.170   6.717  0.0746  0.6857  2.9663
 2362SOL     OW18544   2.988   2.898  16.448 -0.3242 -0.0059  0.7331
 2362SOL    HW118545   3.044   2.958  16.400 -0.6109  0.0550  0.4771
 2362SOL    HW218546   2.985   2.818  16.394 -0.9034  0.0417  0.6948
 2363SOL     OW18547   0.501   1.344  13.167  0.1816  0.2936  0.2871
 2363SOL    HW118548   0.545   1.425  13.193  0.8991 -0.0275  0.0680
 2363SOL    HW218549   0.571   1.300  13.118  0.4882 -0.0542  1.0288
 2364SOL     OW18550   0.332   4.141   1.006  0.5202  0.1133 -0.4786
 2364SOL    HW118551   0.425   4.160   1.014  0.6059 -1.5623  2.4466
 2364SOL    HW218552   0.327   4.048   1.025 -1.3368  0.6588  1.7112
 2365SOL     OW18553   2.174   3.000   4.865 -0.1541 -0.4175 -0.1183
 2365SOL    HW118554   2.197   3.093   4.861  2.2546 -1.0807 -1.5689
 2365SOL    HW218555   2.249   2.976   4.919 -0.4241 -0.9051  0.0397
 2366SOL     OW18556   0.683   0.824   2.606 -0.7302  0.0477  0.3127
 2366SOL    HW118557   0.747   0.802   2.538  0.3407  1.3443  0.9019
 2366SOL    HW218558   0.703   0.763   2.676  0.3964  1.3440  1.1307
 2367SOL     OW18559   4.661   1.520  16.494 -0.5627  0.8840 -0.5352
 2367SOL    HW118560   0.002   1.585  16.528 -0.1729  1.5126 -2.4749
 2367SOL    HW218561   0.000   1.469  16.442 -0.2259  1.0881 -0.3443
 2368SOL     OW18562   0.358   1.348   4.698 -1.0919 -0.0486 -0.7515
 2368SOL    HW118563   0.365   1.430   4.746 -1.3205  0.3506 -1.3939
 2368SOL    HW218564   0.350   1.281   4.766  1.1001 -1.4808 -1.8623
 2369SOL     OW18565   0.537   0.225  15.415 -0.6919 -0.0757  0.1023
 2369SOL    HW118566   0.508   0.266  15.334  0.6888 -1.7105 -1.2368
 2369SOL    HW218567   0.558   0.140  15.376 -0.0890 -0.5577  1.4779
 2370SOL     OW18568   0.974   0.381   8.429 -0.3560 -0.8054 -0.5307
 2370SOL    HW118569   0.920   0.386   8.507  0.7904 -2.2744  0.3402
 2370SOL    HW218570   1.032   0.456   8.444 -0.2811 -1.0330  0.2697
 2371SOL     OW18571   1.264   2.690  14.455  0.1680 -0.1213 -0.4442
 2371SOL    HW118572   1.304   2.612  14.417  4.0937  0.6183  2.1157
 2371SOL    HW218573   1.202   2.700  14.382 -0.1248  2.3926  0.1371
 2372SOL     OW18574   2.750   1.606   2.056 -0.0571 -0.6402 -0.2027
 2372SOL    HW118575   2.788   1.634   2.139  1.3780 -0.5883 -0.8595
 2372SOL    HW218576   2.714   1.690   2.026  2.2666  0.4594  0.0265
 2373SOL     OW18577   4.420   0.168   4.038 -0.2416 -0.1132 -0.3502
 2373SOL    HW118578   4.452   0.084   4.007 -1.3847  0.2968 -2.6531
 2373SOL    HW218579   4.327   0.174   4.015  0.1061  0.5452 -1.6270
 2374SOL     OW18580   2.134   1.647  13.185  0.3378 -0.2645 -0.8320
 2374SOL    HW118581   2.222   1.613  13.202  2.4713  4.0632 -3.2262
 2374SOL    HW218582   2.097   1.564  13.156 -0.3666  0.8649 -3.1947
 2375SOL     OW18583   0.175   0.312   1.528  0.7618  0.1660 -0.7825
 2375SOL    HW118584   0.149   0.354   1.609  1.2620  2.3031 -1.7273
 2375SOL    HW218585   0.125   0.230   1.529  0.8990  0.1848  3.6495
 2376SOL     OW18586   1.036   4.412   8.336 -0.7760  0.0606  0.1498
 2376SOL    HW118587   1.078   4.363   8.407  0.7864  1.0744 -0.0671
 2376SOL    HW218588   0.954   4.363   8.329 -1.2881  0.9332  0.1193
 2377SOL     OW18589   3.827   3.076  14.084 -0.1856  0.7093  0.5468
 2377SOL    HW118590   3.829   3.129  14.164  1.2695 -1.2724  1.8414
 2377SOL    HW218591   3.790   2.997  14.125  0.1293  1.9417  3.2348
 2378SOL     OW18592   3.577   2.546   8.177  0.0230  0.3171  0.1804
 2378SOL    HW118593   3.531   2.568   8.096  0.6089 -0.2632 -0.3165
 2378SOL    HW218594   3.526   2.476   8.216  0.5875  0.8831  1.9256
 2379SOL     OW18595   3.961   4.340   8.458 -0.1172 -0.0840 -0.2722
 2379SOL    HW118596   3.978   4.265   8.401 -3.4223 -0.9567 -0.1159
 2379SOL    HW218597   4.041   4.331   8.510 -1.8141  1.2588  2.5306
 2380SOL     OW18598   0.922   2.449   8.195 -0.2055 -0.6492  0.0362
 2380SOL    HW118599   0.925   2.361   8.234  1.6849 -0.9813 -0.8738
 2380SOL    HW218600   0.847   2.488   8.241  1.0979  0.2390  1.4030
 2381SOL     OW18601   2.367   4.040  11.786 -0.0159 -0.1551 -0.0265
 2381SOL    HW118602   2.393   4.050  11.694 -2.1697  0.6864 -0.5367
 2381SOL    HW218603   2.349   3.946  11.786  0.3570 -0.2182  1.6035
 2382SOL     OW18604   2.513   3.030   3.364 -0.1344 -0.1087  0.0519
 2382SOL    HW118605   2.475   2.944   3.384 -3.3959  1.9766  2.8789
 2382SOL    HW218606   2.496   3.078   3.446 -1.0664  1.0130 -0.7960
 2383SOL     OW18607   3.620   4.074   7.621 -0.2766  0.2968 -0.5741
 2383SOL    HW118608   3.696   4.034   7.663 -2.0498 -0.2988  2.0852
 2383SOL    HW218609   3.568   4.088   7.700 -1.1774  1.2568 -1.3263
 2384SOL     OW18610   4.655   2.457  10.301  0.0508 -0.5265 -0.1462
 2384SOL    HW118611   4.573   2.409  10.294  0.0444 -0.5198 -0.1127
 2384SOL    HW218612   4.641   2.526  10.236  0.6746  0.5984  0.9086
 2385SOL     OW18613   0.286   2.478   6.040  0.3309 -0.2827  0.1012
 2385SOL    HW118614   0.259   2.454   6.129  1.5817 -0.8400  0.3315
 2385SOL    HW218615   0.226   2.426   5.986 -0.1099  0.8624 -0.5021
 2386SOL     OW18616   1.406   1.730   6.103  0.0324  0.4958 -0.7632
 2386SOL    HW118617   1.444   1.655   6.057 -0.1818  0.1583 -0.3834
 2386SOL    HW218618   1.471   1.743   6.172  0.9521  0.7659 -1.6727
 2387SOL     OW18619   1.604   2.763  10.187  0.6081  0.1383 -0.0074
 2387SOL    HW118620   1.563   2.739  10.270  0.9669 -0.5233 -0.0240
 2387SOL    HW218621   1.525   2.795  10.143 -0.3303  0.7302  2.1167
 2388SOL     OW18622   2.914   2.728   5.809  0.5279  0.0052  0.1539
 2388SOL    HW118623   2.869   2.754   5.729  1.3373  1.1566  0.0781
 2388SOL    HW218624   2.951   2.813   5.833  2.1196 -0.4282 -0.7895
 2389SOL     OW18625   2.511   4.023   9.420 -0.2504  0.3847  0.6287
 2389SOL    HW118626   2.477   4.064   9.500  0.3078 -0.3181  1.2244
 2389SOL    HW218627   2.590   3.975   9.444 -1.5795 -2.8516 -1.3867
 2390SOL     OW18628   1.916   3.459  10.064 -0.0537  0.7132  0.4533
 2390SOL    HW118629   1.972   3.397  10.017 -1.4639 -1.0570  1.1306
 2390SOL    HW218630   1.953   3.542  10.034  0.0843  1.0263  1.5058
 2391SOL     OW18631   1.610   2.595   1.400  0.0296 -0.1086  0.0908
 2391SOL    HW118632   1.629   2.684   1.426 -1.1885  0.3417 -0.5463
 2391SOL    HW218633   1.698   2.558   1.388  0.4709  0.9032  0.2685
 2392SOL     OW18634   4.042   3.149   2.359 -0.2835  0.1688  0.0677
 2392SOL    HW118635   3.952   3.119   2.346 -0.2463  0.1823 -0.2289
 2392SOL    HW218636   4.048   3.217   2.292 -0.4002 -1.0503 -1.1669
 2393SOL     OW18637   4.608   2.087   6.398  0.5150  0.2472 -0.1195
 2393SOL    HW118638   4.609   1.991   6.397  0.3615  0.2401  1.2201
 2393SOL    HW218639   4.680   2.091   6.461 -0.3668  0.5011  0.8492
 2394SOL     OW18640   3.281   4.570   9.148  0.2882  0.8226 -0.4709
 2394SOL    HW118641   3.193   4.535   9.155  1.2637 -1.5327  0.1734
 2394SOL    HW218642   3.307   4.523   9.069 -0.6666 -1.2063  0.4221
 2395SOL     OW18643   1.699   1.196   9.309 -0.7020 -0.1741 -0.2610
 2395SOL    HW118644   1.622   1.186   9.365 -1.1936  1.6059 -0.6122
 2395SOL    HW218645   1.700   1.290   9.291 -2.9233  0.4088  2.5437
 2396SOL     OW18646   4.660   0.937   7.966 -0.1953  0.0613 -0.6207
 2396SOL    HW118647   4.618   0.898   7.890 -0.9378 -2.3516  1.0376
 2396SOL    HW218648   4.622   0.882   8.034  2.3044 -2.2919 -1.1209
 2397SOL     OW18649   2.376   1.195   9.710 -0.6815 -0.2023  0.2403
 2397SOL    HW118650   2.299   1.143   9.690  0.8738 -2.6191  0.4519
 2397SOL    HW218651   2.392   1.171   9.801 -0.2960  0.6600  0.3990
 2398SOL     OW18652   1.574   2.772   2.032  0.0143 -0.1662  0.3492
 2398SOL    HW118653   1.507   2.731   2.085  0.6877  0.1186  1.4246
 2398SOL    HW218654   1.589   2.699   1.972  2.6228  1.7062 -1.2847
 2399SOL     OW18655   1.016   3.785   2.317  0.3036  0.0217 -0.4285
 2399SOL    HW118656   1.056   3.726   2.253 -1.6743  1.4522 -3.0032
 2399SOL    HW218657   1.058   3.757   2.399 -0.4693 -0.7183 -0.2816
 2400SOL     OW18658   1.155   1.074   0.870  0.3460  0.0966  0.1694
 2400SOL    HW118659   1.142   1.022   0.949  1.0090  0.0952  0.2844
 2400SOL    HW218660   1.215   1.009   0.834  0.3410  0.3355 -0.2736
 2401SOL     OW18661   2.638   2.275   3.016  0.1832 -0.3414  0.2700
 2401SOL    HW118662   2.559   2.324   3.038  0.4863  0.0893  0.4053
 2401SOL    HW218663   2.628   2.264   2.922 -2.0640 -0.8514  0.5866
 2402SOL     OW18664   0.321   0.168   4.718 -0.0358  0.4206 -0.4407
 2402SOL    HW118665   0.239   0.199   4.756  0.6827  0.7040  0.8621
 2402SOL    HW218666   0.295   0.078   4.699  0.8983  0.5645 -2.4653
 2403SOL     OW18667   2.890   1.852   9.004  0.0264  0.2046 -0.4563
 2403SOL    HW118668   2.952   1.874   8.935  1.5397 -0.6837  0.6163
 2403SOL    HW218669   2.930   1.770   9.034 -1.5709 -0.0845  0.8652
 2404SOL     OW18670   0.351   4.022   4.162 -0.1299 -0.1622 -0.1834
 2404SOL    HW118671   0.406   4.092   4.128  2.2659 -2.3648 -0.8136
 2404SOL    HW218672   0.393   4.026   4.247 -0.2214 -0.5565 -0.1196
 2405SOL     OW18673   2.568   1.474   0.056 -0.2593 -0.5089 -0.1316
 2405SOL    HW118674   2.563   1.391   0.009  2.7781 -0.8277  0.0985
 2405SOL    HW218675   2.547   1.448   0.146 -2.1096 -0.9792 -0.7053
 2406SOL     OW18676   4.138   2.179   4.173  0.8011 -0.2142 -0.1064
 2406SOL    HW118677   4.046   2.155   4.167  0.2635  1.7173  0.4602
 2406SOL    HW218678   4.167   2.125   4.100 -1.3476  0.3020 -1.3458
 2407SOL     OW18679   3.007   2.503   8.696  0.2368  0.8490  0.8157
 2407SOL    HW118680   2.919   2.481   8.666  1.3312 -2.3779 -0.1235
 2407SOL    HW218681   3.066   2.446   8.646 -0.3651  0.5374  0.4596
 2408SOL     OW18682   2.634   0.014  17.495  0.1545  0.5429 -0.1384
 2408SOL    HW118683   2.720   0.006  17.537 -0.3002 -1.0160  0.4899
 2408SOL    HW218684   2.642   0.109  17.489  1.2104  0.5470  1.1943
 2409SOL     OW18685   4.262   3.023   4.314 -0.7082  0.0900  0.0256
 2409SOL    HW118686   4.250   3.026   4.219 -1.1519  0.9823  0.1066
 2409SOL    HW218687   4.328   2.958   4.337 -2.1881 -1.0237  1.0686
 2410SOL     OW18688   3.779   2.688   5.898 -0.2865 -0.6523  0.2938
 2410SOL    HW118689   3.815   2.759   5.844  2.9540 -2.0064  0.6931
 2410SOL    HW218690   3.793   2.728   5.984  3.5525  2.1113 -1.5713
 2411SOL     OW18691   2.628   1.114   6.487 -0.0630  0.2694  0.0726
 2411SOL    HW118692   2.572   1.191   6.494 -1.0322 -0.4600  0.4777
 2411SOL    HW218693   2.675   1.141   6.408  1.9590 -0.3797  1.0695
 2412SOL     OW18694   4.507   2.874  13.955  0.1836 -0.6962  0.5419
 2412SOL    HW118695   4.497   2.920  13.872  1.1331  0.2590  0.9530
 2412SOL    HW218696   4.429   2.819  13.952  0.9678 -1.5708 -4.6397
 2413SOL     OW18697   0.302   3.357   2.766  0.0277 -0.7185  0.3413
 2413SOL    HW118698   0.273   3.386   2.680  0.9057 -0.7658  0.0299
 2413SOL    HW218699   0.371   3.298   2.735 -0.4838 -1.0261 -0.2167
 2414SOL     OW18700   2.293   1.520   9.144  0.1827  0.3947 -0.0294
 2414SOL    HW118701   2.389   1.519   9.142  0.1513 -2.0990 -0.7676
 2414SOL    HW218702   2.274   1.532   9.237  0.4382  3.8276 -0.4265
 2415SOL     OW18703   3.135   2.362   3.042 -0.1966 -0.7924  0.8647
 2415SOL    HW118704   3.167   2.419   3.111  0.1933 -1.5281  1.2928
 2415SOL    HW218705   3.058   2.332   3.090  0.2485 -0.7219  1.6242
 2416SOL     OW18706   3.161   2.331   4.627  0.3908  0.8165  0.0368
 2416SOL    HW118707   3.070   2.345   4.599 -0.1099  0.0572  1.2568
 2416SOL    HW218708   3.207   2.362   4.549 -0.2544  2.5520  0.3389
 2417SOL     OW18709   3.112   2.233   5.729 -0.0049 -0.3130  0.1480
 2417SOL    HW118710   3.099   2.227   5.823  3.1428 -1.2532  0.5125
 2417SOL    HW218711   3.162   2.314   5.721 -0.5342  0.0239  0.2217
 2418SOL     OW18712   3.855   3.553   6.624 -0.2100 -0.8792  0.2217
 2418SOL    HW118713   3.820   3.545   6.535 -0.9318 -1.2135  0.5314
 2418SOL    HW218714   3.894   3.640   6.627 -3.5979  0.6023  1.3086
 2419SOL     OW18715   1.188   1.767   1.299 -0.3705  0.0437  0.4912
 2419SOL    HW118716   1.112   1.721   1.264  1.0474 -0.8018 -1.4801
 2419SOL    HW218717   1.187   1.725   1.386  4.2544  2.8111  1.8631
 2420SOL     OW18718   1.206   2.081  15.754 -0.3009 -0.4630 -0.0100
 2420SOL    HW118719   1.193   2.086  15.848  1.5608  1.5190  0.1604
 2420SOL    HW218720   1.172   2.165  15.722  4.1245  1.3498  0.0126
 2421SOL     OW18721   0.550   3.881   6.826 -0.7968  0.1204 -0.1321
 2421SOL    HW118722   0.524   3.928   6.905 -2.9389  1.3025 -1.5556
 2421SOL    HW218723   0.517   3.935   6.754 -0.1701 -0.5182 -0.8868
 2422SOL     OW18724   2.439   0.671   3.259 -0.5708 -0.4744 -0.0455
 2422SOL    HW118725   2.479   0.706   3.179 -2.8107  1.3154 -0.3642
 2422SOL    HW218726   2.525   0.659   3.301 -1.0341 -0.9720  0.7530
 2423SOL     OW18727   3.519   1.336   3.873 -0.2614  0.7698  0.1293
 2423SOL    HW118728   3.528   1.240   3.867  0.5428  0.9141 -1.0940
 2423SOL    HW218729   3.564   1.347   3.789  2.3660 -2.5307  1.0940
 2424SOL     OW18730   0.303   3.798   8.721  0.5351 -0.2883  0.1775
 2424SOL    HW118731   0.235   3.742   8.683  1.8632 -2.0034  0.3453
 2424SOL    HW218732   0.300   3.771   8.813 -1.2885  2.5683  0.9583
 2425SOL     OW18733   3.748   4.153  15.003  0.6000  0.2153 -0.2546
 2425SOL    HW118734   3.838   4.167  15.033  0.3197  0.5669  0.4373
 2425SOL    HW218735   3.719   4.104  15.080  2.1510  2.0266  1.4887
 2426SOL     OW18736   0.223   1.052   8.997 -1.0859  0.4652  0.2673
 2426SOL    HW118737   0.191   0.964   8.980 -2.2979  0.7622  1.0193
 2426SOL    HW218738   0.219   1.099   8.914  2.4865  0.9107  0.3332
 2427SOL     OW18739   1.263   2.432   7.060  0.4447 -0.0775  0.0995
 2427SOL    HW118740   1.292   2.448   6.970  1.6787  0.7879  0.6431
 2427SOL    HW218741   1.192   2.369   7.047  0.2819 -0.3090  2.0864
 2428SOL     OW18742   0.599   4.369   4.060 -0.1931  0.5663 -0.6641
 2428SOL    HW118743   0.549   4.437   4.014 -3.3832 -0.8247  0.7204
 2428SOL    HW218744   0.534   4.303   4.034  1.7895 -1.7758  0.4344
 2429SOL     OW18745   0.912   0.144   4.356  0.0082  0.3493  0.6737
 2429SOL    HW118746   0.897   0.218   4.298 -0.8144  1.9000  2.8939
 2429SOL    HW218747   1.007   0.132   4.353 -0.2163 -0.9711 -0.9679
 2430SOL     OW18748   2.091   3.618  15.382  0.3270  0.4404  0.0150
 2430SOL    HW118749   2.122   3.699  15.340  1.4042  1.2821  2.4306
 2430SOL    HW218750   2.003   3.637  15.414 -0.2509 -0.1384 -1.2222
 2431SOL     OW18751   1.659   1.402   0.387 -0.2733 -0.1873 -0.9559
 2431SOL    HW118752   1.679   1.334   0.451  0.4425  1.6394  0.7826
 2431SOL    HW218753   1.616   1.467   0.443 -0.1854 -1.7745  0.9668
 2432SOL     OW18754   1.636   2.911   3.251  0.1832  0.1967  0.1561
 2432SOL    HW118755   1.726   2.909   3.283  0.6860  1.6441 -1.1672
 2432SOL    HW218756   1.638   2.955   3.166  0.4782  0.2123  0.1727
 2433SOL     OW18757   2.149   2.567  12.728 -0.0106  0.3224  0.7224
 2433SOL    HW118758   2.154   2.612  12.812  1.9041  1.5865 -0.0797
 2433SOL    HW218759   2.182   2.485  12.765 -1.0267 -0.5858 -0.3677
 2434SOL     OW18760   0.975   2.094   1.373 -0.3693 -0.3026  0.0983
 2434SOL    HW118761   1.055   2.059   1.413  0.1120  0.3704 -0.2902
 2434SOL    HW218762   0.982   2.187   1.394 -1.2814  0.2262 -2.0104
 2435SOL     OW18763   0.587   4.125   8.185 -0.0034 -0.5179  0.6266
 2435SOL    HW118764   0.541   4.112   8.268  0.1610 -1.0229  0.6371
 2435SOL    HW218765   0.529   4.192   8.148  3.0400  1.7587  0.0530
 2436SOL     OW18766   2.607   2.424  15.976  0.2987  0.2283 -0.5847
 2436SOL    HW118767   2.532   2.421  16.035  1.7891 -1.3200  1.2451
 2436SOL    HW218768   2.680   2.435  16.038 -0.4962 -0.2088  0.4229
 2437SOL     OW18769   2.327   1.029   4.612  0.1251 -0.2815 -0.3385
 2437SOL    HW118770   2.274   0.957   4.647 -0.3769  0.3792  0.2715
 2437SOL    HW218771   2.385   0.981   4.553  1.1078  0.2911  0.1652
 2438SOL     OW18772   0.599   3.687   2.725 -0.5465  0.6849 -0.8058
 2438SOL    HW118773   0.652   3.740   2.665 -0.4416  0.2314 -1.1143
 2438SOL    HW218774   0.511   3.725   2.727 -1.1589 -0.8551  1.8731
 2439SOL     OW18775   2.531   3.692   5.201  0.1582  0.2798 -0.6573
 2439SOL    HW118776   2.485   3.663   5.279  1.9820  0.0719  0.3461
 2439SOL    HW218777   2.598   3.745   5.245  0.8971  1.3506 -3.0440
 2440SOL     OW18778   4.109   4.304   3.448 -0.2261  0.4751 -0.2440
 2440SOL    HW118779   4.019   4.318   3.475 -0.3586 -3.1280  1.2788
 2440SOL    HW218780   4.105   4.296   3.352  2.7617  0.0159 -0.3504
 2441SOL     OW18781   4.156   3.085   3.559  0.4367  0.2495 -0.2789
 2441SOL    HW118782   4.061   3.072   3.560  0.3286  0.9815 -0.3013
 2441SOL    HW218783   4.160   3.174   3.594  2.0039 -0.5450  1.5639
 2442SOL     OW18784   4.225   2.900   6.990  0.1094 -0.2239 -0.0363
 2442SOL    HW118785   4.260   2.812   6.997  0.0552 -0.3870 -1.8355
 2442SOL    HW218786   4.276   2.945   7.057 -0.1415  0.2605 -0.1647
 2443SOL     OW18787   2.818   4.413   6.630 -0.0880 -0.0321 -0.3386
 2443SOL    HW118788   2.899   4.453   6.662 -0.2883 -0.7828  1.1104
 2443SOL    HW218789   2.749   4.474   6.657  0.0013 -0.0098 -0.1624
 2444SOL     OW18790   4.576   4.538  11.370  0.0247  0.2567 -0.7471
 2444SOL    HW118791   4.491   4.574  11.344  0.8851  0.7384 -2.8906
 2444SOL    HW218792   4.586   4.464  11.311 -0.4801  1.4754 -2.3634
 2445SOL     OW18793   0.615   1.412  12.664  0.2210 -0.1365  0.2724
 2445SOL    HW118794   0.623   1.319  12.688  1.1573  0.6627  3.0715
 2445SOL    HW218795   0.522   1.432  12.666  0.2738  0.3667 -2.6682
 2446SOL     OW18796   2.100   2.344   3.467  0.1687  0.5222  0.2452
 2446SOL    HW118797   2.099   2.395   3.548  0.0560  2.4197 -0.9584
 2446SOL    HW218798   2.188   2.307   3.464  0.5856  1.6160 -0.8528
 2447SOL     OW18799   0.678   0.872  16.782 -0.1943 -0.2803  0.0034
 2447SOL    HW118800   0.621   0.869  16.706 -2.3208  1.3515  1.5376
 2447SOL    HW218801   0.623   0.831  16.849 -0.4522  1.8185  1.0820
 2448SOL     OW18802   3.435   3.952   8.741  0.2228  0.5503 -0.3198
 2448SOL    HW118803   3.509   3.914   8.788 -0.0203  0.7000  0.1829
 2448SOL    HW218804   3.416   4.026   8.798  1.4288  0.3338  0.3767
 2449SOL     OW18805   2.044   2.798   4.751 -0.0469  0.9749 -0.1492
 2449SOL    HW118806   2.085   2.869   4.801  1.8102  1.2111 -1.9840
 2449SOL    HW218807   2.099   2.727   4.786 -1.8481  0.2947  1.2737
 2450SOL     OW18808   1.485   3.741  11.269  0.2482 -0.3129  0.4427
 2450SOL    HW118809   1.496   3.772  11.359  2.1584 -1.5090  0.6192
 2450SOL    HW218810   1.537   3.661  11.278 -1.1911 -1.4702 -1.5852
 2451SOL     OW18811   0.705   2.699   2.569 -0.2292  0.0235 -0.8589
 2451SOL    HW118812   0.699   2.615   2.614 -1.3240  2.3402  3.3517
 2451SOL    HW218813   0.613   2.704   2.540 -0.1972 -3.2101 -1.4789
 2452SOL     OW18814   2.538   1.958   3.786 -0.4249 -0.1810  0.1805
 2452SOL    HW118815   2.584   1.874   3.792 -1.2780 -0.5902  0.9985
 2452SOL    HW218816   2.469   1.928   3.726 -2.1060 -0.7649  2.4227
 2453SOL     OW18817   0.821   3.267   3.120  0.0114  0.0411 -0.5753
 2453SOL    HW118818   0.888   3.197   3.122 -0.8850 -0.8615 -1.7929
 2453SOL    HW218819   0.749   3.217   3.158  0.1154  0.3954  0.0841
 2454SOL     OW18820   0.561   4.655  12.102  0.7651  0.2966 -0.2401
 2454SOL    HW118821   0.500   4.596  12.146  0.1488  0.8778 -0.3246
 2454SOL    HW218822   0.503   4.708  12.047  0.3552 -0.0422 -0.1322
 2455SOL     OW18823   3.947   2.315  13.702 -0.1843 -0.0508  0.2497
 2455SOL    HW118824   3.884   2.359  13.646  0.7897  0.1723 -0.6731
 2455SOL    HW218825   3.974   2.390  13.754  1.0956 -0.1868 -0.2174
 2456SOL     OW18826   0.732   0.373   7.047 -0.5094 -0.2042  0.2930
 2456SOL    HW118827   0.674   0.407   6.979  1.2595  2.0312 -0.0938
 2456SOL    HW218828   0.808   0.354   6.992 -0.7398 -1.0489  0.2691
 2457SOL     OW18829   1.083   1.789   4.321 -0.5242 -0.0315  0.3783
 2457SOL    HW118830   1.045   1.857   4.267 -1.1961 -0.0720  0.8023
 2457SOL    HW218831   1.084   1.831   4.407  0.3503  4.0493 -1.6385
 2458SOL     OW18832   3.089   1.844   7.669  0.1734  0.4497 -0.7231
 2458SOL    HW118833   3.082   1.938   7.686  0.9337  0.5782 -1.1045
 2458SOL    HW218834   3.021   1.822   7.605 -0.9657 -1.3928  1.1331
 2459SOL     OW18835   0.789   4.684   5.729  0.3641  0.4215 -0.4315
 2459SOL    HW118836   0.844   4.699   5.652 -0.3323  1.0869 -0.8003
 2459SOL    HW218837   0.708   4.667   5.682  0.5363 -2.1708  0.2134
 2460SOL     OW18838   1.345   2.027   3.626 -0.7265 -0.5843 -0.0473
 2460SOL    HW118839   1.324   2.044   3.717 -2.5942 -1.4932 -0.3228
 2460SOL    HW218840   1.437   2.055   3.621 -0.9082 -0.0855 -0.7640
 2461SOL     OW18841   0.373   1.195  14.860 -0.1914  0.1670  0.1793
 2461SOL    HW118842   0.353   1.154  14.775  0.4112  0.6492 -0.1958
 2461SOL    HW218843   0.292   1.244  14.876 -1.0694 -0.3161 -2.7700
 2462SOL     OW18844   2.714   4.627   7.123  0.6399 -0.6031  0.1410
 2462SOL    HW118845   2.624   4.646   7.100  0.2179 -0.7667  1.6387
 2462SOL    HW218846   2.738   4.569   7.051  1.2499  1.6372 -1.4599
 2463SOL     OW18847   2.045   2.775  12.581 -0.0687  0.2038  0.3480
 2463SOL    HW118848   2.063   2.698  12.635  1.6100  0.5033  0.2219
 2463SOL    HW218849   2.119   2.768  12.521  0.3807 -0.9713  1.0306
 2464SOL     OW18850   3.374   3.154   4.631  0.1126  0.0173 -0.4718
 2464SOL    HW118851   3.354   3.215   4.702 -1.6915 -0.7990 -0.2858
 2464SOL    HW218852   3.470   3.151   4.631  0.0980 -0.6274 -0.0648
 2465SOL     OW18853   0.568   1.025   1.968  0.1833 -0.1083 -0.3153
 2465SOL    HW118854   0.628   1.071   1.909 -2.6958  1.3445 -2.0871
 2465SOL    HW218855   0.490   1.077   1.952  1.9114  2.8461  0.8892
 2466SOL     OW18856   3.533   4.435   9.302 -0.5599 -0.5734 -0.6076
 2466SOL    HW118857   3.445   4.471   9.287 -0.4445  0.2685  0.6886
 2466SOL    HW218858   3.554   4.486   9.380  0.8751 -1.8915 -0.1477
 2467SOL     OW18859   0.230   1.377   3.504  0.1459 -0.5286 -0.7689
 2467SOL    HW118860   0.263   1.357   3.591 -1.3944  1.1511  0.1936
 2467SOL    HW218861   0.249   1.470   3.496 -0.6799 -0.3463 -0.6017
 2468SOL     OW18862   2.221   4.525   5.417 -0.1197 -0.0036  0.7960
 2468SOL    HW118863   2.269   4.589   5.364  1.3319 -1.1274  0.7501
 2468SOL    HW218864   2.133   4.550   5.388  0.2572  1.8306  1.2384
 2469SOL     OW18865   2.288   3.333   2.788  0.0574  0.0367 -0.0932
 2469SOL    HW118866   2.367   3.377   2.755 -0.1391 -0.4250 -1.1999
 2469SOL    HW218867   2.250   3.289   2.712 -1.3893 -0.8646  1.1528
 2470SOL     OW18868   2.468   3.573  11.601  0.1987 -0.2023 -0.9090
 2470SOL    HW118869   2.414   3.504  11.562 -1.3237  1.7744 -2.3009
 2470SOL    HW218870   2.492   3.533  11.684  2.7406 -1.0280 -2.0566
 2471SOL     OW18871   0.898   4.189   7.919 -0.1267 -0.4087 -0.2138
 2471SOL    HW118872   0.840   4.122   7.954 -1.5514 -0.1986 -2.1531
 2471SOL    HW218873   0.855   4.272   7.941  0.2630 -0.5453  1.0759
 2472SOL     OW18874   2.496   1.729   0.083 -0.8464  0.4371 -0.3597
 2472SOL    HW118875   2.511   1.771  17.688  0.2358  2.4735  0.8270
 2472SOL    HW218876   2.528   1.642   0.061 -0.6715  0.5804 -0.6778
 2473SOL     OW18877   0.128   3.632   2.458 -0.0779 -0.3908  0.1492
 2473SOL    HW118878   0.065   3.593   2.397 -0.0521  0.0236 -0.1391
 2473SOL    HW218879   0.177   3.691   2.402 -1.8565 -0.9844 -2.0513
 2474SOL     OW18880   0.989   3.879   3.000 -0.0845  0.2052 -0.7598
 2474SOL    HW118881   1.018   3.920   2.919 -0.3602 -0.1072 -1.0187
 2474SOL    HW218882   0.895   3.882   2.980  0.5143 -0.1388 -3.6771
 2475SOL     OW18883   3.856   1.636   4.883  0.3350  0.1016 -0.5081
 2475SOL    HW118884   3.918   1.586   4.829  2.2206  1.7315  0.1292
 2475SOL    HW218885   3.893   1.600   4.964 -0.5901  1.0657  0.3370
 2476SOL     OW18886   3.366   3.984   0.414  0.8681  0.3749 -0.2745
 2476SOL    HW118887   3.304   4.055   0.395  1.6519  1.0531 -0.2977
 2476SOL    HW218888   3.441   4.011   0.361 -0.2159  1.9681 -1.0025
 2477SOL     OW18889   0.877   0.385  14.718  0.1773  0.4400 -0.3832
 2477SOL    HW118890   0.798   0.382  14.665  0.7249 -2.1355 -1.0629
 2477SOL    HW218891   0.834   0.428  14.792  0.1820  1.0485 -0.7354
 2478SOL     OW18892   3.234   3.734   8.886 -0.8248 -0.3779  0.2282
 2478SOL    HW118893   3.175   3.778   8.825 -0.9698  1.4068  1.6265
 2478SOL    HW218894   3.308   3.792   8.904 -1.5802  0.8275 -0.5269
 2479SOL     OW18895   0.765   4.165  13.130 -0.1102 -0.7254 -0.6052
 2479SOL    HW118896   0.710   4.179  13.053 -0.9316 -0.7211 -0.0123
 2479SOL    HW218897   0.704   4.169  13.203  0.8138  0.8188  0.0782
 2480SOL     OW18898   0.226   0.766   8.757 -0.3629  0.0875  0.0731
 2480SOL    HW118899   0.221   0.755   8.852 -0.4254  1.4818  0.2397
 2480SOL    HW218900   0.172   0.691   8.734 -2.3040  1.0986  1.3260
 2481SOL     OW18901   3.946   4.434   1.945 -0.0468 -0.0029 -0.2367
 2481SOL    HW118902   3.893   4.414   1.868 -2.6716 -1.0324  1.8536
 2481SOL    HW218903   3.978   4.521   1.921  1.5034 -0.5664 -0.2569
 2482SOL     OW18904   1.166   3.821   7.114 -0.5573  0.1247  0.4679
 2482SOL    HW118905   1.147   3.770   7.193 -0.8764 -0.2296  0.1604
 2482SOL    HW218906   1.099   3.886   7.096 -0.2200  0.1537 -0.6935
 2483SOL     OW18907   1.227   3.013   5.835  0.1489  0.6076  0.1363
 2483SOL    HW118908   1.199   3.092   5.788 -2.0105 -0.3133 -0.1475
 2483SOL    HW218909   1.145   2.965   5.850 -0.9580  3.3100  2.8237
 2484SOL     OW18910   1.975   3.002   7.555  0.4625 -0.4893 -0.6709
 2484SOL    HW118911   1.938   2.921   7.591  0.6326  1.0910  3.0123
 2484SOL    HW218912   1.926   3.014   7.474 -1.3890  2.2627  0.8777
 2485SOL     OW18913   0.280   1.069   8.689  0.7647  0.2176  0.2799
 2485SOL    HW118914   0.358   1.097   8.737 -1.0284 -0.1744  3.4091
 2485SOL    HW218915   0.319   1.009   8.626  0.9969  1.5867 -0.8885
 2486SOL     OW18916   2.454   0.843   6.248  0.0899 -0.3622  0.2451
 2486SOL    HW118917   2.393   0.916   6.251  1.2033  0.6565 -2.0294
 2486SOL    HW218918   2.486   0.831   6.338  0.3158 -0.8297  0.1035
 2487SOL     OW18919   3.365   0.112  15.929  0.2617  0.1439  0.0688
 2487SOL    HW118920   3.287   0.079  15.975  1.2423 -0.4509  1.2864
 2487SOL    HW218921   3.386   0.042  15.868  1.2659  1.5219 -1.1662
 2488SOL     OW18922   1.243   1.113   1.876 -0.1213  0.4366 -0.1391
 2488SOL    HW118923   1.193   1.071   1.806  1.1885  1.7435 -1.8492
 2488SOL    HW218924   1.255   1.038   1.935  0.3424  2.8894  2.8842
 2489SOL     OW18925   0.180   1.603   4.132  0.5894  0.0547 -0.9541
 2489SOL    HW118926   0.227   1.686   4.131 -0.1666  0.4875  0.4025
 2489SOL    HW218927   0.159   1.600   4.038 -2.6056  0.5110 -0.2675
 2490SOL     OW18928   0.553   1.763   1.947  0.3785 -0.2814  0.0586
 2490SOL    HW118929   0.615   1.828   1.914  1.2458 -1.8184 -1.2870
 2490SOL    HW218930   0.480   1.816   1.980  0.2385 -0.0447 -0.6408
 2491SOL     OW18931   1.969   4.556   5.611 -0.6482 -0.4290  0.1544
 2491SOL    HW118932   1.951   4.648   5.631  2.2626 -0.1087  1.2851
 2491SOL    HW218933   1.952   4.560   5.517  0.2055  1.2049  0.0654
 2492SOL     OW18934   4.702   2.083   7.602  0.0509 -0.0020  0.0064
 2492SOL    HW118935   0.057   2.036   7.632 -0.0014 -1.0537 -1.4716
 2492SOL    HW218936   4.706   2.153   7.667 -0.1147 -0.8651  0.9418
 2493SOL     OW18937   1.118   3.208  15.614 -0.0156 -0.1018  0.1643
 2493SOL    HW118938   1.214   3.198  15.613  0.0541  0.2382  2.6633
 2493SOL    HW218939   1.098   3.141  15.549 -0.8395  0.3293 -0.0200
 2494SOL     OW18940   1.321   3.546  15.279  0.1034 -0.1567  0.7558
 2494SOL    HW118941   1.389   3.596  15.323  2.6359 -0.7026 -2.5287
 2494SOL    HW218942   1.376   3.492  15.222  1.3702  4.1960 -2.1407
 2495SOL     OW18943   2.605   1.077   7.753 -0.0477  0.0651  0.1742
 2495SOL    HW118944   2.527   1.129   7.732 -0.1599 -0.6949 -1.3212
 2495SOL    HW218945   2.655   1.080   7.671 -2.5606  0.0274 -1.3847
 2496SOL     OW18946   3.468   4.474   3.985  0.3633  0.3094  0.0670
 2496SOL    HW118947   3.438   4.544   4.042 -0.1295 -0.1182  0.3358
 2496SOL    HW218948   3.547   4.514   3.949  1.7101 -3.4079 -1.1363
 2497SOL     OW18949   1.221   1.337   2.673  0.1192 -0.2382  0.4376
 2497SOL    HW118950   1.260   1.386   2.745 -0.8837  1.5130 -0.2061
 2497SOL    HW218951   1.129   1.352   2.694  0.5402  1.5640  0.9123
 2498SOL     OW18952   1.643   0.963   1.234 -0.2037 -0.1313 -0.3319
 2498SOL    HW118953   1.716   1.023   1.223  0.0156 -0.2849  0.2612
 2498SOL    HW218954   1.578   0.983   1.167  0.6834  0.6140 -0.9600
 2499SOL     OW18955   0.691   2.981   5.957 -0.1630 -0.5107  0.1328
 2499SOL    HW118956   0.740   3.059   5.982  0.1863 -2.2480  4.9545
 2499SOL    HW218957   0.635   2.964   6.033 -1.2232 -1.1339 -0.7835
 2500SOL     OW18958   4.388   0.894  13.226  0.3681 -0.1088 -0.4081
 2500SOL    HW118959   4.351   0.937  13.304  1.0343 -1.5413  0.7003
 2500SOL    HW218960   4.482   0.897  13.245  0.0156  0.3797  1.3066
 2501SOL     OW18961   2.225   3.003   2.246  0.0764 -0.0901  0.7537
 2501SOL    HW118962   2.175   3.030   2.323  0.5711  1.1267  0.6491
 2501SOL    HW218963   2.309   2.987   2.290 -0.0591 -1.1020  0.6563
 2502SOL     OW18964   3.625   1.503  16.512  0.3387 -0.2772  0.7390
 2502SOL    HW118965   3.685   1.568  16.547  0.8005 -0.0899 -0.3862
 2502SOL    HW218966   3.547   1.526  16.563  0.2098  0.3061  0.2761
 2503SOL     OW18967   1.809   0.531  15.910 -0.0763  0.0366 -0.2255
 2503SOL    HW118968   1.802   0.481  15.829 -0.8723  0.0717 -0.1811
 2503SOL    HW218969   1.732   0.587  15.904 -0.4182 -0.3230  0.7470
 2504SOL     OW18970   3.630   2.939   9.246 -0.0947  0.0453 -0.4134
 2504SOL    HW118971   3.697   2.900   9.301 -1.2925  0.4057  1.3073
 2504SOL    HW218972   3.573   2.864   9.230  0.4765 -0.5914  0.5311
 2505SOL     OW18973   0.002   4.233  17.029 -0.0226 -0.1365 -0.1581
 2505SOL    HW118974   0.060   4.210  17.102  0.4292 -0.8547 -0.7383
 2505SOL    HW218975   0.064   4.257  16.960  0.4075 -0.5230  0.0918
 2506SOL     OW18976   2.936   1.426  15.338 -0.2798  0.0497 -0.2320
 2506SOL    HW118977   2.969   1.477  15.412  0.2800 -1.3575  0.4750
 2506SOL    HW218978   3.016   1.392  15.298 -1.5272 -1.5592 -1.3602
 2507SOL     OW18979   0.281   2.475   3.357 -0.2478 -0.1712 -0.2851
 2507SOL    HW118980   0.262   2.554   3.407  0.0427  0.4987 -1.2352
 2507SOL    HW218981   0.206   2.435   3.401  0.0355  2.2001  2.3296
 2508SOL     OW18982   3.142   1.966   3.320  0.0419  0.3294  0.1332
 2508SOL    HW118983   3.202   1.892   3.320  1.2669  1.3189  0.4464
 2508SOL    HW218984   3.122   1.970   3.227  1.2216 -0.1303 -0.1405
 2509SOL     OW18985   3.178   4.074   2.138 -0.2056  0.0381  0.3663
 2509SOL    HW118986   3.174   4.019   2.060 -0.1440 -0.3536  0.6395
 2509SOL    HW218987   3.221   4.008   2.193 -1.2356  0.0913  1.2356
 2510SOL     OW18988   3.365   1.661   3.852 -0.0515  0.0255  0.0675
 2510SOL    HW118989   3.344   1.705   3.935  1.2902 -0.1337  0.4803
 2510SOL    HW218990   3.456   1.634   3.864 -0.0242  0.1582  0.1597
 2511SOL     OW18991   4.665   2.022  11.818  0.6209  0.0681  1.1605
 2511SOL    HW118992   4.671   2.114  11.843 -0.6169 -0.0604  1.9776
 2511SOL    HW218993   0.010   2.017  11.750 -1.8565  3.0026 -1.5193
 2512SOL     OW18994   0.139   4.058   1.646 -0.4148 -0.6883 -0.4568
 2512SOL    HW118995   0.157   4.038   1.738 -0.4301  0.8118 -0.1323
 2512SOL    HW218996   0.163   4.150   1.642 -0.7403 -0.6812 -2.1885
 2513SOL     OW18997   1.334   0.066   2.476 -0.1519  0.0827 -0.2907
 2513SOL    HW118998   1.395   0.010   2.427  0.4115  0.2778  0.1848
 2513SOL    HW218999   1.393   0.123   2.525 -0.5251 -1.9488  2.4949
 2514SOL     OW19000   3.513   4.552   8.156 -0.3520  0.1277 -0.1215
 2514SOL    HW119001   3.448   4.482   8.147  0.5432 -0.8579  1.2487
 2514SOL    HW219002   3.460   4.611   8.210  0.2488  1.3160 -0.8131
 2515SOL     OW19003   1.966   3.754   2.254  0.0257  0.3681  0.0217
 2515SOL    HW119004   1.992   3.841   2.222 -0.7927  0.3740 -0.6506
 2515SOL    HW219005   2.048   3.724   2.293 -0.0548  0.8369  0.5501
 2516SOL     OW19006   3.846   0.508   2.398 -0.1904 -0.4323 -0.1661
 2516SOL    HW119007   3.809   0.441   2.341 -1.7211  2.9138 -3.1391
 2516SOL    HW219008   3.867   0.579   2.337 -0.0216  1.3090  1.9150
 2517SOL     OW19009   0.204   3.208   3.050  0.2471  0.4639 -0.3014
 2517SOL    HW119010   0.208   3.303   3.059 -0.5135  0.5649 -1.0071
 2517SOL    HW219011   0.272   3.185   2.986 -1.1165  0.6631 -1.8272
 2518SOL     OW19012   2.463   0.123   7.850  0.4722 -0.5454 -0.2532
 2518SOL    HW119013   2.370   0.146   7.853  0.8100  0.8208 -0.1831
 2518SOL    HW219014   2.455   0.028   7.851  1.6651 -0.6446 -0.5605
 2519SOL     OW19015   4.413   2.307  10.690 -0.8481 -0.0581 -0.0280
 2519SOL    HW119016   4.442   2.220  10.665 -0.8262 -0.4578  1.4208
 2519SOL    HW219017   4.327   2.285  10.726 -0.5307  2.1045  2.0965
 2520SOL     OW19018   0.453   0.639   3.972  0.5471  0.1724  0.2275
 2520SOL    HW119019   0.459   0.564   4.031 -2.9354 -1.6631 -1.7235
 2520SOL    HW219020   0.440   0.714   4.030 -0.8695 -1.4820  2.0316
 2521SOL     OW19021   1.143   0.284   5.003  0.6289  0.1853 -0.0737
 2521SOL    HW119022   1.148   0.296   5.098  3.3804  0.5623 -0.2802
 2521SOL    HW219023   1.096   0.364   4.978 -1.0228 -1.2951 -1.6830
 2522SOL     OW19024   0.592   3.147   5.758  0.0751  0.0092 -0.1236
 2522SOL    HW119025   0.645   3.079   5.800  0.5094  0.0824 -0.5508
 2522SOL    HW219026   0.666   3.196   5.721  0.4395 -0.1754  0.3567
 2523SOL     OW19027   3.695   4.500   6.471  0.3119 -0.2631  0.0794
 2523SOL    HW119028   3.774   4.448   6.459 -0.5970 -1.8432  0.9599
 2523SOL    HW219029   3.694   4.524   6.564 -0.7335 -1.0373  0.2719
 2524SOL     OW19030   4.441   2.308  17.267  0.2830  0.6413  0.1222
 2524SOL    HW119031   4.416   2.217  17.285  1.1511  0.3554 -0.0992
 2524SOL    HW219032   4.368   2.354  17.309 -1.2815 -1.2528 -0.5018
 2525SOL     OW19033   0.837   3.651  12.240 -0.7804  0.1043  0.4607
 2525SOL    HW119034   0.795   3.642  12.155  0.3387 -0.5890 -0.0153
 2525SOL    HW219035   0.886   3.569  12.243 -0.2903  0.3749 -0.2385
 2526SOL     OW19036   0.361   1.079  14.608  0.4785  0.3649 -0.2478
 2526SOL    HW119037   0.274   1.118  14.618  1.6085  3.0439 -0.8996
 2526SOL    HW219038   0.390   1.115  14.525 -0.2108  0.5685 -0.3965
 2527SOL     OW19039   2.458   3.637   7.151 -0.1503 -0.6348 -0.2390
 2527SOL    HW119040   2.454   3.707   7.215  0.0066 -0.8121 -0.0332
 2527SOL    HW219041   2.528   3.670   7.095 -0.4142  1.9125  0.9634
 2528SOL     OW19042   4.115   4.026   5.845  0.2774 -0.6863  0.1230
 2528SOL    HW119043   4.170   4.103   5.833  2.5135 -1.7746  3.3357
 2528SOL    HW219044   4.176   3.967   5.889 -0.5332 -1.6888 -0.1120
 2529SOL     OW19045   3.589   3.593  10.893 -0.4415 -0.3750 -0.3541
 2529SOL    HW119046   3.625   3.542  10.820  1.9379  1.3740 -0.4142
 2529SOL    HW219047   3.616   3.679  10.859  2.4848 -1.1074  0.1290
 2530SOL     OW19048   2.511   0.573  12.166 -0.5403 -0.3978 -0.2475
 2530SOL    HW119049   2.507   0.618  12.081  1.6266 -0.2178 -0.2551
 2530SOL    HW219050   2.441   0.622  12.208  0.2902 -0.6598  1.4342
 2531SOL     OW19051   0.883   1.731  12.767  0.1548 -0.5150  0.0162
 2531SOL    HW119052   0.797   1.765  12.745  0.9498  2.6906  1.7377
 2531SOL    HW219053   0.865   1.653  12.818 -2.1435 -0.1131 -0.2013
 2532SOL     OW19054   0.948   0.150  16.400 -0.1385  0.4840 -0.7768
 2532SOL    HW119055   1.036   0.154  16.360  0.9475  1.6158  1.7390
 2532SOL    HW219056   0.920   0.217  16.337  2.1428  0.8542 -1.4334
 2533SOL     OW19057   4.170   0.701  13.955  0.0774 -0.3109  0.3038
 2533SOL    HW119058   4.202   0.612  13.942  2.8526  0.4254  2.2175
 2533SOL    HW219059   4.250   0.753  13.953 -0.9898  1.3419  0.0091
 2534SOL     OW19060   3.094   0.678   7.665 -0.0858  0.3033  0.1538
 2534SOL    HW119061   3.038   0.679   7.743 -0.4138  0.7165 -0.0907
 2534SOL    HW219062   3.114   0.585   7.654 -0.4153  0.2034  0.3813
 2535SOL     OW19063   3.427   1.468   0.759  0.1933 -0.7679  0.5324
 2535SOL    HW119064   3.448   1.392   0.814 -1.9415 -1.7639 -0.0372
 2535SOL    HW219065   3.336   1.442   0.749  0.1324 -0.0436 -0.7350
 2536SOL     OW19066   3.012   4.413   2.951  0.3525 -0.3036 -0.0766
 2536SOL    HW119067   3.012   4.463   2.869 -0.8852 -1.6671 -0.9215
 2536SOL    HW219068   3.051   4.326   2.938 -1.8803 -1.4961  1.2982
 2537SOL     OW19069   3.754   4.189   3.055 -0.6441  0.1649  0.0005
 2537SOL    HW119070   3.772   4.265   3.000 -0.6527  0.3872  0.2999
 2537SOL    HW219071   3.759   4.119   2.991  1.4477  0.6631 -0.3719
 2538SOL     OW19072   4.520   0.348   8.910 -0.6013  0.3406 -0.4140
 2538SOL    HW119073   4.491   0.349   8.819  0.5590 -1.6725 -0.7931
 2538SOL    HW219074   4.560   0.261   8.910  0.1761  0.7083 -2.2622
 2539SOL     OW19075   3.854   1.097   5.421 -0.9146  0.5114  0.3233
 2539SOL    HW119076   3.773   1.047   5.412 -0.2783 -0.9967  2.8462
 2539SOL    HW219077   3.825   1.184   5.450  0.6309  0.8405  0.8449
 2540SOL     OW19078   2.864   3.652   3.835 -0.0809 -0.0899 -0.3959
 2540SOL    HW119079   2.845   3.640   3.742  2.5312 -2.0470 -0.6633
 2540SOL    HW219080   2.941   3.597   3.840 -0.7597 -0.9097  0.8859
 2541SOL     OW19081   0.437   0.498   2.953 -0.2015 -0.7432  0.1229
 2541SOL    HW119082   0.450   0.592   2.969  0.0581 -0.7207 -0.2243
 2541SOL    HW219083   0.423   0.469   3.044  1.9224  1.4637  1.1527
 2542SOL     OW19084   4.350   3.051  10.893 -0.2065  0.0578 -0.4222
 2542SOL    HW119085   4.377   2.980  10.835  2.0547 -0.2592  1.0113
 2542SOL    HW219086   4.373   3.025  10.983 -0.4992 -0.9955 -0.6572
 2543SOL     OW19087   2.388   3.542   6.199 -0.0171  0.0148  0.1431
 2543SOL    HW119088   2.362   3.607   6.132  2.1776 -0.1133 -0.8191
 2543SOL    HW219089   2.360   3.580   6.282  0.8103 -0.6018  0.6876
 2544SOL     OW19090   2.624   0.032   2.986 -0.0246 -1.1195 -0.2365
 2544SOL    HW119091   2.680   0.000   2.915 -0.9345 -0.9529 -1.0273
 2544SOL    HW219092   2.546   0.046   2.933 -0.1870 -0.7300  0.1008
 2545SOL     OW19093   1.229   3.043  15.184  0.2056 -0.0051  0.1072
 2545SOL    HW119094   1.210   2.950  15.197 -2.5755  0.3413 -1.5935
 2545SOL    HW219095   1.294   3.065  15.250  0.8388  1.9628 -1.1762
 2546SOL     OW19096   0.047   0.614   2.767  0.1027 -1.0863  0.0972
 2546SOL    HW119097   0.068   0.619   2.860 -0.7657 -2.2635  0.3480
 2546SOL    HW219098   0.127   0.634   2.717 -1.1668  0.3285 -1.3693
 2547SOL     OW19099   3.694   2.940   1.111 -0.4279  0.3060 -0.0484
 2547SOL    HW119100   3.785   2.913   1.110 -1.0281 -1.7486  0.5511
 2547SOL    HW219101   3.670   2.927   1.019  1.9707 -2.9905 -0.2055
 2548SOL     OW19102   3.833   4.632   7.293 -0.1966 -0.4620  0.1321
 2548SOL    HW119103   3.863   4.645   7.203  2.0120 -2.2106  0.6000
 2548SOL    HW219104   3.871   4.709   7.335  1.1445 -0.6817 -0.6874
 2549SOL     OW19105   0.557   3.883   8.881 -0.0061 -0.1527 -0.2119
 2549SOL    HW119106   0.630   3.844   8.931 -1.8224 -2.3281  0.7567
 2549SOL    HW219107   0.482   3.865   8.938  1.5652 -0.6207  1.7111
 2550SOL     OW19108   1.866   1.849   0.984  0.0736  0.5235 -0.6354
 2550SOL    HW119109   1.806   1.833   1.057 -0.3886 -0.9614 -1.3239
 2550SOL    HW219110   1.843   1.774   0.929  2.2549 -0.6503  0.0773
 2551SOL     OW19111   2.135   2.324   1.989  0.6245 -0.1870  0.3650
 2551SOL    HW119112   2.118   2.255   2.053 -0.1787  0.2707  0.6405
 2551SOL    HW219113   2.227   2.312   1.963  0.3773 -0.4536 -0.3682
 2552SOL     OW19114   4.000   1.695   6.742 -0.2732 -0.3280  1.0028
 2552SOL    HW119115   4.023   1.788   6.738  2.9653 -1.2659 -1.7386
 2552SOL    HW219116   4.034   1.675   6.830 -0.2896 -0.7462  0.9113
 2553SOL     OW19117   3.609   2.942   0.844 -1.2934  0.5253  0.0395
 2553SOL    HW119118   3.583   2.852   0.823  1.7496 -0.6179  1.2399
 2553SOL    HW219119   3.524   2.984   0.829 -0.6925  1.6240 -0.2925
 2554SOL     OW19120   2.550   1.076  14.465 -0.4749 -0.9416  0.2325
 2554SOL    HW119121   2.464   1.034  14.463 -1.0150  0.1454  0.4243
 2554SOL    HW219122   2.586   1.042  14.383  2.6067 -0.3038  1.3339
 2555SOL     OW19123   0.054   0.130   1.860  0.1171 -0.8599 -0.4458
 2555SOL    HW119124   0.069   0.224   1.849 -0.9488 -0.8630 -1.9028
 2555SOL    HW219125   0.116   0.081   1.806 -1.6839 -1.2907 -2.1087
 2556SOL     OW19126   4.451   0.447  16.847  0.4191  0.0919 -0.2819
 2556SOL    HW119127   4.476   0.462  16.939  0.2014  0.7410 -0.3244
 2556SOL    HW219128   4.427   0.534  16.816  1.0994  0.1920 -0.5240
 2557SOL     OW19129   2.936   4.007   8.067 -0.2128  0.7299  0.6880
 2557SOL    HW119130   2.883   3.978   8.141  1.8274 -1.3218  1.3400
 2557SOL    HW219131   2.969   3.925   8.029 -3.4688 -0.6302  0.7790
 2558SOL     OW19132   0.407   2.848  14.357  0.1222  0.0618 -0.4200
 2558SOL    HW119133   0.319   2.849  14.319  0.5682 -1.3938 -1.5344
 2558SOL    HW219134   0.400   2.775  14.419 -1.7765  0.2876 -0.3715
 2559SOL     OW19135   1.856   1.868   1.890 -0.1920 -0.5814 -0.5052
 2559SOL    HW119136   1.799   1.848   1.815 -0.9574 -0.4872  0.0533
 2559SOL    HW219137   1.798   1.869   1.966  0.0828  1.3407 -0.3205
 2560SOL     OW19138   1.124   1.915   7.355 -0.3168 -0.3690 -0.2773
 2560SOL    HW119139   1.169   1.904   7.271  3.9286 -0.1321  1.9566
 2560SOL    HW219140   1.183   1.972   7.405  0.9408 -1.6525 -0.2627
 2561SOL     OW19141   0.155   3.180   1.875  0.7054  0.2039  0.1606
 2561SOL    HW119142   0.212   3.242   1.921  0.4625 -0.8922  1.9664
 2561SOL    HW219143   0.167   3.110   1.939 -2.0393  0.4173  0.9236
 2562SOL     OW19144   1.499   3.373   3.917  0.4519 -0.5332 -0.0514
 2562SOL    HW119145   1.439   3.351   3.845 -1.9759  1.6750  1.2956
 2562SOL    HW219146   1.488   3.296   3.973 -1.1344 -2.7060 -3.3403
 2563SOL     OW19147   1.817   3.090   7.318  0.1575 -0.5716  0.4194
 2563SOL    HW119148   1.724   3.111   7.315  0.0156 -1.0462  1.2895
 2563SOL    HW219149   1.870   3.160   7.280  0.5349  0.2889  2.5348
 2564SOL     OW19150   4.017   2.819  16.689  0.2699  0.2945  0.1624
 2564SOL    HW119151   4.033   2.864  16.606  1.0804 -1.9394 -0.8738
 2564SOL    HW219152   3.921   2.826  16.692 -0.0621 -3.8888 -1.3637
 2565SOL     OW19153   2.713   1.500  17.141  0.4788  0.3820  0.5004
 2565SOL    HW119154   2.777   1.464  17.080 -1.6618 -2.1601 -0.2525
 2565SOL    HW219155   2.692   1.420  17.190  1.2764  1.3366  2.4340
 2566SOL     OW19156   1.677   2.101   3.671  0.0230 -0.6009 -0.0861
 2566SOL    HW119157   1.634   2.181   3.702 -1.1567 -0.6225 -1.7098
 2566SOL    HW219158   1.671   2.090   3.576 -2.6720  2.6263 -0.2818
 2567SOL     OW19159   1.855   0.976   8.009 -0.1336  0.0148 -0.3409
 2567SOL    HW119160   1.771   0.931   8.015  1.0200 -1.7507  2.2327
 2567SOL    HW219161   1.859   1.034   8.085  0.7696 -1.7076  0.9152
 2568SOL     OW19162   4.694   2.195  16.425 -0.7344  0.0057 -0.1709
 2568SOL    HW119163   4.611   2.159  16.394 -1.4981  2.5157 -1.0115
 2568SOL    HW219164   4.678   2.207  16.518  2.3060 -2.2065  0.6507
 2569SOL     OW19165   1.411   4.477   5.033  0.0140 -0.1699 -0.7428
 2569SOL    HW119166   1.474   4.443   4.969 -1.5890 -0.7030 -2.0312
 2569SOL    HW219167   1.376   4.551   4.984  0.5201 -1.2511 -2.7263
 2570SOL     OW19168   2.304   0.134   4.723 -0.0669 -0.5027  0.1345
 2570SOL    HW119169   2.230   0.095   4.676  1.7770 -1.0639 -2.2525
 2570SOL    HW219170   2.383   0.099   4.684 -0.2545 -0.0315 -0.6749
 2571SOL     OW19171   2.683   0.380   8.775  0.7042 -0.6587  0.1468
 2571SOL    HW119172   2.748   0.311   8.759  1.1820 -0.1782  0.0389
 2571SOL    HW219173   2.722   0.426   8.849  3.3022  1.1695 -2.3675
 2572SOL     OW19174   2.686   0.939  16.444 -0.3499  0.3017  0.3331
 2572SOL    HW119175   2.670   0.876  16.374  0.6057  1.8104 -1.2352
 2572SOL    HW219176   2.667   1.020  16.396  1.3777  0.0370 -0.8069
 2573SOL     OW19177   0.459   3.410   6.603 -0.3059 -0.5522 -0.2014
 2573SOL    HW119178   0.393   3.461   6.651  0.5566  1.1992 -0.8836
 2573SOL    HW219179   0.540   3.452   6.632 -0.5790 -0.5367  0.5338
 2574SOL     OW19180   3.352   1.111   5.831 -0.0194  0.2216  0.1066
 2574SOL    HW119181   3.357   1.206   5.821 -0.3958  0.0754 -1.4178
 2574SOL    HW219182   3.370   1.083   5.742 -1.3289 -2.7302  0.7707
 2575SOL     OW19183   3.523   2.347   8.490 -0.1150 -1.1388  0.0576
 2575SOL    HW119184   3.457   2.285   8.459 -0.7807  0.7112 -2.1427
 2575SOL    HW219185   3.473   2.426   8.507 -0.8151 -1.2244 -1.5914
 2576SOL     OW19186   3.571   1.593   3.168 -0.0413  0.2294  0.1512
 2576SOL    HW119187   3.552   1.663   3.230 -1.9910 -0.7352  0.6273
 2576SOL    HW219188   3.500   1.602   3.104  1.2188 -2.2222 -1.5943
 2577SOL     OW19189   3.112   1.344   5.831 -0.2964 -0.0692  0.0348
 2577SOL    HW119190   3.077   1.361   5.744 -2.2550 -0.3606  0.7733
 2577SOL    HW219191   3.206   1.352   5.816 -0.6604  2.5868 -0.8350
 2578SOL     OW19192   3.875   0.021   8.309 -0.0213  0.2531 -0.6272
 2578SOL    HW119193   3.879   0.091   8.245  3.0188  3.2218  2.7839
 2578SOL    HW219194   3.825   0.061   8.381  0.5760 -0.6653  0.3027
 2579SOL     OW19195   0.879   0.925   0.725 -0.1140  0.2005 -0.6610
 2579SOL    HW119196   0.931   0.997   0.760  0.8950 -0.3708 -0.9578
 2579SOL    HW219197   0.934   0.906   0.648  0.6965  2.8139 -0.7104
 2580SOL     OW19198   3.564   4.248   3.416 -0.6050 -0.1296 -0.6859
 2580SOL    HW119199   3.613   4.324   3.386  1.4198  0.2123  3.5006
 2580SOL    HW219200   3.572   4.260   3.510 -2.8913 -1.2485 -0.3335
 2581SOL     OW19201   4.711   2.978   4.211 -0.1606  0.1455  0.2705
 2581SOL    HW119202   4.624   2.975   4.251 -0.2900 -1.3508 -0.1092
 2581SOL    HW219203   0.029   3.039   4.272 -1.6188  0.8739  0.4969
 2582SOL     OW19204   3.051   3.592  12.243 -0.0475  0.3981 -0.3065
 2582SOL    HW119205   2.977   3.629  12.292  1.9583  1.1568  2.1608
 2582SOL    HW219206   3.092   3.675  12.218  1.1085 -0.1895 -0.3528
 2583SOL     OW19207   0.703   2.833   3.946 -0.0222 -0.2288 -0.1773
 2583SOL    HW119208   0.703   2.898   4.017 -1.0059  0.6222 -0.9496
 2583SOL    HW219209   0.685   2.867   3.858 -1.2412  2.1044  0.9726
 2584SOL     OW19210   3.440   1.430   7.767  0.1076 -0.4138 -0.4988
 2584SOL    HW119211   3.377   1.496   7.796 -1.7492 -1.8830 -1.2408
 2584SOL    HW219212   3.501   1.418   7.840 -0.7261 -1.3628  0.0336
 2585SOL     OW19213   4.262   2.100  10.431 -0.1616  0.1755  0.3574
 2585SOL    HW119214   4.277   2.034  10.499  0.0110 -0.9281 -0.7384
 2585SOL    HW219215   4.346   2.138  10.403 -0.1118  0.0807  0.3755
 2586SOL     OW19216   0.579   3.925   5.172 -0.8693 -0.3091 -0.7142
 2586SOL    HW119217   0.644   3.964   5.114 -0.3902  0.3851  0.2859
 2586SOL    HW219218   0.546   3.853   5.118 -0.7729 -0.6640 -0.2927
 2587SOL     OW19219   1.323   4.069  15.773 -0.4450 -0.0925 -0.0073
 2587SOL    HW119220   1.273   4.134  15.724  1.2461  0.2318 -1.2928
 2587SOL    HW219221   1.268   4.042  15.846  1.0499 -2.2517  0.3348
 2588SOL     OW19222   1.712   2.386   4.247  0.6796  0.1784 -0.1358
 2588SOL    HW119223   1.689   2.293   4.258  0.0067  0.5262  1.4986
 2588SOL    HW219224   1.748   2.407   4.333 -1.4984 -1.6181  1.2286
 2589SOL     OW19225   0.055   3.459   7.965  0.0571  0.1695  0.2960
 2589SOL    HW119226   0.115   3.409   7.910 -1.5589  2.2885 -3.3671
 2589SOL    HW219227   4.699   3.467   7.910  1.1692  1.3463 -1.0851
 2590SOL     OW19228   4.463   0.589   3.588 -0.1812 -0.1024  0.2144
 2590SOL    HW119229   4.496   0.514   3.538 -2.4541 -0.4696 -0.7320
 2590SOL    HW219230   4.512   0.655   3.539 -0.4229  0.2953  0.5124
 2591SOL     OW19231   1.374   1.678   1.635  0.4415 -0.2413 -0.6446
 2591SOL    HW119232   1.339   1.608   1.690  0.0793  2.5853  2.6489
 2591SOL    HW219233   1.358   1.750   1.695 -1.7326 -0.9240 -0.4003
 2592SOL     OW19234   4.602   0.094  16.476  0.5246 -0.1939 -0.0088
 2592SOL    HW119235   4.670   0.160  16.490  0.8549 -0.0320 -2.4032
 2592SOL    HW219236   4.527   0.152  16.462  0.6449  0.2285  1.0672
 2593SOL     OW19237   0.920   3.617  10.023 -0.1916  0.2222  0.6713
 2593SOL    HW119238   0.970   3.591  10.100 -1.3151  1.1388  1.7078
 2593SOL    HW219239   0.952   3.547   9.966 -4.6426 -2.4130  1.3341
 2594SOL     OW19240   3.469   3.492   2.737 -0.2390  0.0509  0.5043
 2594SOL    HW119241   3.542   3.448   2.780  0.7931  0.3959 -0.8680
 2594SOL    HW219242   3.414   3.414   2.749 -0.4061  0.1929  0.6601
 2595SOL     OW19243   1.450   0.238   9.926 -0.0290  0.3901  0.3038
 2595SOL    HW119244   1.401   0.217   9.847  1.0947  0.4184 -0.3948
 2595SOL    HW219245   1.543   0.235   9.900 -0.1625  0.6983 -0.1889
 2596SOL     OW19246   3.542   1.116  17.051  0.4214 -0.7792 -0.4372
 2596SOL    HW119247   3.595   1.190  17.080 -0.8226  0.5002 -1.4595
 2596SOL    HW219248   3.598   1.071  16.989  0.5052  1.1553 -1.7579
 2597SOL     OW19249   4.419   3.500   6.043 -0.2138  0.7311  0.5022
 2597SOL    HW119250   4.353   3.460   5.988 -0.0895  0.8032  0.2974
 2597SOL    HW219251   4.419   3.595   6.031 -1.0491  0.7002  0.2485
 2598SOL     OW19252   1.550   3.211  11.408  0.0162  0.3079 -0.4098
 2598SOL    HW119253   1.610   3.276  11.444  0.1296  0.1067 -0.2383
 2598SOL    HW219254   1.539   3.267  11.331  0.3368  1.0281  0.0753
 2599SOL     OW19255   1.781   1.540  14.826  0.0788 -0.9728 -0.3178
 2599SOL    HW119256   1.745   1.451  14.818  0.9965 -1.5187  1.8157
 2599SOL    HW219257   1.840   1.535  14.751  0.4392  2.6827 -0.2783
 2600SOL     OW19258   1.924   3.494  12.689  0.1322  0.0891 -0.2754
 2600SOL    HW119259   1.872   3.573  12.702 -2.5729 -1.7605  0.3289
 2600SOL    HW219260   2.000   3.510  12.745 -0.4947  2.0483 -0.0082
 2601SOL     OW19261   0.419   1.852   5.775 -0.5014 -0.2516 -0.3998
 2601SOL    HW119262   0.445   1.769   5.735 -2.4500 -0.6918 -0.7847
 2601SOL    HW219263   0.465   1.847   5.859 -1.3658  1.1822  0.1695
 2602SOL     OW19264   3.723   1.583   6.247 -0.3140 -0.6892  0.3179
 2602SOL    HW119265   3.746   1.667   6.206 -2.0512  0.2699  1.3090
 2602SOL    HW219266   3.762   1.607   6.332  1.2655 -0.9527 -0.3327
 2603SOL     OW19267   2.013   3.932   9.792  0.5905 -0.9837  0.0794
 2603SOL    HW119268   2.108   3.941   9.785  0.5341 -1.6514 -1.5437
 2603SOL    HW219269   2.012   3.897   9.882  0.9354 -2.3602 -0.4517
 2604SOL     OW19270   3.253   1.333   4.822  0.3320 -0.0147  0.0059
 2604SOL    HW119271   3.261   1.419   4.865  1.3367  0.0262 -0.2605
 2604SOL    HW219272   3.159   1.319   4.834  0.3709 -0.7027 -0.5303
 2605SOL     OW19273   0.477   1.451  14.869 -0.1734 -0.5141 -0.5481
 2605SOL    HW119274   0.521   1.439  14.785  1.0750 -0.0197  0.0338
 2605SOL    HW219275   0.439   1.363  14.874 -0.3134 -0.5085 -1.5171
 2606SOL     OW19276   3.472   1.932   5.569 -0.5098  0.4878  0.4700
 2606SOL    HW119277   3.516   1.937   5.653 -1.0911  0.0121  0.8031
 2606SOL    HW219278   3.415   2.009   5.575 -1.1471  0.1010 -0.5381
 2607SOL     OW19279   1.101   4.006   5.116 -0.3985 -0.0669 -0.0810
 2607SOL    HW119280   1.119   3.914   5.133 -2.5732 -0.4119  0.4280
 2607SOL    HW219281   1.180   4.057   5.100 -0.6289  0.2576 -0.1921
 2608SOL     OW19282   0.968   0.353   9.494  0.3180 -0.2059 -0.2885
 2608SOL    HW119283   1.045   0.368   9.549 -0.0685  0.0292  0.1907
 2608SOL    HW219284   0.937   0.269   9.529  0.0838  0.8086  1.9529
 2609SOL     OW19285   2.866   3.800   7.680 -0.2152 -0.4309  0.4302
 2609SOL    HW119286   2.927   3.774   7.749 -0.6181  0.2180  1.0265
 2609SOL    HW219287   2.826   3.874   7.726  1.6778 -0.1426  1.5775
 2610SOL     OW19288   0.390   2.394   3.867 -0.6579  0.0374  0.1345
 2610SOL    HW119289   0.338   2.432   3.938  1.4950 -0.9967  2.2949
 2610SOL    HW219290   0.454   2.464   3.856 -0.9451  0.1572 -0.7268
 2611SOL     OW19291   0.317   1.371   7.619  0.2189  0.2799 -0.4985
 2611SOL    HW119292   0.367   1.442   7.659 -0.0536 -0.4249  1.0841
 2611SOL    HW219293   0.275   1.418   7.548  0.0608  1.3624  0.3200
 2612SOL     OW19294   3.461   2.769  10.018 -0.2220 -0.7095  0.0569
 2612SOL    HW119295   3.457   2.786   9.924  0.6283  0.3719  0.2121
 2612SOL    HW219296   3.551   2.739  10.028  0.0329  0.3107  0.8268
 2613SOL     OW19297   1.281   0.428   7.040 -0.1956  0.1957  0.4250
 2613SOL    HW119298   1.224   0.451   7.113 -2.0588  0.5832 -1.1631
 2613SOL    HW219299   1.246   0.339   7.036  1.0898 -0.3484  0.9403
 2614SOL     OW19300   4.367   1.910  12.048  0.1698  0.3713  0.8681
 2614SOL    HW119301   4.300   1.933  12.113 -0.7407 -1.2527  0.5071
 2614SOL    HW219302   4.395   1.994  12.012 -1.5167  0.2336 -0.7943
 2615SOL     OW19303   3.877   4.707   7.025 -0.2210 -0.0679 -0.0700
 2615SOL    HW119304   3.791   0.004   6.990  0.4751  2.0141 -0.6805
 2615SOL    HW219305   3.921   0.058   6.983 -2.0378  0.3801 -1.1667
 2616SOL     OW19306   4.499   3.378   8.712 -0.6828  0.1339 -0.7664
 2616SOL    HW119307   4.417   3.330   8.709 -1.1894  0.7991  2.3296
 2616SOL    HW219308   4.468   3.467   8.727  0.1837  0.4211 -0.6557
 2617SOL     OW19309   4.062   1.168   0.095 -0.0110  0.0161  0.4635
 2617SOL    HW119310   3.983   1.114   0.091 -1.6283  2.4509 -0.2533
 2617SOL    HW219311   4.136   1.108   0.108 -0.5937 -1.0319 -1.0806
 2618SOL     OW19312   2.584   1.381   3.323 -0.4999 -0.4045 -0.4726
 2618SOL    HW119313   2.614   1.291   3.337 -0.4249 -0.2460  0.4010
 2618SOL    HW219314   2.633   1.419   3.249  0.1505  0.6956  0.5161
 2619SOL     OW19315   4.012   0.943  14.092 -0.2404 -0.0314  0.3543
 2619SOL    HW119316   4.058   0.888  14.029 -0.9792 -1.4625  1.0572
 2619SOL    HW219317   4.053   1.029  14.080  1.0314 -0.8232 -0.9430
 2620SOL     OW19318   0.115   2.080   9.908  0.0311 -0.1425  0.2117
 2620SOL    HW119319   0.072   2.125   9.836 -0.2781  0.0196  0.4965
 2620SOL    HW219320   0.067   2.108   9.986  1.3585  2.1538  0.1973
 2621SOL     OW19321   2.051   1.565   2.327 -0.0313 -0.2162 -0.1345
 2621SOL    HW119322   2.081   1.638   2.381  4.0884 -2.3889  0.4657
 2621SOL    HW219323   2.133   1.531   2.291  0.6273  1.1275  0.1043
 2622SOL     OW19324   1.902   1.564  15.466  0.6496 -0.1475 -0.1253
 2622SOL    HW119325   1.947   1.492  15.421  1.6368 -0.2003  0.9573
 2622SOL    HW219326   1.896   1.523  15.553 -1.6164  0.2446 -0.0783
 2623SOL     OW19327   0.711   3.451   5.596  0.3139  0.2207  0.6998
 2623SOL    HW119328   0.764   3.377   5.624  1.7700  1.3745  1.0438
 2623SOL    HW219329   0.778   3.520   5.591  0.0815  0.3835 -0.1690
 2624SOL     OW19330   4.010   0.746   4.812  0.5503 -0.0879 -0.3830
 2624SOL    HW119331   4.091   0.708   4.776 -0.0245 -0.9540 -0.7507
 2624SOL    HW219332   3.978   0.676   4.869  0.8575 -0.7530 -1.0164
 2625SOL     OW19333   3.381   4.312   7.809 -0.9294  0.3707 -0.5161
 2625SOL    HW119334   3.448   4.272   7.864 -1.3224  2.3009  1.3564
 2625SOL    HW219335   3.334   4.236   7.775  1.4640 -2.3044  2.1098
 2626SOL     OW19336   2.864   0.580   5.949 -0.0063 -0.2974 -0.8491
 2626SOL    HW119337   2.798   0.524   5.907 -1.4624  0.6229  0.1991
 2626SOL    HW219338   2.925   0.523   5.995 -2.2342  0.4602  2.9914
 2627SOL     OW19339   1.885   2.528   7.786  0.5184 -0.7699  0.1093
 2627SOL    HW119340   1.870   2.611   7.740  0.3833 -1.3659 -0.9080
 2627SOL    HW219341   1.794   2.501   7.795  0.8032 -2.2850 -1.6482
 2628SOL     OW19342   1.809   1.865   7.410 -0.5052 -0.4496 -0.1838
 2628SOL    HW119343   1.739   1.802   7.391 -0.7087 -0.2838  0.0083
 2628SOL    HW219344   1.774   1.914   7.484  1.4699  0.0186  0.4379
 2629SOL     OW19345   1.612   4.390   6.981 -0.4355  0.0650  0.2240
 2629SOL    HW119346   1.648   4.301   6.979  1.0862  0.6747  0.0859
 2629SOL    HW219347   1.644   4.409   7.069 -0.1205 -3.0937  0.7992
 2630SOL     OW19348   0.966   3.308   5.412 -0.0813  0.5866  0.0605
 2630SOL    HW119349   0.962   3.403   5.403 -0.9394  0.6519  1.1418
 2630SOL    HW219350   0.883   3.284   5.372 -0.0251  0.1866  0.1763
 2631SOL     OW19351   1.659   2.118   4.963  0.2300  0.1329  0.4662
 2631SOL    HW119352   1.616   2.203   4.954 -0.9760 -0.3883  1.2376
 2631SOL    HW219353   1.670   2.091   4.872 -2.3621 -1.9682  0.7712
 2632SOL     OW19354   1.301   2.617   5.854 -0.5363 -0.0890  0.4893
 2632SOL    HW119355   1.327   2.644   5.943 -0.7307  2.1718 -0.1423
 2632SOL    HW219356   1.376   2.646   5.802  0.2461  0.8730  2.1183
 2633SOL     OW19357   0.063   3.655   6.396 -0.1168 -0.0275 -0.5101
 2633SOL    HW119358   0.072   3.697   6.310  1.1446  0.3845 -0.1786
 2633SOL    HW219359   0.122   3.580   6.385  1.2625  0.9797  0.0055
 2634SOL     OW19360   2.744   4.381   9.067  0.5447 -0.6778 -0.3031
 2634SOL    HW119361   2.708   4.304   9.023  3.9458 -1.0980 -2.2905
 2634SOL    HW219362   2.743   4.453   9.004  0.7778  1.2456  1.8890
 2635SOL     OW19363   2.253   2.858  10.233 -0.0160  0.6180 -0.1243
 2635SOL    HW119364   2.190   2.793  10.265 -1.0628  0.3201 -2.7606
 2635SOL    HW219365   2.288   2.805  10.161 -1.0520  1.6897 -1.4102
 2636SOL     OW19366   0.686   4.369   9.190  0.2506  0.1041  0.7117
 2636SOL    HW119367   0.595   4.374   9.163  0.5185  0.1241 -0.1729
 2636SOL    HW219368   0.669   4.388   9.282  1.6938 -0.4880  1.1034
 2637SOL     OW19369   4.022   4.504   0.670  0.5646  0.5126  0.2426
 2637SOL    HW119370   4.074   4.560   0.613  0.7513 -0.0077 -0.1026
 2637SOL    HW219371   4.085   4.475   0.735  0.3676  0.3099  0.3428
 2638SOL     OW19372   0.345   4.720   7.629  0.1039 -0.2243 -0.0696
 2638SOL    HW119373   0.401   4.660   7.580  0.4602  0.0692 -0.0213
 2638SOL    HW219374   0.398   4.722   7.709  1.7129  1.0578 -1.1391
 2639SOL     OW19375   3.879   3.385   6.848  0.2274 -0.6736 -0.7806
 2639SOL    HW119376   3.964   3.427   6.860  0.9710 -1.9850 -1.4632
 2639SOL    HW219377   3.862   3.423   6.762 -0.4359  3.6811  1.3187
 2640SOL     OW19378   3.751   3.068   2.889 -0.1747 -0.0877 -0.1973
 2640SOL    HW119379   3.794   3.127   2.951 -1.4518 -0.5933  1.1656
 2640SOL    HW219380   3.792   3.088   2.805  2.6627  1.9100  1.6667
 2641SOL     OW19381   2.459   1.803   6.680  0.4164 -0.3930 -0.3535
 2641SOL    HW119382   2.513   1.878   6.658  0.2022 -0.0671  0.2384
 2641SOL    HW219383   2.523   1.732   6.681 -0.8070 -1.4969 -0.8308
 2642SOL     OW19384   0.673   1.713   7.181  0.2806 -0.2287 -0.1307
 2642SOL    HW119385   0.679   1.787   7.121  0.3698  0.6570  0.9589
 2642SOL    HW219386   0.765   1.703   7.207 -0.5523 -1.7235  2.2330
 2643SOL     OW19387   2.547   4.423   5.139 -0.3931  0.4597  0.4331
 2643SOL    HW119388   2.603   4.439   5.063 -0.9761 -1.0380 -0.3084
 2643SOL    HW219389   2.614   4.433   5.206  0.4550 -0.9739 -0.2187
 2644SOL     OW19390   1.384   3.578   9.092  0.0082 -0.5254  0.5040
 2644SOL    HW119391   1.376   3.521   9.168  0.4230 -0.9375  0.2399
 2644SOL    HW219392   1.454   3.549   9.034  0.6058  1.0793  0.4233
 2645SOL     OW19393   3.940   1.466  16.299 -0.2469  0.1809 -0.0380
 2645SOL    HW119394   3.931   1.415  16.219 -1.2064 -0.5326  0.5236
 2645SOL    HW219395   3.874   1.418  16.349  0.5995  0.5284  1.4147
 2646SOL     OW19396   2.364   3.990   9.176 -0.2414 -0.2312  0.1289
 2646SOL    HW119397   2.306   3.916   9.192  2.8880 -2.4904  0.9785
 2646SOL    HW219398   2.394   4.002   9.266  1.4450 -3.3367 -0.0331
 2647SOL     OW19399   4.607   1.121   9.412  0.0895 -0.1032  0.5275
 2647SOL    HW119400   4.681   1.061   9.402  0.4695  0.5079 -0.2800
 2647SOL    HW219401   4.542   1.063   9.372 -0.0433  0.3696  0.0549
 2648SOL     OW19402   0.920   0.759   4.648  0.0710  0.3818 -0.7769
 2648SOL    HW119403   0.943   0.832   4.705 -1.6890 -0.9225  1.5658
 2648SOL    HW219404   0.879   0.807   4.576 -2.3535 -1.2024 -0.4748
 2649SOL     OW19405   2.319   2.034  11.732 -0.1986 -0.0853 -0.0131
 2649SOL    HW119406   2.325   2.027  11.827  1.2310  1.1523 -0.0131
 2649SOL    HW219407   2.406   2.066  11.706  1.2858 -1.5935  2.9973
 2650SOL     OW19408   3.007   3.101  17.358 -0.3161 -0.6018 -0.0241
 2650SOL    HW119409   3.064   3.024  17.368  1.2127  0.5656  0.1058
 2650SOL    HW219410   3.048   3.181  17.390  0.5265 -0.9895 -0.1205
 2651SOL     OW19411   2.550   0.759   4.515 -0.6286 -0.1692  0.2623
 2651SOL    HW119412   2.591   0.672   4.512  0.0612  0.2356 -1.3980
 2651SOL    HW219413   2.461   0.732   4.539 -1.7356  2.2600 -1.1327
 2652SOL     OW19414   0.153   3.651   3.474 -0.2143 -0.1576 -0.1795
 2652SOL    HW119415   0.238   3.655   3.430 -0.0942 -2.8520 -0.1917
 2652SOL    HW219416   0.124   3.561   3.464 -2.7917  0.9291 -2.6455
 2653SOL     OW19417   0.468   0.938   4.427  0.0505 -0.0734 -0.4837
 2653SOL    HW119418   0.529   0.920   4.498 -0.7954  0.6850  0.4369
 2653SOL    HW219419   0.474   1.033   4.417 -2.8684  0.1200 -0.2538
 2654SOL     OW19420   0.228   1.482  14.558  0.0916 -0.0304 -0.0365
 2654SOL    HW119421   0.229   1.413  14.491  0.9546  1.6188 -1.7259
 2654SOL    HW219422   0.310   1.525  14.534  0.9603 -2.1408 -0.8745
 2655SOL     OW19423   0.012   3.307  14.807 -0.0226 -0.1182 -0.2093
 2655SOL    HW119424   4.708   3.311  14.715  0.5661  0.8494 -0.3285
 2655SOL    HW219425   4.653   3.306  14.858 -0.0849 -0.4862 -0.3099
 2656SOL     OW19426   3.632   1.739  12.231  0.3785 -0.4269 -0.3388
 2656SOL    HW119427   3.625   1.721  12.325 -1.5082  0.6733 -0.2834
 2656SOL    HW219428   3.710   1.685  12.215  0.7175  0.1033 -0.4677
 2657SOL     OW19429   1.438   0.692   1.807 -0.1558 -0.0267  0.0610
 2657SOL    HW119430   1.443   0.597   1.815 -0.8301 -0.1248 -0.6954
 2657SOL    HW219431   1.521   0.723   1.772 -0.9433 -1.0713 -2.6762
 2658SOL     OW19432   2.285   2.178   5.367 -0.1775 -0.1155  0.0726
 2658SOL    HW119433   2.253   2.102   5.319 -0.4892 -0.4117  0.7516
 2658SOL    HW219434   2.257   2.245   5.304 -4.6057 -0.8141  1.3074
 2659SOL     OW19435   2.491   4.334  17.612 -0.0682 -0.1603  0.0369
 2659SOL    HW119436   2.447   4.250  17.622 -0.0330  0.0837  2.2002
 2659SOL    HW219437   2.426   4.388  17.566  1.2732 -0.5961 -2.3675
 2660SOL     OW19438   2.255   2.539  15.536 -0.1240 -0.3985 -0.7063
 2660SOL    HW119439   2.266   2.448  15.561 -0.8086 -0.1486  0.5019
 2660SOL    HW219440   2.160   2.550  15.542 -0.2030 -1.8823  0.5731
 2661SOL     OW19441   2.839   1.294   6.906  0.0836  0.6101  0.5258
 2661SOL    HW119442   2.807   1.317   6.993 -0.1016 -2.1368  1.1854
 2661SOL    HW219443   2.828   1.199   6.903 -5.5536  1.3760 -2.7913
 2662SOL     OW19444   0.796   4.274   6.497  0.0962  0.0138 -0.3333
 2662SOL    HW119445   0.734   4.226   6.551  0.5674  1.3530  1.4057
 2662SOL    HW219446   0.813   4.349   6.554  1.2762 -1.1896  0.9195
 2663SOL     OW19447   1.761   0.656   6.747 -0.5674  0.0775 -0.6335
 2663SOL    HW119448   1.730   0.635   6.835 -0.3538  1.7021 -0.1722
 2663SOL    HW219449   1.700   0.728   6.731  0.7702  1.1782 -0.7713
 2664SOL     OW19450   2.132   4.274   9.600 -0.1255 -0.1523 -0.5664
 2664SOL    HW119451   2.147   4.283   9.694 -1.4582  0.0574 -0.3700
 2664SOL    HW219452   2.126   4.367   9.579 -0.0810 -0.4465 -1.9257
 2665SOL     OW19453   2.049   2.722   5.813 -0.5354  0.6235  0.3467
 2665SOL    HW119454   2.004   2.683   5.888 -3.2492  1.4847 -0.7963
 2665SOL    HW219455   2.110   2.780   5.858 -0.1939  1.1230 -0.7398
 2666SOL     OW19456   2.115   0.300   7.580  0.2816  0.2497 -0.0792
 2666SOL    HW119457   2.028   0.287   7.618 -0.7616  1.9726 -1.8363
 2666SOL    HW219458   2.106   0.382   7.532 -3.0370  0.2606  0.5637
 2667SOL     OW19459   3.324   3.507   4.232 -0.1625 -0.0399 -0.1596
 2667SOL    HW119460   3.330   3.451   4.309 -0.2859 -0.6711 -0.6095
 2667SOL    HW219461   3.233   3.487   4.208 -1.0820  2.3571  1.3594
 2668SOL     OW19462   3.053   0.257  15.631  0.0532 -0.3545 -0.1423
 2668SOL    HW119463   3.137   0.289  15.662 -1.1693  1.5387  1.2508
 2668SOL    HW219464   3.002   0.337  15.643 -0.8129 -1.4715  3.8170
 2669SOL     OW19465   0.580   2.922   5.375  0.3275  0.1494  0.0440
 2669SOL    HW119466   0.532   2.839   5.371 -2.0901  1.6280 -1.2863
 2669SOL    HW219467   0.668   2.891   5.394  0.0569 -2.0218 -2.1879
 2670SOL     OW19468   0.963   4.298   1.898  0.6379 -0.4295  0.6126
 2670SOL    HW119469   0.892   4.244   1.934  0.9972  1.0620  3.5282
 2670SOL    HW219470   0.921   4.320   1.814  2.3389 -0.2956 -0.2087
 2671SOL     OW19471   1.444   0.592   3.933 -0.0442  0.2333 -0.2119
 2671SOL    HW119472   1.474   0.504   3.913  2.6985  1.7417 -2.8001
 2671SOL    HW219473   1.401   0.581   4.017 -0.1435  0.7778 -0.1896
 2672SOL     OW19474   1.183   3.097   4.684 -0.1182  0.2052  0.5527
 2672SOL    HW119475   1.249   3.053   4.736 -1.5783 -1.5912  0.8570
 2672SOL    HW219476   1.108   3.039   4.697  0.2266 -0.6369 -1.2526
 2673SOL     OW19477   0.264   0.732   8.458 -0.1881 -0.4795  0.5245
 2673SOL    HW119478   0.236   0.697   8.373  1.5984  0.2617 -0.3887
 2673SOL    HW219479   0.234   0.659   8.512  0.4650 -1.3064 -0.2168
 2674SOL     OW19480   2.877   0.208   8.841 -0.2294 -0.0818  0.2441
 2674SOL    HW119481   2.940   0.259   8.890 -0.0211 -0.2215  0.1214
 2674SOL    HW219482   2.827   0.156   8.904  0.6500  0.4497  1.3592
 2675SOL     OW19483   3.004   0.251   2.849 -0.2054 -0.3281 -0.6669
 2675SOL    HW119484   2.992   0.336   2.807  0.6213  0.9407  1.6266
 2675SOL    HW219485   2.950   0.259   2.928  0.5701  2.3381 -0.4097
 2676SOL     OW19486   0.546   0.095   7.800  0.0280 -0.0763  0.4649
 2676SOL    HW119487   0.619   0.075   7.858 -0.4452  1.2990  1.5390
 2676SOL    HW219488   0.535   0.183   7.836 -0.0830 -1.0708  2.9048
 2677SOL     OW19489   2.937   4.711   8.699  0.1185 -0.5912  0.0287
 2677SOL    HW119490   2.905   0.058   8.757 -1.8195  0.6023 -2.4520
 2677SOL    HW219491   3.001   4.665   8.754  1.0786 -1.1254 -1.5471
 2678SOL     OW19492   4.712   0.954  15.421  0.2048  0.0097 -0.4493
 2678SOL    HW119493   4.642   1.010  15.388 -0.0727 -1.3234 -2.1232
 2678SOL    HW219494   0.051   0.952  15.347  0.2344 -0.5147 -0.4100
 2679SOL     OW19495   4.547   2.389   9.433 -0.5217 -0.1122 -0.0152
 2679SOL    HW119496   4.577   2.433   9.513 -0.5849  0.2496 -0.1915
 2679SOL    HW219497   4.454   2.382   9.452 -0.3800  0.4981  0.9557
 2680SOL     OW19498   2.503   1.917   7.376  0.0971 -0.0903 -0.3796
 2680SOL    HW119499   2.421   1.871   7.394 -0.1198  0.4302 -0.0575
 2680SOL    HW219500   2.479   1.949   7.289  0.8054 -2.0284 -1.3018
 2681SOL     OW19501   1.080   0.766   6.574 -0.4015 -0.4560  0.0501
 2681SOL    HW119502   1.122   0.701   6.518 -2.2785 -0.8930 -0.8589
 2681SOL    HW219503   0.991   0.757   6.540  0.0834 -1.9023 -0.8602
 2682SOL     OW19504   2.754   1.217   6.273  0.2696  0.1661  0.4397
 2682SOL    HW119505   2.772   1.206   6.179  2.4956  0.4071  0.8612
 2682SOL    HW219506   2.811   1.293   6.282  0.1578  0.3793 -0.6598
 2683SOL     OW19507   3.990   3.982   7.669 -0.3319  0.2613  0.1883
 2683SOL    HW119508   4.034   4.045   7.727 -1.5311  1.2274  0.0510
 2683SOL    HW219509   4.069   3.942   7.632 -1.3318 -1.1844 -0.3722
 2684SOL     OW19510   2.183   4.076  11.455 -0.2850 -0.3267 -1.0434
 2684SOL    HW119511   2.254   4.034  11.504  0.2552  1.7017 -0.0521
 2684SOL    HW219512   2.196   4.044  11.366 -0.3399 -0.0404 -1.1563
 2685SOL     OW19513   4.265   4.032   0.542 -0.8275  0.6346 -0.1333
 2685SOL    HW119514   4.182   4.063   0.507 -2.0703  1.7310  3.7803
 2685SOL    HW219515   4.241   3.944   0.572 -0.4763  0.3211 -0.7762
 2686SOL     OW19516   3.857   1.019   5.847 -0.2690  0.7026 -0.6625
 2686SOL    HW119517   3.775   1.038   5.892  1.0695  3.5381  0.6290
 2686SOL    HW219518   3.806   0.979   5.777 -0.4999  0.5221 -0.3945
 2687SOL     OW19519   3.975   4.051   9.219 -0.0490 -0.0959 -0.0751
 2687SOL    HW119520   3.929   4.053   9.302  0.4055  1.0481  0.1399
 2687SOL    HW219521   4.002   4.141   9.202  1.0750 -0.2641  0.8395
 2688SOL     OW19522   4.442   3.887  13.253  0.7944 -0.2769  0.4952
 2688SOL    HW119523   4.362   3.929  13.283  1.3639  0.6484  0.6952
 2688SOL    HW219524   4.427   3.887  13.158  1.0400 -3.1306  0.4430
 2689SOL     OW19525   3.972   0.803   6.001 -0.3536  0.1937 -0.2359
 2689SOL    HW119526   3.965   0.881   5.946  1.6336  1.0075  0.6755
 2689SOL    HW219527   4.050   0.821   6.053 -1.3713  1.6007  0.8141
 2690SOL     OW19528   1.842   1.282   4.161 -0.6365  0.1131  0.0859
 2690SOL    HW119529   1.783   1.351   4.131 -1.2225 -0.7085 -0.6457
 2690SOL    HW219530   1.782   1.209   4.149  1.0118 -1.1399 -0.5690
 2691SOL     OW19531   0.407   3.957  13.449  0.0616 -0.2827 -0.2698
 2691SOL    HW119532   0.429   3.881  13.502  1.1815 -0.3117 -0.7725
 2691SOL    HW219533   0.448   3.935  13.366  2.9989 -0.8721  1.3364
 2692SOL     OW19534   0.831   4.479   3.894  0.2326  0.6264  0.0979
 2692SOL    HW119535   0.833   4.406   3.833  1.7480  0.0173  0.8762
 2692SOL    HW219536   0.797   4.431   3.970  0.2709  0.5845  0.0881
 2693SOL     OW19537   4.628   0.428   5.899  0.4539 -0.2660  0.0528
 2693SOL    HW119538   4.644   0.400   5.809  0.1458  1.6284 -0.5956
 2693SOL    HW219539   4.548   0.375   5.905 -0.0202  0.3889 -0.5213
 2694SOL     OW19540   0.792   1.260  14.656  0.0791 -0.3047  0.1033
 2694SOL    HW119541   0.701   1.282  14.638  0.3269 -0.4811 -1.3570
 2694SOL    HW219542   0.809   1.332  14.716 -0.1420  1.7819 -2.3453
 2695SOL     OW19543   1.326   2.875   2.509  0.0706  0.3154 -0.3278
 2695SOL    HW119544   1.356   2.834   2.590  0.9482 -1.0916 -1.3558
 2695SOL    HW219545   1.253   2.818   2.484  1.6555 -1.6934 -0.4179
 2696SOL     OW19546   3.809   3.332   5.141  0.1073 -0.0410  0.4004
 2696SOL    HW119547   3.892   3.288   5.160  0.3529  0.2082 -0.0990
 2696SOL    HW219548   3.806   3.345   5.046 -1.0689 -0.6672  0.3635
 2697SOL     OW19549   0.391   3.184   5.206 -0.2402  0.1233 -0.6571
 2697SOL    HW119550   0.366   3.163   5.296 -2.3895 -0.0244 -1.2900
 2697SOL    HW219551   0.337   3.261   5.187  0.3072  0.6962  0.1337
 2698SOL     OW19552   0.486   4.628   5.945 -0.0112  0.0666  0.3351
 2698SOL    HW119553   0.483   4.629   5.850  2.2714  0.2725  0.2491
 2698SOL    HW219554   0.433   4.552   5.968  0.3293 -0.6704 -1.3739
 2699SOL     OW19555   3.718   0.437   4.206 -0.0937  0.0324  0.1238
 2699SOL    HW119556   3.795   0.408   4.256  0.2239  3.2246  1.5008
 2699SOL    HW219557   3.726   0.527   4.237 -0.8764  0.0107  0.3790
 2700SOL     OW19558   0.212   2.105  14.079 -0.3932 -0.2231  0.4008
 2700SOL    HW119559   0.168   2.020  14.073 -1.9425  0.7675 -2.9357
 2700SOL    HW219560   0.294   2.086  14.034 -1.5373 -0.1130 -1.7845
 2701SOL     OW19561   3.002   1.049   8.647  0.0616 -0.2599  0.1411
 2701SOL    HW119562   3.079   1.022   8.597  0.0337 -1.0486  0.5210
 2701SOL    HW219563   2.935   1.068   8.582 -0.8624 -0.4216  1.0414
 2702SOL     OW19564   1.294   1.588   0.576  0.3073  0.3748 -0.4107
 2702SOL    HW119565   1.266   1.501   0.603 -1.5753  0.5843 -1.7006
 2702SOL    HW219566   1.259   1.633   0.652  2.7836  0.7110  0.5362
 2703SOL     OW19567   0.076   2.665  17.640 -0.0687  0.5730 -0.0377
 2703SOL    HW119568   0.039   2.689  17.556  0.5173 -3.5488 -1.4959
 2703SOL    HW219569   0.088   2.570  17.638 -1.8248  0.3116  1.4336
 2704SOL     OW19570   0.343   3.704   6.727 -0.2070 -0.7495 -0.1373
 2704SOL    HW119571   0.301   3.660   6.801  0.3694  1.4556  1.5068
 2704SOL    HW219572   0.385   3.777   6.772 -3.3606  1.4227 -0.6798
 2705SOL     OW19573   1.553   1.129   0.176  0.4383  0.3942 -0.4300
 2705SOL    HW119574   1.566   1.149   0.083 -0.7861  1.2725 -0.4099
 2705SOL    HW219575   1.512   1.210   0.207 -0.2174  0.5412 -1.6980
 2706SOL     OW19576   3.038   1.772   6.092  0.2375 -0.6578  0.6574
 2706SOL    HW119577   3.112   1.795   6.148  0.5656  1.9059 -0.7975
 2706SOL    HW219578   2.962   1.790   6.146 -0.5389 -1.9835  0.0012
 2707SOL     OW19579   2.295   2.866  15.070 -0.4779 -0.0091 -0.1292
 2707SOL    HW119580   2.352   2.806  15.023 -1.0071  0.8410 -1.8597
 2707SOL    HW219581   2.246   2.809  15.129 -2.0151 -0.7060 -2.0741
 2708SOL     OW19582   1.582   0.270   3.183 -0.5547 -0.3798 -0.4850
 2708SOL    HW119583   1.663   0.321   3.177 -0.8567  0.0956 -0.4977
 2708SOL    HW219584   1.513   0.336   3.187 -1.8421 -1.6266 -1.7307
 2709SOL     OW19585   2.718   4.305  16.783 -0.5090 -0.1504 -0.0061
 2709SOL    HW119586   2.798   4.257  16.801 -0.3380  0.1728  0.1024
 2709SOL    HW219587   2.666   4.262  16.851 -0.3923 -1.4834 -0.7784
 2710SOL     OW19588   3.890   4.499   5.671 -0.2409 -0.1582 -0.0000
 2710SOL    HW119589   3.960   4.475   5.733  0.6538  1.5215 -0.3549
 2710SOL    HW219590   3.905   4.430   5.607 -0.5178 -1.1228  0.9673
 2711SOL     OW19591   2.342   1.348   7.984  0.5212 -0.3298 -0.0812
 2711SOL    HW119592   2.374   1.438   7.977 -3.3298  1.1591  1.6413
 2711SOL    HW219593   2.421   1.300   8.012  1.5087  0.7688 -1.0055
 2712SOL     OW19594   2.170   1.608  16.985  0.4801 -0.1336  0.0749
 2712SOL    HW119595   2.110   1.602  17.060 -0.5468  2.5773 -0.5180
 2712SOL    HW219596   2.129   1.544  16.927  0.3174 -1.3743  1.5667
 2713SOL     OW19597   2.270   0.997  13.896  0.2996 -0.1404 -0.0107
 2713SOL    HW119598   2.352   0.947  13.898  1.0051  0.9302 -2.2857
 2713SOL    HW219599   2.297   1.084  13.865  0.7658  0.2777  1.5898
 2714SOL     OW19600   0.146   2.363   9.502 -0.5870 -0.3248 -0.0272
 2714SOL    HW119601   0.112   2.363   9.412 -0.0920 -0.0801 -0.2115
 2714SOL    HW219602   0.133   2.455   9.526 -1.5658 -0.3975 -0.2885
 2715SOL     OW19603   0.717   1.369  11.871  0.1112 -0.4208  0.1033
 2715SOL    HW119604   0.626   1.372  11.902  0.8799 -3.2432  2.6578
 2715SOL    HW219605   0.715   1.461  11.845  0.0324 -0.5213 -0.2405
 2716SOL     OW19606   3.242   1.041   1.029  0.4886 -0.3171  0.2378
 2716SOL    HW119607   3.238   1.114   0.967 -0.2219 -0.1398  0.4897
 2716SOL    HW219608   3.336   1.021   1.021 -0.1679 -1.8541 -3.2954
 2717SOL     OW19609   0.676   0.809   8.046  0.0293 -0.2275  0.1036
 2717SOL    HW119610   0.704   0.899   8.061 -0.7656 -0.0563  0.5377
 2717SOL    HW219611   0.636   0.817   7.959  0.6083 -0.5084 -0.1849
 2718SOL     OW19612   3.598   1.311   2.908  1.2552 -0.4134 -0.0496
 2718SOL    HW119613   3.550   1.369   2.967 -0.4294 -1.2398 -0.6099
 2718SOL    HW219614   3.555   1.328   2.824  1.0624  0.6234  0.2558
 2719SOL     OW19615   3.251   0.488   3.430 -0.4008  0.0455  0.1818
 2719SOL    HW119616   3.157   0.508   3.429  0.0235  2.0294 -1.3322
 2719SOL    HW219617   3.261   0.451   3.518 -0.0461 -0.6598 -0.1630
 2720SOL     OW19618   2.464   3.437   2.606  0.4302  0.0369  0.3191
 2720SOL    HW119619   2.483   3.530   2.612  0.9799 -0.0628  0.1309
 2720SOL    HW219620   2.515   3.413   2.529 -0.3725 -0.4988 -0.0400
 2721SOL     OW19621   3.483   3.447   7.623  0.0771 -0.6410  0.0456
 2721SOL    HW119622   3.574   3.446   7.591 -0.6569  3.9752 -2.1215
 2721SOL    HW219623   3.447   3.370   7.579  0.1199  0.2019 -1.4878
 2722SOL     OW19624   1.798   0.853   8.430  0.2521 -0.4295  0.2412
 2722SOL    HW119625   1.810   0.880   8.521  0.1790 -1.5433  0.5929
 2722SOL    HW219626   1.808   0.933   8.379 -0.4316  0.0523  0.8577
 2723SOL     OW19627   2.612   4.373   5.633 -0.1413 -0.2884 -0.1831
 2723SOL    HW119628   2.643   4.375   5.724  1.5198 -1.4575 -0.7258
 2723SOL    HW219629   2.594   4.466   5.622  0.4399 -0.1887 -0.3063
 2724SOL     OW19630   1.455   0.071   1.808  0.6259  0.3123  0.5327
 2724SOL    HW119631   1.404   0.027   1.739 -0.8656  1.8020  0.6761
 2724SOL    HW219632   1.454   0.000   1.872  1.1724 -2.2359 -2.2350
 2725SOL     OW19633   0.179   1.035   8.255 -0.2506  0.3620  0.2154
 2725SOL    HW119634   0.134   0.997   8.331  1.8081 -1.0128  0.7612
 2725SOL    HW219635   0.161   1.128   8.265 -0.3841  0.3141  0.4387
 2726SOL     OW19636   1.387   0.415  10.140  0.1005 -0.1393 -0.0151
 2726SOL    HW119637   1.305   0.464  10.129  0.7013  1.1053  0.9973
 2726SOL    HW219638   1.387   0.397  10.046 -1.8531  0.2325 -0.0909
 2727SOL     OW19639   3.021   0.241   3.332 -0.2917  0.3914  0.2697
 2727SOL    HW119640   3.027   0.146   3.346 -1.2888  0.1448 -0.9960
 2727SOL    HW219641   2.965   0.247   3.254 -2.0960 -0.9949  1.4404
 2728SOL     OW19642   0.844   1.661   9.695  0.1095 -0.0239  0.2776
 2728SOL    HW119643   0.855   1.668   9.600  1.4235 -2.7395  0.2422
 2728SOL    HW219644   0.929   1.622   9.720  1.1504  0.5780 -2.3572
 2729SOL     OW19645   0.676   3.992   4.851  0.4588 -0.0108  0.7592
 2729SOL    HW119646   0.741   3.922   4.864 -0.3133 -0.6411  1.2655
 2729SOL    HW219647   0.734   4.067   4.866  1.2441 -0.7994  1.6967
 2730SOL     OW19648   1.281   3.823   8.735  0.2490  0.7761 -0.4628
 2730SOL    HW119649   1.351   3.885   8.755  0.3717 -0.6025  3.4555
 2730SOL    HW219650   1.287   3.828   8.640 -0.5311 -1.0831 -0.6153
 2731SOL     OW19651   3.500   1.203   8.144  0.4301 -0.2539 -0.4455
 2731SOL    HW119652   3.502   1.298   8.142  2.8856 -0.2281  2.0208
 2731SOL    HW219653   3.462   1.172   8.062 -2.0191  2.2870 -0.2430
 2732SOL     OW19654   3.788   0.376  13.265  0.8236 -0.2157  0.0507
 2732SOL    HW119655   3.839   0.379  13.184  1.4294  0.3523  0.4537
 2732SOL    HW219656   3.776   0.470  13.275  1.5608 -0.3927  2.4999
 2733SOL     OW19657   2.610   2.362  17.455  0.0699 -0.1557 -0.0340
 2733SOL    HW119658   2.683   2.414  17.421 -1.2479  0.3007 -2.1542
 2733SOL    HW219659   2.611   2.282  17.402  1.7391 -0.5180  0.5468
 2734SOL     OW19660   1.396   2.555   7.426  0.0230  0.1637  0.3212
 2734SOL    HW119661   1.332   2.487   7.406  1.2662 -0.4972 -1.4035
 2734SOL    HW219662   1.336   2.616   7.470 -0.2089 -0.7321  1.2299
 2735SOL     OW19663   2.272   1.224   9.206  0.3231 -0.0564  0.2107
 2735SOL    HW119664   2.255   1.318   9.200 -0.9896 -0.3451 -0.3129
 2735SOL    HW219665   2.306   1.202   9.293  0.2575 -1.4436 -0.1185
 2736SOL     OW19666   0.734   1.035   7.487 -0.3146  0.0773 -0.7527
 2736SOL    HW119667   0.725   1.007   7.396  0.6205 -2.0190 -0.2030
 2736SOL    HW219668   0.737   1.130   7.480  2.4251 -0.1173 -2.1451
 2737SOL     OW19669   3.379   3.667  16.556 -0.1879 -0.1460 -0.4267
 2737SOL    HW119670   3.316   3.717  16.504 -0.9978 -0.7463 -0.0367
 2737SOL    HW219671   3.439   3.635  16.489 -0.3954 -0.8021 -0.2976
 2738SOL     OW19672   4.018   0.767   5.225 -0.3341 -0.1910 -0.0104
 2738SOL    HW119673   3.964   0.801   5.154 -0.0580 -1.1954 -0.6970
 2738SOL    HW219674   4.066   0.847   5.250 -0.4710  0.4496 -1.7785
 2739SOL     OW19675   4.626   2.405   9.176 -0.3647  0.2160  0.3749
 2739SOL    HW119676   4.602   2.383   9.266 -1.1302  0.7457  0.2963
 2739SOL    HW219677   4.600   2.496   9.164  0.5097  0.2155 -1.4497
 2740SOL     OW19678   1.771   2.951   0.735  0.2932 -0.2674  0.3898
 2740SOL    HW119679   1.840   2.925   0.674  0.5500 -0.4406  0.7486
 2740SOL    HW219680   1.724   3.012   0.678  1.3402  0.5807  0.4283
 2741SOL     OW19681   3.507   0.507   6.698 -0.2362 -0.1920 -0.9303
 2741SOL    HW119682   3.600   0.524   6.685 -0.9038  4.0586  0.0799
 2741SOL    HW219683   3.510   0.450   6.775 -3.0721  1.8476  0.6851
 2742SOL     OW19684   4.302   4.496   3.476  0.0264  0.1545  0.5489
 2742SOL    HW119685   4.227   4.438   3.487  1.5256 -2.2014 -1.4716
 2742SOL    HW219686   4.358   4.481   3.552 -1.2410  1.7894  1.7811
 2743SOL     OW19687   0.429   0.303  15.656  0.0988  0.1115  0.1027
 2743SOL    HW119688   0.338   0.273  15.664 -0.9544  3.1673 -0.7288
 2743SOL    HW219689   0.457   0.284  15.567 -0.4880 -2.1788  0.4113
 2744SOL     OW19690   2.301   0.551  11.619  0.0018 -0.2011 -0.0134
 2744SOL    HW119691   2.242   0.525  11.548  2.1127  2.0969 -2.6239
 2744SOL    HW219692   2.268   0.641  11.620  2.1371  0.5460  2.1887
 2745SOL     OW19693   1.926   1.551  11.012 -0.6647 -0.5208 -0.4122
 2745SOL    HW119694   1.894   1.551  10.922 -2.7059  1.0029  0.3284
 2745SOL    HW219695   1.899   1.640  11.033  0.7557 -0.4204  1.0377
 2746SOL     OW19696   4.685   1.695   8.715 -0.2610  0.3869  0.5277
 2746SOL    HW119697   0.041   1.710   8.768 -1.4151  1.3040  1.9829
 2746SOL    HW219698   4.679   1.600   8.717 -0.4457  0.4168  1.5302
 2747SOL     OW19699   3.977   0.369   5.705  0.3272 -0.6204 -0.1145
 2747SOL    HW119700   3.994   0.363   5.610  2.1769 -2.5791  0.3213
 2747SOL    HW219701   3.920   0.446   5.710 -0.1830 -0.9544 -0.6784
 2748SOL     OW19702   1.196   2.427   2.294 -0.2327 -0.4028  0.1250
 2748SOL    HW119703   1.115   2.389   2.258  1.0962 -2.4450 -0.6737
 2748SOL    HW219704   1.239   2.351   2.332 -0.5401 -1.8881 -2.4916
 2749SOL     OW19705   4.447   4.221   6.932  0.4951  0.0409  0.0202
 2749SOL    HW119706   4.455   4.195   7.023  1.9617  1.1081  0.2118
 2749SOL    HW219707   4.537   4.249   6.913  0.7906 -1.1063 -0.2394
 2750SOL     OW19708   0.807   1.993  10.891 -0.0376  0.3949 -0.4681
 2750SOL    HW119709   0.763   1.908  10.889  0.8210 -0.0683  0.4149
 2750SOL    HW219710   0.883   1.958  10.844  0.3798  0.6154  0.0392
 2751SOL     OW19711   2.728   4.382   5.872 -0.1943 -0.5333 -0.0378
 2751SOL    HW119712   2.694   4.452   5.927  4.8457  2.3563 -0.5931
 2751SOL    HW219713   2.816   4.372   5.908  0.1822 -3.0435 -1.6274
 2752SOL     OW19714   1.716   1.388   5.579 -0.3703 -0.1547 -0.4765
 2752SOL    HW119715   1.678   1.390   5.667 -2.5832 -1.7682 -1.4006
 2752SOL    HW219716   1.638   1.398   5.525 -0.0754 -1.4431 -1.1330
 2753SOL     OW19717   3.242   3.182   3.463  0.0165 -0.1829  0.0661
 2753SOL    HW119718   3.169   3.153   3.408  0.9733  1.2108 -1.9532
 2753SOL    HW219719   3.310   3.133   3.417 -0.7807 -0.3034 -0.9784
 2754SOL     OW19720   2.384   0.838  14.335 -0.0501  0.3758  0.0768
 2754SOL    HW119721   2.463   0.822  14.284 -0.0647 -4.6460  1.5636
 2754SOL    HW219722   2.350   0.749  14.332 -0.4610  0.5859 -1.3363
 2755SOL     OW19723   0.895   1.581   1.390 -0.8521  0.3058  0.7499
 2755SOL    HW119724   0.856   1.599   1.476 -0.7207 -0.5760  0.9948
 2755SOL    HW219725   0.955   1.508   1.405  1.2268  1.8990  0.1163
 2756SOL     OW19726   2.357   3.974   7.619  0.1294  0.0472 -0.0278
 2756SOL    HW119727   2.262   3.988   7.613 -0.4885 -3.1168  2.4048
 2756SOL    HW219728   2.351   3.879   7.606  1.7178 -0.1249  0.5257
 2757SOL     OW19729   0.818   2.966   6.748  0.3564  0.5232  0.1480
 2757SOL    HW119730   0.771   2.930   6.673  2.2918 -4.0465  1.1576
 2757SOL    HW219731   0.907   2.932   6.733  1.1517  1.7184  2.0706
 2758SOL     OW19732   0.648   1.288   8.513  0.4990 -0.0552  0.1917
 2758SOL    HW119733   0.670   1.197   8.495 -0.5389 -0.4042  0.6923
 2758SOL    HW219734   0.734   1.316   8.544  0.3286 -0.0921  0.6907
 2759SOL     OW19735   3.628   1.055  15.393  0.7178  0.4210  0.4539
 2759SOL    HW119736   3.686   0.994  15.348  0.7690  1.5464 -1.0175
 2759SOL    HW219737   3.647   1.027  15.483 -0.1156  0.3942  0.6202
 2760SOL     OW19738   0.477   1.090   2.903 -0.5534 -0.0581 -0.0189
 2760SOL    HW119739   0.533   1.052   2.836 -2.4036 -0.8599 -1.1003
 2760SOL    HW219740   0.534   1.151   2.950 -0.4930  0.3757 -0.6582
 2761SOL     OW19741   2.594   4.549   7.878  0.2777  0.7835 -0.0914
 2761SOL    HW119742   2.650   4.592   7.813 -1.3048  0.6615 -1.5274
 2761SOL    HW219743   2.659   4.547   7.948 -0.4351 -0.9667  0.5178
 2762SOL     OW19744   2.392   2.150   8.208 -0.4072  0.2717 -0.4451
 2762SOL    HW119745   2.439   2.127   8.288 -0.6605 -1.0943 -0.6876
 2762SOL    HW219746   2.328   2.079   8.213 -0.7941  0.4466 -2.7852
 2763SOL     OW19747   0.583   0.128  13.122 -0.1404 -0.0320  0.6975
 2763SOL    HW119748   0.620   0.202  13.170  0.0918  0.5921 -0.4451
 2763SOL    HW219749   0.625   0.131  13.037  0.2296  0.9243  0.9106
 2764SOL     OW19750   3.424   0.470  12.349  0.1221 -0.2776  0.4524
 2764SOL    HW119751   3.446   0.377  12.348  0.6615 -0.1429 -0.3390
 2764SOL    HW219752   3.497   0.508  12.398  0.9156 -1.0259 -0.1565
 2765SOL     OW19753   4.536   3.672  11.706  0.0294  0.2273 -0.0147
 2765SOL    HW119754   4.536   3.745  11.643 -0.4086 -1.4186 -1.9179
 2765SOL    HW219755   4.457   3.698  11.753  0.9701  0.3277  1.5092
 2766SOL     OW19756   2.755   3.882   1.839 -0.1725  0.1082 -0.0346
 2766SOL    HW119757   2.821   3.921   1.783 -1.6178 -1.3917 -2.7902
 2766SOL    HW219758   2.780   3.790   1.836 -0.2507  0.0917 -0.2379
 2767SOL     OW19759   1.505   3.560  11.013 -0.0154 -0.2365 -0.1616
 2767SOL    HW119760   1.460   3.638  10.980 -0.0328  0.3614  1.2498
 2767SOL    HW219761   1.522   3.509  10.934  2.0213  0.1798  0.0050
 2768SOL     OW19762   3.600   2.924   8.486  0.7039  0.5982 -0.3703
 2768SOL    HW119763   3.672   2.948   8.544  1.8913  0.4742 -1.7938
 2768SOL    HW219764   3.638   2.944   8.401  3.2283  0.2596  0.6790
 2769SOL     OW19765   3.177   2.895   1.469 -0.1799  0.5017 -0.2406
 2769SOL    HW119766   3.205   2.810   1.435 -2.3348  0.1283 -1.0458
 2769SOL    HW219767   3.252   2.934   1.514  0.6229 -1.9311  0.5616
 2770SOL     OW19768   1.182   0.191  13.431  0.4046  0.3522  0.0365
 2770SOL    HW119769   1.249   0.256  13.453 -0.2167  1.0349 -0.1136
 2770SOL    HW219770   1.231   0.110  13.412  1.2221  0.5716  1.1872
 2771SOL     OW19771   3.101   2.919   3.009  0.2277  0.0629  0.1196
 2771SOL    HW119772   3.118   2.985   2.941 -0.7209 -0.4964 -0.6638
 2771SOL    HW219773   3.013   2.888   2.987  0.1888 -0.7940  1.4807
 2772SOL     OW19774   0.501   0.872   8.694 -0.4925  0.2643 -0.2829
 2772SOL    HW119775   0.421   0.832   8.661  0.1593 -0.8076 -0.5466
 2772SOL    HW219776   0.503   0.846   8.786  1.2901  1.4392  0.0266
 2773SOL     OW19777   4.708   3.412   2.894  0.2664  0.4321  0.2563
 2773SOL    HW119778   4.697   3.474   2.822 -1.6230  0.0297  0.1922
 2773SOL    HW219779   0.082   3.419   2.894  0.3330 -0.4286  1.5848
 2774SOL     OW19780   3.982   3.510   1.214  0.0196 -0.2332 -0.2141
 2774SOL    HW119781   3.932   3.468   1.143 -1.8876  1.5459  0.0887
 2774SOL    HW219782   4.068   3.496   1.175  0.4780 -0.9457  1.0618
 2775SOL     OW19783   2.511   2.193   0.798 -0.3188  0.1947 -0.1266
 2775SOL    HW119784   2.478   2.272   0.754  0.2657  0.8742  0.6471
 2775SOL    HW219785   2.580   2.231   0.852 -2.0650  2.5912  0.4360
 2776SOL     OW19786   4.019   3.706   2.285  0.5546 -0.4901 -0.9146
 2776SOL    HW119787   4.091   3.686   2.345 -0.6208 -0.1987  0.6130
 2776SOL    HW219788   4.036   3.799   2.270 -3.0702  0.0793 -1.5448
 2777SOL     OW19789   0.131   1.559  10.854 -0.4689  0.2615 -0.5264
 2777SOL    HW119790   0.222   1.537  10.869 -0.3665  1.7211  1.0847
 2777SOL    HW219791   0.073   1.483  10.848 -1.6403  1.0210  0.8106
 2778SOL     OW19792   2.922   3.205   3.934  0.5927  0.1391 -0.3952
 2778SOL    HW119793   2.862   3.132   3.947  2.4315 -0.8429  2.5083
 2778SOL    HW219794   2.867   3.279   3.960 -1.2467 -0.6961 -1.9553
 2779SOL     OW19795   0.824   1.299  17.643 -1.1136 -0.1342  0.0715
 2779SOL    HW119796   0.813   1.352   0.031 -2.6220 -0.8698  0.3432
 2779SOL    HW219797   0.802   1.208  17.664  1.2845 -0.9577 -0.9357
 2780SOL     OW19798   0.986   0.802  15.385 -0.2956  0.4224 -0.3565
 2780SOL    HW119799   0.993   0.752  15.466  0.5437  0.7696 -0.2177
 2780SOL    HW219800   0.996   0.733  15.320  4.9784  1.2036 -0.3336
 2781SOL     OW19801   1.733   4.542   5.084 -0.1297 -0.1184 -0.0175
 2781SOL    HW119802   1.657   4.485   5.078  0.5904 -1.0318 -0.4039
 2781SOL    HW219803   1.800   4.499   5.030 -0.1509  1.3650 -1.2343
 2782SOL     OW19804   4.161   2.503   8.040 -0.5682  0.0770 -0.2024
 2782SOL    HW119805   4.172   2.519   8.134  1.1014 -0.5145 -0.2794
 2782SOL    HW219806   4.069   2.479   8.035 -0.5182 -0.3622  0.9180
 2783SOL     OW19807   1.650   2.789  16.407 -0.0187  0.1921 -0.5282
 2783SOL    HW119808   1.685   2.846  16.475  0.6561 -0.1218 -0.6102
 2783SOL    HW219809   1.626   2.856  16.343  4.3987  1.5069 -0.7949
 2784SOL     OW19810   1.279   2.454  13.105  0.1715 -0.0547 -0.5562
 2784SOL    HW119811   1.288   2.539  13.063  1.1633 -0.7620 -1.7727
 2784SOL    HW219812   1.365   2.435  13.142 -0.7328 -1.1584  0.9942
 2785SOL     OW19813   2.733   2.217   5.902 -0.0596  0.6097 -0.0024
 2785SOL    HW119814   2.680   2.263   5.966  0.2073  1.5330 -0.4406
 2785SOL    HW219815   2.695   2.245   5.818  1.3523  1.4478 -0.3492
 2786SOL     OW19816   3.155   4.178   4.147  0.0264 -0.4061 -0.2981
 2786SOL    HW119817   3.182   4.233   4.073 -0.4497  0.1863 -0.0280
 2786SOL    HW219818   3.137   4.104   4.089 -3.0127 -0.2659  0.4859
 2787SOL     OW19819   3.952   1.384   9.123  0.1482 -0.5390 -0.1515
 2787SOL    HW119820   3.946   1.354   9.214 -0.6494  1.0406  0.3217
 2787SOL    HW219821   4.041   1.372   9.090 -0.0662  0.6709 -1.1645
 2788SOL     OW19822   0.986   0.962   4.814  0.2498  0.0153  0.3995
 2788SOL    HW119823   0.996   1.038   4.756  0.8740  1.0036  1.7992
 2788SOL    HW219824   1.051   0.976   4.883 -1.0936 -0.1206  1.6732
 2789SOL     OW19825   1.463   1.303   2.308 -0.5144  0.7091  0.4300
 2789SOL    HW119826   1.373   1.269   2.309 -0.6085  0.9573 -0.2284
 2789SOL    HW219827   1.484   1.313   2.401  1.1223  1.5314 -0.0374
 2790SOL     OW19828   0.927   0.693   8.014 -0.0074 -0.0727 -0.2948
 2790SOL    HW119829   0.921   0.603   7.980 -2.4406 -0.2238  0.5021
 2790SOL    HW219830   0.836   0.717   8.032  0.2356 -1.0540  2.1544
 2791SOL     OW19831   3.498   0.869   8.509 -0.2621  0.6257  0.4725
 2791SOL    HW119832   3.537   0.870   8.597  0.3116  0.5102  0.2206
 2791SOL    HW219833   3.533   0.949   8.469 -0.1832  0.2121 -0.2884
 2792SOL     OW19834   0.667   2.233   7.771  0.1727  0.3098 -0.3112
 2792SOL    HW119835   0.741   2.270   7.722  0.7692  0.7165  0.9041
 2792SOL    HW219836   0.706   2.196   7.850 -1.7011 -0.7000  0.1363
 2793SOL     OW19837   2.437   3.335   3.804 -0.2538  0.0793  0.5379
 2793SOL    HW119838   2.510   3.383   3.765  1.1035 -2.3257  0.1279
 2793SOL    HW219839   2.373   3.407   3.806 -0.0665  0.2786 -0.4755
 2794SOL     OW19840   0.453   1.262   6.278 -0.0604 -0.1020 -0.0281
 2794SOL    HW119841   0.358   1.253   6.272  0.0678 -0.4139 -1.6754
 2794SOL    HW219842   0.477   1.287   6.189  1.2599 -0.4697  0.2097
 2795SOL     OW19843   0.099   3.902   4.172 -0.0292  0.2677  0.0667
 2795SOL    HW119844   0.186   3.940   4.171 -0.7995  2.0980  1.5462
 2795SOL    HW219845   0.050   3.958   4.233 -0.1843  0.5787 -0.3484
 2796SOL     OW19846   1.409   0.954   6.172  0.2051 -0.1737 -0.1441
 2796SOL    HW119847   1.385   0.998   6.090 -0.3916 -2.3898 -1.1541
 2796SOL    HW219848   1.321   0.938   6.205 -0.1202  4.4352  1.2489
 2797SOL     OW19849   0.211   2.796   2.949 -0.1517 -0.0991 -0.5634
 2797SOL    HW119850   0.199   2.818   3.041 -1.7683  1.2914 -1.1070
 2797SOL    HW219851   0.299   2.815   2.919 -0.0749 -0.6550 -0.6948
 2798SOL     OW19852   1.612   2.404   7.485 -0.2791  0.2268  0.0395
 2798SOL    HW119853   1.545   2.469   7.464 -1.2046  0.0728  2.5796
 2798SOL    HW219854   1.689   2.434   7.437 -0.4025 -0.3886 -0.5430
 2799SOL     OW19855   1.907   3.401   0.418  0.1263  0.1738 -0.4752
 2799SOL    HW119856   1.962   3.343   0.471 -1.5412 -0.5080  0.4934
 2799SOL    HW219857   1.844   3.342   0.376 -0.6574  1.0353 -0.5244
 2800SOL     OW19858   3.086   3.827   4.888  0.0959 -0.4059 -0.8097
 2800SOL    HW119859   3.097   3.780   4.970  1.3971 -1.5911 -1.6638
 2800SOL    HW219860   3.059   3.765   4.821 -1.6127 -0.4807 -0.0639
 2801SOL     OW19861   2.238   4.642  16.753  0.2146 -0.3216 -0.2700
 2801SOL    HW119862   2.295   4.610  16.683  1.9025  0.2859  0.8389
 2801SOL    HW219863   2.303   4.667  16.818 -0.6326  0.1772  0.3772
 2802SOL     OW19864   0.141   3.482   4.419 -0.7116  0.1775 -0.0077
 2802SOL    HW119865   0.096   3.479   4.335  0.0291 -0.8654 -0.3786
 2802SOL    HW219866   0.068   3.466   4.478 -1.4954 -0.9647 -1.2969
 2803SOL     OW19867   0.006   3.503   1.994  0.0190 -0.4923 -0.4561
 2803SOL    HW119868   4.679   3.493   1.912 -1.6803 -0.5836  0.5572
 2803SOL    HW219869   0.098   3.492   1.970 -0.3792 -2.2735 -1.1900
 2804SOL     OW19870   1.543   1.642   2.138 -0.1358 -0.1271  0.0730
 2804SOL    HW119871   1.459   1.613   2.175  0.2386 -1.9229 -0.4861
 2804SOL    HW219872   1.552   1.598   2.054 -0.5949 -1.7568  0.8745
 2805SOL     OW19873   0.435   0.628   3.483 -0.3677  0.2634 -0.3889
 2805SOL    HW119874   0.486   0.673   3.416 -0.2098  0.5291 -0.0950
 2805SOL    HW219875   0.488   0.550   3.495 -0.0102  0.8320  1.7536
 2806SOL     OW19876   4.691   4.710   3.336  0.2462  0.0830 -0.3172
 2806SOL    HW119877   4.603   4.678   3.314  0.5039 -1.2322  0.5390
 2806SOL    HW219878   4.670   0.028   3.421 -1.8843  1.3839 -1.4520
 2807SOL     OW19879   2.105   4.455   4.297  0.1251 -0.1398  0.2675
 2807SOL    HW119880   2.123   4.548   4.283 -0.1637 -0.1475 -0.1151
 2807SOL    HW219881   2.011   4.459   4.311  0.2130  0.9614  0.5908
 2808SOL     OW19882   3.916   0.048  14.626  0.2647 -0.1143 -0.2581
 2808SOL    HW119883   3.903   0.021  14.718 -1.4524 -0.6681 -0.6649
 2808SOL    HW219884   3.986   4.710  14.602  0.7627  1.2267 -2.1123
 2809SOL     OW19885   3.515   1.100   9.230  0.0361  0.2820 -0.3068
 2809SOL    HW119886   3.574   1.172   9.206  1.7375 -1.1093 -0.1987
 2809SOL    HW219887   3.552   1.066   9.311 -0.5079  1.7171  0.5523
 2810SOL     OW19888   4.000   2.455   6.819  0.2879  0.1136  0.0218
 2810SOL    HW119889   3.981   2.541   6.857 -0.2851 -0.1175  0.2446
 2810SOL    HW219890   3.941   2.468   6.745  0.2936 -1.1328 -0.2050
 2811SOL     OW19891   2.779   0.316  10.032 -0.1055  0.2439 -0.3666
 2811SOL    HW119892   2.702   0.341   9.982 -0.8562 -0.6852  0.3200
 2811SOL    HW219893   2.736   0.313  10.117  1.1214  0.4927  0.2647
 2812SOL     OW19894   3.910   2.847   1.394 -0.3993  0.1939 -0.4193
 2812SOL    HW119895   3.943   2.937   1.400 -0.4868  0.1848  0.1169
 2812SOL    HW219896   3.942   2.808   1.475  2.4697 -0.7375 -1.9858
 2813SOL     OW19897   0.471   2.293  10.017 -0.5956 -0.1787  0.3892
 2813SOL    HW119898   0.462   2.333   9.931  0.0001 -0.1434  0.3424
 2813SOL    HW219899   0.417   2.349  10.073  0.5578  3.0234 -1.6826
 2814SOL     OW19900   0.479   3.702   7.174 -0.0562 -0.2292 -0.0778
 2814SOL    HW119901   0.457   3.675   7.263  0.3966  2.4076  0.8342
 2814SOL    HW219902   0.544   3.642   7.138  1.3760  0.5289  1.2681
 2815SOL     OW19903   1.112   2.745   9.249 -0.7625 -0.2143  0.1070
 2815SOL    HW119904   1.198   2.715   9.278 -0.8977 -1.1830 -0.4696
 2815SOL    HW219905   1.144   2.761   9.161 -0.5034 -0.5307  0.1423
 2816SOL     OW19906   4.214   4.472   9.031  0.2817 -0.0813 -0.5209
 2816SOL    HW119907   4.194   4.501   8.942  0.9733 -1.3451 -1.0862
 2816SOL    HW219908   4.296   4.427   9.009 -0.0525 -0.3780 -1.1449
 2817SOL     OW19909   4.141   1.287  13.549  0.0902 -0.7911  0.1591
 2817SOL    HW119910   4.123   1.223  13.481 -3.5405 -2.0801  2.3263
 2817SOL    HW219911   4.073   1.354  13.542  1.2203  0.4609  1.1768
 2818SOL     OW19912   2.470   0.651  14.979 -0.0779 -0.2342  0.4063
 2818SOL    HW119913   2.449   0.559  14.993  1.7753 -1.0891 -2.2609
 2818SOL    HW219914   2.433   0.674  14.894  1.1291  0.2183  0.0008
 2819SOL     OW19915   1.524   3.053  15.548  0.0874  0.2489  0.6772
 2819SOL    HW119916   1.482   3.122  15.496  2.6127  2.3366  1.4167
 2819SOL    HW219917   1.460   3.001  15.596  1.1020 -2.0450 -0.4648
 2820SOL     OW19918   3.665   1.478  15.104  0.9395 -0.2198  0.3442
 2820SOL    HW119919   3.660   1.515  15.192  0.6169 -0.4125  0.4058
 2820SOL    HW219920   3.633   1.550  15.051  0.4153  0.8885  2.1690
 2821SOL     OW19921   0.035   1.858   3.023  0.0038  0.3951  0.3599
 2821SOL    HW119922   4.676   1.854   2.972  1.2110 -2.4306 -1.2782
 2821SOL    HW219923   0.023   1.779   3.076 -0.1914  0.7983  0.9280
 2822SOL     OW19924   4.558   4.096  12.471  0.1617  0.0197 -0.0927
 2822SOL    HW119925   4.563   4.035  12.398 -0.4642  0.2854 -0.3578
 2822SOL    HW219926   4.640   4.143  12.459  0.9269 -1.4530 -0.5967
 2823SOL     OW19927   2.433   4.674  17.311 -0.3897  0.3595  0.4618
 2823SOL    HW119928   2.499   4.690  17.378 -0.3528  2.3253 -0.0294
 2823SOL    HW219929   2.484   4.653  17.233 -0.9093  2.3463 -0.4300
 2824SOL     OW19930   0.539   2.469   5.875  0.2512 -0.3622  0.2233
 2824SOL    HW119931   0.455   2.474   5.920 -0.0391 -3.5205  0.0179
 2824SOL    HW219932   0.562   2.561   5.865  1.1493 -0.7865 -1.6485
 2825SOL     OW19933   1.579   2.379   3.241  0.5404 -0.1170  0.1463
 2825SOL    HW119934   1.609   2.457   3.195 -2.1445  1.2550  0.6869
 2825SOL    HW219935   1.633   2.383   3.320  0.2448 -0.4293  0.3629
 2826SOL     OW19936   3.912   4.049  16.669  0.2213 -0.0456 -0.0640
 2826SOL    HW119937   3.860   4.041  16.589  1.1223  2.4964 -0.9120
 2826SOL    HW219938   3.938   4.139  16.653 -0.3032  0.2871  0.9294
 2827SOL     OW19939   1.194   2.429  14.249  0.3478  0.4701  0.2683
 2827SOL    HW119940   1.259   2.422  14.318 -0.9577  0.1679  1.4726
 2827SOL    HW219941   1.177   2.337  14.230  2.6873 -0.3395  2.1515
 2828SOL     OW19942   0.925   4.450   7.254  0.0771 -0.4881 -0.1159
 2828SOL    HW119943   1.000   4.496   7.217  0.3452 -1.1591 -0.3845
 2828SOL    HW219944   0.959   4.361   7.244  0.7581 -0.1486 -0.7733
 2829SOL     OW19945   3.785   4.370   7.312 -0.1468 -0.3418  0.7721
 2829SOL    HW119946   3.732   4.387   7.391 -0.7436  1.0864  0.0626
 2829SOL    HW219947   3.820   4.459   7.307 -2.4887  0.6373  1.7884
 2830SOL     OW19948   0.985   1.438   4.631 -0.6705 -0.5330 -0.6442
 2830SOL    HW119949   1.030   1.383   4.695  0.2520  2.0233  0.9275
 2830SOL    HW219950   1.013   1.523   4.666  2.2768 -2.3350  1.3368
 2831SOL     OW19951   1.269   4.500  17.522  0.0867  0.0579 -0.0600
 2831SOL    HW119952   1.288   4.463  17.436  1.5027  1.1965 -0.2410
 2831SOL    HW219953   1.206   4.439  17.560  2.3012 -2.4688 -0.4434
 2832SOL     OW19954   3.043   3.815   6.304 -1.1282  0.0896 -0.3435
 2832SOL    HW119955   3.095   3.807   6.384 -0.3662  0.4204 -0.8026
 2832SOL    HW219956   2.975   3.867   6.346 -0.0192 -1.0311  2.8830
 2833SOL     OW19957   0.578   1.162   8.145 -0.3562  0.0919 -0.1562
 2833SOL    HW119958   0.634   1.095   8.186  1.1204  0.6929 -1.1899
 2833SOL    HW219959   0.633   1.240   8.150  0.5350 -0.4896 -0.7737
 2834SOL     OW19960   4.513   0.766   1.383  0.0133  0.0382  0.0288
 2834SOL    HW119961   4.599   0.731   1.360  0.1232 -0.4409  1.1970
 2834SOL    HW219962   4.468   0.742   1.302 -1.4934 -2.2663  1.5574
 2835SOL     OW19963   4.537   2.689   3.846 -0.2861  0.0892  0.3373
 2835SOL    HW119964   4.632   2.680   3.859 -0.3289 -0.9417 -0.0828
 2835SOL    HW219965   4.520   2.781   3.864  3.9086  1.2938 -1.8795
 2836SOL     OW19966   0.674   0.378  15.000 -0.5184  0.7755  0.3713
 2836SOL    HW119967   0.688   0.436  14.925  1.6744 -0.2255 -0.0126
 2836SOL    HW219968   0.586   0.397  15.031 -1.3979  1.1531 -2.3232
 2837SOL     OW19969   1.827   0.016   3.346  0.5867 -0.5455 -0.3773
 2837SOL    HW119970   1.892   0.055   3.288  0.0123 -1.9909 -1.9775
 2837SOL    HW219971   1.882   4.714   3.421 -1.1180  1.9111  1.6669
 2838SOL     OW19972   2.242   1.347   8.912  0.3127  0.4650  0.0793
 2838SOL    HW119973   2.228   1.403   8.988  0.5487  1.1779 -0.3992
 2838SOL    HW219974   2.193   1.402   8.850 -2.0118 -2.9995 -1.1509
 2839SOL     OW19975   0.893   1.757   3.261  0.0010  0.0898  0.0196
 2839SOL    HW119976   0.822   1.699   3.232 -2.8987  3.4652  0.3706
 2839SOL    HW219977   0.869   1.801   3.342  0.1556  0.1470  0.0338
 2840SOL     OW19978   1.472   3.079   5.502  0.1463 -0.9188  0.0976
 2840SOL    HW119979   1.457   2.988   5.474  0.6764 -0.9398 -0.1195
 2840SOL    HW219980   1.431   3.123   5.428  1.1867 -1.1314 -0.6015
 2841SOL     OW19981   1.668   0.064   5.054 -0.3251  0.1516  0.6626
 2841SOL    HW119982   1.706   0.073   4.966 -0.1699 -0.7375  0.6395
 2841SOL    HW219983   1.673   4.691   5.066 -1.0860 -0.0744 -0.7515
 2842SOL     OW19984   0.419   1.912   3.551  0.3207 -0.0562 -0.0552
 2842SOL    HW119985   0.389   2.002   3.565 -0.8850 -0.4080 -0.3167
 2842SOL    HW219986   0.504   1.923   3.591 -0.5063  2.6300  0.9311
 2843SOL     OW19987   4.533   0.799   0.131 -0.6145  0.6699  0.1150
 2843SOL    HW119988   4.448   0.776   0.169 -0.8747 -0.0767 -0.9325
 2843SOL    HW219989   4.563   0.865   0.194 -0.5453  0.1949  0.5765
 2844SOL     OW19990   0.018   0.633   7.566 -0.6223 -0.1193 -0.1879
 2844SOL    HW119991   0.083   0.578   7.609 -0.4200  0.4747  0.2682
 2844SOL    HW219992   0.045   0.718   7.600 -0.3931 -0.0031 -0.6601
 2845SOL     OW19993   2.745   2.126   2.580  0.5072 -0.1425  0.1645
 2845SOL    HW119994   2.726   2.086   2.495 -2.0029  1.2261  0.1145
 2845SOL    HW219995   2.754   2.216   2.549  1.3919 -0.7477 -1.3615
 2846SOL     OW19996   0.482   4.006   5.552 -0.0606  0.8809 -0.2097
 2846SOL    HW119997   0.564   4.051   5.575 -0.3650  0.6971  1.2179
 2846SOL    HW219998   0.490   3.950   5.629 -2.1728 -0.1422 -0.7508
 2847SOL     OW19999   2.814   2.184  17.360  0.3725  0.4375  0.1128
 2847SOL    HW120000   2.895   2.206  17.314  0.0817 -1.5446 -1.3229
 2847SOL    HW220001   2.752   2.176  17.288 -0.5040  1.2977  0.7673
 2848SOL     OW20002   3.551   3.700   7.353  0.7620 -0.4693  0.5731
 2848SOL    HW120003   3.524   3.787   7.382  1.0020 -0.6059  1.2048
 2848SOL    HW220004   3.474   3.649   7.375  0.0938  0.0612 -0.5463
 2849SOL     OW20005   1.215   2.664   8.516 -0.1703 -0.1311 -0.2470
 2849SOL    HW120006   1.165   2.590   8.482 -0.7200 -0.0204  0.3262
 2849SOL    HW220007   1.251   2.609   8.586  1.1509  0.2100 -0.6532
 2850SOL     OW20008   4.521   1.982  17.205  0.0822 -0.3188  0.4314
 2850SOL    HW120009   4.440   1.983  17.256  0.0153  0.9612  0.3045
 2850SOL    HW220010   4.505   2.060  17.151 -1.0685 -1.6607 -1.1406
 2851SOL     OW20011   1.682   2.248   2.990  0.2289 -0.9230 -0.0635
 2851SOL    HW120012   1.588   2.240   3.002 -0.1176  2.1946 -0.7634
 2851SOL    HW220013   1.694   2.174   3.051  0.3633 -1.0459 -0.2383
 2852SOL     OW20014   1.115   0.774  13.129  0.0447  0.7237  0.4233
 2852SOL    HW120015   1.183   0.809  13.072 -0.1183 -0.5170 -0.5263
 2852SOL    HW220016   1.073   0.856  13.156  1.7759  0.8190  2.7704
 2853SOL     OW20017   0.879   0.852  16.494  0.0320 -0.5265  0.4968
 2853SOL    HW120018   0.807   0.797  16.463  1.5184 -1.7942 -0.6669
 2853SOL    HW220019   0.838   0.937  16.508 -0.3589 -0.7020  0.4062
 2854SOL     OW20020   1.889   3.711   7.906 -0.3913  0.0027  0.2485
 2854SOL    HW120021   1.916   3.691   7.996 -0.7005 -0.6771  0.1845
 2854SOL    HW220022   1.963   3.671   7.860  0.9582  0.4596  2.0215
 2855SOL     OW20023   0.610   0.356   6.150 -0.0223  0.0190  0.0416
 2855SOL    HW120024   0.682   0.382   6.093  0.8310  0.1120  1.1664
 2855SOL    HW220025   0.537   0.412   6.125 -0.7506 -0.7198  0.5249
 2856SOL     OW20026   0.898   3.557  10.773 -0.3244 -0.0834 -0.7936
 2856SOL    HW120027   0.809   3.583  10.798  0.5053  1.8924  0.0893
 2856SOL    HW220028   0.936   3.643  10.756 -0.5389  0.2734  0.5641
 2857SOL     OW20029   1.575   2.895  16.783  0.3245  0.0313 -0.3134
 2857SOL    HW120030   1.545   2.983  16.804 -2.4973 -1.1426  0.6602
 2857SOL    HW220031   1.640   2.912  16.714  1.6963  2.8879  1.6981
 2858SOL     OW20032   0.652   2.019   4.275 -0.2976 -0.1990 -0.4428
 2858SOL    HW120033   0.599   2.077   4.219  0.1880 -0.0053 -0.7054
 2858SOL    HW220034   0.699   2.079   4.332 -1.7565  0.0643  0.4873
 2859SOL     OW20035   3.125   3.722  10.313 -0.3805  0.0936 -0.7366
 2859SOL    HW120036   3.202   3.670  10.295  0.9834  0.8226  2.8834
 2859SOL    HW220037   3.058   3.653  10.312  0.0543 -0.2632 -3.0298
 2860SOL     OW20038   2.179   1.895   7.021 -0.9933 -0.5311  0.0221
 2860SOL    HW120039   2.131   1.859   7.095  1.2539  0.9444  2.1674
 2860SOL    HW220040   2.126   1.959   6.974  1.7286  0.3990 -1.8362
 2861SOL     OW20041   2.175   1.488   4.021  0.0011 -0.3685  0.2459
 2861SOL    HW120042   2.118   1.513   3.948  0.4606  1.7197  0.6287
 2861SOL    HW220043   2.126   1.411   4.050  2.6006 -2.1699 -0.1525
 2862SOL     OW20044   4.174   4.248   8.625  0.2170  0.3832 -0.0678
 2862SOL    HW120045   4.197   4.166   8.669  0.6592  1.0911  1.0126
 2862SOL    HW220046   4.211   4.213   8.544 -0.2282  1.0902 -0.5806
 2863SOL     OW20047   1.139   0.612   8.506  0.2175 -0.0013 -0.6786
 2863SOL    HW120048   1.232   0.594   8.500  0.1984 -0.4093  0.2708
 2863SOL    HW220049   1.133   0.612   8.601  2.2886  1.8079 -0.5501
 2864SOL     OW20050   1.025   2.802   3.269  0.0334  0.3721 -0.1922
 2864SOL    HW120051   1.040   2.745   3.345 -1.3935  1.6341  1.0399
 2864SOL    HW220052   0.966   2.752   3.212  3.0720 -1.6385 -1.5935
 2865SOL     OW20053   3.335   0.743  13.739  0.3894  0.6852 -0.3559
 2865SOL    HW120054   3.285   0.670  13.775 -0.0756  1.7771  1.1997
 2865SOL    HW220055   3.393   0.696  13.679  0.2680  0.2756 -0.1556
 2866SOL     OW20056   0.228   3.774   5.078  0.2873 -0.0011 -0.5737
 2866SOL    HW120057   0.320   3.774   5.052  0.4599 -0.6531  0.0262
 2866SOL    HW220058   0.191   3.696   5.037  0.9971  0.5049 -2.1616
 2867SOL     OW20059   2.656   0.207   7.534 -0.6420  0.0500  0.2293
 2867SOL    HW120060   2.571   0.251   7.547 -0.1810  2.0407 -3.6956
 2867SOL    HW220061   2.626   0.151   7.463  3.5039 -2.3202  0.3926
 2868SOL     OW20062   3.999   2.779  13.838 -0.3040  0.2199  0.1587
 2868SOL    HW120063   4.037   2.849  13.892  0.5877  0.3910 -0.6822
 2868SOL    HW220064   3.914   2.820  13.824 -0.3575  0.5818  1.5696
 2869SOL     OW20065   4.247   4.386  15.171 -0.1482 -0.2000 -0.0291
 2869SOL    HW120066   4.221   4.352  15.086 -0.3340  0.4956 -0.2445
 2869SOL    HW220067   4.337   4.353  15.163 -0.1638 -0.0956 -0.5906
 2870SOL     OW20068   1.924   2.895   3.154 -0.1985 -0.1581 -0.3535
 2870SOL    HW120069   1.890   2.980   3.126  0.6603  0.5796  0.8962
 2870SOL    HW220070   1.918   2.851   3.069  0.6747 -0.8788 -0.0386
 2871SOL     OW20071   1.626   1.648   6.990  0.4633  0.0526 -0.3790
 2871SOL    HW120072   1.619   1.741   6.968 -1.6699 -0.0446 -0.1144
 2871SOL    HW220073   1.574   1.594   6.930  1.1962  0.7730 -1.6498
 2872SOL     OW20074   4.499   4.180   2.253  0.3200 -0.6985  0.0844
 2872SOL    HW120075   4.561   4.108   2.240 -0.6364 -0.9972 -2.8494
 2872SOL    HW220076   4.507   4.223   2.167 -3.4471  0.1290  0.1461
 2873SOL     OW20077   2.599   3.841   3.254  0.2437 -0.0852 -0.3775
 2873SOL    HW120078   2.635   3.906   3.193  2.2580 -0.0775  0.7855
 2873SOL    HW220079   2.629   3.759   3.215  2.2315  2.3518 -3.9966
 2874SOL     OW20080   4.101   4.296   3.831  0.5608  0.7860  0.3663
 2874SOL    HW120081   4.041   4.258   3.895  2.2335 -0.2442  1.3108
 2874SOL    HW220082   4.183   4.257   3.860 -0.9690 -1.6867  1.3208
 2875SOL     OW20083   0.640   1.401   5.034 -0.6355 -0.0141  0.5839
 2875SOL    HW120084   0.728   1.368   5.019 -0.1948  0.7834  1.3766
 2875SOL    HW220085   0.622   1.381   5.126 -0.5951 -1.2097  0.3324
 2876SOL     OW20086   1.765   1.711   0.136 -0.2744  0.0293  0.0123
 2876SOL    HW120087   1.716   1.790   0.158 -1.9363 -1.0444  0.1707
 2876SOL    HW220088   1.851   1.744   0.164 -0.1167 -0.8484  0.5548
 2877SOL     OW20089   1.941   4.525   2.479 -0.4202  0.4995  0.6670
 2877SOL    HW120090   1.861   4.521   2.426 -0.9949 -1.4326  1.6910
 2877SOL    HW220091   1.919   4.447   2.529  0.4881  0.8459  1.5996
 2878SOL     OW20092   4.341   4.691  14.716 -0.0860 -0.6711  0.1753
 2878SOL    HW120093   4.265   4.669  14.770 -0.5433 -0.6464 -0.4523
 2878SOL    HW220094   4.351   4.607  14.670  1.0504  0.1280 -1.0255
 2879SOL     OW20095   0.594   0.655  12.656 -0.1487 -0.1334  0.3710
 2879SOL    HW120096   0.611   0.735  12.706  1.5418  0.1048 -0.5756
 2879SOL    HW220097   0.632   0.678  12.571  0.3577  1.4451  1.0239
 2880SOL     OW20098   2.186   2.213   6.092 -0.4829  0.2974 -0.7981
 2880SOL    HW120099   2.151   2.124   6.093  1.8896 -0.6767 -3.7204
 2880SOL    HW220100   2.218   2.233   6.004 -0.0816 -2.6294 -1.2981
 2881SOL     OW20101   3.180   3.873  12.245 -0.0490 -0.0055 -0.0275
 2881SOL    HW120102   3.185   3.968  12.253  0.1443 -0.1407  1.4623
 2881SOL    HW220103   3.263   3.858  12.199  0.3607 -2.3557  1.4781
 2882SOL     OW20104   0.263   0.523   9.341 -0.5606  0.0797  0.6329
 2882SOL    HW120105   0.266   0.428   9.348  0.6276  0.0992  0.4347
 2882SOL    HW220106   0.339   0.545   9.287 -1.1533 -1.5059 -0.8155
 2883SOL     OW20107   1.129   4.354  10.575 -0.5028 -0.5770  0.0560
 2883SOL    HW120108   1.082   4.352  10.657 -1.4107 -2.3599 -0.5218
 2883SOL    HW220109   1.210   4.395  10.607 -1.3564  1.8626 -0.8760
 2884SOL     OW20110   0.501   3.544  13.352  0.4055  0.1261 -0.6872
 2884SOL    HW120111   0.510   3.597  13.431  2.5011 -1.1954 -0.0264
 2884SOL    HW220112   0.419   3.498  13.372  1.4993 -2.1864 -1.4058
 2885SOL     OW20113   3.913   2.625   4.792 -0.4077  0.1345 -0.0004
 2885SOL    HW120114   3.963   2.543   4.782 -0.6933 -0.0366 -0.0184
 2885SOL    HW220115   3.823   2.599   4.771 -0.0264 -0.7812 -0.5239
 2886SOL     OW20116   0.140   1.816   7.405  0.0910  0.2087 -0.6864
 2886SOL    HW120117   0.191   1.761   7.465 -1.3971  0.9003  1.1986
 2886SOL    HW220118   0.172   1.905   7.418 -1.2232  0.5828 -0.0013
 2887SOL     OW20119   3.734   3.238   7.042 -0.1336 -0.5029 -0.4117
 2887SOL    HW120120   3.798   3.267   6.976  2.7628 -0.3838  2.4575
 2887SOL    HW220121   3.668   3.305   7.022  0.0530 -0.6303 -1.4766
 2888SOL     OW20122   3.403   1.179  15.494  0.0491  0.3597  0.5049
 2888SOL    HW120123   3.362   1.115  15.552  1.5495 -0.3598  0.7786
 2888SOL    HW220124   3.478   1.128  15.464 -0.5139 -1.0276  1.5103
 2889SOL     OW20125   0.256   2.008   4.807 -0.9232 -0.3638  0.3171
 2889SOL    HW120126   0.253   1.950   4.731 -0.3531 -1.1474  0.8881
 2889SOL    HW220127   0.350   2.013   4.820 -1.0490  1.2845  0.5891
 2890SOL     OW20128   0.530   3.034   7.190 -0.0883  0.2581 -0.0236
 2890SOL    HW120129   0.597   3.009   7.253  0.6994  1.5601 -0.3599
 2890SOL    HW220130   0.569   3.012   7.106 -0.7998 -1.1026 -0.0134
 2891SOL     OW20131   0.973   4.000   3.496 -0.4883  0.3872 -0.6356
 2891SOL    HW120132   0.888   4.044   3.500 -0.7717 -0.2318  0.1477
 2891SOL    HW220133   0.952   3.909   3.477  0.2606  0.5073 -1.9847
 2892SOL     OW20134   2.665   0.214   0.494  0.1015 -0.4958 -0.2298
 2892SOL    HW120135   2.621   0.219   0.409 -1.1677 -1.3396  0.3850
 2892SOL    HW220136   2.708   0.299   0.508 -0.2167 -0.6021  1.3758
 2893SOL     OW20137   0.981   1.336  11.837  0.5819 -0.5545  0.0463
 2893SOL    HW120138   1.019   1.408  11.787 -0.4032 -1.3089 -1.8099
 2893SOL    HW220139   0.886   1.345  11.838  0.8752  2.1956  0.6690
 2894SOL     OW20140   1.674   1.294  13.634 -0.1543 -0.6385 -0.9000
 2894SOL    HW120141   1.710   1.380  13.616  0.0261 -0.4826  0.1827
 2894SOL    HW220142   1.706   1.276  13.723 -2.4153 -1.6466 -0.2928
 2895SOL     OW20143   1.358   3.866   3.873  0.4375 -0.1467 -0.0439
 2895SOL    HW120144   1.353   3.807   3.948 -1.3303 -1.3013 -1.0666
 2895SOL    HW220145   1.330   3.800   3.810  0.7886  1.1364 -1.5399
 2896SOL     OW20146   0.035   2.956  14.743 -0.1711  0.4719 -0.2209
 2896SOL    HW120147   0.089   3.026  14.707 -0.3403  0.7256  0.0117
 2896SOL    HW220148   4.670   2.995  14.731  0.7832  2.3585 -1.0398
 2897SOL     OW20149   0.378   0.164   9.852  0.1584  0.5884  0.2389
 2897SOL    HW120150   0.464   0.122   9.846 -0.2643  0.0594 -1.9286
 2897SOL    HW220151   0.338   0.130   9.932  1.0606 -2.7092 -0.6888
 2898SOL     OW20152   1.462   0.257   4.859  0.0131  0.0839  0.6177
 2898SOL    HW120153   1.491   0.194   4.793 -1.2363  0.9749 -0.7954
 2898SOL    HW220154   1.368   0.265   4.842  0.4330 -1.3217 -2.4996
 2899SOL     OW20155   0.082   1.498   4.503  0.6101  0.3876 -0.1016
 2899SOL    HW120156   0.022   1.486   4.429  1.3692  1.1894 -0.8380
 2899SOL    HW220157   0.161   1.534   4.464  1.8170 -1.8144  0.3171
 2900SOL     OW20158   1.182   1.933   5.677 -0.0274  0.5546  0.0081
 2900SOL    HW120159   1.221   1.902   5.758 -1.3440  1.9611  1.1881
 2900SOL    HW220160   1.108   1.984   5.710  1.3793  2.2059  0.6547
 2901SOL     OW20161   3.360   2.238   5.021  0.0651  0.3652 -0.2176
 2901SOL    HW120162   3.417   2.263   5.094 -0.7337  2.6275 -0.3643
 2901SOL    HW220163   3.290   2.303   5.028 -0.1973  0.0034  0.4329
 2902SOL     OW20164   2.687   1.098   5.600  0.2214 -0.2137 -0.9663
 2902SOL    HW120165   2.626   1.126   5.532 -1.3006 -2.8957 -0.6920
 2902SOL    HW220166   2.627   1.049   5.656  0.6614 -1.7528 -1.8483
 2903SOL     OW20167   2.994   4.071  15.526  0.2497  0.8767 -0.0349
 2903SOL    HW120168   3.087   4.074  15.502 -0.0030 -0.4923 -1.1497
 2903SOL    HW220169   2.993   4.020  15.606  1.1261 -0.8843 -1.1496
 2904SOL     OW20170   4.587   2.498   2.877 -0.3134 -0.2283  0.0246
 2904SOL    HW120171   4.593   2.548   2.958  0.4446 -1.5021  0.7414
 2904SOL    HW220172   4.676   2.519   2.847 -1.0185  0.8531 -1.3223
 2905SOL     OW20173   2.243   2.217   7.365 -0.1540  0.4044  0.3875
 2905SOL    HW120174   2.302   2.226   7.439  0.5660 -0.3575 -0.0865
 2905SOL    HW220175   2.159   2.201   7.407  1.4563 -0.1442  3.3865
 2906SOL     OW20176   0.451   4.416   2.486 -0.1525  0.3425 -0.5959
 2906SOL    HW120177   0.450   4.384   2.396 -1.0904  0.2555 -0.5570
 2906SOL    HW220178   0.477   4.507   2.475  2.9761 -0.5305 -0.6252
 2907SOL     OW20179   2.114   1.223   4.162  0.2066  0.6894 -0.2032
 2907SOL    HW120180   2.080   1.136   4.141  0.7214  0.5402 -0.4084
 2907SOL    HW220181   2.029   1.264   4.178 -0.5994 -1.1893  0.4539
 2908SOL     OW20182   1.319   2.336   3.925  0.2087  0.0194  0.3439
 2908SOL    HW120183   1.338   2.401   3.857  1.9354 -0.6735  0.1679
 2908SOL    HW220184   1.343   2.384   4.004  0.8954  0.9226 -0.4145
 2909SOL     OW20185   2.834   4.363   1.372  0.8851  0.2954  0.6576
 2909SOL    HW120186   2.817   4.272   1.349 -1.3326  0.7891  0.3115
 2909SOL    HW220187   2.796   4.406   1.296 -0.2765 -0.6448  0.7045
 2910SOL     OW20188   4.373   0.174   6.876 -0.6754  0.0188  0.1245
 2910SOL    HW120189   4.355   0.162   6.782 -0.0494 -0.2558  0.0403
 2910SOL    HW220190   4.292   0.226   6.883 -1.2045 -0.6651 -0.9505
 2911SOL     OW20191   0.297   0.152   5.578 -0.3319 -0.1426 -0.0423
 2911SOL    HW120192   0.271   0.243   5.594 -3.4207 -0.6274 -2.2518
 2911SOL    HW220193   0.220   0.123   5.528 -1.1437 -0.3239  1.3296
 2912SOL     OW20194   4.176   0.896   6.133  0.6351  0.3895 -0.2835
 2912SOL    HW120195   4.136   0.982   6.139 -3.3617 -1.5606  0.9427
 2912SOL    HW220196   4.255   0.906   6.079 -1.3729  3.4924 -2.6068
 2913SOL     OW20197   1.944   0.490  16.500 -0.1272 -0.3366 -0.2701
 2913SOL    HW120198   1.931   0.576  16.538 -1.8409 -0.2868 -0.9746
 2913SOL    HW220199   1.859   0.464  16.465  0.4126 -4.4167  1.4590
 2914SOL     OW20200   0.639   1.812  17.287 -0.2288 -0.2615  0.8767
 2914SOL    HW120201   0.734   1.799  17.287 -0.1760  0.0512 -0.1487
 2914SOL    HW220202   0.605   1.760  17.214  2.3266  1.5268 -1.6132
 2915SOL     OW20203   0.960   2.791   4.554  0.0460  0.0070  0.0985
 2915SOL    HW120204   0.959   2.860   4.620  0.2818 -0.4964  0.6369
 2915SOL    HW220205   0.924   2.832   4.476 -0.7383 -1.1045 -0.1297
 2916SOL     OW20206   0.770   3.963   1.535  0.5597  0.5614  0.1182
 2916SOL    HW120207   0.735   4.052   1.538  1.6757  1.0085 -0.0389
 2916SOL    HW220208   0.858   3.973   1.500  1.0995 -0.0403  1.3046
 2917SOL     OW20209   2.518   3.184   4.703 -0.0701  0.7740  0.0470
 2917SOL    HW120210   2.573   3.106   4.710 -0.7175  0.3123 -0.0796
 2917SOL    HW220211   2.491   3.170   4.613  1.3625 -1.3986 -0.0419
 2918SOL     OW20212   3.507   0.369   7.155 -0.0349  0.6778  0.6715
 2918SOL    HW120213   3.477   0.289   7.199  2.0488 -0.0935  0.7252
 2918SOL    HW220214   3.597   0.376   7.188  1.0826  2.8594 -2.9397
 2919SOL     OW20215   1.240   2.850   6.830  0.4323  0.0662 -0.4722
 2919SOL    HW120216   1.258   2.842   6.923  1.2522 -0.6432 -0.6964
 2919SOL    HW220217   1.326   2.876   6.796  0.7792  2.4685  2.2521
 2920SOL     OW20218   1.876   0.953   2.337 -0.6070  1.0354 -0.7198
 2920SOL    HW120219   1.913   0.872   2.301 -0.3389 -0.3982  2.6939
 2920SOL    HW220220   1.794   0.957   2.288 -1.0476 -0.6167 -0.1358
 2921SOL     OW20221   3.542   1.927   6.091 -0.1364  0.3101  0.2656
 2921SOL    HW120222   3.498   1.982   6.155 -2.7297 -0.5446 -0.7786
 2921SOL    HW220223   3.510   1.839   6.114  1.4005 -0.0504  1.0217
 2922SOL     OW20224   1.627   0.591   8.797  0.2527  0.2155 -0.6050
 2922SOL    HW120225   1.547   0.635   8.768  0.6846  0.9967 -0.6087
 2922SOL    HW220226   1.634   0.532   8.722  0.0174 -1.9143  1.0344
 2923SOL     OW20227   1.654   0.958   2.204  0.2901  0.2756  0.6652
 2923SOL    HW120228   1.606   1.019   2.148  0.4907  0.8323  1.1127
 2923SOL    HW220229   1.592   0.935   2.273 -0.7042  2.3535  0.4415
 2924SOL     OW20230   0.613   0.479  14.326 -0.3579 -0.1461  0.0155
 2924SOL    HW120231   0.519   0.477  14.313 -0.4708  0.5506  0.7660
 2924SOL    HW220232   0.640   0.448  14.239 -2.2334 -1.6923 -0.0134
 2925SOL     OW20233   2.293   2.603   5.420  0.0442  0.3896  0.0339
 2925SOL    HW120234   2.359   2.664   5.386 -2.6928  0.8056 -4.5308
 2925SOL    HW220235   2.220   2.660   5.397 -0.8753  0.0074  2.0055
 2926SOL     OW20236   1.065   1.656   7.791 -0.1503  0.1836  0.3173
 2926SOL    HW120237   1.131   1.657   7.860 -0.4838  3.3557  0.6129
 2926SOL    HW220238   1.110   1.721   7.737  1.7275 -1.5077 -0.1593
 2927SOL     OW20239   3.141   0.529  12.353 -0.2199 -0.5104 -0.0344
 2927SOL    HW120240   3.233   0.503  12.351 -0.3026 -0.7276 -1.0264
 2927SOL    HW220241   3.117   0.507  12.263 -1.0224  0.4411 -0.0584
 2928SOL     OW20242   0.485   0.787   5.267 -0.3132 -0.3597 -0.1120
 2928SOL    HW120243   0.544   0.841   5.215  2.1126 -1.2939  1.6520
 2928SOL    HW220244   0.485   0.700   5.226  1.7725 -0.6508  0.5184
 2929SOL     OW20245   0.488   1.220   7.109 -0.2352 -0.0782 -0.2448
 2929SOL    HW120246   0.555   1.159   7.139 -0.7222  0.1260  1.2872
 2929SOL    HW220247   0.492   1.277   7.186 -2.0861 -0.1113 -0.1384
 2930SOL     OW20248   3.091   3.004  14.302  0.0177 -0.5665  0.3622
 2930SOL    HW120249   3.136   3.087  14.283  1.2061 -1.3301 -0.1130
 2930SOL    HW220250   3.037   3.036  14.375  1.4893 -1.7061  1.9463
 2931SOL     OW20251   3.860   0.208  17.484 -0.1504 -0.0353 -0.0199
 2931SOL    HW120252   3.832   0.174  17.399  0.5196 -0.2526 -0.1539
 2931SOL    HW220253   3.858   0.122  17.527 -1.0218 -1.7684 -3.5477
 2932SOL     OW20254   4.173   2.556   8.677  0.0683  0.1741 -0.2196
 2932SOL    HW120255   4.227   2.623   8.634 -1.7409  1.8536  0.1411
 2932SOL    HW220256   4.239   2.489   8.695  0.1589  0.6026  1.0546
 2933SOL     OW20257   0.895   4.172   3.239 -0.4160 -0.2413  0.1108
 2933SOL    HW120258   0.933   4.181   3.152 -2.3493 -0.5087 -0.7479
 2933SOL    HW220259   0.964   4.123   3.284  0.6956 -0.0316 -1.3666
 2934SOL     OW20260   2.233   1.509   7.287  0.1889  0.1039 -0.0054
 2934SOL    HW120261   2.315   1.484   7.329  0.7199  1.0167 -0.5063
 2934SOL    HW220262   2.228   1.601   7.314  1.9681  0.3057 -0.3638
 2935SOL     OW20263   4.237   0.022   2.579 -0.4281  0.1033  0.3040
 2935SOL    HW120264   4.226   4.719   2.671 -0.6627 -0.0369  0.2359
 2935SOL    HW220265   4.150   0.055   2.561  0.3784  2.7005  1.1562
 2936SOL     OW20266   4.143   0.719   1.870  0.1769 -0.0099  0.1231
 2936SOL    HW120267   4.190   0.648   1.825 -1.3792 -1.4617  0.7896
 2936SOL    HW220268   4.050   0.697   1.865  0.5117 -1.2094 -0.9362
 2937SOL     OW20269   0.694   2.512   8.353  0.9229 -0.2388 -0.0527
 2937SOL    HW120270   0.699   2.597   8.398 -1.5953  0.4452 -1.0626
 2937SOL    HW220271   0.656   2.456   8.421  0.6047 -0.2522 -0.2381
 2938SOL     OW20272   0.316   2.635   9.829  0.2880 -0.5116 -0.4983
 2938SOL    HW120273   0.359   2.714   9.859 -0.6718 -0.2584  0.2112
 2938SOL    HW220274   0.353   2.642   9.741  2.8565 -0.3543  0.5944
 2939SOL     OW20275   0.949   2.662   3.832 -0.3203 -0.1123 -0.6624
 2939SOL    HW120276   1.036   2.666   3.790  0.7644  1.5441  1.7745
 2939SOL    HW220277   0.889   2.678   3.759  0.4148  1.9151 -0.8442
 2940SOL     OW20278   3.290   0.495   7.293  0.4070 -0.5327  0.0921
 2940SOL    HW120279   3.357   0.446   7.245 -0.1729 -0.6062 -0.6327
 2940SOL    HW220280   3.208   0.459   7.259  0.6320 -1.8535  0.9657
 2941SOL     OW20281   1.335   1.990   6.685  0.9257  0.0778 -0.3318
 2941SOL    HW120282   1.400   2.009   6.753  0.2068  0.3682  0.2776
 2941SOL    HW220283   1.331   1.894   6.693  0.8176 -0.0135 -1.4367
 2942SOL     OW20284   0.426   4.608   4.854  0.3162 -0.7609  0.2684
 2942SOL    HW120285   0.334   4.602   4.827  0.8492 -0.5691 -1.6056
 2942SOL    HW220286   0.467   4.616   4.768  2.1836  0.0260  1.2361
 2943SOL     OW20287   4.454   4.190   9.709  0.2673  0.9818 -0.4295
 2943SOL    HW120288   4.452   4.285   9.718 -0.4918  1.0864 -1.6685
 2943SOL    HW220289   4.396   4.171   9.783 -0.2344  1.5180 -0.6853
 2944SOL     OW20290   4.200   1.057   2.461 -0.1761  0.7948 -0.0468
 2944SOL    HW120291   4.110   1.087   2.463 -0.3858  0.0291  1.8567
 2944SOL    HW220292   4.218   1.065   2.367 -2.9639  0.7766 -0.5843
 2945SOL     OW20293   0.764   3.035   4.570  0.2705 -0.5079 -0.0515
 2945SOL    HW120294   0.799   3.033   4.659 -3.0156  0.6277  1.2879
 2945SOL    HW220295   0.673   3.019   4.595  0.4765 -3.7061 -1.3907
 2946SOL     OW20296   2.488   4.199   9.997  0.3120  0.4970 -0.4684
 2946SOL    HW120297   2.551   4.260  10.035  1.6584 -0.3406 -1.3661
 2946SOL    HW220298   2.469   4.158  10.081 -0.7596  3.3168  0.6845
 2947SOL     OW20299   1.850   2.011   4.366 -0.0919 -0.2720  0.1939
 2947SOL    HW120300   1.796   2.083   4.399 -0.3251  0.6446 -2.1804
 2947SOL    HW220301   1.783   1.946   4.386 -0.4889 -0.0468 -0.4122
 2948SOL     OW20302   3.419   4.010   9.701  0.1186 -0.2287  0.1822
 2948SOL    HW120303   3.483   4.049   9.641 -2.9683  0.1281 -2.8635
 2948SOL    HW220304   3.390   3.931   9.657  1.2922  0.1844 -1.3380
 2949SOL     OW20305   0.862   1.255   6.975 -0.1782  0.0413  0.0962
 2949SOL    HW120306   0.819   1.320   7.030  0.9557 -0.9877  2.2034
 2949SOL    HW220307   0.909   1.316   6.918  0.9145 -0.5172  0.4060
 2950SOL     OW20308   4.034   0.707   2.976  0.5388 -0.3774 -0.3483
 2950SOL    HW120309   4.071   0.742   3.057 -0.7829 -0.8876  0.4777
 2950SOL    HW220310   3.956   0.762   2.965  0.4148 -0.8305 -1.7352
 2951SOL     OW20311   4.578   2.529   5.384  0.0572 -0.3921 -0.2951
 2951SOL    HW120312   4.636   2.567   5.450 -1.3108  1.6241 -0.2644
 2951SOL    HW220313   4.522   2.471   5.435  1.7166 -0.6051  1.2848
 2952SOL     OW20314   1.309   2.933   3.810  0.0107 -0.0346  0.5385
 2952SOL    HW120315   1.322   2.935   3.905 -0.9756 -2.6870  0.7435
 2952SOL    HW220316   1.397   2.956   3.782  0.0491  0.5134  1.1230
 2953SOL     OW20317   1.962   3.739   4.819  0.5715 -0.2748 -0.0871
 2953SOL    HW120318   1.981   3.688   4.898  0.7483  0.2078  0.1836
 2953SOL    HW220319   1.888   3.695   4.778 -1.3405  3.5949 -0.7650
 2954SOL     OW20320   0.494   3.316  10.169 -0.0251  0.1208 -0.2611
 2954SOL    HW120321   0.543   3.322  10.251  2.3621 -0.8703 -1.6147
 2954SOL    HW220322   0.548   3.374  10.117  1.1179 -2.0028 -1.4270
 2955SOL     OW20323   2.858   4.413  12.315 -0.0799 -0.7686  0.3818
 2955SOL    HW120324   2.778   4.387  12.270  1.8458  0.3596 -3.7431
 2955SOL    HW220325   2.905   4.330  12.324  1.1624 -0.3101 -1.7132
 2956SOL     OW20326   2.842   2.846   6.674 -0.4282 -0.4468 -0.0385
 2956SOL    HW120327   2.814   2.820   6.586  2.0010 -0.3113 -0.8711
 2956SOL    HW220328   2.754   2.871   6.700  0.5696  1.5424  1.4556
 2957SOL     OW20329   4.589   2.314   7.113  0.6338  0.1100  0.7959
 2957SOL    HW120330   4.675   2.322   7.154  0.6874 -0.4753  0.8033
 2957SOL    HW220331   4.594   2.233   7.062  0.1612  0.1345  0.7132
 2958SOL     OW20332   2.213   0.377   4.268  0.3377  0.3381 -0.7431
 2958SOL    HW120333   2.186   0.336   4.186 -2.3806 -0.1409  0.4242
 2958SOL    HW220334   2.273   0.312   4.306  0.9602 -0.4118 -2.9682
 2959SOL     OW20335   1.101   1.627   9.800  0.3122 -0.0635 -0.0566
 2959SOL    HW120336   1.084   1.615   9.893  0.7442 -0.6312 -0.0522
 2959SOL    HW220337   1.167   1.695   9.794  1.7413 -1.3868  0.7275
 2960SOL     OW20338   0.301   2.464   6.604 -0.1629 -0.4264  0.5910
 2960SOL    HW120339   0.317   2.379   6.563 -1.0331 -0.8610  1.1552
 2960SOL    HW220340   0.350   2.455   6.686 -0.9900  0.0583  1.1464
 2961SOL     OW20341   4.631   2.804   4.740 -0.0220  0.0806 -0.6603
 2961SOL    HW120342   4.705   2.818   4.799 -1.4061  0.0065  1.0973
 2961SOL    HW220343   4.564   2.870   4.758  0.6383  0.6374 -0.2218
 2962SOL     OW20344   2.778   1.905   4.449 -0.3080  0.0758 -0.1132
 2962SOL    HW120345   2.728   1.964   4.505 -1.4036 -0.3943 -0.5860
 2962SOL    HW220346   2.844   1.965   4.415 -0.5692  0.3948 -0.0555
 2963SOL     OW20347   2.507   4.491   6.063  0.1062 -0.3271 -0.2635
 2963SOL    HW120348   2.453   4.568   6.043  0.2934  0.3053  1.6047
 2963SOL    HW220349   2.481   4.490   6.155  1.1357 -0.7194  0.0195
 2964SOL     OW20350   3.867   1.686   6.493 -0.4244 -0.0535  1.1306
 2964SOL    HW120351   3.930   1.691   6.565  0.6976  1.7827  0.0259
 2964SOL    HW220352   3.905   1.745   6.428  0.8119 -1.9278  0.1369
 2965SOL     OW20353   4.046   1.156   2.765 -0.1184 -0.7931  0.4789
 2965SOL    HW120354   4.000   1.238   2.780  0.5727 -0.3042 -0.0439
 2965SOL    HW220355   4.121   1.178   2.709 -0.3709 -2.4120 -0.4768
 2966SOL     OW20356   3.971   2.045   7.136 -0.7598  0.0997 -0.2740
 2966SOL    HW120357   4.058   2.048   7.096 -0.9990 -0.7897 -0.8562
 2966SOL    HW220358   3.989   1.979   7.203 -1.4412  0.5255  0.3306
 2967SOL     OW20359   0.921   3.130   2.750  0.2135 -0.4973 -0.6185
 2967SOL    HW120360   0.990   3.184   2.712  0.7226 -0.0357  0.9499
 2967SOL    HW220361   0.868   3.124   2.671  1.9989 -0.8509 -1.7871
 2968SOL     OW20362   1.716   2.164   2.177 -0.2189 -0.0619  0.2705
 2968SOL    HW120363   1.770   2.152   2.099  0.0808 -1.3788  0.6633
 2968SOL    HW220364   1.626   2.160   2.145  0.4164  2.1951 -1.7052
 2969SOL     OW20365   2.833   1.380   4.588 -0.5116  0.5263 -0.5400
 2969SOL    HW120366   2.894   1.381   4.515 -1.3441  1.1115 -1.2359
 2969SOL    HW220367   2.791   1.466   4.580 -1.9079 -0.0301  0.8656
 2970SOL     OW20368   3.591   2.896   5.199 -0.4782  0.1395  0.0004
 2970SOL    HW120369   3.650   2.968   5.218  0.6132 -0.6341 -0.4436
 2970SOL    HW220370   3.559   2.869   5.285  1.5063 -0.6788  0.4659
 2971SOL     OW20371   3.881   0.095   3.001  0.1946 -0.3569  0.6378
 2971SOL    HW120372   3.912   0.041   2.928  1.4098  1.3220 -0.0834
 2971SOL    HW220373   3.908   0.180   2.967 -0.6227  0.2467  1.4890
 2972SOL     OW20374   3.034   1.394   5.556  0.1320  0.0861 -0.3457
 2972SOL    HW120375   3.018   1.482   5.591 -2.0108 -0.2866 -0.4419
 2972SOL    HW220376   2.959   1.377   5.500 -1.4104  2.0815  1.1127
 2973SOL     OW20377   4.529   2.510  12.928  0.0731 -0.1371  0.0171
 2973SOL    HW120378   4.603   2.498  12.868 -0.0690  0.9246 -0.3605
 2973SOL    HW220379   4.553   2.445  12.995  0.1282 -0.5179 -0.3763
 2974SOL     OW20380   3.628   1.921   7.954 -0.2174  0.0994  0.2165
 2974SOL    HW120381   3.572   1.880   7.888  0.2116 -2.2581  1.3427
 2974SOL    HW220382   3.618   1.876   8.038 -0.5600 -2.5690 -1.2505
 2975SOL     OW20383   3.579   3.831   5.640  0.6161  0.0920  0.3481
 2975SOL    HW120384   3.516   3.765   5.670  1.0314 -0.2401  0.4877
 2975SOL    HW220385   3.537   3.912   5.670  0.2559 -0.3442  1.0217
 2976SOL     OW20386   3.338   0.747   7.392 -0.4079 -0.4496 -0.4079
 2976SOL    HW120387   3.306   0.791   7.313 -1.3434  0.4406  0.4604
 2976SOL    HW220388   3.305   0.661   7.366 -1.3430 -0.0764 -0.4836
 2977SOL     OW20389   0.935   1.057   3.182 -0.1860  0.4711  0.1888
 2977SOL    HW120390   0.879   1.065   3.105  0.1584 -0.6081 -0.1671
 2977SOL    HW220391   0.959   1.147   3.202  1.4499 -0.3947  2.1351
 2978SOL     OW20392   1.246   0.825   5.842  0.0144  0.2447  0.2624
 2978SOL    HW120393   1.176   0.791   5.899  0.4178 -0.9676  0.0490
 2978SOL    HW220394   1.240   0.919   5.858  1.8603  0.5226 -0.7198
 2979SOL     OW20395   0.331   0.110   1.133 -0.2059 -0.0761  0.3182
 2979SOL    HW120396   0.423   0.125   1.111 -0.2913 -0.0127  0.0014
 2979SOL    HW220397   0.337   0.068   1.219  0.7114  2.7812  1.6507
 2980SOL     OW20398   2.774   1.839   4.104  1.2828  0.5514  0.5015
 2980SOL    HW120399   2.834   1.775   4.064 -1.3354 -0.8010 -1.2772
 2980SOL    HW220400   2.707   1.828   4.036  2.5903  1.5443 -0.9552
 2981SOL     OW20401   2.820   1.372  16.408  0.1660 -0.4715 -0.0166
 2981SOL    HW120402   2.772   1.294  16.434 -1.5850  0.6288  0.0498
 2981SOL    HW220403   2.745   1.432  16.415 -0.7997 -1.5592 -1.0947
 2982SOL     OW20404   2.603   0.551  11.681  0.1881  0.3280  0.0569
 2982SOL    HW120405   2.650   0.525  11.603  0.6702  0.8219  0.1815
 2982SOL    HW220406   2.647   0.632  11.708  2.6339 -0.8639 -0.4120
 2983SOL     OW20407   1.956   2.703   0.755 -0.1207  0.1285  0.1115
 2983SOL    HW120408   2.005   2.629   0.721 -1.5385 -0.1678 -1.2977
 2983SOL    HW220409   1.990   2.764   0.690  0.4351  0.6254  0.8670
 2984SOL     OW20410   1.233   4.264   2.582 -0.1888  0.2687  0.0312
 2984SOL    HW120411   1.228   4.172   2.556  1.8455 -0.0390  0.7192
 2984SOL    HW220412   1.280   4.264   2.665  0.3787  1.0756 -0.2910
 2985SOL     OW20413   0.107   3.228   7.267 -0.0629  1.2263 -0.7112
 2985SOL    HW120414   0.122   3.179   7.348  0.0125  1.9826 -0.2657
 2985SOL    HW220415   0.124   3.316   7.299  3.3753 -0.7677  3.0712
 2986SOL     OW20416   0.199   4.331   1.915 -0.3318  0.3204  0.2116
 2986SOL    HW120417   0.271   4.394   1.917 -1.1783  1.2511  0.8565
 2986SOL    HW220418   0.187   4.317   1.821 -0.1493 -1.0521  0.3825
 2987SOL     OW20419   0.033   3.151   1.078  0.6914  0.3357  0.0330
 2987SOL    HW120420   4.688   3.083   1.071  2.0814 -0.9760 -0.4895
 2987SOL    HW220421   0.027   3.185   0.988  1.3974 -1.3002 -0.6247
 2988SOL     OW20422   3.795   0.058  16.933  0.0111  0.3547 -0.5071
 2988SOL    HW120423   3.769   0.026  16.847  1.0562  1.6256 -1.2909
 2988SOL    HW220424   3.800   4.691  16.969  0.5585  0.2322 -0.8859
 2989SOL     OW20425   4.087   0.758   6.386 -0.1433  0.1131 -0.6167
 2989SOL    HW120426   4.131   0.674   6.393 -1.2420 -0.1786  2.7772
 2989SOL    HW220427   4.096   0.771   6.291  0.0441 -1.2530 -0.7845
 2990SOL     OW20428   0.342   1.442   6.587  0.4032 -0.0408 -0.0220
 2990SOL    HW120429   0.426   1.460   6.544  0.4928  1.2745  0.7150
 2990SOL    HW220430   0.360   1.356   6.624 -1.0296 -0.9873 -1.5067
 2991SOL     OW20431   1.355   0.284  10.607 -0.5942 -0.0923  0.1411
 2991SOL    HW120432   1.384   0.248  10.690 -1.1814  1.8681  1.2040
 2991SOL    HW220433   1.363   0.204  10.555  1.3703 -0.3103  0.8201
 2992SOL     OW20434   0.431   1.776  12.284 -0.0400  0.0095  0.1455
 2992SOL    HW120435   0.495   1.826  12.234  1.2959 -2.1748 -0.3495
 2992SOL    HW220436   0.422   1.701  12.225 -1.6798 -0.6398  1.2253
 2993SOL     OW20437   4.503   2.264   4.987 -0.0662  0.3768  0.3764
 2993SOL    HW120438   4.441   2.200   5.024 -1.1485  0.9019 -0.5396
 2993SOL    HW220439   4.474   2.345   5.029 -0.9184  0.0940  0.3323
 2994SOL     OW20440   0.204   3.065   4.671  0.4149 -0.2473  0.4777
 2994SOL    HW120441   0.281   3.024   4.631  1.9480  1.9917  1.1184
 2994SOL    HW220442   0.246   3.079   4.756  3.4350  3.0565 -1.5422
 2995SOL     OW20443   2.526   2.727   8.044 -0.2319 -0.5784  0.4542
 2995SOL    HW120444   2.541   2.686   8.129 -1.1640 -0.8513  0.4927
 2995SOL    HW220445   2.609   2.726   7.997 -0.5708 -0.3800 -0.1420
 2996SOL     OW20446   2.588   4.386   2.652 -0.1551 -0.2859  0.0562
 2996SOL    HW120447   2.536   4.332   2.592 -0.1304 -0.5971  0.3171
 2996SOL    HW220448   2.620   4.322   2.716 -1.4569  0.6375  1.6258
 2997SOL     OW20449   2.773   0.827  11.461  0.0555  0.1792  0.0100
 2997SOL    HW120450   2.688   0.851  11.499 -0.1760  0.1027 -0.4467
 2997SOL    HW220451   2.830   0.879  11.517  1.3366 -1.3225  0.0962
 2998SOL     OW20452   2.899   1.291   8.095  0.0413 -0.2918 -0.0083
 2998SOL    HW120453   2.974   1.339   8.060 -1.0145 -0.3626 -2.3279
 2998SOL    HW220454   2.913   1.309   8.188 -2.2045  1.1543  0.0569
 2999SOL     OW20455   2.625   4.029   5.814 -0.3526 -0.2802 -0.0784
 2999SOL    HW120456   2.530   4.033   5.817 -0.2809 -0.5163  2.4641
 2999SOL    HW220457   2.646   4.008   5.723 -3.3496  0.6913 -0.9762
 3000SOL     OW20458   4.119   2.383   7.749  0.2066  0.1161  0.4543
 3000SOL    HW120459   4.118   2.450   7.817  2.1351  0.3347  0.2384
 3000SOL    HW220460   4.056   2.431   7.696 -0.3283  1.0703  1.9434
 3001SOL     OW20461   4.675   3.007   3.677 -0.1021 -0.0201 -0.0461
 3001SOL    HW120462   4.648   2.990   3.768 -0.0202 -0.5453 -0.1207
 3001SOL    HW220463   4.588   3.015   3.638 -0.7601  1.1989  1.6261
 3002SOL     OW20464   1.835   4.039   4.877 -0.1339 -0.2421  0.3640
 3002SOL    HW120465   1.919   4.033   4.831  0.7578  1.0455  1.8041
 3002SOL    HW220466   1.821   3.949   4.906  1.9128 -0.6572  0.0798
 3003SOL     OW20467   1.513   4.446   9.077 -0.1408 -0.0988 -0.4004
 3003SOL    HW120468   1.517   4.477   8.987 -3.0988  0.5167 -0.3238
 3003SOL    HW220469   1.585   4.384   9.090 -1.7813 -2.1327 -1.0268
 3004SOL     OW20470   4.174   4.284   3.173  0.3194  0.4489  0.3861
 3004SOL    HW120471   4.256   4.334   3.181  1.4390 -1.3873  0.5012
 3004SOL    HW220472   4.205   4.202   3.134  1.0804 -0.8407  3.6351
 3005SOL     OW20473   0.732   3.802   3.393  1.2367 -1.2251 -0.1410
 3005SOL    HW120474   0.698   3.833   3.477 -0.0362 -0.3884 -0.9697
 3005SOL    HW220475   0.708   3.710   3.391 -1.4910 -0.5690  2.3952
 3006SOL     OW20476   4.518   4.631   2.930  0.7293  0.3942  0.0052
 3006SOL    HW120477   4.513   4.628   2.834  0.7610  0.5767 -0.0010
 3006SOL    HW220478   4.597   4.580   2.951  0.7386  0.5398  0.3174
 3007SOL     OW20479   1.220   2.237   0.266 -0.0545  0.2998  0.7823
 3007SOL    HW120480   1.206   2.279   0.181  0.5582  1.7687  1.4062
 3007SOL    HW220481   1.275   2.297   0.317  0.9742 -1.0505  1.2654
 3008SOL     OW20482   1.756   1.079   9.009 -0.3414  0.1605 -0.1705
 3008SOL    HW120483   1.844   1.116   9.005  0.1800 -1.1894 -1.4072
 3008SOL    HW220484   1.745   1.107   9.099 -0.9820 -2.0828  0.4446
 3009SOL     OW20485   1.928   4.101   5.490 -0.0625  0.4434 -0.4112
 3009SOL    HW120486   1.961   4.134   5.574 -2.0018  0.0281  0.5354
 3009SOL    HW220487   1.875   4.174   5.458 -1.6458 -0.7886 -0.5884
 3010SOL     OW20488   2.539   0.609   1.888 -0.0828  0.1806 -0.1300
 3010SOL    HW120489   2.577   0.613   1.976  1.6450  0.3027 -0.8644
 3010SOL    HW220490   2.614   0.581   1.834  0.5680 -0.8848  1.3317
 3011SOL     OW20491   4.130   0.448   3.992  0.3942  0.0417  0.0955
 3011SOL    HW120492   4.206   0.487   4.036 -1.0137  1.1636  1.4976
 3011SOL    HW220493   4.075   0.522   3.968  0.3974 -0.2216 -0.7132
 3012SOL     OW20494   1.058   1.996   6.756  0.1363 -0.0402 -0.5557
 3012SOL    HW120495   1.069   1.992   6.851 -1.4023 -0.6038 -0.3868
 3012SOL    HW220496   1.128   2.053   6.724 -0.7909  1.0251 -0.6836
 3013SOL     OW20497   1.474   3.285   5.681  0.1193 -0.0066 -0.4995
 3013SOL    HW120498   1.511   3.237   5.608 -2.6748 -3.0131  0.0717
 3013SOL    HW220499   1.399   3.232   5.710  1.9506 -2.1980  0.1859
 3014SOL     OW20500   2.639   2.136  14.997  0.8720 -0.2782 -0.5428
 3014SOL    HW120501   2.666   2.115  15.087 -0.5570  0.5505  0.0817
 3014SOL    HW220502   2.579   2.209  15.011 -1.4729 -2.1769 -0.7087
 3015SOL     OW20503   1.008   1.705   2.555 -0.1256  0.0215 -0.1734
 3015SOL    HW120504   0.945   1.773   2.532 -0.4486  0.4267  1.9909
 3015SOL    HW220505   0.995   1.651   2.477  0.5234 -1.6574  0.8925
 3016SOL     OW20506   2.280   3.946  10.553 -0.0912 -0.2400  0.4749
 3016SOL    HW120507   2.253   4.027  10.509 -1.2018 -0.2698  1.0943
 3016SOL    HW220508   2.234   3.873  10.511  1.0156 -0.8990  0.4110
 3017SOL     OW20509   3.873   2.223   3.097  0.3354 -0.4359 -0.5829
 3017SOL    HW120510   3.907   2.302   3.054  0.3095 -2.1156 -3.7483
 3017SOL    HW220511   3.948   2.179   3.136  0.5127  1.1983  0.9065
 3018SOL     OW20512   0.878   2.920   2.504  0.0484  0.1586  0.3640
 3018SOL    HW120513   0.958   2.877   2.475  0.4050  1.0610  0.0239
 3018SOL    HW220514   0.821   2.845   2.485 -1.0790  1.3484 -0.9838
 3019SOL     OW20515   1.924   1.580   5.550 -0.2312 -0.0994  0.4485
 3019SOL    HW120516   1.984   1.528   5.496 -1.2820 -2.2450  1.3877
 3019SOL    HW220517   1.852   1.519   5.558  0.1597 -0.8385 -1.7401
 3020SOL     OW20518   0.794   3.750   8.965  0.0167 -0.7645 -0.6033
 3020SOL    HW120519   0.818   3.791   9.048  0.4258 -1.4549 -0.3730
 3020SOL    HW220520   0.865   3.686   8.960  1.8657  1.3067 -0.9947
 3021SOL     OW20521   3.868   0.580   6.579  0.6250 -0.1515 -0.0294
 3021SOL    HW120522   3.898   0.641   6.512 -0.1312  0.7901  0.4872
 3021SOL    HW220523   3.858   0.640   6.653 -0.2873 -0.5693  0.1881
 3022SOL     OW20524   3.975   0.429  14.123  0.0219 -0.3193  0.3896
 3022SOL    HW120525   3.924   0.374  14.063 -0.6364  0.4494  0.2559
 3022SOL    HW220526   3.952   0.520  14.105  0.1556 -0.1170  1.2570
 3023SOL     OW20527   1.817   1.239  17.287  0.3440 -0.4391  0.2958
 3023SOL    HW120528   1.757   1.309  17.309 -0.4526 -1.3788  1.0916
 3023SOL    HW220529   1.865   1.271  17.211 -1.4188  0.9424 -0.2208
 3024SOL     OW20530   1.001   0.445   1.957 -0.1889 -0.3042  0.3898
 3024SOL    HW120531   1.001   0.501   2.034 -0.6141  0.3726 -0.1070
 3024SOL    HW220532   1.077   0.474   1.906  0.6535 -1.6435  0.8660
 3025SOL     OW20533   1.947   3.813   9.553  0.0750 -0.3654  0.7965
 3025SOL    HW120534   2.017   3.759   9.516 -0.3160 -1.0959  1.1367
 3025SOL    HW220535   1.986   3.851   9.632 -0.2396  0.3772  0.5910
 3026SOL     OW20536   1.580   1.580  11.564  0.0232  0.3010 -0.6716
 3026SOL    HW120537   1.616   1.578  11.475 -1.7911 -2.9602 -1.3494
 3026SOL    HW220538   1.656   1.559  11.618  1.5448 -1.3709 -3.4794
 3027SOL     OW20539   1.365   1.681   3.339  0.3068 -0.1359  0.5707
 3027SOL    HW120540   1.439   1.741   3.333  1.1743 -1.2406  0.0723
 3027SOL    HW220541   1.298   1.732   3.385  0.8448 -0.6046  1.8456
 3028SOL     OW20542   1.229   3.214   2.219  0.7935 -0.8250  0.7212
 3028SOL    HW120543   1.201   3.143   2.161  0.1741  0.1352 -0.1585
 3028SOL    HW220544   1.293   3.178   2.280  3.4295 -0.1776 -1.6820
 3029SOL     OW20545   4.438   0.077   9.441  0.3265  0.2241 -0.0313
 3029SOL    HW120546   4.382   0.067   9.364  0.6582  0.5413 -0.3170
 3029SOL    HW220547   4.414   4.717   9.484 -0.1253  0.4968  0.2385
 3030SOL     OW20548   1.505   4.211  11.978  0.1592 -0.4681 -0.3183
 3030SOL    HW120549   1.553   4.185  12.057 -1.0453 -1.6856  0.0117
 3030SOL    HW220550   1.495   4.305  11.991  2.3704 -0.3432  0.5942
 3031SOL     OW20551   2.941   3.101  12.437  0.2335  0.9318 -0.6059
 3031SOL    HW120552   2.861   3.111  12.385 -2.1401 -2.4255  2.4431
 3031SOL    HW220553   2.940   3.167  12.506 -2.0206 -0.3290  0.5567
 3032SOL     OW20554   4.363   4.054  16.873  0.2161  0.6602  0.8284
 3032SOL    HW120555   4.281   4.005  16.863  0.6607  0.0449  0.2027
 3032SOL    HW220556   4.320   4.096  16.948 -0.5454 -0.4216  0.9959
 3033SOL     OW20557   3.200   0.402   6.273 -0.0219  0.8563 -0.0867
 3033SOL    HW120558   3.268   0.458   6.238  0.7134 -0.0747 -0.1463
 3033SOL    HW220559   3.247   0.321   6.296  0.7190  1.1484 -0.5901
 3034SOL     OW20560   3.570   3.461   6.981 -0.5039  0.1544  0.0765
 3034SOL    HW120561   3.490   3.470   7.034 -0.6907  1.1580 -0.3811
 3034SOL    HW220562   3.625   3.525   7.026 -0.4471  0.4492 -0.4149
 3035SOL     OW20563   2.041   1.117  14.983  0.6083 -0.0183 -0.1458
 3035SOL    HW120564   2.002   1.165  14.910  0.7192  0.1879 -0.0684
 3035SOL    HW220565   1.960   1.117  15.034  1.0647  2.4549  0.6028
 3036SOL     OW20566   4.448   4.515   7.162 -0.1430 -0.0883  0.1922
 3036SOL    HW120567   4.411   4.602   7.151  1.2779  0.6691  1.4095
 3036SOL    HW220568   4.376   4.461   7.196  0.0738 -1.0262 -0.8201
 3037SOL     OW20569   2.182   2.176   6.377  0.5257  0.0708  0.2615
 3037SOL    HW120570   2.225   2.183   6.292 -0.6820  1.4713 -0.2415
 3037SOL    HW220571   2.161   2.082   6.382  0.3026  0.0080 -1.9665
 3038SOL     OW20572   2.125   3.337   9.932  0.3617 -0.0727 -0.3248
 3038SOL    HW120573   2.196   3.296   9.981  0.8159  1.5371  0.3523
 3038SOL    HW220574   2.112   3.283   9.854 -2.7519 -1.1837  0.9672
 3039SOL     OW20575   1.105   2.337   5.074  0.0842  0.1869  0.5416
 3039SOL    HW120576   1.059   2.299   4.999  1.1675 -0.6982  0.3320
 3039SOL    HW220577   1.108   2.259   5.129  0.7348 -0.0935  0.1099
 3040SOL     OW20578   3.651   1.463  10.531  0.5628 -0.0895 -0.5489
 3040SOL    HW120579   3.591   1.390  10.516  0.5772 -0.3147  0.5011
 3040SOL    HW220580   3.727   1.420  10.570  1.9797  1.4398 -1.6632
 3041SOL     OW20581   2.262   4.289   7.654  0.1023  0.6941  0.1101
 3041SOL    HW120582   2.203   4.285   7.729  0.3808  0.3782  0.3176
 3041SOL    HW220583   2.218   4.261   7.573  0.5073  1.6296 -0.4302
 3042SOL     OW20584   2.139   0.917   2.640  0.0790 -0.3564  0.5922
 3042SOL    HW120585   2.155   0.991   2.581  1.8614 -1.5278 -0.4249
 3042SOL    HW220586   2.062   0.880   2.597 -0.7571  0.9857  0.9442
 3043SOL     OW20587   2.859   0.821   3.559  0.1811 -0.2449  0.4885
 3043SOL    HW120588   2.851   0.812   3.463  2.7851  1.9252  0.0990
 3043SOL    HW220589   2.953   0.807   3.567  0.2211 -0.6302 -0.5434
 3044SOL     OW20590   3.208   4.477   6.412 -0.1510  0.0534 -0.4394
 3044SOL    HW120591   3.189   4.385   6.391  0.2273 -0.2516  0.5481
 3044SOL    HW220592   3.204   4.518   6.326  1.8148 -0.9405 -0.9993
 3045SOL     OW20593   2.925   2.199   8.714  0.0897 -0.0113  0.2940
 3045SOL    HW120594   3.018   2.179   8.703  0.2847  1.6234 -1.0192
 3045SOL    HW220595   2.931   2.271   8.651  0.1014  0.8469  1.2698
 3046SOL     OW20596   0.917   0.059   5.522 -0.6788  0.2007  0.3698
 3046SOL    HW120597   0.915   0.101   5.436  2.5999  0.4128  0.4140
 3046SOL    HW220598   1.009   0.063   5.549 -1.0691  2.6127  1.3321
 3047SOL     OW20599   3.306   1.731   8.299  0.2356  0.1120  0.2314
 3047SOL    HW120600   3.225   1.740   8.249  0.3627 -2.0337 -0.3707
 3047SOL    HW220601   3.263   1.721   8.384  1.1725  0.7767  0.7673
 3048SOL     OW20602   4.026   4.713   7.953  0.5492 -0.2065 -0.1329
 3048SOL    HW120603   3.997   4.621   7.958 -2.2019  0.7467  1.5187
 3048SOL    HW220604   3.976   0.025   7.879  1.1684  1.4621  0.2371
 3049SOL     OW20605   0.548   3.181   8.206  0.4196 -0.2674 -0.4447
 3049SOL    HW120606   0.509   3.102   8.167 -0.9093 -1.4456  3.3032
 3049SOL    HW220607   0.496   3.189   8.286  0.4470 -0.4707 -0.4064
 3050SOL     OW20608   0.528   0.285   2.157  0.2734  0.5941 -0.2742
 3050SOL    HW120609   0.477   0.337   2.095  3.0976  1.3995 -1.8759
 3050SOL    HW220610   0.466   0.223   2.196 -0.8627  0.3826 -2.4499
 3051SOL     OW20611   2.619   0.304   6.902  0.4098 -0.1506  0.0625
 3051SOL    HW120612   2.711   0.299   6.877 -0.0019  0.2265 -1.4757
 3051SOL    HW220613   2.614   0.395   6.930 -0.0201  0.0572 -0.6976
 3052SOL     OW20614   4.361   0.036   5.337 -0.2469  0.2203  0.1351
 3052SOL    HW120615   4.365   0.020   5.432 -0.8304 -1.5783 -0.1519
 3052SOL    HW220616   4.274   0.005   5.315  0.6872 -0.7843 -2.0874
 3053SOL     OW20617   1.352   3.446   6.059  0.1785 -0.0835 -0.3541
 3053SOL    HW120618   1.418   3.489   6.113 -0.3852  1.8263 -1.1998
 3053SOL    HW220619   1.395   3.455   5.974  1.1797  1.7540  0.3541
 3054SOL     OW20620   3.187   1.648   7.350  0.4683  0.2144 -0.3040
 3054SOL    HW120621   3.115   1.659   7.412 -0.3205  1.7620 -1.4930
 3054SOL    HW220622   3.150   1.583   7.289 -0.6205  0.6735 -0.1321
 3055SOL     OW20623   0.953   0.412   1.717  0.1745 -0.1539  0.0248
 3055SOL    HW120624   0.953   0.395   1.811 -2.1760  1.2849  0.2872
 3055SOL    HW220625   1.044   0.400   1.692  0.0867  0.4011 -0.5775
 3056SOL     OW20626   1.500   1.452   6.174  0.2029 -0.2345  0.1062
 3056SOL    HW120627   1.576   1.492   6.131 -0.6930 -0.5855 -1.8184
 3056SOL    HW220628   1.539   1.376   6.217  0.4410 -0.7788 -1.0708
 3057SOL     OW20629   1.126   4.068   6.976 -0.3326  0.3759 -0.0851
 3057SOL    HW120630   1.205   4.091   6.927 -1.0800  0.2477 -1.3426
 3057SOL    HW220631   1.060   4.077   6.907 -0.1037  0.4495 -0.2940
 3058SOL     OW20632   0.683   0.727   8.439 -0.5614 -0.0308 -0.0234
 3058SOL    HW120633   0.635   0.647   8.418 -2.4501  0.8501  0.9693
 3058SOL    HW220634   0.616   0.794   8.450 -0.2899  0.7120 -2.8641
 3059SOL     OW20635   1.687   2.407   4.807  0.5212 -0.1640 -0.4613
 3059SOL    HW120636   1.613   2.467   4.823  1.5352  1.3478 -1.4381
 3059SOL    HW220637   1.721   2.397   4.896  2.1081 -0.7364 -1.1375
 3060SOL     OW20638   0.328   1.374   3.756  0.1317 -0.4357  0.1409
 3060SOL    HW120639   0.421   1.352   3.754  0.1073 -0.5642  0.4442
 3060SOL    HW220640   0.320   1.378   3.852 -0.7867 -0.9892  0.0964
 3061SOL     OW20641   3.988   4.297   9.794  0.1710 -0.1521 -0.6482
 3061SOL    HW120642   3.909   4.260   9.753 -1.3473  0.8416  1.3593
 3061SOL    HW220643   3.999   4.387   9.761 -0.3852  1.1147  2.6002
 3062SOL     OW20644   3.474   1.100   0.320 -0.1400  0.1929  0.4518
 3062SOL    HW120645   3.452   1.150   0.399 -0.0302 -1.5897  1.6099
 3062SOL    HW220646   3.389   1.084   0.279 -0.6195  2.6068  0.4974
 3063SOL     OW20647   2.198   4.514   3.406 -0.7821 -0.7384  0.4555
 3063SOL    HW120648   2.209   4.424   3.374 -0.8992 -0.5763 -0.0329
 3063SOL    HW220649   2.290   4.537   3.421 -0.7637  0.5213 -1.6925
 3064SOL     OW20650   3.807   2.342   5.947  0.2469 -0.3952 -0.0216
 3064SOL    HW120651   3.846   2.418   5.989  3.3010 -2.4019  0.7930
 3064SOL    HW220652   3.789   2.285   6.022  2.1298 -2.3819 -1.0479
 3065SOL     OW20653   0.664   0.523   6.628 -0.1137  0.5479 -0.4772
 3065SOL    HW120654   0.677   0.545   6.721 -2.1473 -2.2245  0.4490
 3065SOL    HW220655   0.571   0.508   6.611  0.7226 -2.0306 -2.7940
 3066SOL     OW20656   4.506   2.557   7.762  0.2846 -0.4642 -0.4452
 3066SOL    HW120657   4.541   2.629   7.816 -0.7786 -0.5592  0.3560
 3066SOL    HW220658   4.503   2.609   7.682  3.7794 -0.3798 -0.5220
 3067SOL     OW20659   3.551   1.858   3.278 -0.6136 -0.3583 -0.2200
 3067SOL    HW120660   3.622   1.858   3.214 -0.1663 -0.4895  0.2782
 3067SOL    HW220661   3.565   1.939   3.327  1.7767  0.0317 -1.5288
 3068SOL     OW20662   2.523   0.676   5.421 -0.5458 -0.7300  0.3793
 3068SOL    HW120663   2.494   0.625   5.497 -1.5332 -1.4424 -0.4815
 3068SOL    HW220664   2.487   0.625   5.349 -0.3138  1.2430 -1.1474
 3069SOL     OW20665   4.064   4.049  17.111 -0.0518 -0.0260  0.0182
 3069SOL    HW120666   4.126   4.121  17.100 -1.0839  0.8178 -0.2542
 3069SOL    HW220667   4.069   4.023  17.019  3.4225 -0.1433  0.2266
 3070SOL     OW20668   1.246   3.562   3.954  0.4498 -0.3715 -0.4629
 3070SOL    HW120669   1.330   3.518   3.968 -0.7789 -2.4573  0.4475
 3070SOL    HW220670   1.183   3.490   3.964 -1.2334  0.8379 -2.2485
 3071SOL     OW20671   1.748   4.688  14.189 -0.7132  0.5040 -0.2193
 3071SOL    HW120672   1.669   4.702  14.240 -1.4984 -0.9772 -0.9916
 3071SOL    HW220673   1.750   0.050  14.143 -0.1429  0.5666 -0.0743
 3072SOL     OW20674   0.934   2.295   4.800 -0.2689 -0.3005  0.3511
 3072SOL    HW120675   0.955   2.388   4.793 -1.6249 -0.1704 -1.8988
 3072SOL    HW220676   0.912   2.277   4.709  1.7558  0.0454 -0.1926
 3073SOL     OW20677   0.233   3.992   1.412  0.4593  0.5644 -0.3905
 3073SOL    HW120678   0.201   4.013   1.500 -0.7055 -1.8761 -0.2432
 3073SOL    HW220679   0.313   4.044   1.406  0.0194  1.1234 -1.3954
 3074SOL     OW20680   0.009   0.127  13.573  0.0155  0.1067  0.2585
 3074SOL    HW120681   4.700   0.037  13.562 -0.2051  0.1106  0.7950
 3074SOL    HW220682   0.100   0.112  13.548  0.4295 -0.0488  1.8512
 3075SOL     OW20683   2.813   2.581  16.458  0.2122 -0.1815  0.7860
 3075SOL    HW120684   2.778   2.653  16.510 -0.4081 -0.1256  0.3036
 3075SOL    HW220685   2.894   2.617  16.423 -0.6610  0.8012 -0.2542
 3076SOL     OW20686   3.531   4.628   5.485  0.4846  0.3206  0.0428
 3076SOL    HW120687   3.562   4.539   5.500  3.0933  1.4959  1.5085
 3076SOL    HW220688   3.527   4.659   5.575 -1.3916 -1.8730  0.7339
 3077SOL     OW20689   4.549   2.373   7.466 -0.0198  0.4874 -0.0638
 3077SOL    HW120690   4.609   2.306   7.500 -1.8456 -1.2905 -0.3456
 3077SOL    HW220691   4.485   2.376   7.537 -1.4638  0.8946 -1.3722
 3078SOL     OW20692   4.180   0.901   9.474 -0.6927 -0.1940  0.0137
 3078SOL    HW120693   4.219   0.963   9.413  1.5710 -0.5421  1.0882
 3078SOL    HW220694   4.248   0.893   9.541 -1.2369  0.2366  0.6169
 3079SOL     OW20695   3.287   4.295   8.561 -0.2632 -0.2734 -0.7835
 3079SOL    HW120696   3.297   4.222   8.623 -0.8191  0.8744  0.6508
 3079SOL    HW220697   3.346   4.277   8.488  0.2531  0.3591 -0.5173
 3080SOL     OW20698   0.789   3.876  15.175 -0.1775 -0.1239 -0.1182
 3080SOL    HW120699   0.874   3.892  15.133 -1.1679 -0.7176 -2.3518
 3080SOL    HW220700   0.783   3.949  15.236  0.2283 -0.9711  0.9436
 3081SOL     OW20701   3.949   4.062  16.099  0.2832 -0.1896  0.4173
 3081SOL    HW120702   3.965   4.058  16.005 -0.6183  0.4780  0.2397
 3081SOL    HW220703   3.890   4.137  16.098  0.2655 -0.2273 -0.9412
 3082SOL     OW20704   4.206   2.156  14.657 -0.5403  0.1263 -0.0101
 3082SOL    HW120705   4.267   2.092  14.693  0.2010  1.1571  0.5496
 3082SOL    HW220706   4.133   2.151  14.719  0.6053  2.5054  1.5618
 3083SOL     OW20707   3.385   4.569   1.657  0.7530  0.4238 -0.4187
 3083SOL    HW120708   3.329   4.576   1.579 -1.9968 -1.0359  1.4048
 3083SOL    HW220709   3.360   4.481   1.685 -1.0587  0.8180 -0.7864
 3084SOL     OW20710   1.125   0.412   8.919  0.0173 -0.3826  0.0474
 3084SOL    HW120711   1.095   0.325   8.891 -1.4177  0.1739 -0.1403
 3084SOL    HW220712   1.180   0.396   8.996  1.1055  0.8452 -0.4827
 3085SOL     OW20713   4.346   1.465   7.560  0.0385  0.1303  0.1024
 3085SOL    HW120714   4.378   1.536   7.504  0.3888 -0.1688 -0.0755
 3085SOL    HW220715   4.376   1.493   7.646 -0.4244 -2.5686  1.1272
 3086SOL     OW20716   1.124   4.420  15.922 -0.2406  0.6082 -0.3185
 3086SOL    HW120717   1.185   4.493  15.928  0.5289  0.0649 -1.5542
 3086SOL    HW220718   1.047   4.444  15.974 -1.0219 -0.3513 -1.0281
 3087SOL     OW20719   3.356   4.616   2.615  0.1646 -0.1418  0.4483
 3087SOL    HW120720   3.321   4.700   2.585  0.4993 -0.3768 -0.6033
 3087SOL    HW220721   3.429   4.638   2.672 -0.1024 -0.4549  0.9094
 3088SOL     OW20722   0.056   4.479   3.716  0.3730  0.0021 -0.6835
 3088SOL    HW120723   0.114   4.462   3.642  0.4532  2.2962 -1.1439
 3088SOL    HW220724   0.035   4.387   3.733 -0.0723  0.0394 -1.0216
 3089SOL     OW20725   4.185   0.114   1.659  0.0787  0.5447 -0.0323
 3089SOL    HW120726   4.099   0.119   1.616 -0.6153 -1.7015  1.1286
 3089SOL    HW220727   4.236   0.070   1.591  1.2200  1.3657  0.3055
 3090SOL     OW20728   3.127   0.783   3.882 -0.2977 -0.2120  0.5249
 3090SOL    HW120729   3.149   0.773   3.974 -0.4665 -0.6273  0.5204
 3090SOL    HW220730   3.097   0.873   3.887 -0.4633 -0.0258 -3.3020
 3091SOL     OW20731   3.875   0.056   4.165 -0.2182 -0.1331  0.1195
 3091SOL    HW120732   3.928   4.710   4.124  0.5695  0.8014 -0.4065
 3091SOL    HW220733   3.836   0.094   4.087 -1.1050 -0.2818  0.4889
 3092SOL     OW20734   0.804   1.519   1.100  0.5283 -0.5606  0.3810
 3092SOL    HW120735   0.845   1.434   1.087 -2.0904 -1.7995  0.3653
 3092SOL    HW220736   0.853   1.557   1.173  0.5433 -1.7013  0.9504
 3093SOL     OW20737   0.617   2.376   2.330  0.3628 -0.5808 -0.1288
 3093SOL    HW120738   0.626   2.428   2.409  0.7671  1.0153 -1.2241
 3093SOL    HW220739   0.531   2.398   2.295 -0.7735 -2.3805  1.5200
 3094SOL     OW20740   2.022   2.250   8.651 -0.4538  0.1173  0.2166
 3094SOL    HW120741   1.995   2.318   8.589 -1.0936 -0.2803  0.0590
 3094SOL    HW220742   2.086   2.199   8.602  0.5089  0.9157  0.6441
 3095SOL     OW20743   1.657   1.182   6.545  0.0519 -0.1609 -0.1607
 3095SOL    HW120744   1.723   1.140   6.490  0.6180 -1.5959  1.6316
 3095SOL    HW220745   1.709   1.247   6.592 -0.7914 -0.0564  0.6236
 3096SOL     OW20746   0.659   3.090   7.857 -0.2353 -0.1464 -0.7851
 3096SOL    HW120747   0.709   3.137   7.925 -0.1760  0.8062 -1.4912
 3096SOL    HW220748   0.586   3.057   7.909 -0.3496 -0.0776 -0.9024
 3097SOL     OW20749   0.001   0.795   4.727 -0.5260 -0.3003  0.0442
 3097SOL    HW120750   0.034   0.880   4.758 -0.7055  0.7238 -2.6042
 3097SOL    HW220751   0.071   0.754   4.676  0.4815 -1.3370  2.2399
 3098SOL     OW20752   4.519   3.091   6.014 -0.5889 -0.9101  0.4744
 3098SOL    HW120753   4.495   3.163   5.956  0.5108 -0.2898  0.7888
 3098SOL    HW220754   4.614   3.098   6.011 -0.9200  2.0590 -2.9065
 3099SOL     OW20755   2.602   3.294   0.052 -0.0921 -0.7815  0.0309
 3099SOL    HW120756   2.693   3.271   0.036  0.8394  0.9091  2.9643
 3099SOL    HW220757   2.609   3.352   0.128  0.6504  0.6929 -1.1698
 3100SOL     OW20758   3.185   1.187   3.532  0.1616 -0.0583  0.0596
 3100SOL    HW120759   3.098   1.148   3.539  0.4811 -0.8363 -0.3083
 3100SOL    HW220760   3.169   1.267   3.481 -0.4475  2.0951  3.6486
 3101SOL     OW20761   3.611   0.945   2.251 -0.2216 -0.1370 -0.2695
 3101SOL    HW120762   3.556   1.014   2.215 -1.0977 -1.1685 -0.9028
 3101SOL    HW220763   3.656   0.995   2.320 -2.4625  2.2804 -0.5583
 3102SOL     OW20764   0.388   0.679   1.476  0.2873  0.1885  0.8704
 3102SOL    HW120765   0.294   0.697   1.486  0.6407  2.3540  0.1068
 3102SOL    HW220766   0.424   0.719   1.555  1.6105 -0.0042  0.3594
 3103SOL     OW20767   1.229   4.029   3.416  0.2120 -0.2579  0.4216
 3103SOL    HW120768   1.260   4.072   3.496  0.5160  1.7765 -0.7727
 3103SOL    HW220769   1.137   4.032   3.444  0.4745 -0.1904  1.2652
 3104SOL     OW20770   3.881   1.443   4.190  0.1557 -0.0071 -0.3161
 3104SOL    HW120771   3.798   1.453   4.236  1.3021 -0.4247  1.8152
 3104SOL    HW220772   3.861   1.457   4.097  0.8669 -1.4959 -0.7060
 3105SOL     OW20773   1.103   3.298  15.267 -0.3224 -0.0773 -0.3360
 3105SOL    HW120774   1.067   3.216  15.299  3.4843 -1.8933 -0.6983
 3105SOL    HW220775   1.100   3.349  15.348  2.8938  0.3051 -0.4248
 3106SOL     OW20776   1.171   3.631   6.425  0.9245  0.0313 -0.2478
 3106SOL    HW120777   1.241   3.584   6.472 -1.3459 -0.9348  2.2314
 3106SOL    HW220778   1.162   3.578   6.346  3.1479  1.0152 -1.1556
 3107SOL     OW20779   2.588   1.270   6.805 -0.0458 -0.1934  0.1379
 3107SOL    HW120780   2.585   1.177   6.828  2.5041 -0.2478  0.2199
 3107SOL    HW220781   2.675   1.293   6.839  0.5924 -1.2869 -0.7754
 3108SOL     OW20782   1.490   0.529   7.213  0.1468 -0.1263 -0.3024
 3108SOL    HW120783   1.451   0.590   7.275 -2.7243 -1.2962 -0.9610
 3108SOL    HW220784   1.431   0.528   7.138 -4.0452 -1.4461  3.0666
 3109SOL     OW20785   2.016   1.903   3.306 -0.6527 -0.7956 -0.3406
 3109SOL    HW120786   2.072   1.846   3.358  0.7599 -0.5234 -1.5801
 3109SOL    HW220787   2.075   1.970   3.272 -2.5044  2.3028  2.4379
 3110SOL     OW20788   3.301   3.586   7.106 -0.5938  0.3289 -0.6329
 3110SOL    HW120789   3.298   3.597   7.201  1.6265 -1.2421 -0.3705
 3110SOL    HW220790   3.250   3.507   7.091 -2.2232  0.8772  2.0346
 3111SOL     OW20791   1.183   4.585   5.629 -0.0439  0.2868  0.4077
 3111SOL    HW120792   1.200   4.605   5.721 -0.0124  4.2102 -0.4364
 3111SOL    HW220793   1.253   4.642   5.596 -0.9666  0.3723 -1.4156
 3112SOL     OW20794   1.933   4.221  15.449 -0.2291 -0.1270 -0.3902
 3112SOL    HW120795   1.917   4.235  15.355 -0.2567 -1.6451 -0.6140
 3112SOL    HW220796   1.981   4.139  15.461  0.3904  0.0688 -1.4883
 3113SOL     OW20797   4.477   1.214   5.485  0.0455 -0.0507 -0.0045
 3113SOL    HW120798   4.548   1.247   5.430  0.9078  0.0736  1.1793
 3113SOL    HW220799   4.398   1.224   5.433  0.1594  1.7974  0.1728
 3114SOL     OW20800   0.641   3.307   8.581 -0.8116 -0.2186  0.5689
 3114SOL    HW120801   0.660   3.392   8.620 -1.8959 -0.3483  1.3677
 3114SOL    HW220802   0.695   3.314   8.502 -0.4498 -1.5913  0.6878
 3115SOL     OW20803   1.337   0.339   8.648  0.3560 -0.3617 -0.0174
 3115SOL    HW120804   1.425   0.314   8.677 -1.3206 -3.9236  2.0086
 3115SOL    HW220805   1.305   0.382   8.727 -1.3832 -0.7808 -0.4873
 3116SOL     OW20806   0.067   4.192   0.536 -0.0285 -0.8003  0.3596
 3116SOL    HW120807   0.022   4.274   0.515 -0.2388 -1.0406 -0.1147
 3116SOL    HW220808   0.153   4.231   0.551 -0.2297 -0.5018  0.7604
 3117SOL     OW20809   2.829   2.301   8.976 -0.2746 -0.4600 -0.0822
 3117SOL    HW120810   2.873   2.259   8.902 -0.8510 -5.1044  2.2080
 3117SOL    HW220811   2.876   2.258   9.048  1.0913  0.2862 -0.5279
 3118SOL     OW20812   4.429   0.613   6.693  0.2559  0.1777  0.0632
 3118SOL    HW120813   4.521   0.630   6.674  0.8356  0.9171  3.5596
 3118SOL    HW220814   4.418   0.528   6.650 -1.3865  0.0695  0.6863
 3119SOL     OW20815   3.977   0.252   4.991  0.2189 -0.0463  0.3086
 3119SOL    HW120816   3.938   0.301   4.919  0.2753  0.9139  0.9322
 3119SOL    HW220817   4.046   0.312   5.019 -0.9620  1.0766  0.7987
 3120SOL     OW20818   4.566   1.226   4.826  0.4463  0.3326 -0.0482
 3120SOL    HW120819   4.566   1.286   4.901 -0.7524 -0.6679  0.7543
 3120SOL    HW220820   4.629   1.275   4.773  0.7183  1.1630  1.0250
 3121SOL     OW20821   3.051   2.626   4.992  0.0001 -0.1466 -0.3191
 3121SOL    HW120822   3.007   2.575   4.923 -0.2161 -1.7375  0.9738
 3121SOL    HW220823   2.992   2.618   5.067  2.4140  0.1952  1.6082
 3122SOL     OW20824   3.983   1.451   0.175 -0.1582 -0.3401 -0.1893
 3122SOL    HW120825   3.982   1.397   0.097 -0.4338 -1.0005  0.2731
 3122SOL    HW220826   4.076   1.468   0.191 -0.4871  1.2804  0.0926
 3123SOL     OW20827   4.456   2.572   1.702 -0.3536 -0.2563 -0.6945
 3123SOL    HW120828   4.415   2.568   1.789  0.6781  0.9108 -0.1448
 3123SOL    HW220829   4.452   2.667   1.693  0.4998 -0.1900 -0.4183
 3124SOL     OW20830   4.018   3.629   7.162  0.1381 -0.3724  0.2413
 3124SOL    HW120831   3.926   3.603   7.164 -0.3309  1.2728 -0.2348
 3124SOL    HW220832   4.031   3.678   7.081 -0.1258  3.4107  2.5053
 3125SOL     OW20833   1.445   0.206   5.122  0.7415  0.1109 -0.2541
 3125SOL    HW120834   1.435   0.234   5.031 -0.3105  0.0088 -0.1665
 3125SOL    HW220835   1.529   0.162   5.112  0.7066 -0.5434  2.5993
 3126SOL     OW20836   0.991   4.411   5.708  0.1598  0.9213  0.0727
 3126SOL    HW120837   1.074   4.457   5.698  0.8682 -0.6370 -1.2786
 3126SOL    HW220838   1.024   4.345   5.769 -2.8210 -2.0145 -1.4823
 3127SOL     OW20839   3.410   1.110   4.909  0.0134  0.5736 -0.3834
 3127SOL    HW120840   3.427   1.149   4.824  1.8361 -0.3495 -0.4484
 3127SOL    HW220841   3.342   1.172   4.934  0.8643  1.1145  0.5991
 3128SOL     OW20842   4.297   3.658   7.741 -0.3108  0.0515 -0.0462
 3128SOL    HW120843   4.277   3.731   7.682  0.4815 -1.0892 -1.7587
 3128SOL    HW220844   4.281   3.585   7.680 -0.9900 -0.7929  1.1539
 3129SOL     OW20845   0.818   3.086   1.465 -0.0511  0.3655 -0.0595
 3129SOL    HW120846   0.781   3.061   1.549 -1.6342  3.1210  0.0669
 3129SOL    HW220847   0.890   3.024   1.456 -1.9941 -1.8536 -0.3134
 3130SOL     OW20848   0.444   0.929   8.403 -0.0857  0.0264 -0.2223
 3130SOL    HW120849   0.402   0.950   8.320  2.3002 -0.4155 -1.5347
 3130SOL    HW220850   0.387   0.857   8.430 -0.5849  0.2933 -0.5760
 3131SOL     OW20851   4.026   1.586   7.016 -0.2428  0.0160 -0.6787
 3131SOL    HW120852   3.942   1.630   7.028  0.4973  1.3693 -0.4083
 3131SOL    HW220853   4.042   1.542   7.100 -0.6733 -0.7334 -0.9918
 3132SOL     OW20854   3.012   3.046   6.610  0.0651 -0.1178 -0.1921
 3132SOL    HW120855   2.928   3.005   6.630 -0.5199  0.7511 -0.8575
 3132SOL    HW220856   3.035   3.079   6.698 -2.9205 -0.5906  0.7466
 3133SOL     OW20857   0.421   1.352   2.070  0.0589 -0.0856 -0.4459
 3133SOL    HW120858   0.383   1.268   2.043  0.8044 -1.5091  2.9035
 3133SOL    HW220859   0.341   1.396   2.098  1.9771  1.7965  2.0839
 3134SOL     OW20860   2.334   2.080   8.707  0.1786 -0.0383  0.5696
 3134SOL    HW120861   2.367   2.016   8.644  0.2641 -0.3562  0.9365
 3134SOL    HW220862   2.416   2.097   8.754  0.0896  1.6977  0.0890
 3135SOL     OW20863   1.391   2.367   5.437 -0.0136 -0.0902  0.1560
 3135SOL    HW120864   1.402   2.348   5.530  0.3234  1.1636  0.3792
 3135SOL    HW220865   1.296   2.369   5.438 -0.0540 -1.2299 -1.4765
 3136SOL     OW20866   3.921   4.348   6.357 -0.4899  0.1582 -0.5133
 3136SOL    HW120867   3.996   4.312   6.404  0.3745  0.1946 -1.8730
 3136SOL    HW220868   3.964   4.416   6.305  0.9477 -0.5473 -0.2445
 3137SOL     OW20869   1.719   2.928   1.813 -0.2492 -0.1727  0.0084
 3137SOL    HW120870   1.656   2.892   1.750 -0.8386 -1.5423  1.3945
 3137SOL    HW220871   1.674   2.921   1.897 -1.2861  1.9940 -0.3705
 3138SOL     OW20872   2.863   0.315   6.773 -0.7903 -0.0097 -0.1490
 3138SOL    HW120873   2.905   0.230   6.760 -0.3878  0.7067 -3.3565
 3138SOL    HW220874   2.940   0.372   6.776 -1.3247  0.7563 -1.6690
 3139SOL     OW20875   0.095   0.152  14.988  0.2640  0.1261  0.2524
 3139SOL    HW120876   0.148   0.231  14.971 -0.4976  0.2497 -1.5464
 3139SOL    HW220877   0.104   0.104  14.906 -2.1248 -0.7767  0.5468
 3140SOL     OW20878   4.622   3.416   5.768 -0.2341 -0.1664  0.5963
 3140SOL    HW120879   4.645   3.396   5.677 -1.1027 -0.4713  0.4421
 3140SOL    HW220880   4.708   3.412   5.810 -1.4216 -2.0277  2.8355
 3141SOL     OW20881   2.441   0.462   2.972  0.4310  0.3543 -0.1787
 3141SOL    HW120882   2.347   0.460   2.987  0.8184 -3.5585  1.6165
 3141SOL    HW220883   2.470   0.525   3.039 -1.6863  3.0937 -1.8473
 3142SOL     OW20884   4.717   1.393   6.140  0.2854  0.2429 -0.2434
 3142SOL    HW120885   0.002   1.487   6.157  2.7349  0.0228  0.0411
 3142SOL    HW220886   4.636   1.398   6.090  1.0425 -1.1690 -1.6054
 3143SOL     OW20887   1.637   0.822   8.033  0.5095  0.0061 -0.0782
 3143SOL    HW120888   1.569   0.774   7.986  2.2308 -1.6435 -0.8739
 3143SOL    HW220889   1.592   0.844   8.114 -0.8171 -0.1150 -0.7802
 3144SOL     OW20890   1.562   3.533   8.390 -0.3328  0.0871 -0.1738
 3144SOL    HW120891   1.523   3.581   8.317 -0.8159 -0.7132 -0.4311
 3144SOL    HW220892   1.489   3.541   8.451 -0.3421 -0.8375 -0.0592
 3145SOL     OW20893   0.874   0.852   8.309 -0.5256  0.3305  0.0970
 3145SOL    HW120894   0.917   0.787   8.253 -0.4164 -0.7358  1.3949
 3145SOL    HW220895   0.812   0.810   8.369 -1.9994  2.9739  0.3867
 3146SOL     OW20896   2.747   4.184   8.854  0.5483 -0.6281  0.0669
 3146SOL    HW120897   2.718   4.092   8.856 -0.0063 -0.4589 -0.5296
 3146SOL    HW220898   2.700   4.226   8.783 -0.3236 -1.8261 -0.0719
 3147SOL     OW20899   1.774   0.956   4.010  0.3552 -0.3379 -0.5357
 3147SOL    HW120900   1.693   0.903   4.011  0.3647 -0.3304  0.9195
 3147SOL    HW220901   1.761   1.009   3.931  1.4870 -0.2207 -0.6403
 3148SOL     OW20902   0.529   3.332   5.979 -1.0532  0.3644  0.6649
 3148SOL    HW120903   0.567   3.312   6.065  0.1243 -0.4262 -0.0481
 3148SOL    HW220904   0.559   3.255   5.930 -1.6151  1.1629 -0.9284
 3149SOL     OW20905   4.336   2.154   6.147 -0.2182 -0.0513 -0.0660
 3149SOL    HW120906   4.246   2.120   6.149  0.2516 -1.2450  0.9088
 3149SOL    HW220907   4.366   2.148   6.238  2.9101  0.0125 -1.0982
 3150SOL     OW20908   3.444   3.077   2.725  0.1098  0.6635 -0.2008
 3150SOL    HW120909   3.412   3.076   2.635  0.7877  2.2153 -0.4556
 3150SOL    HW220910   3.499   2.999   2.721  1.3502  1.4272  2.2253
 3151SOL     OW20911   1.263   2.009  10.636 -0.1124  0.3057 -0.3167
 3151SOL    HW120912   1.288   1.919  10.614 -0.9946 -0.2469  0.9242
 3151SOL    HW220913   1.216   2.029  10.555  0.9314  2.2572 -0.4524
 3152SOL     OW20914   1.554   0.997   5.720 -0.0950  0.4972 -0.1807
 3152SOL    HW120915   1.565   0.903   5.736  0.3480  0.8662  1.6387
 3152SOL    HW220916   1.598   1.039   5.794 -1.5063  0.5688  0.6252
 3153SOL     OW20917   2.873   3.149  14.520 -0.5249  0.7676 -0.1781
 3153SOL    HW120918   2.931   3.094  14.571 -1.0450  1.1908  0.8714
 3153SOL    HW220919   2.824   3.197  14.587 -0.9720 -0.2213  0.1909
 3154SOL     OW20920   2.477   2.996  16.549 -0.1611 -0.2840 -0.1595
 3154SOL    HW120921   2.477   3.020  16.642  1.8805 -0.3658 -0.1549
 3154SOL    HW220922   2.439   3.068  16.499 -1.1472 -1.0503 -0.5339
 3155SOL     OW20923   3.558   4.623   7.256  0.0045 -0.6660 -0.2360
 3155SOL    HW120924   3.637   4.636   7.308  1.8909  0.5795 -3.3932
 3155SOL    HW220925   3.556   4.696   7.194 -2.8737  0.7334  1.5265
 3156SOL     OW20926   1.513   0.022   4.693 -0.5776  0.3223 -0.5332
 3156SOL    HW120927   1.432   0.011   4.743 -0.0952 -0.5786  0.0452
 3156SOL    HW220928   1.511   4.670   4.632 -0.0325 -0.0557 -0.0902
 3157SOL     OW20929   2.975   1.694   4.033 -0.1295 -0.3743  0.3234
 3157SOL    HW120930   3.059   1.740   4.024 -0.3452  0.4281  2.4743
 3157SOL    HW220931   3.000   1.610   3.995  1.0765  1.3130 -2.6052
 3158SOL     OW20932   3.370   4.441   6.871  0.1182 -0.3195  0.3248
 3158SOL    HW120933   3.355   4.447   6.965  0.6948 -2.2625  0.5429
 3158SOL    HW220934   3.418   4.523   6.863 -0.2088  0.0450  2.2356
 3159SOL     OW20935   3.157   2.973   2.370 -0.1909  0.1062 -0.0919
 3159SOL    HW120936   3.116   2.887   2.382 -0.3580  0.2538  0.3659
 3159SOL    HW220937   3.084   3.022   2.331 -1.2048 -1.8214 -0.6257
 3160SOL     OW20938   1.716   3.108   4.301  0.3834 -0.2786  0.0332
 3160SOL    HW120939   1.686   3.030   4.254  0.4680  1.1635 -2.4132
 3160SOL    HW220940   1.805   3.121   4.267  0.0092 -0.5980 -1.0943
 3161SOL     OW20941   0.534   1.475   1.021  0.5857  0.0780  0.0104
 3161SOL    HW120942   0.625   1.480   1.053  0.6646 -2.4452  0.1731
 3161SOL    HW220943   0.484   1.519   1.089  0.3999 -0.0000 -0.0769
 3162SOL     OW20944   0.519   0.261  12.150 -0.0108 -0.0440  0.0026
 3162SOL    HW120945   0.516   0.178  12.102  0.8388 -0.7569  1.1650
 3162SOL    HW220946   0.460   0.306  12.091 -1.6542 -0.6305  1.2081
 3163SOL     OW20947   3.036   0.670   5.679  0.1187 -0.3463 -0.0052
 3163SOL    HW120948   2.958   0.649   5.628  0.0535 -0.2728  0.0633
 3163SOL    HW220949   3.008   0.693   5.768  0.0907 -0.0966 -0.0777
 3164SOL     OW20950   3.916   1.583   3.047 -0.1012  0.4693 -0.1488
 3164SOL    HW120951   3.855   1.628   3.105 -1.1965 -2.5754  1.0892
 3164SOL    HW220952   3.941   1.654   2.988 -3.8726 -0.3208 -2.6432
 3165SOL     OW20953   0.462   4.209  10.083  0.2930 -0.3997  1.2334
 3165SOL    HW120954   0.475   4.174  10.171  1.1323 -0.6313  1.0195
 3165SOL    HW220955   0.547   4.250  10.068 -1.1638  1.8587 -0.9923
 3166SOL     OW20956   3.110   4.411   1.299 -0.2431  0.1647 -0.5141
 3166SOL    HW120957   3.015   4.403   1.313 -0.3768  2.2265 -0.2241
 3166SOL    HW220958   3.145   4.322   1.301 -0.0642  0.1948 -2.0671
 3167SOL     OW20959   4.081   2.461  17.683  0.4599 -0.2208  0.0872
 3167SOL    HW120960   4.088   2.544   0.040 -2.2657  0.9100 -1.4869
 3167SOL    HW220961   4.048   2.495  17.600  0.6112  0.3902  0.2818
 3168SOL     OW20962   3.797   0.000   3.246  0.3138  0.2485 -0.0241
 3168SOL    HW120963   3.715   0.048   3.235  0.1244 -0.3000 -1.0014
 3168SOL    HW220964   3.838   4.721   3.159 -0.2406 -0.9130 -0.2693
 3169SOL     OW20965   3.226   0.797   8.174  0.6022 -0.5964  0.3899
 3169SOL    HW120966   3.209   0.718   8.225  1.0047 -0.2032  1.1342
 3169SOL    HW220967   3.168   0.860   8.217  0.1766 -0.9088  0.2816
 3170SOL     OW20968   0.769   3.894   5.926 -0.3919  0.3965 -0.6886
 3170SOL    HW120969   0.862   3.890   5.902  0.3356  0.4013  2.1370
 3170SOL    HW220970   0.771   3.941   6.009  1.1098 -1.1411  0.1357
 3171SOL     OW20971   0.373   3.122   7.676 -0.6904 -0.5684  0.4146
 3171SOL    HW120972   0.455   3.135   7.629 -0.8839 -0.4895  0.1047
 3171SOL    HW220973   0.409   3.091   7.760  0.7841  0.0844  0.0155
 3172SOL     OW20974   3.308   0.183   7.189 -0.0151  0.3054  0.0488
 3172SOL    HW120975   3.227   0.234   7.201  0.6238  0.8746  2.0657
 3172SOL    HW220976   3.300   0.107   7.247 -0.4731  0.8651  0.7247
 3173SOL     OW20977   1.700   1.477   3.183 -0.1879 -0.2756  0.2424
 3173SOL    HW120978   1.775   1.503   3.235 -1.7354 -1.4569  3.0764
 3173SOL    HW220979   1.749   1.423   3.120 -2.0223 -1.7161  0.0242
 3174SOL     OW20980   2.598   3.888   6.774  0.7226  0.0558 -0.1351
 3174SOL    HW120981   2.608   3.897   6.679 -1.5136  0.0355 -0.3665
 3174SOL    HW220982   2.533   3.818   6.780  0.2950  0.2319 -2.7701
 3175SOL     OW20983   4.423   1.823  16.670 -0.1483  0.4517 -0.5762
 3175SOL    HW120984   4.338   1.787  16.644 -0.1510  0.6067 -0.7839
 3175SOL    HW220985   4.463   1.843  16.585 -2.2595  1.4716 -1.3444
 3176SOL     OW20986   4.086   0.488   6.375  0.4514  0.0513 -0.2434
 3176SOL    HW120987   4.081   0.393   6.385  0.5979 -0.1757 -2.5174
 3176SOL    HW220988   4.095   0.505   6.282 -0.5983 -1.2411 -0.5881
 3177SOL     OW20989   3.633   0.298  14.747  0.4115 -0.1305 -0.5416
 3177SOL    HW120990   3.715   0.338  14.720  0.9262 -0.7042  0.1920
 3177SOL    HW220991   3.662   0.211  14.774 -1.1967 -1.8233 -4.2265
 3178SOL     OW20992   0.896   0.687   5.807  0.2176 -0.7877  0.2528
 3178SOL    HW120993   0.809   0.725   5.798  0.7138  0.4138  0.5235
 3178SOL    HW220994   0.898   0.633   5.728  0.2277  1.2201 -1.1229
 3179SOL     OW20995   2.679   4.499   4.916 -0.2975  0.4254  0.4619
 3179SOL    HW120996   2.769   4.470   4.897 -0.6126 -1.2041  1.4781
 3179SOL    HW220997   2.672   4.589   4.884 -0.2648  0.7220  1.3090
 3180SOL     OW20998   2.147   4.159   5.060  0.4878 -0.2138  0.2411
 3180SOL    HW120999   2.123   4.150   5.152 -1.6831  1.2617 -0.1912
 3180SOL    HW221000   2.196   4.242   5.055  1.2116 -0.6013  0.8001
 3181SOL     OW21001   2.883   0.363   7.569  0.2144 -0.1184  0.1154
 3181SOL    HW121002   2.839   0.447   7.555 -0.0859 -0.4044 -0.6152
 3181SOL    HW221003   2.806   0.307   7.564  2.1706 -2.7310 -0.9574
 3182SOL     OW21004   0.311   0.114   2.486  0.1004 -0.2021  0.4053
 3182SOL    HW121005   0.305   0.136   2.393 -0.5204  0.1498  0.5280
 3182SOL    HW221006   0.224   0.096   2.521 -0.0767  2.5327  1.3685
 3183SOL     OW21007   0.715   4.018  11.928  0.4892  0.4747  0.3053
 3183SOL    HW121008   0.810   4.031  11.939  0.5635 -1.4437  2.0133
 3183SOL    HW221009   0.688   4.106  11.954  3.0568  0.7358  2.1530
 3184SOL     OW21010   2.454   4.170   2.927 -0.0874 -0.0427  0.4647
 3184SOL    HW121011   2.381   4.115   2.898  1.7164 -2.0904 -0.1094
 3184SOL    HW221012   2.404   4.223   2.990 -0.8727 -0.8675  0.5368
 3185SOL     OW21013   2.766   3.701   8.496 -0.3314  0.0741 -0.3073
 3185SOL    HW121014   2.680   3.661   8.509 -0.3533 -0.0205 -0.7273
 3185SOL    HW221015   2.763   3.787   8.538  4.3638  1.3539 -2.4865
 3186SOL     OW21016   3.626   0.959  17.688  0.0702  0.1918  0.5479
 3186SOL    HW121017   3.705   1.013  17.679 -0.7710  1.1391 -1.1796
 3186SOL    HW221018   3.617   0.940   0.091 -2.3951  3.0476  0.8749
 3187SOL     OW21019   3.709   1.954   4.536 -0.2398 -0.1939  0.0009
 3187SOL    HW121020   3.755   1.956   4.619 -0.0841  1.2429 -0.1323
 3187SOL    HW221021   3.653   1.881   4.562  1.0497 -1.6625 -1.3312
 3188SOL     OW21022   0.428   4.315   8.863 -0.0255  0.5835  0.2364
 3188SOL    HW121023   0.434   4.316   8.959  0.6289  2.1091  0.1776
 3188SOL    HW221024   0.368   4.241   8.855  0.1854  0.0891  3.3434
 3189SOL     OW21025   2.639   1.017   8.899  0.4733 -0.2753 -0.2915
 3189SOL    HW121026   2.714   1.075   8.884  0.9664 -0.5201  1.2895
 3189SOL    HW221027   2.575   1.074   8.857  1.3387  0.8460 -0.0760
 3190SOL     OW21028   4.719   4.142   0.236 -0.3121 -0.0602 -0.5102
 3190SOL    HW121029   0.006   4.063   0.184 -3.1693 -0.9071  0.2732
 3190SOL    HW221030   0.087   4.171   0.222 -0.5439 -0.2297 -2.2740
 3191SOL     OW21031   0.045   1.560   7.233  0.2244  0.3884 -0.4789
 3191SOL    HW121032   0.069   1.642   7.276  0.5211  0.6509 -1.1498
 3191SOL    HW221033   0.123   1.537   7.184  1.6536 -0.3214  2.1596
 3192SOL     OW21034   3.796   1.737   9.271  0.6784 -0.1398  0.3094
 3192SOL    HW121035   3.847   1.802   9.224 -1.7147  0.4933 -1.4031
 3192SOL    HW221036   3.815   1.757   9.363 -1.1021  2.0008  0.2176
 3193SOL     OW21037   2.572   0.760  13.114  0.1417 -0.0320 -0.1023
 3193SOL    HW121038   2.497   0.813  13.089 -0.3909 -0.4261  0.6532
 3193SOL    HW221039   2.537   0.724  13.196 -0.4036  0.8391  0.0414
 3194SOL     OW21040   1.921   0.111   1.052  0.2596  0.0762 -0.4826
 3194SOL    HW121041   2.005   0.066   1.062  1.4358  1.9560 -1.9897
 3194SOL    HW221042   1.964   0.196   1.038  0.5964  0.0520  0.4202
 3195SOL     OW21043   2.784   3.488  16.582 -0.1192 -0.0821  0.2093
 3195SOL    HW121044   2.846   3.516  16.648  0.4738  0.2891 -0.5051
 3195SOL    HW221045   2.845   3.440  16.526  2.7863  2.0595  1.5430
 3196SOL     OW21046   2.715   3.971   4.326  0.3839 -0.1808 -0.5727
 3196SOL    HW121047   2.808   3.994   4.329  0.9275 -2.3065 -1.3757
 3196SOL    HW221048   2.699   3.956   4.420  0.5055 -0.2244 -0.5597
 3197SOL     OW21049   1.536   3.662   0.371  0.1566  0.2925 -0.1440
 3197SOL    HW121050   1.491   3.639   0.290 -1.0703 -0.0237  0.6350
 3197SOL    HW221051   1.627   3.639   0.350  0.3862  0.3198  0.8321
 3198SOL     OW21052   4.430   3.009   4.778  0.1295  0.3709 -0.1710
 3198SOL    HW121053   4.364   2.962   4.727 -0.5060  0.9312  0.1326
 3198SOL    HW221054   4.392   3.097   4.770 -2.1718 -0.6827 -0.8051
 3199SOL     OW21055   1.363   4.683   6.659  0.5360 -0.0152 -0.0498
 3199SOL    HW121056   1.287   0.004   6.620 -0.2773  0.4192  2.0289
 3199SOL    HW221057   1.407   4.643   6.584  1.3211  0.9028 -0.0705
 3200SOL     OW21058   4.270   0.941  11.817  0.4973 -0.1046  0.0389
 3200SOL    HW121059   4.346   0.997  11.831 -0.1670  1.0334 -0.8941
 3200SOL    HW221060   4.312   0.876  11.762  1.0288 -0.6923  1.1311
 3201SOL     OW21061   4.115   3.793   3.070  0.1958 -0.3508 -0.5116
 3201SOL    HW121062   4.128   3.748   3.154 -0.5634 -1.6303 -1.0862
 3201SOL    HW221063   4.115   3.715   3.015 -0.2580 -2.0329  1.8681
 3202SOL     OW21064   3.196   0.007   4.681  0.1966 -0.2878 -0.2283
 3202SOL    HW121065   3.154   4.721   4.767 -1.0984 -0.7532 -0.9034
 3202SOL    HW221066   3.141   0.077   4.646  1.2135  0.3447 -0.5623
 3203SOL     OW21067   4.285   1.027   0.128 -0.3767  0.9552  0.1258
 3203SOL    HW121068   4.312   1.022   0.220  1.7659  0.4391 -0.5187
 3203SOL    HW221069   4.363   0.997   0.080  0.7932  2.6949  0.9686
 3204SOL     OW21070   1.009   4.416  12.066  0.0464 -0.0423 -0.3455
 3204SOL    HW121071   1.040   4.371  12.145  2.0254 -0.8207 -1.5778
 3204SOL    HW221072   0.943   4.472  12.107 -2.1475 -0.9616 -2.6743
 3205SOL     OW21073   4.164   0.015   3.120 -0.6766 -0.0291  0.8957
 3205SOL    HW121074   4.099   4.669   3.106  0.1841 -0.8000  0.6852
 3205SOL    HW221075   4.160   0.064   3.038  1.7609  1.4508  1.6796
 3206SOL     OW21076   2.721   4.688   8.972  0.3093  0.1108 -0.3159
 3206SOL    HW121077   2.757   4.704   9.059  0.8608 -0.3481 -0.4627
 3206SOL    HW221078   2.652   0.033   8.966  0.2423  0.2988  2.5169
 3207SOL     OW21079   4.313   4.716   9.192  0.3904  0.1435  0.1213
 3207SOL    HW121080   4.328   4.623   9.204 -0.7080 -0.0320  0.0812
 3207SOL    HW221081   4.312   4.717   9.096  2.4285  0.6231  0.1001
 3208SOL     OW21082   2.236   1.008   9.019 -0.4178  0.0216 -0.1335
 3208SOL    HW121083   2.291   1.029   8.943 -0.0595 -0.1988  0.0642
 3208SOL    HW221084   2.272   1.062   9.089  1.9555 -1.0214 -0.5415
 3209SOL     OW21085   1.817   1.113  16.181 -0.3002  0.3428 -0.2441
 3209SOL    HW121086   1.782   1.116  16.270  0.1850  1.6263 -0.0899
 3209SOL    HW221087   1.773   1.193  16.151  2.2634  2.2257  0.9282
 3210SOL     OW21088   3.943   1.345   0.684 -0.5009  0.1982  0.1816
 3210SOL    HW121089   3.901   1.267   0.722  1.0260 -1.8450 -2.3072
 3210SOL    HW221090   3.869   1.403   0.699 -0.3244  0.5892 -0.4736
 3211SOL     OW21091   1.909   2.072  13.394  0.0417  0.2042  0.0461
 3211SOL    HW121092   1.941   2.098  13.481 -2.2152 -1.2184  1.3067
 3211SOL    HW221093   1.847   2.002  13.416  0.2312 -0.2052 -0.7327
 3212SOL     OW21094   0.877   2.627   7.867  0.1790 -0.6924 -0.6026
 3212SOL    HW121095   0.795   2.637   7.916  1.3943 -1.8637  1.6406
 3212SOL    HW221096   0.923   2.549   7.897  0.4717 -1.6606 -3.5931
 3213SOL     OW21097   4.458   3.764   9.222 -0.1331 -0.1946 -0.1397
 3213SOL    HW121098   4.370   3.739   9.249 -0.5729  0.7488 -0.7248
 3213SOL    HW221099   4.441   3.842   9.170  2.4375  1.1182  0.9766
 3214SOL     OW21100   4.658   0.315   7.464  0.1775  0.4490 -0.1731
 3214SOL    HW121101   4.692   0.397   7.499 -3.4271  1.8235  0.0944
 3214SOL    HW221102   4.694   0.320   7.375 -1.8059 -0.0436 -1.0045
 3215SOL     OW21103   3.818   1.329  13.819 -0.0721 -0.3144  0.4602
 3215SOL    HW121104   3.913   1.345  13.820 -0.3138  1.0841  0.4265
 3215SOL    HW221105   3.809   1.397  13.886  2.1881  0.6582 -0.2091
 3216SOL     OW21106   0.973   2.596   6.201 -0.0918  0.0991 -0.1888
 3216SOL    HW121107   1.068   2.585   6.196 -0.2059 -0.7365 -0.6075
 3216SOL    HW221108   0.950   2.504   6.211  0.7754  0.0646  1.4032
 3217SOL     OW21109   3.021   3.110  11.688  0.9913 -0.5405  0.4343
 3217SOL    HW121110   3.014   3.016  11.703 -0.5891 -0.4032  0.5946
 3217SOL    HW221111   3.089   3.116  11.621  1.2492 -2.0484  0.5632
 3218SOL     OW21112   1.172   3.910   6.518  0.3263  0.1025  0.2453
 3218SOL    HW121113   1.154   3.840   6.456  1.3562 -0.6430  0.8003
 3218SOL    HW221114   1.085   3.948   6.532  0.2689  0.1572 -0.2644
 3219SOL     OW21115   0.968   3.389  12.284  0.6734  0.1044  0.2587
 3219SOL    HW121116   0.951   3.329  12.357  0.8255 -1.6923 -1.1772
 3219SOL    HW221117   0.997   3.325  12.219  0.3303  0.3330 -0.1219
 3220SOL     OW21118   2.865   4.101   1.309 -0.0910  0.4117  0.1642
 3220SOL    HW121119   2.936   4.136   1.363  1.4346 -0.6852 -1.1388
 3220SOL    HW221120   2.846   4.016   1.349 -0.8181  0.5695  0.1510
 3221SOL     OW21121   1.938   2.329   0.547  0.4478 -0.3408  0.3067
 3221SOL    HW121122   1.876   2.260   0.522  0.6582 -0.4887  0.1929
 3221SOL    HW221123   1.921   2.327   0.641  1.3064 -0.1934  0.4644
 3222SOL     OW21124   3.379   1.410  15.162 -0.0800  0.1744  0.0094
 3222SOL    HW121125   3.380   1.353  15.086  0.2863  0.0474  0.1101
 3222SOL    HW221126   3.474   1.421  15.171 -0.0090  0.2366 -0.7757
 3223SOL     OW21127   4.208   3.491  13.473 -0.4714  0.5286 -0.3913
 3223SOL    HW121128   4.299   3.465  13.460 -0.8480  0.0821 -2.1531
 3223SOL    HW221129   4.189   3.574  13.429  1.9144  2.1835  1.6974
 3224SOL     OW21130   3.641   2.964  16.509  0.3102 -0.2007  0.1104
 3224SOL    HW121131   3.630   2.942  16.602  0.1647  0.9500  0.3614
 3224SOL    HW221132   3.700   3.038  16.518 -0.1641  0.1565  0.3049
 3225SOL     OW21133   0.258   4.716   0.906 -0.2631  0.6345 -0.0286
 3225SOL    HW121134   0.286   0.045   0.982 -0.8269  0.4423  0.3107
 3225SOL    HW221135   0.313   4.638   0.915  1.4712  2.0627  1.7376
 3226SOL     OW21136   2.672   2.386   0.928  1.0664 -0.4424  0.5068
 3226SOL    HW121137   2.583   2.420   0.921  1.1706  0.1749  2.1239
 3226SOL    HW221138   2.719   2.456   0.883 -0.4116 -1.3796 -2.4638
 3227SOL     OW21139   3.556   1.262   0.093  0.0649  0.0041 -0.5453
 3227SOL    HW121140   3.633   1.293   0.141 -1.7853  0.0208  2.3973
 3227SOL    HW221141   3.504   1.219   0.160  1.6676 -0.2573  0.5111
 3228SOL     OW21142   2.224   2.757  12.397  0.2293 -0.1353 -0.3120
 3228SOL    HW121143   2.179   2.743  12.314  0.9565 -2.2927 -0.3347
 3228SOL    HW221144   2.289   2.827  12.387 -0.4569  0.4038 -1.0341
 3229SOL     OW21145   3.691   2.015   7.108 -0.0184  0.5238  0.3738
 3229SOL    HW121146   3.655   2.100   7.083  0.6533  0.4131 -0.9516
 3229SOL    HW221147   3.785   2.030   7.098  0.3202 -1.5327  0.4706
 3230SOL     OW21148   3.248   3.760   0.389  0.6985  0.1923 -0.1285
 3230SOL    HW121149   3.316   3.766   0.321  1.4986 -1.4124  0.5220
 3230SOL    HW221150   3.273   3.842   0.431 -2.0324  0.2403  1.3674
 3231SOL     OW21151   1.621   1.356   5.833  0.5718  0.5545 -0.4746
 3231SOL    HW121152   1.640   1.418   5.904  2.1144 -0.7866  0.2944
 3231SOL    HW221153   1.658   1.270   5.852 -1.6074 -0.1396  0.6660
 3232SOL     OW21154   2.948   4.090   4.351  0.6051 -0.2850 -0.0455
 3232SOL    HW121155   2.976   4.118   4.264 -0.7033 -1.9684 -1.0206
 3232SOL    HW221156   3.031   4.091   4.400 -0.7371  2.1276  2.1350
 3233SOL     OW21157   3.746   4.190   8.084  0.0684  0.2562 -0.0924
 3233SOL    HW121158   3.747   4.276   8.127  0.1287  0.7319 -1.0292
 3233SOL    HW221159   3.717   4.145   8.162  0.4023  1.6980  0.8737
 3234SOL     OW21160   2.969   2.806  10.138 -0.2869  0.3332  0.7541
 3234SOL    HW121161   2.964   2.782  10.231 -3.5266 -0.2103  0.4560
 3234SOL    HW221162   3.046   2.757  10.111 -0.2819  1.1991 -0.7772
 3235SOL     OW21163   0.073   0.442   4.160 -0.3339 -0.6313 -0.4399
 3235SOL    HW121164   0.068   0.517   4.100  0.9475 -0.2770 -0.1008
 3235SOL    HW221165   0.016   0.377   4.119 -1.0449 -0.0510 -0.3755
 3236SOL     OW21166   1.845   2.352   0.815  0.3522  0.3104  0.0841
 3236SOL    HW121167   1.833   2.392   0.901  0.0446 -1.3979  0.8426
 3236SOL    HW221168   1.851   2.259   0.836 -0.0937  0.7527  2.1573
 3237SOL     OW21169   1.234   2.555   7.776 -0.3308 -0.1667 -0.5909
 3237SOL    HW121170   1.178   2.556   7.854  2.3775  0.5138  1.3468
 3237SOL    HW221171   1.308   2.610   7.804 -0.0491 -0.1819 -1.3106
 3238SOL     OW21172   3.900   3.849   9.042 -0.2439  0.4682  0.5542
 3238SOL    HW121173   3.912   3.929   9.093 -1.1045  1.2721 -0.5242
 3238SOL    HW221174   3.986   3.817   9.015  0.3281  0.8501  1.9327
 3239SOL     OW21175   1.982   1.757   6.649 -0.1110 -0.5370  0.3219
 3239SOL    HW121176   1.996   1.671   6.609 -0.2165 -0.1870 -0.4635
 3239SOL    HW221177   1.960   1.724   6.737  0.9634 -0.1749  0.7353
 3240SOL     OW21178   4.035   3.577   8.437  0.0075 -0.3376  0.3730
 3240SOL    HW121179   3.971   3.506   8.432 -1.4908  1.0936 -0.6083
 3240SOL    HW221180   4.097   3.541   8.373  1.8680 -0.7558  2.4046
 3241SOL     OW21181   4.690   0.950   1.507 -0.4439  0.7872  0.0248
 3241SOL    HW121182   4.626   0.883   1.484 -0.7335  1.6797 -1.7394
 3241SOL    HW221183   4.653   0.984   1.589  1.2432 -0.8013  1.4434
 3242SOL     OW21184   1.749   2.421   3.569 -0.2225 -0.6840 -0.3091
 3242SOL    HW121185   1.654   2.410   3.571 -0.2278 -0.2772  1.3906
 3242SOL    HW221186   1.771   2.343   3.620 -2.6829 -0.6400  0.8047
 3243SOL     OW21187   1.649   3.919   1.582  0.1587 -0.1055  0.7335
 3243SOL    HW121188   1.663   3.862   1.658 -0.9801 -2.0046 -0.4896
 3243SOL    HW221189   1.718   3.891   1.522 -0.4110 -4.3198  2.0359
 3244SOL     OW21190   1.380   3.995   1.719 -0.5377  0.3726 -0.1633
 3244SOL    HW121191   1.461   3.950   1.696 -0.8982 -1.1746  1.5989
 3244SOL    HW221192   1.330   3.931   1.770  0.3354  0.6745  1.0886
 3245SOL     OW21193   1.723   0.055   6.554  0.4629  0.1886  0.3662
 3245SOL    HW121194   1.652   0.119   6.558 -0.8930 -1.2172 -1.4559
 3245SOL    HW221195   1.764   0.060   6.640  1.5641 -1.6339 -0.0573
 3246SOL     OW21196   1.681   3.721   9.535  0.0459 -0.0954  0.1137
 3246SOL    HW121197   1.764   3.769   9.540 -1.1313  2.0289 -0.4727
 3246SOL    HW221198   1.671   3.710   9.441 -2.4957  0.3211  0.3326
 3247SOL     OW21199   4.249   2.716  11.128  0.4179 -0.4904 -0.2742
 3247SOL    HW121200   4.275   2.626  11.113 -1.0397 -1.2364  1.6537
 3247SOL    HW221201   4.157   2.698  11.105 -0.6467  1.1416  2.6325
 3248SOL     OW21202   3.405   0.025   9.309 -0.8747  0.4733  0.6972
 3248SOL    HW121203   3.352   4.684   9.261 -0.1275 -0.3923  1.0160
 3248SOL    HW221204   3.428   0.085   9.238 -0.8718 -2.2406 -1.5682
 3249SOL     OW21205   3.303   1.905   2.798 -0.3980  0.3404 -0.3602
 3249SOL    HW121206   3.387   1.935   2.832 -0.5476  2.6649 -2.0751
 3249SOL    HW221207   3.243   1.977   2.821 -1.0158 -0.7586  1.5269
 3250SOL     OW21208   2.360   1.938   2.249 -0.4601  0.3875 -0.2101
 3250SOL    HW121209   2.345   1.908   2.159 -2.6491 -0.7040  0.5231
 3250SOL    HW221210   2.440   1.890   2.269 -0.2717 -0.5285 -3.2577
 3251SOL     OW21211   0.112   4.369   6.418 -0.0115  0.2194  0.6133
 3251SOL    HW121212   0.131   4.463   6.415  2.6569 -0.4204 -3.8277
 3251SOL    HW221213   0.139   4.357   6.508 -2.4781 -0.3706  1.2738
 3252SOL     OW21214   2.902   4.233   2.637  0.0342 -0.3969  0.4096
 3252SOL    HW121215   2.881   4.140   2.628 -0.6801  0.3351 -5.0542
 3252SOL    HW221216   2.831   4.249   2.699  0.7078 -0.6221  1.2382
 3253SOL     OW21217   0.973   3.857  10.795 -0.3640 -0.9289 -0.4875
 3253SOL    HW121218   0.967   3.856  10.700  1.0157 -0.2726 -0.5847
 3253SOL    HW221219   1.014   3.943  10.807 -1.1242 -0.5388 -0.7422
 3254SOL     OW21220   1.580   4.102   6.169 -0.7091 -0.2024 -0.4062
 3254SOL    HW121221   1.585   4.196   6.155 -0.9694  0.1545  1.7530
 3254SOL    HW221222   1.605   4.059   6.088 -0.9574 -0.8979 -0.1202
 3255SOL     OW21223   1.873   2.512   3.133  0.1637  0.4306  0.0608
 3255SOL    HW121224   1.913   2.516   3.046 -1.0186  1.0493 -0.4556
 3255SOL    HW221225   1.786   2.538   3.103  0.1078  0.8627  0.5989
 3256SOL     OW21226   1.439   4.132   3.744 -0.1479  0.1337  0.0752
 3256SOL    HW121227   1.496   4.122   3.821 -0.6119 -1.8672  0.1745
 3256SOL    HW221228   1.390   4.051   3.756 -0.7515  0.3953 -0.6660
 3257SOL     OW21229   0.355   1.399   8.258 -0.1740  0.1416 -0.1076
 3257SOL    HW121230   0.400   1.334   8.311 -1.5721 -0.7319  0.0055
 3257SOL    HW221231   0.397   1.477   8.294 -0.9571  0.4585  0.1245
 3258SOL     OW21232   4.702   2.612   5.163 -0.0581  0.4138  0.3388
 3258SOL    HW121233   4.664   2.700   5.163 -0.3795  0.2791 -1.0379
 3258SOL    HW221234   4.678   2.584   5.251  0.2719 -0.8652  0.0129
 3259SOL     OW21235   0.732   4.255   6.231 -0.4239  0.0596  0.1871
 3259SOL    HW121236   0.655   4.309   6.215 -0.7617 -0.2148  0.8920
 3259SOL    HW221237   0.734   4.243   6.326 -0.2038  1.2187  0.3248
 3260SOL     OW21238   1.448   1.543   4.129  0.6530 -0.1623 -0.9411
 3260SOL    HW121239   1.398   1.580   4.202  0.3115  1.7443 -2.1444
 3260SOL    HW221240   1.533   1.573   4.160 -0.0497 -0.9667  1.7858
 3261SOL     OW21241   4.078   2.620   5.745  0.0991  0.0410  0.5489
 3261SOL    HW121242   4.075   2.651   5.836 -0.7771 -1.0959  0.9118
 3261SOL    HW221243   4.165   2.580   5.744  1.1418  2.2556  2.0854
 3262SOL     OW21244   1.173   0.550  15.621 -0.4343 -0.1059  0.0015
 3262SOL    HW121245   1.235   0.609  15.665 -0.2389  1.4525 -2.3954
 3262SOL    HW221246   1.088   0.591  15.633  0.3345  1.8165 -1.1660
 3263SOL     OW21247   1.536   0.618   4.568 -0.4339  0.6230 -0.0362
 3263SOL    HW121248   1.631   0.607   4.567 -0.4571  0.5698 -2.7400
 3263SOL    HW221249   1.527   0.673   4.490 -1.3193  0.5884  0.0406
 3264SOL     OW21250   4.093   1.513   3.808 -0.0253  0.0977  0.0626
 3264SOL    HW121251   4.007   1.513   3.851 -0.8409 -1.3415 -1.5393
 3264SOL    HW221252   4.066   1.475   3.724 -3.6285  0.1747  1.1913
 3265SOL     OW21253   4.717   3.829   6.765  0.4866 -0.0619  0.1371
 3265SOL    HW121254   4.638   3.805   6.814 -0.1869 -0.2469 -1.0421
 3265SOL    HW221255   0.019   3.743   6.732  0.3198 -0.4371  0.9761
 3266SOL     OW21256   1.498   3.516   2.851  0.3699  0.5310  0.0875
 3266SOL    HW121257   1.555   3.554   2.784 -2.0926  0.5666 -1.9734
 3266SOL    HW221258   1.485   3.426   2.823  0.0097  1.4437 -2.6672
 3267SOL     OW21259   1.939   3.482   1.766  0.1262  0.5950 -0.5987
 3267SOL    HW121260   2.007   3.426   1.729 -0.9822 -0.4806 -0.9973
 3267SOL    HW221261   1.971   3.567   1.737 -3.3478  3.1273  2.8766
 3268SOL     OW21262   4.330   3.328   7.981 -0.3836  0.6246 -0.3621
 3268SOL    HW121263   4.284   3.323   7.897 -2.1055  0.3505  0.5933
 3268SOL    HW221264   4.392   3.256   7.973  1.6746  2.4407 -0.6188
 3269SOL     OW21265   0.207   3.971  15.126 -0.9176 -0.5753 -0.4559
 3269SOL    HW121266   0.210   4.047  15.068 -2.7220  0.3125  0.6099
 3269SOL    HW221267   0.252   3.908  15.069  0.0571 -1.7501  1.6144
 3270SOL     OW21268   1.137   2.687   2.375  0.8765 -0.0916 -0.2605
 3270SOL    HW121269   1.048   2.707   2.348  0.5899 -2.8688 -1.3922
 3270SOL    HW221270   1.143   2.594   2.351  0.8632  0.4717 -2.4234
 3271SOL     OW21271   4.017   0.251   2.550 -0.1384  0.3381  0.4978
 3271SOL    HW121272   4.048   0.324   2.496  1.7023 -2.5205 -2.3398
 3271SOL    HW221273   3.953   0.202   2.497 -1.1188  0.7947  1.2450
 3272SOL     OW21274   2.281   1.484   6.508 -0.2833  1.0722  0.5827
 3272SOL    HW121275   2.363   1.446   6.478  0.7480  1.2018  3.2482
 3272SOL    HW221276   2.229   1.406   6.527 -0.6721  0.9180 -1.1058
 3273SOL     OW21277   2.872   3.815   5.208  0.5342 -0.1208  0.1392
 3273SOL    HW121278   2.847   3.765   5.286 -0.8510  0.4446  0.0695
 3273SOL    HW221279   2.791   3.828   5.158  0.5279 -3.9439 -0.8611
 3274SOL     OW21280   1.210   3.773   5.167 -0.1502 -0.0031 -0.1533
 3274SOL    HW121281   1.294   3.747   5.130 -1.4497 -2.1971 -1.4932
 3274SOL    HW221282   1.212   3.717   5.244  2.5322 -0.7570 -0.7813
 3275SOL     OW21283   0.764   1.764   4.184 -0.0418 -0.5141 -0.3377
 3275SOL    HW121284   0.804   1.783   4.099 -0.0644  1.7553  0.1686
 3275SOL    HW221285   0.741   1.855   4.204  1.4366 -0.0258 -0.8371
 3276SOL     OW21286   3.925   0.488   9.374 -0.5789 -0.2535 -0.4435
 3276SOL    HW121287   3.967   0.452   9.296  1.5167  0.9402  0.1341
 3276SOL    HW221288   3.995   0.534   9.420 -2.0016 -0.5694  2.0356
 3277SOL     OW21289   1.834   4.692   7.303 -0.2086  0.0722 -0.3933
 3277SOL    HW121290   1.776   4.721   7.374  0.1132 -2.0005  0.7351
 3277SOL    HW221291   1.848   0.051   7.254 -2.7243  0.1932 -0.9106
 3278SOL     OW21292   0.393   3.593   4.419 -0.3181 -0.0426  0.3780
 3278SOL    HW121293   0.313   3.541   4.423  0.2728 -1.0750 -1.0234
 3278SOL    HW221294   0.367   3.664   4.360  0.9651  0.8859  0.9260
 3279SOL     OW21295   3.303   4.191  15.656 -0.4304  0.1124 -0.4856
 3279SOL    HW121296   3.254   4.208  15.576  0.9394  2.4505 -0.8224
 3279SOL    HW221297   3.394   4.197  15.625  0.3570  0.2504  1.8443
 3280SOL     OW21298   1.821   0.044   8.429 -0.4094 -0.1864  0.0651
 3280SOL    HW121299   1.846   4.678   8.400  2.9809  0.7388  0.2427
 3280SOL    HW221300   1.751   0.057   8.365 -1.5373 -0.6982  1.1911
 3281SOL     OW21301   0.800   3.117  15.477  0.0675 -0.1421 -0.7727
 3281SOL    HW121302   0.764   3.043  15.525 -0.4346  0.2204 -0.5857
 3281SOL    HW221303   0.885   3.095  15.441 -0.4034 -1.0858 -1.2867
 3282SOL     OW21304   3.719   2.642  10.046  0.4623  0.0062 -0.0362
 3282SOL    HW121305   3.774   2.604   9.978 -0.2189 -0.6771 -0.2072
 3282SOL    HW221306   3.778   2.708  10.081 -2.4262  2.9445 -0.7502
 3283SOL     OW21307   0.171   2.625   7.300 -0.1735 -0.1762 -0.7455
 3283SOL    HW121308   0.266   2.636   7.289 -0.0327  1.7262  2.0243
 3283SOL    HW221309   0.149   2.556   7.239  0.3571 -0.2726 -0.8297
 3284SOL     OW21310   3.220   3.242  11.308 -0.8271  0.1103 -0.0240
 3284SOL    HW121311   3.297   3.195  11.340 -0.5875  2.2500  2.5700
 3284SOL    HW221312   3.247   3.330  11.332 -0.2736 -0.6010  1.9864
 3285SOL     OW21313   1.059   0.038  12.969 -0.2630 -0.5783  0.0643
 3285SOL    HW121314   1.029   0.127  12.984  3.9586  0.5318  2.0393
 3285SOL    HW221315   1.085   0.043  12.877  1.4365 -2.8658  0.3948
 3286SOL     OW21316   4.656   3.429   2.254  0.0508 -0.6323 -0.2120
 3286SOL    HW121317   4.720   3.363   2.227  0.6194 -0.1912  0.0430
 3286SOL    HW221318   4.657   3.472   2.169 -2.6158 -3.3863 -1.6561
 3287SOL     OW21319   1.534   4.673   2.316 -0.5565 -0.1728 -0.1725
 3287SOL    HW121320   1.630   4.675   2.319 -0.5715  0.6882 -0.1154
 3287SOL    HW221321   1.519   4.579   2.312  0.7399 -0.4510  1.3685
 3288SOL     OW21322   2.358   3.828  11.465 -0.2340  0.3357 -0.5166
 3288SOL    HW121323   2.288   3.790  11.412  1.5503 -3.0963 -0.4017
 3288SOL    HW221324   2.413   3.755  11.493 -2.3604  0.1319  3.2042
 3289SOL     OW21325   4.050   1.801   4.606  0.2012 -0.2447  0.0010
 3289SOL    HW121326   3.991   1.855   4.657  0.7900  0.1528  0.2540
 3289SOL    HW221327   4.045   1.843   4.520  2.2879 -2.1775 -1.0783
 3290SOL     OW21328   1.540   3.886   2.155 -0.1494  0.0911 -0.0005
 3290SOL    HW121329   1.540   3.961   2.095 -2.0259 -0.2833 -0.4472
 3290SOL    HW221330   1.595   3.831   2.099  0.6811  0.9432 -0.0272
 3291SOL     OW21331   4.647   4.038   7.269  0.0390  0.3330 -0.0538
 3291SOL    HW121332   4.554   4.053   7.251 -0.0950  1.5417  1.5672
 3291SOL    HW221333   4.676   4.125   7.241  0.8492  0.2031  0.3835
 3292SOL     OW21334   3.850   2.575   4.017 -0.5776 -0.6179 -0.2389
 3292SOL    HW121335   3.860   2.607   4.106 -0.3184 -0.8577 -0.1816
 3292SOL    HW221336   3.924   2.614   3.971 -0.6682 -1.2245 -0.9138
 3293SOL     OW21337   2.222   1.406   2.764  0.2405  0.1114  0.0774
 3293SOL    HW121338   2.145   1.350   2.770 -1.0658  1.9690  0.7104
 3293SOL    HW221339   2.289   1.346   2.732  1.5696  1.5021  0.2445
 3294SOL     OW21340   1.505   2.193  16.897 -0.0419  0.3844  0.0759
 3294SOL    HW121341   1.469   2.234  16.818  0.6266  0.0920 -0.3840
 3294SOL    HW221342   1.596   2.194  16.868  0.3755 -3.1295  1.2580
 3295SOL     OW21343   0.738   3.964   8.021  0.1919 -0.2657  0.1837
 3295SOL    HW121344   0.662   3.907   8.027 -0.1859  0.2536  0.3713
 3295SOL    HW221345   0.707   4.035   8.078  0.1801 -0.5421  0.5221
 3296SOL     OW21346   1.846   3.976   3.715  0.6471 -0.5092 -0.3422
 3296SOL    HW121347   1.779   4.044   3.718 -0.9668 -2.0825 -0.8378
 3296SOL    HW221348   1.798   3.899   3.746 -0.4301  1.2150  2.2798
 3297SOL     OW21349   2.679   0.025  14.867 -0.8587 -0.6385 -0.6124
 3297SOL    HW121350   2.745   4.689  14.904  0.3954  0.8835 -0.4797
 3297SOL    HW221351   2.735   0.086  14.820  0.7979 -1.6807  0.0265
 3298SOL     OW21352   2.546   0.809   8.245  0.0832 -0.0206 -0.2257
 3298SOL    HW121353   2.564   0.723   8.205  0.1397 -1.2024  2.3289
 3298SOL    HW221354   2.529   0.854   8.163 -0.6404 -1.2787 -0.7814
 3299SOL     OW21355   0.900   1.954   1.111 -0.0394 -0.2521 -0.0592
 3299SOL    HW121356   0.974   1.959   1.050 -1.7611 -0.3763 -2.1453
 3299SOL    HW221357   0.919   2.017   1.181 -0.8895  1.0751 -1.0149
 3300SOL     OW21358   3.071   1.587   4.882 -0.1249  0.6574 -0.1342
 3300SOL    HW121359   3.019   1.642   4.823 -0.3009  0.0434 -0.5540
 3300SOL    HW221360   3.035   1.500   4.862  0.7496  0.3415 -0.3118
 3301SOL     OW21361   1.837   4.299   9.661 -0.6384 -0.1218  0.4161
 3301SOL    HW121362   1.820   4.276   9.752 -1.9971 -0.8958 -0.0376
 3301SOL    HW221363   1.907   4.363   9.677 -0.7740  0.1530 -0.0824
 3302SOL     OW21364   0.413   4.128   2.198  0.7954 -0.1668 -0.5837
 3302SOL    HW121365   0.473   4.109   2.270 -0.3871 -1.4842  0.0721
 3302SOL    HW221366   0.383   4.218   2.196  0.8957 -0.1195  0.0890
 3303SOL     OW21367   2.226   3.331  15.463  0.4341  0.4881  0.2192
 3303SOL    HW121368   2.194   3.414  15.499  1.6829  1.3207 -0.5871
 3303SOL    HW221369   2.162   3.315  15.394  0.6199  0.5032  0.0414
 3304SOL     OW21370   2.401   2.751   7.038  0.5926  0.2006 -0.4079
 3304SOL    HW121371   2.349   2.699   7.099  3.1116 -0.0396  1.4950
 3304SOL    HW221372   2.332   2.811   7.008 -0.5270 -0.8771 -0.0001
 3305SOL     OW21373   4.614   2.324  11.917 -0.2614  0.1053 -0.1939
 3305SOL    HW121374   4.622   2.358  11.827  2.3677  1.7538  0.6612
 3305SOL    HW221375   4.587   2.410  11.950  1.1954  0.0639  1.1064
 3306SOL     OW21376   1.364   0.300   4.363 -0.2912 -0.5572 -0.2660
 3306SOL    HW121377   1.301   0.229   4.347  0.3960 -0.6479 -2.6271
 3306SOL    HW221378   1.301   0.371   4.373 -0.4877 -1.0389  1.8972
 3307SOL     OW21379   2.194   3.770   3.302 -0.1732  0.0263  0.4534
 3307SOL    HW121380   2.230   3.749   3.216  0.4847  0.5023  0.6101
 3307SOL    HW221381   2.244   3.850   3.321  0.2499 -0.4386  1.2902
 3308SOL     OW21382   3.160   4.234   7.345 -0.4088  0.5698 -0.7831
 3308SOL    HW121383   3.151   4.286   7.425 -0.3296 -0.4697 -0.1016
 3308SOL    HW221384   3.253   4.250   7.331 -0.3770  1.0088 -0.0640
 3309SOL     OW21385   2.452   4.586  13.737  0.9241 -0.4390  0.1984
 3309SOL    HW121386   2.433   4.620  13.824 -0.6836 -1.5484  0.2764
 3309SOL    HW221387   2.364   4.551  13.719  0.2110  1.7464 -0.5990
 3310SOL     OW21388   1.826   0.895   9.233 -0.3233  0.2073  0.4856
 3310SOL    HW121389   1.735   0.907   9.260 -0.6465  2.2249 -1.4943
 3310SOL    HW221390   1.812   0.874   9.141 -1.6744 -1.2421  1.0225
 3311SOL     OW21391   4.218   3.307   6.817 -0.3336 -0.0878 -0.3773
 3311SOL    HW121392   4.204   3.395   6.852  1.3702  0.2442 -0.5345
 3311SOL    HW221393   4.283   3.326   6.749 -0.7738  0.5569 -0.6182
 3312SOL     OW21394   0.856   2.081  14.293  0.2823 -0.1544  0.0773
 3312SOL    HW121395   0.760   2.077  14.297  0.3584 -1.4275  0.9282
 3312SOL    HW221396   0.874   2.174  14.283  0.0165 -0.0782  0.2910
 3313SOL     OW21397   1.695   1.750  15.751 -0.1122 -0.3686 -0.5260
 3313SOL    HW121398   1.603   1.771  15.734  0.3711  2.4170  0.2957
 3313SOL    HW221399   1.711   1.824  15.809  3.4034 -1.4773 -0.1174
 3314SOL     OW21400   1.592   1.464  17.355 -0.7453 -0.2855 -0.6215
 3314SOL    HW121401   1.622   1.521  17.285  1.3108 -1.0596 -0.3824
 3314SOL    HW221402   1.499   1.485  17.348 -0.5108  0.5693 -1.1549
 3315SOL     OW21403   4.086   2.835  10.871 -0.1322  0.1318  0.4353
 3315SOL    HW121404   4.052   2.912  10.917 -0.5403 -0.1999  0.6894
 3315SOL    HW221405   4.035   2.772  10.923  0.5628  0.9200  2.0735
 3316SOL     OW21406   2.948   4.417   6.961  0.1459 -0.0842 -0.1257
 3316SOL    HW121407   2.964   4.471   6.884  2.2567 -0.5960 -0.0476
 3316SOL    HW221408   2.952   4.330   6.921 -0.9523 -1.1270  2.0226
 3317SOL     OW21409   3.954   0.912   9.647 -0.3561 -0.2186  0.0933
 3317SOL    HW121410   4.015   0.876   9.583  0.0502  0.0827  0.3165
 3317SOL    HW221411   3.926   0.831   9.689 -0.0343  0.2853  1.2672
 3318SOL     OW21412   2.501   0.213   1.758  0.1526 -0.2656 -0.5195
 3318SOL    HW121413   2.462   0.169   1.682 -0.2636 -0.1963 -0.3466
 3318SOL    HW221414   2.512   0.300   1.721 -3.6467  0.8427  0.9542
 3319SOL     OW21415   4.284   0.714   7.983 -0.3785  0.3891 -0.0971
 3319SOL    HW121416   4.325   0.756   7.907  0.1329  2.3782  1.2631
 3319SOL    HW221417   4.196   0.751   7.986  0.2330  1.8439  0.0592
 3320SOL     OW21418   3.749   0.831   2.479  0.4080  0.1025  0.2661
 3320SOL    HW121419   3.659   0.862   2.489 -0.6776 -2.0224 -3.0534
 3320SOL    HW221420   3.758   0.763   2.546 -2.1601 -0.9648 -0.5016
 3321SOL     OW21421   0.373   1.364   5.740 -0.2315  0.1685  0.7343
 3321SOL    HW121422   0.301   1.360   5.802 -0.5670 -0.1493  0.3208
 3321SOL    HW221423   0.346   1.287   5.690 -2.6122 -0.3695  2.8733
 3322SOL     OW21424   4.241   4.246  17.046  0.1523 -0.1796  0.3073
 3322SOL    HW121425   4.315   4.300  17.076  0.4116 -0.9121  0.9915
 3322SOL    HW221426   4.189   4.311  16.999 -1.5204 -1.0591  0.9686
 3323SOL     OW21427   4.149   1.941  17.516 -0.5618 -0.2908 -0.5824
 3323SOL    HW121428   4.059   1.972  17.521 -0.6415 -1.0651  2.6609
 3323SOL    HW221429   4.172   1.924  17.607  0.7419 -1.2989 -1.1103
 3324SOL     OW21430   3.838   0.147   6.209 -0.0329 -0.5596 -0.2711
 3324SOL    HW121431   3.821   0.236   6.178 -0.0439 -0.8652 -1.1241
 3324SOL    HW221432   3.776   0.132   6.281 -1.8660 -0.6727 -1.8946
 3325SOL     OW21433   3.341   4.110  14.710  0.6010 -0.5292 -0.2350
 3325SOL    HW121434   3.393   4.157  14.775 -0.8429  0.2027  0.4042
 3325SOL    HW221435   3.269   4.173  14.707 -0.5395 -2.0392 -4.7664
 3326SOL     OW21436   0.239   4.317   4.729 -0.3719  0.1510 -0.3258
 3326SOL    HW121437   0.209   4.333   4.640  1.5588  0.4285 -0.9260
 3326SOL    HW221438   0.163   4.274   4.767  0.3162 -0.2613  0.6015
 3327SOL     OW21439   3.712   3.224   8.061 -0.0861  0.6265 -0.4711
 3327SOL    HW121440   3.795   3.266   8.039 -0.4241  2.2072  1.2884
 3327SOL    HW221441   3.645   3.292   8.053  0.0148  0.6963 -0.7283
 3328SOL     OW21442   3.358   2.833   8.459  0.0232 -0.2804 -0.7147
 3328SOL    HW121443   3.304   2.904   8.495  0.9614 -1.0917  2.2618
 3328SOL    HW221444   3.444   2.871   8.475 -0.5961  1.1651 -0.7453
 3329SOL     OW21445   1.097   3.661   2.557  0.5523  0.4726 -0.1199
 3329SOL    HW121446   1.183   3.622   2.540  0.5205  0.2040  0.3349
 3329SOL    HW221447   1.035   3.599   2.595  1.0852 -0.9128 -1.5245
 3330SOL     OW21448   4.715   1.444   9.456  0.0180 -0.3974  0.3379
 3330SOL    HW121449   4.639   1.387   9.452 -0.1237 -0.2510  0.9819
 3330SOL    HW221450   0.060   1.377   9.467  0.4510 -0.0564 -0.1833
 3331SOL     OW21451   0.127   1.612  14.937  0.4670  0.2599 -0.0224
 3331SOL    HW121452   0.076   1.663  14.999 -1.9807 -1.2823 -0.7555
 3331SOL    HW221453   0.202   1.671  14.941  0.3748  0.3810 -0.0928
 3332SOL     OW21454   0.680   1.607  12.483 -0.2057 -0.2480 -0.4308
 3332SOL    HW121455   0.647   1.560  12.558  1.5787 -0.4434  0.2367
 3332SOL    HW221456   0.772   1.586  12.497 -0.3313 -0.7577 -0.3793
 3333SOL     OW21457   0.693   1.284   3.333 -0.8226  0.2400  0.1783
 3333SOL    HW121458   0.678   1.372   3.367  1.4610  1.5580 -2.1661
 3333SOL    HW221459   0.789   1.280   3.335 -0.8188  0.5696  0.6047
 3334SOL     OW21460   3.164   1.689   8.559 -0.4248  0.2200 -0.5805
 3334SOL    HW121461   3.259   1.697   8.562 -0.5259  0.9661  1.1781
 3334SOL    HW221462   3.165   1.594   8.566  1.2937  0.4963  2.7897
 3335SOL     OW21463   2.162   0.757   3.166  0.7460  0.3625 -0.2203
 3335SOL    HW121464   2.110   0.759   3.247  0.2168 -0.5534 -0.5296
 3335SOL    HW221465   2.249   0.736   3.200  0.7241  1.7408  0.6530
 3336SOL     OW21466   2.239   2.331   7.116  0.1815 -1.0040 -0.1129
 3336SOL    HW121467   2.227   2.285   7.199  0.5833 -0.0510  0.4727
 3336SOL    HW221468   2.157   2.376   7.098  1.6462  2.4350  1.8366
 3337SOL     OW21469   4.247   3.566  13.142 -0.0909 -0.0583  0.3356
 3337SOL    HW121470   4.200   3.635  13.096 -1.8127 -1.3133  0.2245
 3337SOL    HW221471   4.327   3.548  13.091  0.8592  0.7354  1.5437
 3338SOL     OW21472   3.314   2.567   8.443 -0.3998 -0.3599 -0.3201
 3338SOL    HW121473   3.277   2.592   8.358  0.2608  2.0227  0.0883
 3338SOL    HW221474   3.372   2.642   8.457  0.6810 -1.0753 -1.0583
 3339SOL     OW21475   1.331   2.902   8.236  0.1778 -0.6111  0.0026
 3339SOL    HW121476   1.412   2.852   8.231 -0.1304 -1.1415  0.3829
 3339SOL    HW221477   1.329   2.899   8.331  1.9874 -0.5379  0.0478
 3340SOL     OW21478   1.428   2.523  12.349  0.0329 -0.5057  0.0561
 3340SOL    HW121479   1.440   2.592  12.415 -1.0246 -0.0991 -0.1808
 3340SOL    HW221480   1.391   2.448  12.395  3.5081 -1.7507  0.8259
 3341SOL     OW21481   3.667   4.085   8.317  0.0208 -0.0115 -0.2474
 3341SOL    HW121482   3.663   4.109   8.410  0.0160 -0.3534 -0.1590
 3341SOL    HW221483   3.726   4.010   8.328 -1.4970 -1.0820  0.5065
 3342SOL     OW21484   1.299   2.909  15.652  0.2011  0.2406  0.0058
 3342SOL    HW121485   1.256   2.870  15.729  1.4341 -0.3564  0.3897
 3342SOL    HW221486   1.276   2.841  15.589 -4.2806  1.2653  0.5278
 3343SOL     OW21487   0.714   4.316   2.699 -0.2251 -0.1140 -0.0093
 3343SOL    HW121488   0.703   4.393   2.643  0.2937 -1.7051 -2.2979
 3343SOL    HW221489   0.670   4.251   2.645 -0.9345  0.0180  0.4142
 3344SOL     OW21490   2.600   4.119   6.394 -0.0884 -0.0170  0.3698
 3344SOL    HW121491   2.604   4.209   6.425  2.2903 -0.2194  0.6540
 3344SOL    HW221492   2.604   4.128   6.299  3.9974  0.8145  0.6368
 3345SOL     OW21493   4.560   0.287   9.292 -0.1358 -0.3930 -0.5332
 3345SOL    HW121494   4.501   0.340   9.345  1.5297  1.8592 -0.9632
 3345SOL    HW221495   4.539   0.206   9.339 -0.3590  1.1967  2.0806
 3346SOL     OW21496   3.088   1.580   6.707 -0.2729 -0.1261  0.2172
 3346SOL    HW121497   3.172   1.579   6.661 -0.3114 -1.4366  0.1700
 3346SOL    HW221498   3.026   1.581   6.635 -0.1938 -0.0274  0.1502
 3347SOL     OW21499   3.324   0.040   8.846  0.3235 -0.2254  0.2643
 3347SOL    HW121500   3.384   4.690   8.826 -0.2487 -0.9102  1.0613
 3347SOL    HW221501   3.241   4.718   8.858  0.2842  0.1849  1.5213
 3348SOL     OW21502   3.705   4.211   2.690 -0.1236 -0.0373  0.2328
 3348SOL    HW121503   3.635   4.145   2.689  0.0302 -0.1741 -1.4318
 3348SOL    HW221504   3.672   4.276   2.627 -0.9274 -0.3120  0.3604
 3349SOL     OW21505   3.977   3.943  17.369 -0.2287 -0.2638  0.3680
 3349SOL    HW121506   3.967   3.974  17.279  1.4578  0.2708  0.3573
 3349SOL    HW221507   4.055   3.994  17.391 -1.2756  0.8683  1.5150
 3350SOL     OW21508   0.930   2.293  13.902 -0.1685 -0.1104 -0.3926
 3350SOL    HW121509   0.916   2.355  13.974 -1.0910  0.7602 -1.3263
 3350SOL    HW221510   0.908   2.346  13.825 -1.1824  2.3965  1.6174
 3351SOL     OW21511   1.214   3.097   5.019  0.3904 -0.4217 -0.1119
 3351SOL    HW121512   1.167   3.180   5.027 -0.4596 -0.7782 -1.5085
 3351SOL    HW221513   1.164   3.040   5.077  0.3052 -0.7431 -0.5016
 3352SOL     OW21514   3.767   0.180   7.895 -0.2865 -0.2898  0.0291
 3352SOL    HW121515   3.806   0.203   7.979 -2.0050  1.9068  0.2362
 3352SOL    HW221516   3.821   0.230   7.834 -1.5924 -0.1899 -1.0531
 3353SOL     OW21517   3.462   1.534   7.267 -0.3264  0.8760 -0.1093
 3353SOL    HW121518   3.504   1.620   7.274 -0.3268  0.6682  2.4776
 3353SOL    HW221519   3.411   1.540   7.186 -1.5237  1.8896  0.7203
 3354SOL     OW21520   2.100   4.568  15.063  0.5715 -0.5345  0.3123
 3354SOL    HW121521   2.094   4.648  15.011 -1.9602 -1.0206 -0.1018
 3354SOL    HW221522   2.185   4.533  15.034  1.6802  0.5361  2.2368
 3355SOL     OW21523   2.932   4.028  12.048  0.1066 -0.4730 -0.0625
 3355SOL    HW121524   2.886   3.943  12.049 -1.4993  0.4133  2.2130
 3355SOL    HW221525   2.917   4.065  11.961  1.8589 -0.8903 -0.5383
 3356SOL     OW21526   0.692   2.002   5.976 -0.0586 -0.2540 -0.1089
 3356SOL    HW121527   0.697   1.908   5.992  0.8224 -0.1417  0.2856
 3356SOL    HW221528   0.756   2.038   6.038 -2.8269  0.4380  2.3195
 3357SOL     OW21529   1.333   4.247   4.382  0.0237 -0.5993  0.5114
 3357SOL    HW121530   1.394   4.221   4.451 -1.1140 -1.0528  1.3570
 3357SOL    HW221531   1.260   4.270   4.440  0.7113 -0.3790  1.2913
 3358SOL     OW21532   4.011   3.088  11.050  0.4992  0.2781 -0.1762
 3358SOL    HW121533   4.095   3.133  11.059  0.3692  0.4257  0.3194
 3358SOL    HW221534   3.967   3.166  11.016 -1.9428 -0.4257  1.3548
 3359SOL     OW21535   0.188   2.336   3.707 -0.0620 -0.1114 -0.1338
 3359SOL    HW121536   0.126   2.408   3.703  0.0862 -0.1309 -2.4795
 3359SOL    HW221537   0.239   2.357   3.786  1.6207 -1.6660 -0.7870
 3360SOL     OW21538   1.750   1.848  13.394  0.2766 -0.2664  0.3716
 3360SOL    HW121539   1.747   1.757  13.365  0.0529  0.3595 -1.5369
 3360SOL    HW221540   1.662   1.871  13.422  0.0889 -1.5281  0.8393
 3361SOL     OW21541   3.943   0.926   6.869 -0.1623  0.6215  0.3454
 3361SOL    HW121542   3.969   0.888   6.785  1.4277  1.2007  0.5631
 3361SOL    HW221543   4.014   0.989   6.884 -1.0447  1.4156  1.2264
 3362SOL     OW21544   1.818   2.689  12.475  0.1678 -0.4982  0.4907
 3362SOL    HW121545   1.774   2.761  12.428 -0.0304 -1.3221 -0.5809
 3362SOL    HW221546   1.904   2.724  12.496 -0.3989  1.3204 -0.1219
 3363SOL     OW21547   2.526   2.513   6.932 -0.2282  0.5512  0.2204
 3363SOL    HW121548   2.492   2.602   6.941  1.8536  1.5852 -2.2666
 3363SOL    HW221549   2.456   2.470   6.882  1.1545  0.0271 -1.2321
 3364SOL     OW21550   4.222   4.191   7.473 -0.3700 -0.2509 -0.5974
 3364SOL    HW121551   4.129   4.213   7.465 -0.0957  0.2152 -2.5839
 3364SOL    HW221552   4.219   4.100   7.503 -0.5805 -0.0082  0.1008
 3365SOL     OW21553   4.419   2.291   0.186 -0.3552  0.2772 -0.0037
 3365SOL    HW121554   4.476   2.326   0.255 -1.8205  0.2335  1.2283
 3365SOL    HW221555   4.423   2.362   0.122 -0.4998  0.6006  0.3441
 3366SOL     OW21556   2.717   0.999  11.756 -0.8970  0.1410 -0.7973
 3366SOL    HW121557   2.709   0.906  11.779 -0.1944  0.0064 -1.0971
 3366SOL    HW221558   2.800   0.985  11.709 -0.9584  0.5181 -1.0162
 3367SOL     OW21559   1.893   0.424   2.360  0.1566 -0.0166  0.1806
 3367SOL    HW121560   1.818   0.472   2.395 -1.2857 -1.6495 -0.6679
 3367SOL    HW221561   1.976   0.457   2.395  0.3301  1.5654 -1.6905
 3368SOL     OW21562   3.261   1.566  16.033  0.0698 -0.5818  0.3550
 3368SOL    HW121563   3.327   1.612  16.084 -0.4151  0.0547  0.4040
 3368SOL    HW221564   3.182   1.599  16.076  0.8595  2.9208 -0.8520
 3369SOL     OW21565   3.944   3.050   4.711  0.3026  0.2569 -0.0962
 3369SOL    HW121566   4.006   3.011   4.773  0.2027  0.9780  0.4583
 3369SOL    HW221567   3.867   2.995   4.725  2.6630 -3.4381 -1.4985
 3370SOL     OW21568   1.959   3.989  10.240 -0.6989 -0.6160  0.0727
 3370SOL    HW121569   2.047   4.023  10.258 -1.2554  1.1199 -0.4656
 3370SOL    HW221570   1.985   3.943  10.161 -1.2051 -0.5807 -0.1077
 3371SOL     OW21571   1.927   1.132   5.401 -0.0364 -0.5657  0.1214
 3371SOL    HW121572   1.875   1.112   5.478 -0.2652  0.4193  0.2212
 3371SOL    HW221573   2.013   1.125   5.443  0.0146 -2.0846 -0.2232
 3372SOL     OW21574   2.073   0.905  15.724  0.5123  0.2398  0.0483
 3372SOL    HW121575   2.068   0.829  15.782  0.1338  0.4599  0.3031
 3372SOL    HW221576   1.983   0.935  15.712  0.1058 -1.2139 -0.4600
 3373SOL     OW21577   2.798   4.353   6.206  0.0535 -0.0702  0.4048
 3373SOL    HW121578   2.718   4.306   6.182  0.7787 -0.0700 -2.0167
 3373SOL    HW221579   2.861   4.338   6.135  0.2915 -1.1903  0.8675
 3374SOL     OW21580   3.317   3.220   8.398  0.1802  0.0592  0.4055
 3374SOL    HW121581   3.301   3.290   8.462 -0.5377  0.1536  0.1141
 3374SOL    HW221582   3.293   3.143   8.450  0.3905  0.0863  0.5469
 3375SOL     OW21583   2.527   2.608  14.360 -0.6464  0.3630  0.1928
 3375SOL    HW121584   2.577   2.596  14.279 -1.5765 -2.8355  0.0647
 3375SOL    HW221585   2.535   2.518  14.391  0.3995 -0.6968 -3.1013
 3376SOL     OW21586   1.051   0.385   2.965 -0.3293  0.8559 -0.0284
 3376SOL    HW121587   1.054   0.330   2.887 -0.0137  2.0334 -0.8493
 3376SOL    HW221588   1.011   0.316   3.017  0.9020 -1.5636 -2.2700
 3377SOL     OW21589   4.644   1.422   8.185 -0.3183 -0.3566  0.0096
 3377SOL    HW121590   4.705   1.493   8.202 -0.8203 -0.1274  0.8150
 3377SOL    HW221591   4.561   1.466   8.164  0.0027  0.6749  0.8983
 3378SOL     OW21592   3.137   0.110   1.410  0.8694 -0.4634  0.1658
 3378SOL    HW121593   3.213   0.163   1.436 -0.4384  1.6132 -0.2025
 3378SOL    HW221594   3.129   0.127   1.316  1.9671  2.4639  0.5968
 3379SOL     OW21595   1.748   3.914   7.042 -0.4768  0.3203  0.6716
 3379SOL    HW121596   1.736   3.827   7.005  1.6729  0.9382 -1.4869
 3379SOL    HW221597   1.828   3.901   7.093  0.6914  3.3679 -0.3674
 3380SOL     OW21598   1.722   2.473   2.796  0.4180 -0.4501  0.4517
 3380SOL    HW121599   1.801   2.446   2.750 -0.1781 -0.8106 -0.3576
 3380SOL    HW221600   1.683   2.389   2.820 -0.0295 -0.5525 -0.6896
 3381SOL     OW21601   2.277   1.041  15.628 -0.0934  0.4690 -0.0577
 3381SOL    HW121602   2.249   1.108  15.690 -3.1195 -0.0121 -0.9225
 3381SOL    HW221603   2.219   0.970  15.655 -0.5435  0.5137 -0.9205
 3382SOL     OW21604   1.141   1.889  11.008  0.3449 -0.4081 -0.1865
 3382SOL    HW121605   1.066   1.832  11.027  0.1136 -0.8769 -2.5106
 3382SOL    HW221606   1.132   1.881  10.913  0.4171 -1.0241 -0.1393
 3383SOL     OW21607   0.471   0.203   1.825  0.0976  0.0278 -0.0246
 3383SOL    HW121608   0.543   0.144   1.847  0.2155 -0.2797 -1.1867
 3383SOL    HW221609   0.511   0.263   1.762  1.3104 -1.3805 -0.6011
 3384SOL     OW21610   1.398   4.272   3.262  0.0796  0.3566 -1.0709
 3384SOL    HW121611   1.307   4.258   3.290 -0.4361  2.5643 -1.5781
 3384SOL    HW221612   1.446   4.238   3.337  1.1580  0.3234 -1.7753
 3385SOL     OW21613   2.551   3.168   6.767 -0.7827 -0.1691 -0.3077
 3385SOL    HW121614   2.618   3.233   6.747 -0.7655 -0.2477 -0.5162
 3385SOL    HW221615   2.490   3.170   6.693  0.3903 -0.8308 -1.3096
 3386SOL     OW21616   3.384   0.686  10.906  0.0507 -0.1195 -0.2762
 3386SOL    HW121617   3.383   0.671  11.000  3.1348  1.6487  0.0347
 3386SOL    HW221618   3.458   0.743  10.887  2.4385 -1.9831  3.5680
 3387SOL     OW21619   3.021   2.349  16.533  0.0379 -0.3886 -0.3444
 3387SOL    HW121620   3.057   2.397  16.458 -0.5438  0.7836  0.1326
 3387SOL    HW221621   2.991   2.415  16.595  0.5645 -0.2712 -0.2141
 3388SOL     OW21622   1.050   3.720   0.827 -0.1650  0.6584 -0.0428
 3388SOL    HW121623   0.975   3.774   0.803 -1.1121 -0.3312  0.7425
 3388SOL    HW221624   1.111   3.761   0.766  0.7940  2.7253  2.2512
 3389SOL     OW21625   2.189   0.167   5.160 -0.6823  0.2546  0.4118
 3389SOL    HW121626   2.258   0.209   5.109 -0.2431 -1.9788 -0.8291
 3389SOL    HW221627   2.172   0.088   5.109  2.0305 -0.3325  0.4344
 3390SOL     OW21628   1.563   3.930   4.621  0.3411 -0.0778  0.1558
 3390SOL    HW121629   1.508   3.994   4.666  1.9456  0.8441  0.8322
 3390SOL    HW221630   1.535   3.957   4.534  0.9116  3.8110  1.1562
 3391SOL     OW21631   0.971   4.364   9.261  0.1201 -0.0643 -0.2855
 3391SOL    HW121632   0.997   4.400   9.346 -0.4775 -1.7676  0.6098
 3391SOL    HW221633   1.024   4.285   9.271 -1.4280 -1.1172 -0.3801
 3392SOL     OW21634   3.908   3.758   3.540 -0.2356  0.3111  0.2512
 3392SOL    HW121635   3.865   3.820   3.481 -1.6430 -0.8305  0.0733
 3392SOL    HW221636   3.854   3.679   3.536  1.9975 -1.3423  2.9715
 3393SOL     OW21637   0.364   3.001   3.858  0.2083  0.2900  0.0705
 3393SOL    HW121638   0.313   3.041   3.928 -0.8969  1.8134 -1.6398
 3393SOL    HW221639   0.390   3.079   3.809 -3.9925 -0.0039 -2.5351
 3394SOL     OW21640   2.734   0.116   6.096  0.3518  0.0290 -0.0425
 3394SOL    HW121641   2.703   0.065   6.170  1.3161  0.8277  0.9107
 3394SOL    HW221642   2.756   0.200   6.136 -0.1446  0.0426  0.1992
 3395SOL     OW21643   0.784   4.523  16.538 -0.0687 -0.0528  0.0116
 3395SOL    HW121644   0.780   4.460  16.610 -0.6509  1.5851  1.4203
 3395SOL    HW221645   0.691   4.527  16.517 -0.3748 -0.8256  1.2395
 3396SOL     OW21646   4.430   1.784   8.772 -0.0575  0.5199  0.1077
 3396SOL    HW121647   4.397   1.699   8.803 -0.5801  0.0066 -1.8857
 3396SOL    HW221648   4.524   1.767   8.782 -0.4755 -0.5344  2.3673
 3397SOL     OW21649   4.512   0.898   1.770 -0.4638  0.0346 -0.0205
 3397SOL    HW121650   4.544   0.889   1.859  0.2561  2.7286 -0.0356
 3397SOL    HW221651   4.434   0.952   1.784  0.5226  1.8735 -1.6792
 3398SOL     OW21652   3.129   2.551   7.788 -0.2416  0.4198 -0.4897
 3398SOL    HW121653   3.104   2.479   7.730 -0.1699 -1.6230  2.0038
 3398SOL    HW221654   3.059   2.614   7.771  0.7693  1.9019  0.8778
 3399SOL     OW21655   3.484   2.079   8.880  0.5323  0.0558 -0.3103
 3399SOL    HW121656   3.525   2.111   8.799  0.9436 -1.1725 -0.5912
 3399SOL    HW221657   3.419   2.143   8.908  1.8468  1.0412  0.4701
 3400SOL     OW21658   0.197   2.575  14.187  0.0868 -0.0300 -0.3085
 3400SOL    HW121659   0.266   2.527  14.232 -1.9582 -0.4145  2.4348
 3400SOL    HW221660   0.127   2.510  14.188 -0.0318  0.1011 -0.0701
 3401SOL     OW21661   4.016   1.399   8.244 -0.5193  0.0718 -0.5859
 3401SOL    HW121662   3.937   1.419   8.195  0.5376 -0.1602 -2.3985
 3401SOL    HW221663   4.006   1.305   8.254 -0.9925 -0.0028 -1.8400
 3402SOL     OW21664   4.037   4.243  15.250 -0.2044 -0.1239 -0.5937
 3402SOL    HW121665   4.054   4.169  15.191 -1.6101 -0.0056 -1.1571
 3402SOL    HW221666   4.112   4.296  15.221 -1.1881  0.5854 -1.8515
 3403SOL     OW21667   0.136   2.394  17.651 -0.0274 -0.0083 -0.3611
 3403SOL    HW121668   0.084   2.400   0.040  2.1705  1.6889  0.9600
 3403SOL    HW221669   0.219   2.373   0.004  0.4959  0.9791 -0.8832
 3404SOL     OW21670   0.991   0.740   1.403 -0.2081 -0.0402 -0.3562
 3404SOL    HW121671   0.991   0.651   1.369 -0.0786 -0.9200  1.9351
 3404SOL    HW221672   1.076   0.767   1.438  0.0533 -0.1383 -0.9214
 3405SOL     OW21673   3.249   2.116   7.944  0.0522 -0.4880 -0.0484
 3405SOL    HW121674   3.291   2.033   7.966 -0.6774 -1.1765 -1.2624
 3405SOL    HW221675   3.323   2.175   7.930 -0.9664  0.3055 -2.0037
 3406SOL     OW21676   4.370   2.578  15.350 -0.1580 -0.2860 -0.0989
 3406SOL    HW121677   4.353   2.672  15.352 -0.5845 -0.3491 -0.6655
 3406SOL    HW221678   4.361   2.554  15.442  0.8197 -0.3040 -0.0112
 3407SOL     OW21679   2.079   1.137   1.056 -0.1600 -0.4549 -0.5424
 3407SOL    HW121680   2.126   1.220   1.068  1.5281 -1.3527 -1.0341
 3407SOL    HW221681   2.099   1.121   0.964 -2.5215 -0.4255 -1.0659
 3408SOL     OW21682   0.856   1.878  12.434 -0.2468 -0.7068 -0.2562
 3408SOL    HW121683   0.914   1.802  12.441  0.9539 -0.0742 -3.6762
 3408SOL    HW221684   0.884   1.937  12.365 -2.0369  0.2012 -0.2032
 3409SOL     OW21685   0.969   3.676   1.735 -0.3701 -0.0340  0.3046
 3409SOL    HW121686   0.992   3.583   1.737  1.3789  0.4226  1.8737
 3409SOL    HW221687   1.026   3.697   1.661 -1.0469  0.9285  0.0504
 3410SOL     OW21688   3.304   1.750   3.255 -0.0131  0.4115 -0.5776
 3410SOL    HW121689   3.390   1.792   3.261  0.6176 -0.7414 -1.4331
 3410SOL    HW221690   3.317   1.681   3.320 -1.9065 -0.2111 -0.8470
 3411SOL     OW21691   1.456   1.923   2.873  0.4662  0.4329 -0.0829
 3411SOL    HW121692   1.490   1.864   2.806 -1.8959  0.0565 -0.9480
 3411SOL    HW221693   1.528   1.918   2.936 -0.2178  0.3273  0.6996
 3412SOL     OW21694   2.448   2.818   8.909 -0.3369  0.2157 -0.3871
 3412SOL    HW121695   2.527   2.798   8.859 -0.6525  1.9584 -1.5793
 3412SOL    HW221696   2.482   2.790   8.993 -2.5899 -0.2486  0.3718
 3413SOL     OW21697   1.841   4.301  12.413  0.1589 -0.4635 -0.2746
 3413SOL    HW121698   1.864   4.219  12.458 -1.4389 -1.4977 -1.3518
 3413SOL    HW221699   1.894   4.364  12.462  0.1503 -0.8258  0.2121
 3414SOL     OW21700   1.422   1.188   0.633  0.2114 -0.8371 -0.2294
 3414SOL    HW121701   1.490   1.127   0.663  0.0518  0.0665  1.9819
 3414SOL    HW221702   1.470   1.249   0.577 -1.1216  0.2023 -0.2299
 3415SOL     OW21703   1.527   1.261   7.671 -0.5293 -0.0474 -0.4507
 3415SOL    HW121704   1.521   1.209   7.591 -1.1087 -0.3806 -0.1864
 3415SOL    HW221705   1.434   1.283   7.680 -0.6725 -1.2637  1.0477
 3416SOL     OW21706   0.293   4.162   2.819 -0.3271 -0.0475 -0.1328
 3416SOL    HW121707   0.368   4.118   2.779  0.2614 -0.8262  1.7880
 3416SOL    HW221708   0.247   4.192   2.741 -2.5092  1.5365  1.7857
 3417SOL     OW21709   4.391   2.563   9.207  0.1805 -0.5923  0.2774
 3417SOL    HW121710   4.326   2.619   9.165 -1.1903 -1.7407  0.8869
 3417SOL    HW221711   4.355   2.531   9.289 -1.2496  1.1605  0.3390
 3418SOL     OW21712   3.291   0.612   6.549  0.3915 -0.3114  0.0662
 3418SOL    HW121713   3.368   0.589   6.602  1.3411  0.9517 -0.7865
 3418SOL    HW221714   3.327   0.616   6.461  1.7058  0.3469  0.6357
 3419SOL     OW21715   0.123   4.085   7.606  0.3188 -0.0011  0.6063
 3419SOL    HW121716   0.188   4.080   7.677  0.6150 -0.2562  0.3172
 3419SOL    HW221717   0.111   4.179   7.596  0.2811 -0.0665  0.0559
 3420SOL     OW21718   0.742   1.276  13.023 -0.6944  0.1866 -0.3297
 3420SOL    HW121719   0.694   1.283  12.940 -0.5101 -0.8005 -0.5184
 3420SOL    HW221720   0.792   1.196  13.007  0.5250  1.1581 -1.4223
 3421SOL     OW21721   2.345   1.275  10.855 -0.5784 -0.6397  0.4533
 3421SOL    HW121722   2.419   1.245  10.803  0.2026  2.8163 -0.4050
 3421SOL    HW221723   2.390   1.346  10.900 -0.9685  0.3022 -0.6354
 3422SOL     OW21724   2.523   0.474  11.088 -0.3328  0.3895  0.0343
 3422SOL    HW121725   2.437   0.490  11.050  0.6406  0.7800 -1.9911
 3422SOL    HW221726   2.525   0.535  11.162  0.1450 -1.2666  1.4021
 3423SOL     OW21727   1.904   2.896   4.207 -0.0415  0.3773  0.2865
 3423SOL    HW121728   1.935   2.901   4.298 -0.7332  0.6335  0.5077
 3423SOL    HW221729   1.931   2.978   4.166  1.9280 -1.1000 -1.3473
 3424SOL     OW21730   2.365   2.210   0.398  0.1046  0.6653 -0.0597
 3424SOL    HW121731   2.323   2.210   0.312 -0.0349  2.2154  0.0006
 3424SOL    HW221732   2.353   2.299   0.433  2.0000  1.2069 -0.7848
 3425SOL     OW21733   0.928   2.241  10.965 -0.2836 -0.4918 -0.2191
 3425SOL    HW121734   0.889   2.155  10.950  1.2862 -0.9720 -1.6827
 3425SOL    HW221735   0.849   2.289  10.943  0.3334 -0.3118 -2.0268
 3426SOL     OW21736   0.608   0.439   5.678  0.4191 -0.3660 -0.0502
 3426SOL    HW121737   0.700   0.451   5.655  0.4241 -0.1205  0.1006
 3426SOL    HW221738   0.605   0.385   5.757 -1.4758 -1.6304 -0.9633
 3427SOL     OW21739   4.569   0.742   9.507  0.4847 -0.2717 -0.0599
 3427SOL    HW121740   4.642   0.737   9.446  0.4909  2.6112 -0.2765
 3427SOL    HW221741   4.583   0.661   9.556  0.4881  0.1327  0.6146
 3428SOL     OW21742   1.886   1.566  14.556 -0.3372 -0.3461  0.1628
 3428SOL    HW121743   1.899   1.482  14.513 -1.2072  0.6069 -1.9664
 3428SOL    HW221744   1.809   1.601  14.511 -0.4554 -2.5477 -1.3274
 3429SOL     OW21745   1.760   4.394   7.566 -0.4264 -0.2867 -0.4691
 3429SOL    HW121746   1.726   4.352   7.645  0.8213  0.6372  0.5711
 3429SOL    HW221747   1.707   4.360   7.494 -2.5993 -1.9948  1.9390
 3430SOL     OW21748   3.363   3.373   2.387 -0.4209 -0.6269  0.0708
 3430SOL    HW121749   3.384   3.317   2.461  1.3045  2.2264  1.7120
 3430SOL    HW221750   3.344   3.308   2.319  1.8517 -0.3597 -0.8251
 3431SOL     OW21751   2.394   3.444   1.932  0.2696  0.6040  0.0280
 3431SOL    HW121752   2.366   3.454   1.841  0.3569  3.3486  0.3231
 3431SOL    HW221753   2.472   3.392   1.911 -0.6067 -1.1485  1.0791
 3432SOL     OW21754   4.086   2.422   1.561  0.5117 -0.2726  0.4654
 3432SOL    HW121755   4.069   2.337   1.602  0.4041 -0.8703 -0.8081
 3432SOL    HW221756   4.006   2.468   1.587  0.0578 -1.1962  0.6993
 3433SOL     OW21757   0.525   2.968   5.000  0.2867 -0.4478 -0.7366
 3433SOL    HW121758   0.595   2.943   5.060  1.3738 -0.8284 -2.1598
 3433SOL    HW221759   0.572   2.985   4.918 -0.1150  1.9314 -0.4661
 3434SOL     OW21760   0.644   3.009   9.787  0.1230  0.1603 -0.2742
 3434SOL    HW121761   0.686   3.045   9.709  1.4276  0.4262  0.5450
 3434SOL    HW221762   0.573   3.073   9.791 -2.6903 -3.0667  1.4562
 3435SOL     OW21763   1.466   2.830   8.471 -0.4989  0.1833  0.4841
 3435SOL    HW121764   1.392   2.837   8.532 -1.3918  0.8837 -0.6835
 3435SOL    HW221765   1.532   2.799   8.533 -0.7728  0.2729  0.8252
 3436SOL     OW21766   0.100   4.453   2.666  0.6434  0.3006 -0.0179
 3436SOL    HW121767   0.042   4.475   2.739  1.0445 -0.9799  0.6863
 3436SOL    HW221768   0.070   4.363   2.651 -1.4382  1.0955 -0.7072
 3437SOL     OW21769   2.203   3.008  14.798 -0.1866 -0.0169  0.1758
 3437SOL    HW121770   2.136   2.986  14.863 -1.9864  0.5454 -1.4654
 3437SOL    HW221771   2.246   3.077  14.849 -2.0842  2.5542 -1.6650
 3438SOL     OW21772   3.956   1.918  16.113  0.1991 -0.4691  0.4380
 3438SOL    HW121773   3.916   2.005  16.103 -0.4181 -0.9229 -1.0032
 3438SOL    HW221774   3.958   1.890  16.021 -3.9698  0.5318  0.0485
 3439SOL     OW21775   1.509   2.624   5.418 -0.7044  0.2538  0.0265
 3439SOL    HW121776   1.461   2.543   5.436 -1.0458  0.2813 -0.7531
 3439SOL    HW221777   1.600   2.596   5.409 -0.1856  1.6609  0.9207
 3440SOL     OW21778   0.305   1.871  15.248 -0.1402  0.4648  0.3399
 3440SOL    HW121779   0.277   1.962  15.262  1.4906  0.7445  1.7708
 3440SOL    HW221780   0.297   1.875  15.152  1.8862 -2.4718  0.0372
 3441SOL     OW21781   3.968   1.388   7.831  0.0211  0.0323  0.1796
 3441SOL    HW121782   3.884   1.344   7.819 -0.0525  0.5036 -1.0589
 3441SOL    HW221783   4.027   1.331   7.782  0.9860  1.5727 -0.4586
 3442SOL     OW21784   0.573   1.347   7.356 -0.2835  0.1034 -0.5843
 3442SOL    HW121785   0.542   1.438   7.352 -2.3908 -0.6040 -0.2849
 3442SOL    HW221786   0.667   1.365   7.356 -0.2956  0.1728 -0.7892
 3443SOL     OW21787   0.003   1.148   3.023 -0.4480  0.2234 -0.1141
 3443SOL    HW121788   0.042   1.110   2.944 -1.3614  0.1459 -0.5271
 3443SOL    HW221789   4.637   1.167   2.989 -1.1861 -0.8782  1.1745
 3444SOL     OW21790   3.321   1.842  15.830  0.1893  0.3061 -0.2794
 3444SOL    HW121791   3.342   1.828  15.923  2.8179  0.6719 -0.8398
 3444SOL    HW221792   3.387   1.787  15.788 -1.1764 -1.6149  0.0805
 3445SOL     OW21793   4.483   0.681   7.557 -0.4403  0.2679 -0.3752
 3445SOL    HW121794   4.576   0.662   7.551  0.2729  3.2347  1.4144
 3445SOL    HW221795   4.457   0.643   7.473  1.5492 -2.3705  0.2154
 3446SOL     OW21796   4.623   1.654  16.099 -0.1511  0.2342 -0.5747
 3446SOL    HW121797   4.568   1.599  16.154  2.7195 -2.7855 -0.6960
 3446SOL    HW221798   4.585   1.740  16.115 -1.1072  0.0182 -1.7760
 3447SOL     OW21799   1.887   3.296   6.982  0.0528  0.1629 -0.4120
 3447SOL    HW121800   1.934   3.318   6.901 -0.8122 -0.3857 -1.0694
 3447SOL    HW221801   1.863   3.376   7.029  0.7673  0.0933  0.0634
 3448SOL     OW21802   2.818   2.393   8.538 -0.2194  0.2381 -0.0082
 3448SOL    HW121803   2.808   2.335   8.463  0.8194  0.5728 -0.4022
 3448SOL    HW221804   2.728   2.396   8.572 -0.9723  1.0302 -2.0707
 3449SOL     OW21805   1.757   4.515  12.696  0.2101 -0.0040 -0.1380
 3449SOL    HW121806   1.752   4.609  12.679 -0.4832 -0.1903 -1.0009
 3449SOL    HW221807   1.842   4.496  12.658  0.1909  0.1805 -0.2732
 3450SOL     OW21808   0.342   1.244   9.138  0.0526  0.0121 -0.2865
 3450SOL    HW121809   0.375   1.183   9.205 -3.1884  0.4133  1.6470
 3450SOL    HW221810   0.297   1.173   9.092  1.5118  0.5519 -2.5426
 3451SOL     OW21811   3.900   2.055   0.091  0.4713  0.2292 -0.7331
 3451SOL    HW121812   3.885   1.964   0.117  2.2153 -0.0186 -0.5919
 3451SOL    HW221813   3.855   2.096   0.165  0.8147 -0.5514 -0.0799
 3452SOL     OW21814   0.721   2.952  10.966 -0.1583 -0.0810  0.2874
 3452SOL    HW121815   0.797   3.009  10.951 -1.8403  2.4905  1.6764
 3452SOL    HW221816   0.652   2.996  10.917  0.1321 -0.7360 -0.7085
 3453SOL     OW21817   1.029   1.139   3.866  0.1850 -0.1180  0.0795
 3453SOL    HW121818   0.934   1.132   3.876  0.2797 -1.3429  0.1449
 3453SOL    HW221819   1.053   1.107   3.779  1.4413 -0.7105  0.6360
 3454SOL     OW21820   2.255   4.655   7.518 -0.2669  0.0415  0.5534
 3454SOL    HW121821   2.313   4.584   7.492  0.2205 -0.1445  2.1303
 3454SOL    HW221822   2.264   4.664   7.613  0.6217 -0.6533  0.5248
 3455SOL     OW21823   0.456   3.956   7.068 -0.3019  0.2169  0.5458
 3455SOL    HW121824   0.431   3.879   7.118 -0.0454  0.3905  0.9450
 3455SOL    HW221825   0.369   3.995   7.057  0.4735  1.4670 -1.0857
 3456SOL     OW21826   0.659   2.692   4.332 -0.4297  0.1015 -0.2304
 3456SOL    HW121827   0.693   2.778   4.306 -0.8593  1.0065  2.1809
 3456SOL    HW221828   0.712   2.648   4.265  0.7788  0.8291  0.2428
 3457SOL     OW21829   3.643   1.171   0.626  0.1052  0.5522 -0.1798
 3457SOL    HW121830   3.639   1.103   0.692  1.5784  0.2773 -0.3631
 3457SOL    HW221831   3.573   1.228   0.657 -1.6493 -1.3489 -0.6793
 3458SOL     OW21832   1.595   1.324   4.775 -0.6422 -0.1276  0.0833
 3458SOL    HW121833   1.627   1.342   4.686  0.3655 -1.5193  0.1616
 3458SOL    HW221834   1.677   1.314   4.824  0.4025 -1.2508 -1.8731
 3459SOL     OW21835   1.821   0.851  11.116 -0.0283  0.0005 -0.3187
 3459SOL    HW121836   1.751   0.888  11.062  2.3652  2.2043 -1.9389
 3459SOL    HW221837   1.808   0.893  11.201  0.7287  1.5874 -0.9938
 3460SOL     OW21838   3.402   4.039   5.641 -0.0911  0.0680 -0.1624
 3460SOL    HW121839   3.338   4.017   5.709  0.1540 -1.3577 -0.3773
 3460SOL    HW221840   3.349   4.017   5.564 -1.9744  0.9573  0.8882
 3461SOL     OW21841   2.024   2.850   2.427 -0.4340 -0.1469 -0.4192
 3461SOL    HW121842   2.080   2.838   2.504 -1.4257  1.0012  0.4838
 3461SOL    HW221843   1.974   2.772   2.450  0.6255 -0.5198  0.6189
 3462SOL     OW21844   2.836   2.111   1.472 -0.2401 -0.1310  0.1457
 3462SOL    HW121845   2.835   2.104   1.377  0.4041  2.4941 -0.0593
 3462SOL    HW221846   2.929   2.117   1.495 -0.4436  2.8933  0.2455
 3463SOL     OW21847   1.595   1.684   8.901  0.4361 -0.3751  0.3613
 3463SOL    HW121848   1.502   1.686   8.877  0.9997 -0.4580 -1.8629
 3463SOL    HW221849   1.599   1.719   8.990  1.5069 -2.6775  1.2395
 3464SOL     OW21850   2.916   1.149   3.227 -0.2233  0.2902 -0.3955
 3464SOL    HW121851   2.944   1.116   3.312  0.9072 -0.9637 -1.2520
 3464SOL    HW221852   2.964   1.232   3.223  0.3004 -0.0423 -1.1125
 3465SOL     OW21853   0.888   3.569   6.498  0.3490 -0.4096 -0.1273
 3465SOL    HW121854   0.866   3.642   6.441  0.9549  0.9227  1.3612
 3465SOL    HW221855   0.974   3.559   6.458 -0.1077  1.3760 -1.5409
 3466SOL     OW21856   3.189   4.210   5.118  0.2171 -0.5186  0.6191
 3466SOL    HW121857   3.149   4.230   5.033 -0.1830  1.0809  1.1745
 3466SOL    HW221858   3.139   4.137   5.154 -1.7174  1.3069  1.6297
 3467SOL     OW21859   4.398   2.422   0.536 -0.1582  0.3416 -0.2335
 3467SOL    HW121860   4.348   2.341   0.526  0.5897  0.0364 -1.5143
 3467SOL    HW221861   4.469   2.395   0.479 -1.4110  0.6765 -1.9526
 3468SOL     OW21862   3.613   0.418   7.563  0.6411 -0.6843 -0.3361
 3468SOL    HW121863   3.527   0.391   7.530  0.5107 -0.8981  0.1845
 3468SOL    HW221864   3.609   0.512   7.545 -2.7479 -1.1525 -2.0085
 3469SOL     OW21865   0.034   1.766  10.547 -0.0722 -0.1294 -0.3459
 3469SOL    HW121866   4.690   1.799  10.486  1.4546 -0.0253 -1.9403
 3469SOL    HW221867   0.052   1.685  10.499  3.0419 -0.3440  1.1996
 3470SOL     OW21868   0.723   0.970   9.179  0.1501 -0.0495  0.1993
 3470SOL    HW121869   0.741   1.058   9.213 -0.6890 -0.9928  3.0735
 3470SOL    HW221870   0.727   0.922   9.261  0.1254 -1.8757 -0.8536
 3471SOL     OW21871   2.542   0.134   8.862  0.4909  0.3011  0.0769
 3471SOL    HW121872   2.552   0.218   8.818  0.8218  0.2671  0.0915
 3471SOL    HW221873   2.491   0.077   8.804  0.8289 -1.5056  1.5341
 3472SOL     OW21874   2.812   2.933   6.407 -0.0893 -0.0214  0.4269
 3472SOL    HW121875   2.880   2.866   6.399 -0.7899 -0.5370 -1.3349
 3472SOL    HW221876   2.834   2.997   6.339  0.2175 -0.4241  0.1482
 3473SOL     OW21877   2.743   2.561  15.585 -0.5235  0.1470 -0.3663
 3473SOL    HW121878   2.662   2.600  15.617 -0.9859 -0.7936 -0.3797
 3473SOL    HW221879   2.771   2.510  15.661  1.2520  2.2764  0.4002
 3474SOL     OW21880   1.168   0.105   9.165  0.1177 -0.1749 -0.2226
 3474SOL    HW121881   1.254   0.136   9.138  0.1522 -0.6727 -0.6686
 3474SOL    HW221882   1.182   0.024   9.117  1.3649 -0.1670  0.1290
 3475SOL     OW21883   3.171   3.630   5.800 -0.5152 -0.2131  0.0450
 3475SOL    HW121884   3.117   3.624   5.878 -1.6440  1.7498 -0.5816
 3475SOL    HW221885   3.240   3.563   5.810 -0.3011  0.1217  0.7716
 3476SOL     OW21886   3.009   0.289   0.847  0.4782  0.0966  0.8372
 3476SOL    HW121887   2.922   0.309   0.812 -0.6294 -3.0108  1.8175
 3476SOL    HW221888   3.061   0.349   0.794  0.1591 -0.8893 -0.6052
 3477SOL     OW21889   3.800   2.253   5.691 -0.0924 -0.1085 -0.0215
 3477SOL    HW121890   3.859   2.324   5.666  0.6801 -0.6692  0.2185
 3477SOL    HW221891   3.786   2.267   5.784 -0.5383  0.8017 -0.2228
 3478SOL     OW21892   4.492   1.565  17.487  0.1095 -0.3627 -0.4590
 3478SOL    HW121893   4.577   1.548  17.447  0.7351  1.7221 -0.0165
 3478SOL    HW221894   4.507   1.567  17.581 -0.9571  3.2458 -0.3846
 3479SOL     OW21895   3.349   4.706  11.164  0.0613  0.3930 -0.9933
 3479SOL    HW121896   3.316   0.030  11.241  0.7354 -0.9688  0.1336
 3479SOL    HW221897   3.315   4.618  11.181  4.1850 -0.8030  1.1966
 3480SOL     OW21898   2.809   4.620   7.389  0.4223 -0.0162  0.2747
 3480SOL    HW121899   2.725   4.663   7.405  0.6292 -0.5015  2.6718
 3480SOL    HW221900   2.810   4.642   7.296 -1.6783 -1.4416 -0.0811
 3481SOL     OW21901   1.933   3.758   0.061  0.0520 -0.9238 -0.9252
 3481SOL    HW121902   2.023   3.738   0.087 -0.7314 -0.2248  2.3372
 3481SOL    HW221903   1.909   3.818   0.132  1.3436  1.4657 -2.5084
 3482SOL     OW21904   0.659   2.807   8.126 -0.0265 -0.3355 -0.1217
 3482SOL    HW121905   0.628   2.758   8.050 -2.3739  2.5066 -1.0046
 3482SOL    HW221906   0.582   2.785   8.178  1.4717 -1.7206  1.5189
 3483SOL     OW21907   3.267   1.108   8.311  0.0512 -0.4954 -0.3993
 3483SOL    HW121908   3.208   1.152   8.250  3.1716  1.3576 -2.0921
 3483SOL    HW221909   3.345   1.092   8.258 -0.5682 -0.3338 -1.3545
 3484SOL     OW21910   3.318   3.553   0.554  0.5381 -0.0016  0.5270
 3484SOL    HW121911   3.322   3.619   0.484  0.4816 -2.2192 -1.5431
 3484SOL    HW221912   3.403   3.513   0.537  0.7604 -0.0414  1.7351
 3485SOL     OW21913   1.507   1.273   8.361 -0.1733  0.2714 -0.1664
 3485SOL    HW121914   1.507   1.248   8.268 -3.3904 -1.9343  0.4532
 3485SOL    HW221915   1.418   1.248   8.385  0.5112 -1.2418  0.7637
 3486SOL     OW21916   4.706   2.190   9.666 -0.1737 -0.3073 -0.8741
 3486SOL    HW121917   4.634   2.251   9.682  1.7168  1.6192  0.3260
 3486SOL    HW221918   0.042   2.257   9.630 -1.4388  0.3336 -1.7090
 3487SOL     OW21919   2.282   3.616  16.381 -0.1142 -0.7861  0.0875
 3487SOL    HW121920   2.351   3.561  16.344  0.0053 -0.4665 -0.1585
 3487SOL    HW221921   2.228   3.637  16.305 -0.5014  0.3436  0.6707
 3488SOL     OW21922   3.641   0.975   7.852 -0.4184 -0.5510 -0.4438
 3488SOL    HW121923   3.553   0.974   7.888 -1.1595  0.7909 -2.2627
 3488SOL    HW221924   3.648   0.901   7.791  1.2187 -1.9345  1.4064
 3489SOL     OW21925   4.623   0.760   8.179  0.4777  0.0465  0.1305
 3489SOL    HW121926   4.541   0.713   8.165  0.6612 -0.5912  1.2439
 3489SOL    HW221927   4.610   0.817   8.254  0.1522  0.4216 -0.2058
 3490SOL     OW21928   4.035   4.682   0.915  0.2687 -0.0172  0.0717
 3490SOL    HW121929   4.021   4.638   0.831  0.0551 -0.4009  0.3092
 3490SOL    HW221930   3.952   0.004   0.932  1.1943  1.3221  1.0684
 3491SOL     OW21931   3.339   0.328   8.877  0.1831 -0.3861 -0.2155
 3491SOL    HW121932   3.399   0.354   8.947  0.5247  1.4787 -1.2010
 3491SOL    HW221933   3.330   0.236   8.904  0.9879  0.0162  1.4585
 3492SOL     OW21934   0.611   3.590   8.203  0.5634  0.0504  0.3229
 3492SOL    HW121935   0.599   3.593   8.298  0.4762  0.0189  0.3127
 3492SOL    HW221936   0.586   3.500   8.180 -1.2586  0.9231 -1.0464
 3493SOL     OW21937   1.257   0.604   5.643 -0.4276  0.2300  0.1745
 3493SOL    HW121938   1.264   0.682   5.698  2.0481  0.4217 -0.4150
 3493SOL    HW221939   1.315   0.551   5.697  2.1505  0.9843 -1.8709
 3494SOL     OW21940   4.287   0.708   5.755  0.0005  0.4164 -0.0394
 3494SOL    HW121941   4.215   0.765   5.778 -0.5903 -0.1473 -0.4820
 3494SOL    HW221942   4.248   0.621   5.741 -1.3472  0.9839  0.1930
 3495SOL     OW21943   0.925   1.938  15.143 -0.0563  0.5533  0.4215
 3495SOL    HW121944   0.932   1.995  15.066 -1.5255  0.2309  0.0621
 3495SOL    HW221945   0.831   1.923  15.151  0.2597 -1.5260  0.0427
 3496SOL     OW21946   1.489   0.688   2.336  0.4669 -0.0755 -0.2633
 3496SOL    HW121947   1.574   0.652   2.362  0.3266  0.9993  1.6569
 3496SOL    HW221948   1.482   0.773   2.378  1.5527 -0.0978 -0.0265
 3497SOL     OW21949   0.994   3.411  10.529 -0.5390  1.3123 -0.4334
 3497SOL    HW121950   0.989   3.427  10.623 -3.1875 -0.5067 -0.2743
 3497SOL    HW221951   0.929   3.472  10.494 -0.1143  1.3846 -1.0942
 3498SOL     OW21952   0.783   3.951   9.406  0.5180 -0.1902 -0.2841
 3498SOL    HW121953   0.743   3.879   9.357 -0.9731 -0.3908  1.2349
 3498SOL    HW221954   0.772   4.026   9.348  0.1961 -0.9377 -1.1898
 3499SOL     OW21955   2.292   4.672   3.130 -0.3846  0.0833  0.1527
 3499SOL    HW121956   2.310   4.584   3.097 -1.1240 -0.3988  1.0500
 3499SOL    HW221957   2.365   4.695   3.188  1.2607 -1.7616 -1.2047
 3500SOL     OW21958   3.431   0.293   6.491  0.0265  0.3498 -0.6137
 3500SOL    HW121959   3.388   0.364   6.539  1.7031  0.1601  1.1308
 3500SOL    HW221960   3.524   0.316   6.498 -0.1555  0.4852  1.3500
 3501SOL     OW21961   4.247   1.274   7.354 -0.2360 -0.0780  0.3435
 3501SOL    HW121962   4.276   1.347   7.409  0.3062  0.1851 -0.3015
 3501SOL    HW221963   4.277   1.300   7.267  1.9102 -1.6635  0.5771
 3502SOL     OW21964   1.619   2.222  12.259 -0.3826 -0.0451  0.4825
 3502SOL    HW121965   1.706   2.189  12.234 -0.0727  1.2395 -0.1211
 3502SOL    HW221966   1.588   2.151  12.315 -0.1336 -1.1790 -0.8279
 3503SOL     OW21967   1.291   2.059   3.887 -0.3186 -0.0019  0.7143
 3503SOL    HW121968   1.333   2.143   3.902  1.8038 -0.6558 -1.6631
 3503SOL    HW221969   1.307   2.012   3.969 -0.1812 -0.9883  0.1208
 3504SOL     OW21970   3.871   3.014   3.871  0.0120 -0.3468  0.1543
 3504SOL    HW121971   3.781   3.041   3.851  0.4459 -2.0053 -4.0222
 3504SOL    HW221972   3.900   3.071   3.942  1.0943 -2.5118  1.4510
 3505SOL     OW21973   0.749   1.648   2.872  0.4118  0.0936 -0.2875
 3505SOL    HW121974   0.729   1.702   2.795  0.0812  1.1078  0.5113
 3505SOL    HW221975   0.813   1.591   2.830 -0.4962 -0.1106 -1.4145
 3506SOL     OW21976   3.119   2.112  16.643  0.0889  0.3202 -0.0611
 3506SOL    HW121977   3.204   2.149  16.666  0.0570 -0.0031  0.5933
 3506SOL    HW221978   3.088   2.176  16.580  2.6171  2.0634  0.4771
 3507SOL     OW21979   4.165   3.280  10.196 -0.2780  0.5877 -0.2861
 3507SOL    HW121980   4.081   3.323  10.212  1.3149  3.2859  0.6775
 3507SOL    HW221981   4.227   3.333  10.246 -1.0866  0.1392  1.1847
 3508SOL     OW21982   0.599   3.525   8.988 -0.5153  0.2920 -0.7256
 3508SOL    HW121983   0.557   3.562   9.065 -0.3388  0.0560 -0.5178
 3508SOL    HW221984   0.660   3.460   9.024 -1.3418 -1.4692 -2.4746
 3509SOL     OW21985   3.059   1.876   8.757 -0.2146  0.7600 -0.3597
 3509SOL    HW121986   3.075   1.790   8.718 -2.5300 -0.3760  1.2259
 3509SOL    HW221987   3.125   1.931   8.716  1.2492 -0.4129  0.4446
 3510SOL     OW21988   1.358   2.387   5.698  0.5102  0.1261  0.4823
 3510SOL    HW121989   1.446   2.358   5.722 -0.6819 -1.5731  2.7473
 3510SOL    HW221990   1.342   2.468   5.747  1.8299  0.1137  0.9336
 3511SOL     OW21991   3.674   1.949  11.596  0.1624 -0.2436 -0.1011
 3511SOL    HW121992   3.661   1.937  11.690  0.1450  1.4903  0.1185
 3511SOL    HW221993   3.679   2.045  11.598 -1.1765 -0.1748  0.1670
 3512SOL     OW21994   0.593   0.041   5.388  0.5552  0.3351 -0.1705
 3512SOL    HW121995   0.574   0.016   5.298  0.9203 -0.1211 -0.1192
 3512SOL    HW221996   0.646   4.688   5.414 -1.0063 -0.6299  0.2439
 3513SOL     OW21997   4.115   2.305   9.058  0.4940  0.0172 -0.3487
 3513SOL    HW121998   4.201   2.346   9.042  0.0674  1.9317  2.2804
 3513SOL    HW221999   4.139   2.222   9.018 -1.0291 -1.2715  1.4662
 3514SOL     OW22000   0.758   2.032   6.259  0.2535 -0.9786 -0.3761
 3514SOL    HW122001   0.686   2.017   6.320 -0.1465 -0.6180 -0.7573
 3514SOL    HW222002   0.781   2.121   6.286  0.1552 -0.7452 -1.0538
 3515SOL     OW22003   3.166   2.949   8.036  0.3815  0.4608  0.1726
 3515SOL    HW122004   3.199   2.959   7.946 -0.7270 -0.0520 -0.2875
 3515SOL    HW222005   3.246   2.987   8.072 -0.3920  0.3623  1.9962
 3516SOL     OW22006   4.628   2.323   4.752 -0.1079  0.2318  0.2346
 3516SOL    HW122007   4.577   2.294   4.827 -0.5322 -2.4876 -1.0994
 3516SOL    HW222008   4.627   2.416   4.774  0.2152 -0.1933  2.0555
 3517SOL     OW22009   3.345   0.361   8.535 -0.1854 -0.0472 -0.2581
 3517SOL    HW122010   3.340   0.266   8.543  0.6783 -0.1495 -0.9944
 3517SOL    HW222011   3.341   0.382   8.628  1.1513  1.0461 -0.4588
 3518SOL     OW22012   1.895   3.677  11.400 -0.0189  0.3759  0.0908
 3518SOL    HW122013   1.932   3.668  11.312  0.9334  1.4809  0.3798
 3518SOL    HW222014   1.805   3.647  11.389 -0.0235 -0.0615  1.3656
 3519SOL     OW22015   0.880   1.906   2.026  0.2819  0.0497  0.0851
 3519SOL    HW122016   0.839   1.938   1.945  0.0865 -0.1610  0.1022
 3519SOL    HW222017   0.829   1.960   2.086  0.3147  1.7260 -1.3698
 3520SOL     OW22018   3.096   4.701   4.940 -0.9118  0.3226 -0.0498
 3520SOL    HW122019   3.013   4.664   4.913 -0.2808 -1.1704  0.0796
 3520SOL    HW222020   3.122   4.644   5.013  0.1999  1.3290  0.3552
 3521SOL     OW22021   2.626   1.718   3.897  0.1894  0.2648  0.6428
 3521SOL    HW122022   2.616   1.652   3.966 -2.1272 -0.6133 -0.5297
 3521SOL    HW222023   2.701   1.682   3.849 -0.6686 -1.2060  0.3876
 3522SOL     OW22024   1.138   4.023   4.191 -0.0194 -0.6197 -0.3409
 3522SOL    HW122025   1.070   4.034   4.125  0.7026  1.7811 -0.6958
 3522SOL    HW222026   1.165   3.933   4.173 -2.5131 -1.8537  2.0754
 3523SOL     OW22027   1.145   3.658   4.799  0.5629 -0.9774 -0.4574
 3523SOL    HW122028   1.187   3.732   4.755  0.2169  0.6905  1.9646
 3523SOL    HW222029   1.224   3.608   4.821  0.0946 -1.9935 -1.0993
 3524SOL     OW22030   2.826   3.033   3.391  0.6477  0.1873 -0.5600
 3524SOL    HW122031   2.823   3.039   3.486  0.5264 -0.4902 -0.5164
 3524SOL    HW222032   2.740   2.999   3.368  0.6358 -0.7311  0.8399
 3525SOL     OW22033   2.172   2.224  10.631  0.1655  0.1030 -0.2704
 3525SOL    HW122034   2.138   2.244  10.544  0.1727 -0.7307 -0.4650
 3525SOL    HW222035   2.135   2.302  10.672  2.9856  0.8185  0.9326
 3526SOL     OW22036   2.277   0.688   4.552  0.2570  0.1537 -0.4668
 3526SOL    HW122037   2.241   0.720   4.635  1.8041  2.0455 -0.5497
 3526SOL    HW222038   2.218   0.612   4.548  2.2134 -1.2806 -2.0427
 3527SOL     OW22039   1.624   1.201  14.767  0.5244  0.5470 -0.8434
 3527SOL    HW122040   1.568   1.197  14.845 -0.5681  0.1903 -1.6462
 3527SOL    HW222041   1.625   1.107  14.746  3.7966  0.0568  1.6363
 3528SOL     OW22042   2.179   0.487  11.973 -0.0655 -0.7204 -0.2435
 3528SOL    HW122043   2.205   0.520  12.059  0.4012 -0.8446 -0.3407
 3528SOL    HW222044   2.102   0.433  11.991 -1.8264  1.0027 -2.6154
 3529SOL     OW22045   4.153   3.751   1.016  0.5141 -0.5558 -0.2013
 3529SOL    HW122046   4.186   3.672   1.060  0.3805 -2.1295 -2.9552
 3529SOL    HW222047   4.099   3.713   0.947 -0.6067 -2.1425  1.5198
 3530SOL     OW22048   3.213   3.558   3.088 -0.6426 -0.4534  0.5471
 3530SOL    HW122049   3.184   3.624   3.026 -0.2830 -0.0985  0.7550
 3530SOL    HW222050   3.142   3.496   3.077  0.0784 -0.6278 -3.2498
 3531SOL     OW22051   1.825   1.849   9.241 -0.3381  0.0185 -0.1018
 3531SOL    HW122052   1.869   1.933   9.253 -2.1159  1.1524 -1.5300
 3531SOL    HW222053   1.896   1.801   9.199 -0.6729  1.1823 -2.0078
 3532SOL     OW22054   2.614   0.518   2.725  0.4011  0.1941  0.6392
 3532SOL    HW122055   2.558   0.541   2.652 -2.1400  0.8657  2.7795
 3532SOL    HW222056   2.552   0.501   2.797 -0.4820 -0.0836 -0.1877
 3533SOL     OW22057   2.212   2.025   3.605  0.1926 -0.7038  0.6285
 3533SOL    HW122058   2.198   1.989   3.692 -1.0790 -0.2504  0.6150
 3533SOL    HW222059   2.195   1.947   3.553 -0.8795  0.5686 -0.9355
 3534SOL     OW22060   3.654   0.687   7.443 -0.3644 -0.0139 -0.6251
 3534SOL    HW122061   3.646   0.762   7.501  1.3004  1.3894 -2.2383
 3534SOL    HW222062   3.565   0.691   7.409 -0.8225  1.6624  0.7444
 3535SOL     OW22063   0.383   0.813   1.738 -0.7123  0.5434 -0.2753
 3535SOL    HW122064   0.441   0.849   1.804 -1.7338  2.2934 -0.3188
 3535SOL    HW222065   0.368   0.887   1.679 -2.7659 -1.4501 -2.3047
 3536SOL     OW22066   2.447   1.992  17.084 -0.2454  0.2981 -0.2052
 3536SOL    HW122067   2.458   1.958  16.995 -1.0891  1.1923 -0.6576
 3536SOL    HW222068   2.374   1.934  17.109 -0.8477  1.1731  0.0665
 3537SOL     OW22069   0.373   4.145  14.961 -0.5010  0.1636  0.1656
 3537SOL    HW122070   0.384   4.228  14.915 -0.6366  0.3086  0.3957
 3537SOL    HW222071   0.458   4.104  14.943 -1.8786 -1.8620 -1.6198
 3538SOL     OW22072   1.134   2.026   2.525 -0.3618  0.3657 -0.0564
 3538SOL    HW122073   1.207   1.969   2.502  0.9683  1.9172  0.3935
 3538SOL    HW222074   1.052   1.984   2.498 -0.5290  0.8136 -0.2290
 3539SOL     OW22075   3.685   1.956  11.867 -0.1186 -0.2118 -0.1782
 3539SOL    HW122076   3.628   1.882  11.887  0.2315 -0.8124 -1.3894
 3539SOL    HW222077   3.761   1.933  11.921 -0.6706 -2.1201 -0.2139
 3540SOL     OW22078   0.111   4.437  12.988 -0.8663  0.4951 -0.2850
 3540SOL    HW122079   0.101   4.494  13.064  2.4200 -0.4710  0.8731
 3540SOL    HW222080   0.145   4.361  13.035  0.4165  1.8103  0.9240
 3541SOL     OW22081   2.980   4.320   8.896 -0.5210  0.1232 -0.2574
 3541SOL    HW122082   2.894   4.279   8.888 -0.7346  1.0378 -2.8776
 3541SOL    HW222083   3.032   4.246   8.928  1.5705  0.5141 -2.7064
 3542SOL     OW22084   2.124   4.315   3.004 -0.1804  0.3854 -0.1547
 3542SOL    HW122085   2.161   4.372   2.937  1.1914 -0.4931 -0.1475
 3542SOL    HW222086   2.068   4.375   3.054  1.3531 -0.1401  2.1805
 3543SOL     OW22087   1.018   1.440   6.863  0.9623  0.5148 -0.5096
 3543SOL    HW122088   1.023   1.518   6.807  0.7177 -0.7640 -2.3061
 3543SOL    HW222089   1.088   1.391   6.820  1.5246 -0.8828  2.0175
 3544SOL     OW22090   0.950   1.619  12.508  0.2403 -0.0296 -0.0183
 3544SOL    HW122091   0.947   1.535  12.554  2.3925  0.4275  0.9272
 3544SOL    HW222092   0.932   1.686  12.574  1.1904 -1.1010  1.3264
 3545SOL     OW22093   2.497   1.771  14.443  0.3530 -0.5243 -0.0883
 3545SOL    HW122094   2.590   1.797  14.448  0.5120 -1.2060  0.5463
 3545SOL    HW222095   2.512   1.682  14.412 -1.4920 -0.6021 -0.7375
 3546SOL     OW22096   2.876   2.041  14.321 -0.4614 -0.1420  0.0014
 3546SOL    HW122097   2.877   1.993  14.238  0.7287 -1.9549  1.0661
 3546SOL    HW222098   2.971   2.038  14.335 -0.4206 -2.2018 -0.6131
 3547SOL     OW22099   4.586   3.312   9.929  0.4773 -0.0364  0.1015
 3547SOL    HW122100   4.576   3.272  10.016  0.1544  0.3099  0.2241
 3547SOL    HW222101   4.681   3.311   9.928  0.5211  0.3890  2.7273
 3548SOL     OW22102   2.099   3.887  11.651  0.3317  0.5742 -0.2189
 3548SOL    HW122103   2.006   3.901  11.668  0.3902 -0.9298  1.2890
 3548SOL    HW222104   2.112   3.949  11.579  1.7958  0.7992  0.2262
 3549SOL     OW22105   0.989   1.151   7.689  0.0867  0.4925  0.0706
 3549SOL    HW122106   1.048   1.094   7.738  2.0795  0.8459 -1.9134
 3549SOL    HW222107   0.935   1.178   7.763 -1.3505 -1.6623 -0.1791
 3550SOL     OW22108   0.863   0.680   2.450  0.1705  0.0596  0.0092
 3550SOL    HW122109   0.935   0.688   2.513  0.9862  0.2753 -0.9541
 3550SOL    HW222110   0.901   0.742   2.388  0.7293  0.2407  0.5299
 3551SOL     OW22111   1.273   1.586  11.538 -0.4240  0.0844 -0.1194
 3551SOL    HW122112   1.300   1.667  11.496 -1.9286 -0.2247 -1.6743
 3551SOL    HW222113   1.355   1.550  11.571 -0.3264 -0.1482 -0.6161
 3552SOL     OW22114   4.507   3.358   7.620 -0.6200  0.0637 -0.0683
 3552SOL    HW122115   4.567   3.392   7.686  0.8778 -0.2277 -1.2805
 3552SOL    HW222116   4.531   3.407   7.542  0.0182  0.3289  0.2955
 3553SOL     OW22117   3.788   2.799   0.635 -0.2849  0.3774 -0.9968
 3553SOL    HW122118   3.790   2.753   0.719 -1.5160  1.3880 -0.4216
 3553SOL    HW222119   3.739   2.741   0.576 -1.1588  0.4752 -0.3673
 3554SOL     OW22120   2.344   3.213   6.578  0.1139 -0.3813  0.6405
 3554SOL    HW122121   2.268   3.156   6.576 -0.0661 -0.1285  0.0784
 3554SOL    HW222122   2.333   3.247   6.489 -0.6767 -0.0219  0.8722
 3555SOL     OW22123   2.380   1.197   2.695  0.8723  0.8778  0.2372
 3555SOL    HW122124   2.398   1.109   2.728 -0.2410  0.6098  0.1239
 3555SOL    HW222125   2.342   1.174   2.610 -0.4036 -1.9049  1.5767
 3556SOL     OW22126   2.662   0.060   6.631  0.5400 -0.1957 -0.4484
 3556SOL    HW122127   2.581   0.101   6.660  0.0297  0.3839 -2.6516
 3556SOL    HW222128   2.667   4.709   6.692  1.0917 -0.0016 -0.2589
 3557SOL     OW22129   0.490   0.290   4.351 -0.1307 -0.2005 -0.2135
 3557SOL    HW122130   0.395   0.303   4.352 -0.1685 -0.4298 -0.6880
 3557SOL    HW222131   0.505   0.222   4.416  2.6532 -0.6638 -1.3432
 3558SOL     OW22132   0.237   4.060   1.898 -0.5847 -0.6009  0.0463
 3558SOL    HW122133   0.330   4.063   1.876 -0.5105 -0.8883  0.3331
 3558SOL    HW222134   0.223   4.142   1.946 -2.2249 -1.7107  1.4580
 3559SOL     OW22135   3.530   4.375   5.149  0.5051  0.0452  0.5327
 3559SOL    HW122136   3.479   4.294   5.147  1.0454 -0.3070  1.0269
 3559SOL    HW222137   3.517   4.416   5.063 -1.9331 -2.6523 -0.4163
 3560SOL     OW22138   1.891   0.873   6.151  0.4365 -0.1142 -0.5530
 3560SOL    HW122139   1.807   0.836   6.126 -0.9947  1.3135  2.1043
 3560SOL    HW222140   1.945   0.797   6.173  0.8670  0.4152  0.2617
 3561SOL     OW22141   3.932   2.825   1.126  0.7334  0.0118  0.0101
 3561SOL    HW122142   4.027   2.829   1.137  0.8472 -2.0337 -0.2593
 3561SOL    HW222143   3.910   2.827   1.219  2.6277  0.3382  0.4596
 3562SOL     OW22144   4.161   1.881   7.260  0.2668  0.5959 -0.6053
 3562SOL    HW122145   4.234   1.869   7.320  0.7558  1.2351 -1.0729
 3562SOL    HW222146   4.203   1.884   7.174 -0.1041 -0.5373 -0.8380
 3563SOL     OW22147   0.457   2.162   5.940 -0.5871 -0.0893  0.0868
 3563SOL    HW122148   0.543   2.121   5.951  0.2769  1.5785 -0.5120
 3563SOL    HW222149   0.467   2.208   5.857  1.5107 -0.8820 -0.0933
 3564SOL     OW22150   2.915   1.424   6.228 -0.1197 -0.2495  0.3299
 3564SOL    HW122151   2.891   1.472   6.148  1.4012  0.6992  0.4459
 3564SOL    HW222152   3.004   1.401   6.202 -0.3619  0.6465 -1.3031
 3565SOL     OW22153   0.028   1.564   6.886  0.7661  0.1847  0.4033
 3565SOL    HW122154   0.059   1.565   6.977  0.8265 -0.2157  0.3891
 3565SOL    HW222155   0.107   1.596   6.843  1.4888 -2.0513  0.0315
 3566SOL     OW22156   2.384   2.330   4.213 -0.5070  0.4641 -0.0663
 3566SOL    HW122157   2.455   2.302   4.270 -0.1865  0.2634 -0.5583
 3566SOL    HW222158   2.364   2.252   4.162  0.1892  0.8523 -0.9444
 3567SOL     OW22159   3.683   1.806   5.156 -0.3616 -0.3818  0.0989
 3567SOL    HW122160   3.765   1.824   5.110 -0.3671  0.3741  0.3936
 3567SOL    HW222161   3.637   1.882   5.120  1.6905 -0.6196 -3.0282
 3568SOL     OW22162   4.616   3.464   6.242 -0.0130 -0.0471 -0.4295
 3568SOL    HW122163   4.548   3.492   6.181 -0.7087  1.7528  1.2033
 3568SOL    HW222164   4.700   3.487   6.203 -0.1884 -1.1608 -1.4885
 3569SOL     OW22165   2.492   1.114   9.424  0.7776  0.0128  0.6217
 3569SOL    HW122166   2.541   1.078   9.498  1.2969 -2.1124 -0.7523
 3569SOL    HW222167   2.417   1.054   9.420  1.0116 -0.2148 -0.2196
 3570SOL     OW22168   0.189   2.004   7.746 -0.3567 -0.0523  0.8526
 3570SOL    HW122169   0.280   2.018   7.773 -0.0821  0.4031 -0.3133
 3570SOL    HW222170   0.141   2.012   7.829 -0.0192  1.2719  0.9288
 3571SOL     OW22171   2.888   3.494   7.329 -0.2728 -0.4330 -0.0357
 3571SOL    HW122172   2.941   3.416   7.344  0.6848 -0.0003 -1.2252
 3571SOL    HW222173   2.799   3.459   7.333 -0.1188 -0.8834 -0.6245
 3572SOL     OW22174   2.626   2.209  15.808 -0.2126  0.2541 -0.0893
 3572SOL    HW122175   2.677   2.166  15.877  0.6248  0.2734 -0.6874
 3572SOL    HW222176   2.611   2.297  15.842  3.5349  0.4922  0.9363
 3573SOL     OW22177   2.791   1.816  15.751  0.3945 -0.0416  0.2482
 3573SOL    HW122178   2.870   1.813  15.697 -0.4253  0.6867 -1.0057
 3573SOL    HW222179   2.812   1.872  15.826 -0.3908  3.0545 -1.8004
 3574SOL     OW22180   1.195   0.058   4.293 -0.1971  0.4233  0.7405
 3574SOL    HW122181   1.152   0.037   4.210 -0.8293  2.6231  0.5232
 3574SOL    HW222182   1.271   4.722   4.294  0.6329  1.5144 -0.5328
 3575SOL     OW22183   1.972   3.101   2.457 -0.1293  0.1503 -0.5074
 3575SOL    HW122184   1.965   3.107   2.552  1.7891  1.0976 -0.4263
 3575SOL    HW222185   1.982   3.008   2.436  3.5649  0.7317 -1.3841
 3576SOL     OW22186   3.567   4.663   3.513 -0.2453  0.3164  0.0073
 3576SOL    HW122187   3.529   0.028   3.519  0.1727  0.5296 -0.4488
 3576SOL    HW222188   3.508   4.624   3.449  1.6591 -2.5190 -0.0464
 3577SOL     OW22189   4.412   0.601   9.239  0.4507  0.3811  0.1660
 3577SOL    HW122190   4.494   0.594   9.190 -0.0507  1.3930 -0.8225
 3577SOL    HW222191   4.374   0.663   9.177  1.2355 -0.1560 -0.8417
 3578SOL     OW22192   1.506   2.932  12.688 -0.3244  0.4087 -0.5927
 3578SOL    HW122193   1.422   2.930  12.733 -0.7476  1.6800 -1.3237
 3578SOL    HW222194   1.559   2.878  12.746  0.0930  1.5368  0.0880
 3579SOL     OW22195   1.680   3.367   0.630 -0.0915 -1.0222  0.2122
 3579SOL    HW122196   1.736   3.398   0.559 -1.5315  1.4890  0.1928
 3579SOL    HW222197   1.612   3.432   0.646  2.3273  1.1150  1.7818
 3580SOL     OW22198   2.129   0.204  12.395 -0.6169 -0.0850  0.7894
 3580SOL    HW122199   2.168   0.118  12.378  0.0458  0.3185  0.2640
 3580SOL    HW222200   2.209   0.255  12.385 -1.0511  0.4283 -0.0280
 3581SOL     OW22201   0.266   0.791   2.651  0.7868  0.8881  0.1688
 3581SOL    HW122202   0.349   0.744   2.641  0.0039 -0.8876  1.9716
 3581SOL    HW222203   0.262   0.824   2.562 -1.0411  0.2054 -0.0111
 3582SOL     OW22204   4.212   1.681  16.555  0.4424  0.1824 -0.0210
 3582SOL    HW122205   4.167   1.699  16.472  0.4469  2.0626  0.3923
 3582SOL    HW222206   4.209   1.586  16.547 -1.4783  0.2845 -0.3286
 3583SOL     OW22207   2.573   3.178  11.132 -0.0685  0.4244 -0.0502
 3583SOL    HW122208   2.654   3.229  11.123 -1.1263  2.0910  0.1207
 3583SOL    HW222209   2.579   3.164  11.226  2.5326 -1.3806 -0.4513
 3584SOL     OW22210   0.749   4.567   2.593  0.2752  0.1946  0.0778
 3584SOL    HW122211   0.807   4.629   2.548  1.1480 -2.3907 -2.3475
 3584SOL    HW222212   0.667   4.599   2.556  1.8663  0.2090 -3.4561
 3585SOL     OW22213   2.696   1.573   3.476  0.3282 -0.2867  0.3243
 3585SOL    HW122214   2.622   1.521   3.447  0.8831 -0.2681 -1.0926
 3585SOL    HW222215   2.744   1.582   3.394  0.2066  0.4654  0.3350
 3586SOL     OW22216   1.404   0.430   5.255  0.3914  0.2527 -0.5018
 3586SOL    HW122217   1.318   0.412   5.293  0.7600 -2.0633 -0.7560
 3586SOL    HW222218   1.420   0.357   5.194 -2.1685 -1.3444  0.7255
 3587SOL     OW22219   3.030   1.181  14.915 -0.2611  0.1146  0.3236
 3587SOL    HW122220   3.027   1.128  14.995  2.3651 -0.0600  0.3017
 3587SOL    HW222221   2.937   1.184  14.895 -0.2660 -0.7931  0.2081
 3588SOL     OW22222   2.754   1.246  14.494 -0.1160 -0.2365 -0.2101
 3588SOL    HW122223   2.680   1.184  14.492  0.5663 -0.9669 -3.1152
 3588SOL    HW222224   2.701   1.324  14.508  1.4322  1.0751 -1.8215
 3589SOL     OW22225   2.286   0.374   8.866 -0.6537  0.0150  0.7033
 3589SOL    HW122226   2.300   0.310   8.936 -0.8539  0.1608  0.8758
 3589SOL    HW222227   2.356   0.436   8.883 -0.4854  0.1324 -0.4116
 3590SOL     OW22228   2.350   2.267   3.614  0.8978 -0.3942  0.3726
 3590SOL    HW122229   2.310   2.187   3.648  0.4466 -0.5745 -0.6012
 3590SOL    HW222230   2.440   2.250   3.642  0.8772  0.1534  0.7703
 3591SOL     OW22231   0.117   2.310   6.832 -0.1564 -0.6082 -0.7470
 3591SOL    HW122232   0.029   2.341   6.808 -0.5855 -1.6517 -0.4993
 3591SOL    HW222233   0.135   2.385   6.889 -1.6313 -2.2265  1.8376
 3592SOL     OW22234   4.250   3.160   2.565  0.3903 -0.6801  0.0281
 3592SOL    HW122235   4.188   3.162   2.492  0.3484 -0.1930  0.0748
 3592SOL    HW222236   4.332   3.173   2.517  0.3940 -0.3683  0.1170
 3593SOL     OW22237   2.291   4.716   5.741  0.2235 -0.6652 -0.1365
 3593SOL    HW122238   2.262   0.054   5.673 -0.9499 -1.5294 -0.3976
 3593SOL    HW222239   2.354   0.047   5.791 -1.3190  0.5396  0.5191
 3594SOL     OW22240   4.670   1.755   9.056 -0.0782  0.3523  0.0491
 3594SOL    HW122241   4.629   1.838   9.030 -1.7395  0.0158  1.6097
 3594SOL    HW222242   4.631   1.741   9.142 -0.2937 -0.5785 -0.2053
 3595SOL     OW22243   0.735   2.935   6.481 -0.3364 -0.0395  0.3524
 3595SOL    HW122244   0.782   2.908   6.403 -0.1472 -1.3909  0.9410
 3595SOL    HW222245   0.661   2.875   6.477 -0.7812  0.5262  0.0401
 3596SOL     OW22246   1.040   3.286   6.470 -0.1008 -0.4755 -0.8858
 3596SOL    HW122247   1.042   3.261   6.562 -0.1685 -0.2606 -0.8261
 3596SOL    HW222248   0.966   3.346   6.461  1.2631  1.4322  0.7579
 3597SOL     OW22249   3.220   1.104   9.236  0.5791  0.1124 -0.6949
 3597SOL    HW122250   3.241   1.150   9.317 -0.8103 -0.0987 -0.2053
 3597SOL    HW222251   3.301   1.095   9.186 -0.3226 -1.1696 -1.9280
 3598SOL     OW22252   0.120   1.359  16.991 -0.2336 -0.4067 -0.2581
 3598SOL    HW122253   0.054   1.402  16.937  0.5576 -0.1516 -1.0182
 3598SOL    HW222254   0.181   1.432  16.993 -2.0815  1.1043  0.1467
 3599SOL     OW22255   1.590   4.559  11.580  0.0586 -0.0061  0.0011
 3599SOL    HW122256   1.514   4.616  11.582 -0.6964 -1.0034 -0.2515
 3599SOL    HW222257   1.627   4.579  11.666  1.0575  1.8326 -0.8770
 3600SOL     OW22258   2.515   0.531  16.066  0.0645  0.2151 -0.5716
 3600SOL    HW122259   2.468   0.450  16.047  2.4264 -1.0823 -0.8841
 3600SOL    HW222260   2.473   0.596  16.010 -1.6824 -1.0092 -0.6712
 3601SOL     OW22261   2.902   2.167  16.802  0.3447  0.2214  0.5072
 3601SOL    HW122262   2.955   2.163  16.882  3.1268  2.7322 -1.2138
 3601SOL    HW222263   2.965   2.119  16.747 -0.7580  0.4385 -0.9412
 3602SOL     OW22264   0.348   1.439  10.939  0.2461 -0.1395 -0.8396
 3602SOL    HW122265   0.400   1.519  10.931 -1.2293  0.7871 -1.1940
 3602SOL    HW222266   0.389   1.386  11.007  1.2262  1.5184 -0.1462
 3603SOL     OW22267   0.926   1.609   7.220 -0.0256  0.6121  0.2805
 3603SOL    HW122268   0.973   1.634   7.300 -1.9765 -1.2450  1.9965
 3603SOL    HW222269   0.953   1.519   7.206  0.7119  0.5985  1.7733
 3604SOL     OW22270   1.655   1.761   4.445  0.0622  0.6354  0.2267
 3604SOL    HW122271   1.623   1.851   4.434 -0.3705  0.0744 -2.8866
 3604SOL    HW222272   1.585   1.742   4.507  0.2311  0.1066  0.2525
 3605SOL     OW22273   1.237   1.597  10.933  0.1029 -1.0510  0.4089
 3605SOL    HW122274   1.215   1.509  10.902 -2.5021 -0.0506 -0.6107
 3605SOL    HW222275   1.150   1.622  10.965 -0.6026 -1.5040 -1.1954
 3606SOL     OW22276   1.860   2.621   6.008 -0.1668  0.4233  0.4436
 3606SOL    HW122277   1.832   2.633   6.099  0.7519  1.2009  0.6160
 3606SOL    HW222278   1.806   2.690   5.970 -0.1508  0.6451  0.8318
 3607SOL     OW22279   0.155   2.802   7.738  0.3448 -0.2861  0.3703
 3607SOL    HW122280   0.144   2.742   7.811  0.0962 -0.2423  0.3696
 3607SOL    HW222281   0.147   2.740   7.667  2.4219  1.5709 -1.4693
 3608SOL     OW22282   1.137   3.316   3.045  0.2641 -0.2208 -0.1685
 3608SOL    HW122283   1.073   3.263   3.092  0.2693 -1.8022 -1.9605
 3608SOL    HW222284   1.194   3.353   3.113 -0.3629  0.7513 -0.1739
 3609SOL     OW22285   1.916   3.942   8.753 -0.0466  0.0053  0.3195
 3609SOL    HW122286   1.917   3.980   8.841 -1.8318  0.8664 -0.0505
 3609SOL    HW222287   1.969   3.866   8.778  1.3078  0.0117 -2.6070
 3610SOL     OW22288   3.612   2.423   2.610  0.5632 -0.1399  0.1328
 3610SOL    HW122289   3.632   2.331   2.625 -0.8207 -0.4138  0.2462
 3610SOL    HW222290   3.624   2.428   2.515 -0.3821  1.7623  0.1141
 3611SOL     OW22291   3.694   0.022   7.603  0.3096  0.4800 -0.3107
 3611SOL    HW122292   3.685   0.047   7.695  1.9858  0.1459 -0.0563
 3611SOL    HW222293   3.782   4.705   7.606  0.0413 -0.1888 -1.3198
 3612SOL     OW22294   0.689   3.516   7.110  0.0330 -0.0356 -0.2935
 3612SOL    HW122295   0.719   3.426   7.121 -2.1694 -0.8416 -0.9322
 3612SOL    HW222296   0.627   3.491   7.041  1.3518  1.8826 -2.1525
 3613SOL     OW22297   2.712   2.012   1.213  0.5923  0.3939  0.1437
 3613SOL    HW122298   2.674   1.924   1.203  3.4518 -0.4522 -3.2908
 3613SOL    HW222299   2.637   2.058   1.250 -1.2016 -1.2511 -1.4198
 3614SOL     OW22300   1.670   3.337   1.822 -0.0717  0.5655 -0.5230
 3614SOL    HW122301   1.730   3.272   1.788 -0.8672 -0.6338  0.3519
 3614SOL    HW222302   1.733   3.404   1.849  0.7418 -0.2890 -0.2946
 3615SOL     OW22303   0.997   1.071  15.782 -0.1523  0.6403 -0.0228
 3615SOL    HW122304   0.948   1.098  15.705  0.2169  1.2066 -0.0554
 3615SOL    HW222305   0.958   0.985  15.798  0.2680  0.0706 -2.1261
 3616SOL     OW22306   3.494   0.613   6.006 -0.0522 -0.8068  0.5528
 3616SOL    HW122307   3.491   0.704   5.976 -1.3069 -0.6014  1.2743
 3616SOL    HW222308   3.588   0.596   6.009  0.6463  2.8575 -1.3087
 3617SOL     OW22309   0.202   1.678   5.310  0.1668  0.2211  0.0140
 3617SOL    HW122310   0.285   1.639   5.338 -0.6217 -0.9622  0.7384
 3617SOL    HW222311   0.152   1.648   5.386 -0.2232 -1.2663 -0.8274
 3618SOL     OW22312   3.747   0.694   2.197 -0.6470 -0.6026  0.2616
 3618SOL    HW122313   3.727   0.772   2.249 -0.9741 -0.0291 -0.7148
 3618SOL    HW222314   3.697   0.706   2.116  0.0998  1.3479  0.0907
 3619SOL     OW22315   4.098   1.960   6.727 -0.7374  0.1900  0.1862
 3619SOL    HW122316   4.176   2.006   6.760 -0.4007 -0.5906  0.4791
 3619SOL    HW222317   4.040   2.031   6.699 -0.9389  1.2107  3.1410
 3620SOL     OW22318   2.410   1.753  16.065  0.2357  0.0696 -0.4543
 3620SOL    HW122319   2.442   1.681  16.011 -2.5297 -0.8834 -0.8595
 3620SOL    HW222320   2.342   1.700  16.107  1.7063 -0.2278  1.5729
 3621SOL     OW22321   0.910   3.421   2.583  0.6300 -0.2900 -0.2874
 3621SOL    HW122322   0.938   3.406   2.674 -3.4188  0.8552  1.1475
 3621SOL    HW222323   0.979   3.378   2.532 -1.1328 -1.1765 -1.9246
 3622SOL     OW22324   2.462   3.825   7.351 -0.0370 -0.2225 -0.4986
 3622SOL    HW122325   2.423   3.912   7.359 -0.6163 -0.2942 -2.3936
 3622SOL    HW222326   2.546   3.869   7.338 -0.7872  1.4483  0.3759
 3623SOL     OW22327   3.861   1.578   3.936  0.0100 -0.3160 -0.0608
 3623SOL    HW122328   3.776   1.585   3.891  0.2278 -2.4984 -0.7958
 3623SOL    HW222329   3.856   1.653   3.995  1.0459 -0.0221 -0.3531
 3624SOL     OW22330   2.688   1.316   9.423 -0.6343  0.5001 -0.6558
 3624SOL    HW122331   2.615   1.256   9.436 -0.4986  0.3353 -0.6687
 3624SOL    HW222332   2.693   1.357   9.510  1.2922 -1.1857  0.0087
 3625SOL     OW22333   1.531   0.831   8.288 -0.2451 -0.4398  0.1893
 3625SOL    HW122334   1.445   0.815   8.328 -1.2460 -0.5029 -1.9993
 3625SOL    HW222335   1.577   0.877   8.358 -1.8539 -0.0985  1.0229
 3626SOL     OW22336   3.859   3.656   2.984  0.3705  0.0238 -0.1049
 3626SOL    HW122337   3.811   3.692   3.058 -0.1957 -0.5266 -0.2034
 3626SOL    HW222338   3.930   3.613   3.032  1.4316  2.3914  0.4428
 3627SOL     OW22339   2.543   4.562  16.149 -0.0702 -0.1822 -0.3033
 3627SOL    HW122340   2.493   4.480  16.154  0.7562 -0.7298 -1.0371
 3627SOL    HW222341   2.566   4.560  16.057  1.5901  3.1155  0.0430
 3628SOL     OW22342   3.816   4.400   4.095  0.1157 -0.7769 -0.0632
 3628SOL    HW122343   3.868   4.330   4.055  1.3483 -0.0057  0.1826
 3628SOL    HW222344   3.839   4.391   4.188 -0.0366  1.0046  0.1570
 3629SOL     OW22345   2.434   0.787   9.306 -0.0179  0.4383 -0.0484
 3629SOL    HW122346   2.459   0.811   9.217 -1.8279  1.8492 -0.1657
 3629SOL    HW222347   2.377   0.857   9.338 -1.9869 -1.2555  0.1305
 3630SOL     OW22348   4.328   2.573  11.522 -0.0985 -0.7327  0.6020
 3630SOL    HW122349   4.417   2.608  11.515 -0.0161 -1.4565 -1.7001
 3630SOL    HW222350   4.337   2.483  11.494 -3.1962 -0.8897  0.0495
 3631SOL     OW22351   0.731   3.463   2.825 -0.1220  0.2796 -0.1299
 3631SOL    HW122352   0.814   3.482   2.867 -0.5251 -0.3331  0.9428
 3631SOL    HW222353   0.713   3.540   2.771  1.3892  0.4149 -0.4432
 3632SOL     OW22354   4.319   4.389   2.937  0.2614  0.1051  0.0418
 3632SOL    HW122355   4.381   4.344   2.879 -0.8366 -0.5138 -0.6403
 3632SOL    HW222356   4.376   4.456   2.976  1.4753 -1.2630  0.6379
 3633SOL     OW22357   4.505   3.795   8.344 -0.2457  0.0459 -0.1489
 3633SOL    HW122358   4.541   3.845   8.417 -1.1440 -0.9201  0.9575
 3633SOL    HW222359   4.578   3.739   8.317 -1.4961 -0.7687 -1.8456
 3634SOL     OW22360   2.726   4.009   7.807 -0.5167 -0.2868 -0.3523
 3634SOL    HW122361   2.671   3.973   7.876  0.8314  0.0963  0.9162
 3634SOL    HW222362   2.675   4.082   7.773 -0.2260  0.7136  1.4026
 3635SOL     OW22363   3.524   0.488   8.012 -0.3439 -0.2703 -0.2481
 3635SOL    HW122364   3.515   0.438   7.930 -1.0813 -1.2869  0.4404
 3635SOL    HW222365   3.441   0.535   8.014 -0.0812  0.0978  2.2698
 3636SOL     OW22366   4.646   3.220   8.200  0.7740  0.2699  0.4673
 3636SOL    HW122367   4.570   3.250   8.249  1.9691 -1.1688  3.2302
 3636SOL    HW222368   4.720   3.273   8.230  0.2015  1.6906 -0.6625
 3637SOL     OW22369   0.002   0.886   6.623  0.2428 -0.3805 -0.1694
 3637SOL    HW122370   4.722   0.966   6.675 -0.4850  0.5538 -1.6352
 3637SOL    HW222371   4.650   0.903   6.565 -0.2515 -1.4726  0.1356
 3638SOL     OW22372   4.668   0.491  11.896  0.1254  0.6818  0.0128
 3638SOL    HW122373   0.011   0.495  11.826 -0.6587  0.4812 -0.7279
 3638SOL    HW222374   4.593   0.527  11.848  0.1590 -0.0700 -0.5987
 3639SOL     OW22375   2.291   2.312  13.985 -0.3876 -0.1952 -0.2955
 3639SOL    HW122376   2.290   2.220  14.011  0.9235 -0.0811  0.1331
 3639SOL    HW222377   2.335   2.343  14.063  1.5633 -0.2979 -1.3716
 3640SOL     OW22378   3.711   3.523   3.833  0.3656 -0.2356  0.0638
 3640SOL    HW122379   3.683   3.517   3.924 -2.6690 -1.7956 -0.9927
 3640SOL    HW222380   3.790   3.577   3.841  0.1538  0.1659 -0.5831
 3641SOL     OW22381   4.087   3.350  13.183 -0.2080 -0.1330 -0.0257
 3641SOL    HW122382   4.136   3.307  13.113  0.0240 -1.0159  0.6730
 3641SOL    HW222383   4.112   3.440  13.163  0.1319 -0.0343  0.8386
 3642SOL     OW22384   0.390   4.469   2.742 -0.3996  0.1135 -0.2002
 3642SOL    HW122385   0.296   4.460   2.725 -0.8950 -0.8549  3.1229
 3642SOL    HW222386   0.427   4.450   2.656 -0.5609 -1.8326  0.1531
 3643SOL     OW22387   3.617   1.003   9.478  0.3227  0.0252 -0.1417
 3643SOL    HW122388   3.556   0.953   9.532  0.9026 -1.1231 -0.5545
 3643SOL    HW222389   3.656   1.047   9.554 -0.4602 -1.2074  0.9804
 3644SOL     OW22390   3.646   0.342   2.808 -0.2526  0.9511  0.3287
 3644SOL    HW122391   3.629   0.389   2.890 -1.2424  0.7143  0.2504
 3644SOL    HW222392   3.734   0.304   2.815  0.8507  3.2688 -0.6579
 3645SOL     OW22393   1.041   0.740   6.028  0.2359  0.5199 -0.1902
 3645SOL    HW122394   0.989   0.691   6.091  0.7233 -0.5577 -0.6372
 3645SOL    HW222395   0.980   0.745   5.955  1.7223 -0.4446 -1.4886
 3646SOL     OW22396   3.392   3.641   3.266  0.1227  0.2189 -1.2976
 3646SOL    HW122397   3.340   3.609   3.192  0.2781  0.4853 -1.5185
 3646SOL    HW222398   3.364   3.732   3.277 -0.3428 -0.4514  2.8967
 3647SOL     OW22399   2.808   2.896   9.512  0.7550  0.3894 -0.2322
 3647SOL    HW122400   2.812   2.844   9.592  0.4929  2.2392  0.9940
 3647SOL    HW222401   2.866   2.845   9.455  0.1549  0.7395 -1.1593
 3648SOL     OW22402   0.431   3.082   8.507 -0.7086 -0.2880  0.4666
 3648SOL    HW122403   0.516   3.056   8.543 -0.7267 -0.2196  0.5575
 3648SOL    HW222404   0.440   3.172   8.536  0.8045 -0.2869 -0.0456
 3649SOL     OW22405   2.815   1.140   2.630  0.4213  0.1808  0.3011
 3649SOL    HW122406   2.762   1.060   2.635 -0.6309  0.8826  0.4998
 3649SOL    HW222407   2.830   1.146   2.536  0.0298  1.2554  0.3016
 3650SOL     OW22408   3.285   1.604   9.037  0.7743  0.3595  0.1244
 3650SOL    HW122409   3.321   1.680   8.992 -0.4885  0.7737 -0.1834
 3650SOL    HW222410   3.318   1.534   8.981 -1.8006 -1.1887  0.5828
 3651SOL     OW22411   2.401   1.666  13.755  0.8025  0.3423  0.0430
 3651SOL    HW122412   2.360   1.639  13.673 -0.6903  3.4760 -0.2750
 3651SOL    HW222413   2.328   1.700  13.807  0.8829 -0.6867  0.8308
 3652SOL     OW22414   0.673   0.399   9.284  0.5906  0.1132  0.2394
 3652SOL    HW122415   0.729   0.366   9.214  1.6002  3.1192 -0.3939
 3652SOL    HW222416   0.683   0.335   9.354  3.0457 -0.4126 -0.5936
 3653SOL     OW22417   1.091   2.946   8.057 -0.1273 -0.1577  0.0696
 3653SOL    HW122418   1.160   2.929   8.121 -0.0247  0.1639  0.0427
 3653SOL    HW222419   1.010   2.915   8.097  0.0492  0.9861  1.2966
 3654SOL     OW22420   1.283   0.614   3.004  0.4043 -0.7066 -0.3710
 3654SOL    HW122421   1.224   0.540   2.996 -0.0519 -0.3471 -0.3713
 3654SOL    HW222422   1.227   0.689   3.027  0.4083 -0.5453 -0.9078
 3655SOL     OW22423   0.928   4.654   4.850 -0.0929 -0.1303 -0.8680
 3655SOL    HW122424   0.878   4.667   4.769 -1.2649 -1.8549 -0.4094
 3655SOL    HW222425   0.964   4.566   4.840  1.1700  0.1867  0.9826
 3656SOL     OW22426   3.667   0.175   8.470 -0.4657 -0.1051  0.4336
 3656SOL    HW122427   3.668   0.247   8.533  2.6692 -1.9571  2.5262
 3656SOL    HW222428   3.667   0.230   8.392  0.7538 -0.8810 -0.1194
 3657SOL     OW22429   0.628   0.220   1.281 -0.4297  0.3728  0.1707
 3657SOL    HW122430   0.634   0.309   1.316  0.3174 -0.1590  1.4148
 3657SOL    HW222431   0.603   0.240   1.191 -3.0659  0.8079  0.9837
 3658SOL     OW22432   0.034   2.690   3.345 -0.4560 -0.4623 -0.0818
 3658SOL    HW122433   0.119   2.693   3.302 -0.0648  0.4184  0.7520
 3658SOL    HW222434   0.054   2.704   3.438  0.7537  0.5913 -0.4998
 3659SOL     OW22435   1.308   2.138   4.294 -0.0575  0.1883  0.4958
 3659SOL    HW122436   1.286   2.223   4.256 -0.3589 -0.9597 -1.8725
 3659SOL    HW222437   1.318   2.074   4.224  0.9504  0.6372  0.2274
 3660SOL     OW22438   1.565   3.532   2.169 -0.5679 -0.1217  0.1416
 3660SOL    HW122439   1.486   3.585   2.174 -1.4812 -1.5206  0.5785
 3660SOL    HW222440   1.549   3.496   2.256 -1.2396  1.5656  0.7097
 3661SOL     OW22441   0.062   2.024  10.760  0.6118 -0.0553  0.6559
 3661SOL    HW122442   0.067   2.062  10.847  1.5363 -2.3136  1.5880
 3661SOL    HW222443   0.136   2.071  10.722 -1.5223  1.5504 -1.5114
 3662SOL     OW22444   4.153   1.035   7.194 -0.1936 -0.6926  0.0218
 3662SOL    HW122445   4.141   1.118   7.241  1.9198  0.7767 -2.0943
 3662SOL    HW222446   4.166   1.056   7.102 -0.1862  0.0817  0.1991
 3663SOL     OW22447   0.731   1.220   5.525 -0.4812  0.1545 -0.0450
 3663SOL    HW122448   0.696   1.138   5.491  0.1687 -0.7637  1.4793
 3663SOL    HW222449   0.823   1.198   5.540  0.0797  2.5970  0.1750
 3664SOL     OW22450   4.135   2.214   5.460  0.0070  0.6489  0.1570
 3664SOL    HW122451   4.128   2.153   5.534  3.2164  0.6220  0.4176
 3664SOL    HW222452   4.041   2.235   5.462  0.6167  3.4247 -1.1429
 3665SOL     OW22453   2.572   0.144  16.519 -0.3718 -0.5070  0.2044
 3665SOL    HW122454   2.524   0.226  16.519  1.8838  0.8126  1.1779
 3665SOL    HW222455   2.516   0.087  16.467  0.1411 -2.2284  1.5107
 3666SOL     OW22456   0.047   3.665   5.823  0.0685  0.1013  0.6167
 3666SOL    HW122457   0.097   3.600   5.872  0.9486  2.4229  2.8566
 3666SOL    HW222458   4.679   3.644   5.848  0.8938 -1.7363  2.0309
 3667SOL     OW22459   3.858   3.789   3.815 -0.3880  0.1248 -0.4856
 3667SOL    HW122460   3.815   3.873   3.832  0.3443  0.0376  1.8530
 3667SOL    HW222461   3.883   3.776   3.724  1.8446  0.1922  0.1104
 3668SOL     OW22462   0.871   4.094   4.427 -0.0742  0.4075  0.2983
 3668SOL    HW122463   0.843   4.002   4.431 -1.2437  0.7326 -0.4290
 3668SOL    HW222464   0.826   4.122   4.348  1.4118  1.3413 -0.2092
 3669SOL     OW22465   3.241   2.089  16.296 -0.0034 -0.3427 -0.1407
 3669SOL    HW122466   3.276   2.177  16.303 -1.2431  0.0603  0.8707
 3669SOL    HW222467   3.302   2.041  16.240 -0.3856 -0.5020 -0.4264
 3670SOL     OW22468   2.113   2.025   5.845  0.3453  0.2412  0.1848
 3670SOL    HW122469   2.207   2.040   5.856  0.8415 -0.3190 -3.1722
 3670SOL    HW222470   2.100   2.105   5.795 -2.1166  0.1580  0.7328
 3671SOL     OW22471   1.632   3.597   3.610 -0.0980 -0.5386 -0.3295
 3671SOL    HW122472   1.709   3.638   3.570 -0.3130 -0.5803 -0.7835
 3671SOL    HW222473   1.598   3.543   3.539 -2.9115 -1.4384  1.7015
 3672SOL     OW22474   3.905   1.008   7.517  0.3745  0.3539 -0.4075
 3672SOL    HW122475   3.859   1.072   7.571 -0.0581  1.1040 -1.6617
 3672SOL    HW222476   3.905   0.927   7.568  0.1361  1.1038  0.7828
 3673SOL     OW22477   3.169   2.970   4.605  0.3531  0.1912 -0.2754
 3673SOL    HW122478   3.245   3.027   4.596  1.8060 -1.5348  1.0947
 3673SOL    HW222479   3.148   2.948   4.514  0.0398  1.7622 -0.5762
 3674SOL     OW22480   2.586   1.387   0.337 -0.0788  0.6830 -0.5102
 3674SOL    HW122481   2.515   1.395   0.401 -0.7055  1.8808 -1.3616
 3674SOL    HW222482   2.637   1.316   0.376 -0.1663  1.8662  1.7550
 3675SOL     OW22483   0.903   0.495   1.268 -0.2335 -0.8089 -0.6500
 3675SOL    HW122484   0.882   0.514   1.177  0.0753  2.3307 -0.0606
 3675SOL    HW222485   0.905   0.399   1.274  1.1264 -0.6783  0.9713
 3676SOL     OW22486   3.658   4.091   0.795 -0.5196  0.2490  0.8497
 3676SOL    HW122487   3.623   4.140   0.869 -1.3339  0.7882  0.1132
 3676SOL    HW222488   3.597   4.117   0.726  0.8795  1.4937  0.0801
 3677SOL     OW22489   1.781   2.917  15.647  0.2000  0.0210  0.1312
 3677SOL    HW122490   1.843   2.854  15.684 -0.8955 -1.4929 -0.6246
 3677SOL    HW222491   1.707   2.912  15.707  0.4918 -4.1390  0.1511
 3678SOL     OW22492   3.291   3.821  16.930 -0.1501 -0.4558 -0.5383
 3678SOL    HW122493   3.298   3.732  16.895 -1.4577 -1.1066  0.8796
 3678SOL    HW222494   3.340   3.812  17.012 -3.3239 -1.5096  1.2420
 3679SOL     OW22495   1.600   1.033   1.833 -0.4150  0.5189 -0.5202
 3679SOL    HW122496   1.540   1.040   1.758 -0.4559 -0.0772 -0.5373
 3679SOL    HW222497   1.535   1.005   1.897 -0.2820  0.4174 -0.4293
 3680SOL     OW22498   1.242   0.953  15.895 -0.0783 -0.3005 -0.8191
 3680SOL    HW122499   1.221   0.952  15.988  0.7869 -1.2855 -0.6264
 3680SOL    HW222500   1.159   0.974  15.854 -1.1061  0.3786  1.5926
 3681SOL     OW22501   2.117   0.536   5.527 -0.3259  0.1918 -0.0175
 3681SOL    HW122502   2.097   0.506   5.438 -1.0771  0.8573 -0.0702
 3681SOL    HW222503   2.122   0.631   5.517  2.6203 -0.2224 -2.5800
 3682SOL     OW22504   0.076   2.343   5.933 -0.2041  0.1865 -0.2494
 3682SOL    HW122505   0.102   2.250   5.937  2.4953  1.0063  1.4240
 3682SOL    HW222506   0.032   2.346   6.018  1.6032 -0.9893  0.7254
 3683SOL     OW22507   1.580   0.927   4.914 -0.9391 -0.1001  0.1226
 3683SOL    HW122508   1.557   0.920   5.007 -2.5127 -0.8243 -0.3189
 3683SOL    HW222509   1.564   0.842   4.874 -0.2500  0.2093 -0.8045
 3684SOL     OW22510   3.268   3.355   5.781 -0.5247  0.0969 -0.1877
 3684SOL    HW122511   3.262   3.284   5.845  2.7064 -1.2836 -1.4250
 3684SOL    HW222512   3.356   3.343   5.745 -0.1877 -0.2576  0.7530
 3685SOL     OW22513   2.541   2.176   5.402  0.5077 -0.3857  0.2873
 3685SOL    HW122514   2.456   2.153   5.365  1.4807 -2.4353 -0.6354
 3685SOL    HW222515   2.532   2.269   5.425 -0.8337 -1.0481  2.4357
 3686SOL     OW22516   4.349   3.864   7.008 -0.0558  0.1512  0.0018
 3686SOL    HW122517   4.346   3.909   6.924  2.2940  0.6206  0.1605
 3686SOL    HW222518   4.324   3.923   7.079 -1.0960 -0.3417  0.0407
 3687SOL     OW22519   2.104   2.614   6.887  0.0679 -0.1395 -0.0912
 3687SOL    HW122520   2.023   2.578   6.849  1.5737 -0.2715 -3.1801
 3687SOL    HW222521   2.166   2.545   6.864 -0.3997 -0.6465  0.1543
 3688SOL     OW22522   4.015   1.004  10.253 -0.0401 -0.9874  0.4183
 3688SOL    HW122523   4.045   0.922  10.292  0.3591 -0.0937  1.9859
 3688SOL    HW222524   4.098   1.046  10.230  0.6870 -2.1543  0.9019
 3689SOL     OW22525   4.480   1.398   5.964  0.0066 -0.4459 -0.8009
 3689SOL    HW122526   4.477   1.327   5.899 -3.1181  0.2676 -1.4308
 3689SOL    HW222527   4.392   1.386   6.001  1.2401 -0.9945  1.8942
 3690SOL     OW22528   0.074   4.667  11.472  0.4633  0.3476  0.3561
 3690SOL    HW122529   0.085   0.033  11.436 -1.9457  0.0272 -1.1395
 3690SOL    HW222530   0.003   4.626  11.423 -0.9782  1.4619  1.5128
 3691SOL     OW22531   1.395   3.290   2.745 -0.2120 -0.1151  0.4030
 3691SOL    HW122532   1.334   3.219   2.727 -0.5928  0.7814 -1.8274
 3691SOL    HW222533   1.475   3.247   2.715 -1.9929 -2.2579 -1.2461
 3692SOL     OW22534   3.519   4.365   6.313 -0.2498  0.8972 -0.0494
 3692SOL    HW122535   3.565   4.437   6.355 -2.5878  1.4936  1.4676
 3692SOL    HW222536   3.479   4.325   6.390 -0.2396 -1.4255 -1.2233
 3693SOL     OW22537   0.989   2.899   7.814  0.0259  0.1228 -0.8095
 3693SOL    HW122538   0.961   2.810   7.838  0.8481 -0.7557 -3.1352
 3693SOL    HW222539   1.037   2.917   7.895  0.0016 -2.0390 -0.2977
 3694SOL     OW22540   1.120   0.150  10.357 -0.3167  0.2317 -0.5416
 3694SOL    HW122541   1.153   0.069  10.394 -1.5734  0.4640  1.0840
 3694SOL    HW222542   1.191   0.173  10.297 -0.2599  0.3876 -0.4111
 3695SOL     OW22543   4.258   3.243   8.863  0.5579 -0.1133 -0.4647
 3695SOL    HW122544   4.327   3.184   8.892 -0.7819 -1.0227  0.8614
 3695SOL    HW222545   4.178   3.192   8.877 -0.0456  0.7220 -0.8280
 3696SOL     OW22546   2.220   4.592  11.925  0.0993  0.4063 -0.4418
 3696SOL    HW122547   2.144   4.577  11.980 -0.5162 -0.0611 -1.4256
 3696SOL    HW222548   2.240   4.685  11.933 -2.0902  0.8419 -0.0973
 3697SOL     OW22549   0.857   4.278   1.641 -0.5025 -0.1832  0.4390
 3697SOL    HW122550   0.919   4.210   1.614 -0.7598  0.3734 -1.5934
 3697SOL    HW222551   0.803   4.274   1.562 -0.8821  2.2908  0.5693
 3698SOL     OW22552   4.399   0.472   4.105 -0.4625 -0.1820 -0.0615
 3698SOL    HW122553   4.391   0.391   4.155 -0.8746 -0.8458 -1.2047
 3698SOL    HW222554   4.438   0.451   4.021 -0.0888 -0.3859  0.1621
 3699SOL     OW22555   3.674   4.305  15.396  0.0180 -0.0349 -0.5200
 3699SOL    HW122556   3.621   4.230  15.369  2.0169 -2.2954  1.8017
 3699SOL    HW222557   3.654   4.313  15.490 -1.8446 -3.3427 -0.6254
 3700SOL     OW22558   4.452   3.240   6.944  0.5455 -0.0095 -0.6430
 3700SOL    HW122559   4.474   3.222   6.852 -1.1135 -1.6759 -0.7278
 3700SOL    HW222560   4.361   3.270   6.940  0.8818  1.0921  0.0610
 3701SOL     OW22561   3.626   1.033   8.332 -0.2345 -0.0248  0.0321
 3701SOL    HW122562   3.574   1.103   8.291 -2.6340 -0.9294  1.5367
 3701SOL    HW222563   3.631   0.967   8.263 -0.4746  1.5924 -1.5330
 3702SOL     OW22564   3.732   0.174  14.453  0.2182 -0.4156 -0.5240
 3702SOL    HW122565   3.816   0.201  14.490 -2.3471  0.8322  4.3238
 3702SOL    HW222566   3.708   0.108  14.517  0.5456 -0.3481 -0.3324
 3703SOL     OW22567   3.154   4.359   2.164 -0.3036 -0.2445  0.3282
 3703SOL    HW122568   3.163   4.266   2.180  3.2904  0.3524  1.6289
 3703SOL    HW222569   3.173   4.409   2.243 -1.6121  1.3298 -0.3252
 3704SOL     OW22570   2.244   3.710   1.109  0.0433  0.5332 -0.1681
 3704SOL    HW122571   2.287   3.769   1.046 -1.1159  0.4803 -1.0094
 3704SOL    HW222572   2.159   3.754   1.106  1.1702  2.8920  1.8823
 3705SOL     OW22573   3.788   1.286  10.059  0.9804  0.4834 -0.4295
 3705SOL    HW122574   3.697   1.303  10.036  1.0141  0.2850 -0.7179
 3705SOL    HW222575   3.784   1.195  10.087  0.8733  0.5965 -0.0762
 3706SOL     OW22576   1.563   2.791  12.103  0.1393 -0.2349 -0.4170
 3706SOL    HW122577   1.483   2.817  12.150  0.8674  3.0331 -0.9672
 3706SOL    HW222578   1.572   2.872  12.052 -0.9418  2.1610  3.1437
 3707SOL     OW22579   1.912   3.168   3.395 -0.3867  0.1904  0.4727
 3707SOL    HW122580   1.861   3.247   3.380  0.6377  0.9113  0.8022
 3707SOL    HW222581   1.999   3.195   3.368 -1.1385  1.4767 -0.6711
 3708SOL     OW22582   2.574   0.798   9.031 -0.6674 -0.1302 -0.2256
 3708SOL    HW122583   2.604   0.882   8.998 -1.4086  0.0576 -0.4131
 3708SOL    HW222584   2.648   0.760   9.079 -1.4542 -0.7459  0.5182
 3709SOL     OW22585   0.709   0.096  16.498 -0.0951 -0.1417  0.2811
 3709SOL    HW122586   0.801   0.117  16.481 -0.0331  1.7899  3.1384
 3709SOL    HW222587   0.719   0.074  16.590  1.0404 -1.8046 -0.2440
 3710SOL     OW22588   0.340   1.753   7.877 -0.2040  0.3646  0.1770
 3710SOL    HW122589   0.309   1.842   7.861  1.4458  0.6785 -1.2027
 3710SOL    HW222590   0.261   1.705   7.904  0.9056 -0.7736  1.3830
 3711SOL     OW22591   3.762   4.369   4.593 -0.0742  0.3990 -0.1639
 3711SOL    HW122592   3.697   4.431   4.627 -0.4093 -0.5409  0.8818
 3711SOL    HW222593   3.802   4.333   4.672 -0.2828  0.7236  0.0883
 3712SOL     OW22594   2.340   0.330  14.125  0.4011 -0.2455 -0.0430
 3712SOL    HW122595   2.281   0.301  14.055  0.8494 -1.0407 -0.0905
 3712SOL    HW222596   2.413   0.268  14.120  1.9089  1.3508  2.0358
 3713SOL     OW22597   3.631   0.962   5.390  0.3586 -0.1596 -0.3897
 3713SOL    HW122598   3.550   0.917   5.416  0.1722  1.3327  1.6200
 3713SOL    HW222599   3.621   0.960   5.295  4.0578  0.1795 -0.7771
 3714SOL     OW22600   4.196   1.354   9.018 -0.2059  0.2771  0.4026
 3714SOL    HW122601   4.291   1.342   9.023  0.1921  2.5100 -1.5822
 3714SOL    HW222602   4.192   1.300   8.939 -0.3879  0.1123  0.5232
 3715SOL     OW22603   3.251   3.060   7.811  0.4720  0.4009 -0.1921
 3715SOL    HW122604   3.272   3.152   7.828  0.8221  0.3268 -0.2263
 3715SOL    HW222605   3.218   3.069   7.721 -0.6652 -0.0446  0.1800
 3716SOL     OW22606   1.622   2.018  15.049  0.0177  0.6556 -0.1871
 3716SOL    HW122607   1.699   2.010  15.106  1.4342  0.7936 -2.0617
 3716SOL    HW222608   1.584   1.930  15.057  0.9084  0.1128 -1.7901
 3717SOL     OW22609   2.784   3.667   5.421  0.1803 -0.0307  0.0202
 3717SOL    HW122610   2.743   3.585   5.450  0.2400  0.3919  1.2911
 3717SOL    HW222611   2.831   3.681   5.503 -1.9047 -0.9511  1.3597
 3718SOL     OW22612   0.504   2.456   4.846  0.2829 -0.2452 -0.3005
 3718SOL    HW122613   0.521   2.468   4.752  2.6781 -0.6996  0.0648
 3718SOL    HW222614   0.556   2.524   4.888  1.1518 -0.6926 -0.6500
 3719SOL     OW22615   4.658   3.248   3.305  0.1055 -0.5883  0.4495
 3719SOL    HW122616   0.023   3.273   3.335 -1.1231  1.3322  2.3795
 3719SOL    HW222617   4.636   3.315   3.240 -1.7234  0.7814  2.4846
 3720SOL     OW22618   2.744   2.996   8.303  0.2001  0.3198 -0.5343
 3720SOL    HW122619   2.739   3.041   8.387  0.1647  1.3596 -1.0891
 3720SOL    HW222620   2.824   3.031   8.265  1.4954 -2.0529 -0.0121
 3721SOL     OW22621   3.007   4.241   4.817  0.1815 -0.0796 -0.3356
 3721SOL    HW122622   2.976   4.286   4.739  0.3734  1.3175  0.3951
 3721SOL    HW222623   3.006   4.311   4.882  1.2033  0.1401 -0.5631
 3722SOL     OW22624   2.905   2.899   1.472  0.3021  0.0107  0.4169
 3722SOL    HW122625   3.001   2.899   1.473  0.2784 -1.7367  1.7684
 3722SOL    HW222626   2.886   2.974   1.415 -1.0608 -0.6910 -0.0765
 3723SOL     OW22627   3.302   2.190  12.686  0.2512 -0.0619 -0.4651
 3723SOL    HW122628   3.271   2.261  12.631  1.4301 -0.2024 -1.3049
 3723SOL    HW222629   3.350   2.240  12.752 -1.6708  0.0423  0.8333
 3724SOL     OW22630   1.166   0.769  16.913  0.2849 -0.0336 -0.4197
 3724SOL    HW122631   1.172   0.845  16.971  3.5708  0.8928 -1.9638
 3724SOL    HW222632   1.087   0.783  16.861 -0.1872  1.5950  0.7451
 3725SOL     OW22633   0.407   0.233  14.832  0.1006 -0.5133  0.2542
 3725SOL    HW122634   0.356   0.297  14.882 -2.0252 -0.7619 -1.6061
 3725SOL    HW222635   0.367   0.257  14.749  1.5654 -1.6382 -0.7652
 3726SOL     OW22636   1.533   0.275   6.585 -0.3171  0.0148 -0.0899
 3726SOL    HW122637   1.497   0.319   6.662  1.1557  0.6713  0.2336
 3726SOL    HW222638   1.565   0.351   6.536 -0.2767  1.4169  2.0785
 3727SOL     OW22639   4.179   2.394   6.019  0.0132 -0.1245 -0.2218
 3727SOL    HW122640   4.099   2.353   6.052 -0.6103  0.0578 -1.5045
 3727SOL    HW222641   4.202   2.455   6.089 -3.8485  2.7171 -1.4432
 3728SOL     OW22642   2.388   4.117   7.262  0.0885  0.0971  0.3855
 3728SOL    HW122643   2.405   4.092   7.171  1.2986  1.1171  0.3316
 3728SOL    HW222644   2.293   4.109   7.269  0.0032  0.6925 -0.0199
 3729SOL     OW22645   2.161   1.940   2.686 -0.0864  0.7024 -0.6448
 3729SOL    HW122646   2.113   1.910   2.609 -1.2498  1.4538 -0.2171
 3729SOL    HW222647   2.148   1.861   2.739  2.1783 -0.5960 -1.9991
 3730SOL     OW22648   0.051   1.402  11.120 -0.2550  0.1966  0.3484
 3730SOL    HW122649   0.116   1.340  11.154 -1.9411 -0.7045  1.9442
 3730SOL    HW222650   0.102   1.480  11.100  1.1687 -0.4421  1.4332
 3731SOL     OW22651   1.649   2.170   4.473 -0.3962 -0.2094  0.4770
 3731SOL    HW122652   1.707   2.199   4.544 -1.3475  1.7882  0.4254
 3731SOL    HW222653   1.579   2.236   4.475  1.1052  1.3166  2.4775
 3732SOL     OW22654   3.851   2.982   6.111 -0.0666  0.3093  0.6769
 3732SOL    HW122655   3.775   3.039   6.095  0.6513  1.7756  2.4520
 3732SOL    HW222656   3.853   2.961   6.204  2.9644  0.3811  0.6280
 3733SOL     OW22657   4.061   3.708  13.368 -0.1738 -0.4453  0.8239
 3733SOL    HW122658   4.003   3.645  13.325  0.8406 -0.9065  0.1273
 3733SOL    HW222659   4.100   3.730  13.283  2.3607 -2.2845  1.5371
 3734SOL     OW22660   1.722   0.130   8.073 -0.0626  0.3922  0.0098
 3734SOL    HW122661   1.711   0.224   8.058 -1.7530  0.3228  0.8619
 3734SOL    HW222662   1.705   0.099   7.984 -0.1505  0.3911  0.0269
 3735SOL     OW22663   1.993   2.396   5.289  0.0413 -0.0824 -0.3987
 3735SOL    HW122664   2.014   2.313   5.245  1.5924  0.5949 -0.9236
 3735SOL    HW222665   1.993   2.456   5.215 -0.1735 -2.4019 -2.3021
 3736SOL     OW22666   3.423   0.041   6.385  0.3443 -0.1960  0.4094
 3736SOL    HW122667   3.518   0.029   6.397  0.4752  1.3419  0.9743
 3736SOL    HW222668   3.415   0.134   6.404  0.2945 -0.1467  0.1357
 3737SOL     OW22669   0.354   2.810   8.339  0.7802  0.0739 -0.2849
 3737SOL    HW122670   0.349   2.760   8.421 -0.2829  1.4706  0.4979
 3737SOL    HW222671   0.342   2.900   8.371  0.4225 -0.3298  0.7339
 3738SOL     OW22672   2.069   0.997   4.901  0.3196 -0.5240 -0.4815
 3738SOL    HW122673   2.098   1.014   4.991  1.8717  1.4278 -1.3676
 3738SOL    HW222674   1.979   1.030   4.897  0.6186  0.4910  1.1137
 3739SOL     OW22675   0.225   3.052   8.184  0.0962 -0.6285  0.3549
 3739SOL    HW122676   0.203   3.145   8.195  0.6985 -0.5074  0.5113
 3739SOL    HW222677   0.150   3.005   8.219 -0.1810  0.4973  1.2820
 3740SOL     OW22678   2.466   2.973   5.693  0.3055  0.0209  0.3487
 3740SOL    HW122679   2.401   2.932   5.636 -1.4327  2.2237  0.7536
 3740SOL    HW222680   2.433   3.062   5.701  1.5118  0.5687 -0.8228
 3741SOL     OW22681   4.118   0.637   9.477 -0.0957  0.3067 -0.5888
 3741SOL    HW122682   4.162   0.711   9.436 -0.3480  0.9888  0.3612
 3741SOL    HW222683   4.181   0.621   9.547 -1.3965  1.2132  0.7954
 3742SOL     OW22684   1.114   1.678   0.782  0.1879 -0.1364  0.2905
 3742SOL    HW122685   1.063   1.702   0.705 -0.2169 -2.1750 -0.0630
 3742SOL    HW222686   1.039   1.660   0.839  0.0145 -1.7546 -0.4502
 3743SOL     OW22687   3.057   0.998   4.603  0.0830  0.1957 -0.2299
 3743SOL    HW122688   3.072   0.920   4.550 -0.5467 -1.0523  1.4699
 3743SOL    HW222689   3.107   1.062   4.551 -1.9449  1.8708 -0.1281
 3744SOL     OW22690   4.595   1.758  17.082  0.2103 -0.0409 -0.3051
 3744SOL    HW122691   4.598   1.778  16.989  1.1834 -0.5533 -0.3837
 3744SOL    HW222692   4.561   1.836  17.126 -2.4743 -0.7127 -1.1973
 3745SOL     OW22693   0.251   0.013   1.719 -0.4322 -0.1281  0.5908
 3745SOL    HW122694   0.339   0.051   1.716  0.2953 -1.8985 -0.9466
 3745SOL    HW222695   0.244   4.660   1.659 -1.1405  1.2892 -1.0944
 3746SOL     OW22696   1.377   0.216  16.742 -0.9670 -0.6297 -0.5181
 3746SOL    HW122697   1.366   0.257  16.827 -0.5132 -0.4239 -0.5595
 3746SOL    HW222698   1.286   0.203  16.716 -1.3803 -0.9744  1.1257
 3747SOL     OW22699   4.594   0.811  17.228 -0.0569 -0.2493 -0.1403
 3747SOL    HW122700   4.546   0.872  17.285 -1.2059 -1.2475 -0.0449
 3747SOL    HW222701   4.519   0.782  17.177  0.2320  0.9731 -1.2494
 3748SOL     OW22702   4.328   3.641   8.557  0.4455 -0.1597  0.2123
 3748SOL    HW122703   4.262   3.594   8.506 -1.0301  2.3913 -0.1837
 3748SOL    HW222704   4.365   3.704   8.496  0.3017 -0.4200 -0.1418
 3749SOL     OW22705   3.476   2.661   2.521 -0.4380 -0.0123 -0.1038
 3749SOL    HW122706   3.525   2.711   2.586  0.3291 -0.3573 -0.4139
 3749SOL    HW222707   3.495   2.570   2.543  0.0955 -0.0076 -0.5218
 3750SOL     OW22708   3.474   3.117   3.041 -0.1852 -0.3007 -0.3473
 3750SOL    HW122709   3.531   3.176   2.992 -0.6080 -0.4179 -0.9847
 3750SOL    HW222710   3.426   3.180   3.096  1.0659  0.3751 -0.0273
 3751SOL     OW22711   4.105   1.461   2.474 -0.4941 -0.0663  0.3248
 3751SOL    HW122712   4.187   1.432   2.515 -0.1754 -2.5339 -2.0464
 3751SOL    HW222713   4.121   1.445   2.381 -0.6397 -0.1882  0.3202
 3752SOL     OW22714   2.664   2.339   5.678  0.0825  0.4228 -0.2346
 3752SOL    HW122715   2.713   2.421   5.675 -0.6902  0.8651 -0.9346
 3752SOL    HW222716   2.645   2.337   5.584 -1.6416 -0.7701  0.1485
 3753SOL     OW22717   2.566   1.967   8.557  0.2345  0.1670 -0.4188
 3753SOL    HW122718   2.562   1.880   8.517  0.7019  0.3281 -0.8051
 3753SOL    HW222719   2.638   1.952   8.618  0.6045 -0.7012 -1.0714
 3754SOL     OW22720   2.252   4.437  10.153  0.1781 -0.3489 -0.2056
 3754SOL    HW122721   2.217   4.367  10.099  1.0316  0.6561 -2.0495
 3754SOL    HW222722   2.333   4.409  10.195  0.4152  2.3111  1.1018
 3755SOL     OW22723   3.152   2.872   4.851  0.4205  0.6236  0.6479
 3755SOL    HW122724   3.173   2.889   4.759  0.4989 -0.1214  0.5232
 3755SOL    HW222725   3.213   2.799   4.864  1.0940  0.7999 -1.5002
 3756SOL     OW22726   4.578   0.781   2.661  0.4115  0.4807 -0.5395
 3756SOL    HW122727   4.557   0.774   2.568 -1.5911 -0.3378 -0.0298
 3756SOL    HW222728   4.642   0.711   2.674 -2.0143 -1.4186  1.0960
 3757SOL     OW22729   0.103   0.066   2.786 -0.3164 -0.0644  0.0789
 3757SOL    HW122730   0.138   0.155   2.783 -3.1558  1.0003 -1.1442
 3757SOL    HW222731   0.123   0.024   2.870  0.6612 -1.7584 -1.0012
 3758SOL     OW22732   3.915   0.507  13.036  0.0427  0.6518  0.0766
 3758SOL    HW122733   4.009   0.491  13.047  0.1535 -0.0031 -1.8991
 3758SOL    HW222734   3.902   0.466  12.951 -0.8620  1.2890 -0.0940
 3759SOL     OW22735   2.255   4.256   3.285 -0.1802  0.3205 -0.3284
 3759SOL    HW122736   2.210   4.277   3.203 -0.1782 -1.1780 -0.7120
 3759SOL    HW222737   2.267   4.162   3.275 -2.3317  0.0870 -0.7823
 3760SOL     OW22738   3.178   3.284  12.326 -0.3745  0.3938  0.1097
 3760SOL    HW122739   3.138   3.228  12.393 -1.8964 -0.6812 -1.6965
 3760SOL    HW222740   3.268   3.253  12.341 -0.4487 -0.0187 -0.2848
 3761SOL     OW22741   3.255   0.386  16.033 -0.0634  0.2229  0.4660
 3761SOL    HW122742   3.159   0.381  16.036 -0.0164 -1.3079 -0.2752
 3761SOL    HW222743   3.277   0.296  16.008  0.7882  0.5736 -0.0296
 3762SOL     OW22744   0.811   3.599  10.455  0.1751 -0.4155  0.1279
 3762SOL    HW122745   0.852   3.666  10.510 -0.1929 -0.8584  0.9552
 3762SOL    HW222746   0.790   3.651  10.378 -1.9392 -0.2725  0.7982
 3763SOL     OW22747   1.258   3.513   7.513 -0.0676  0.0325 -0.2579
 3763SOL    HW122748   1.216   3.588   7.555  0.4765  1.0381 -1.5297
 3763SOL    HW222749   1.187   3.454   7.536 -2.1914  1.8571 -2.2760
 3764SOL     OW22750   0.368   2.743   3.403  0.0327 -0.1598  0.0157
 3764SOL    HW122751   0.400   2.830   3.430  0.7557 -1.0072  1.8834
 3764SOL    HW222752   0.315   2.772   3.328  0.1026 -0.8652 -0.3031
 3765SOL     OW22753   0.504   4.584   6.351  0.1230 -0.3029  0.3402
 3765SOL    HW122754   0.539   4.648   6.289 -1.6007  1.7084  1.4831
 3765SOL    HW222755   0.577   4.580   6.413  1.2580  1.5958 -0.8738
 3766SOL     OW22756   1.178   0.264   2.203  0.5851  0.2328 -0.0515
 3766SOL    HW122757   1.260   0.313   2.192  1.0338 -0.3692  0.6243
 3766SOL    HW222758   1.220   0.178   2.208  0.4957  0.1000 -1.5894
 3767SOL     OW22759   1.059   4.620   2.861  0.0616  0.2718 -0.1987
 3767SOL    HW122760   1.015   4.557   2.805  0.0088  0.7167 -0.6580
 3767SOL    HW222761   1.153   4.600   2.854  0.2808  1.6507 -1.2126
 3768SOL     OW22762   3.501   3.578   4.706 -0.4056 -0.1876  0.2084
 3768SOL    HW122763   3.451   3.615   4.633  1.1820  2.3516  0.4178
 3768SOL    HW222764   3.592   3.604   4.694 -0.9202  1.1012 -0.9534
 3769SOL     OW22765   3.838   4.398  11.416  0.5355 -0.2082  0.4972
 3769SOL    HW122766   3.843   4.399  11.511  2.2300  1.4995  0.3986
 3769SOL    HW222767   3.840   4.303  11.404 -2.5298 -0.0758 -1.0445
 3770SOL     OW22768   3.957   1.046   9.231 -0.0922 -0.5729 -0.0227
 3770SOL    HW122769   3.935   1.116   9.293 -2.6705 -1.8808  0.5562
 3770SOL    HW222770   3.870   1.035   9.193 -1.3658 -0.3661  2.7777
 3771SOL     OW22771   3.985   3.764   6.928  0.0250 -0.5425 -0.1435
 3771SOL    HW122772   3.894   3.771   6.900  0.7098  2.5440 -1.6633
 3771SOL    HW222773   4.008   3.857   6.919 -0.3629 -0.4598 -0.2893
 3772SOL     OW22774   3.079   0.085   2.618 -0.3055  0.2968 -0.0795
 3772SOL    HW122775   3.071   0.150   2.688  2.0717  0.9632 -0.4298
 3772SOL    HW222776   3.021   0.015   2.649  1.0912 -0.3075  1.1381
 3773SOL     OW22777   3.651   4.170   5.808  0.8449 -0.0540 -0.2854
 3773SOL    HW122778   3.740   4.182   5.842  0.7843  0.8995 -0.4524
 3773SOL    HW222779   3.658   4.146   5.716 -0.4712  0.1792 -0.4529
 3774SOL     OW22780   4.077   2.614  11.943  0.1889  0.1503  0.3277
 3774SOL    HW122781   4.024   2.659  11.877 -2.0375 -1.0181  1.3060
 3774SOL    HW222782   4.158   2.625  11.894  0.8718 -1.4859  1.0851
 3775SOL     OW22783   1.967   2.515   4.116  0.1272  0.1013 -0.6187
 3775SOL    HW122784   1.922   2.487   4.196 -0.3724  1.1355 -0.5445
 3775SOL    HW222785   2.017   2.434   4.101  0.2192  0.1076 -0.3447
 3776SOL     OW22786   2.732   1.805  15.139 -0.4003 -0.7040  0.2641
 3776SOL    HW122787   2.738   1.855  15.221  1.8661 -0.3415 -0.1201
 3776SOL    HW222788   2.656   1.749  15.155 -1.4184  0.4357 -0.6052
 3777SOL     OW22789   3.623   1.938   0.177 -0.2494  0.0629 -0.1669
 3777SOL    HW122790   3.586   1.872   0.120 -0.5162 -2.8353  3.3597
 3777SOL    HW222791   3.618   2.009   0.114 -3.5350 -0.9656 -1.0823
 3778SOL     OW22792   4.619   1.280   3.413 -0.2357  0.2811  0.0708
 3778SOL    HW122793   4.532   1.285   3.373 -0.4543 -1.5716  0.2823
 3778SOL    HW222794   4.602   1.306   3.504  0.0231 -1.3542  0.5989
 3779SOL     OW22795   0.609   0.807  14.595  0.0963  0.3650  0.4205
 3779SOL    HW122796   0.526   0.761  14.586  1.2312 -1.1075 -2.3624
 3779SOL    HW222797   0.631   0.832  14.506  2.0104  4.4854  2.0237
 3780SOL     OW22798   4.638   0.287   9.894 -0.5014 -0.4097  0.0899
 3780SOL    HW122799   4.594   0.260   9.812 -1.5238  3.1599 -0.5530
 3780SOL    HW222800   4.591   0.240   9.963  1.6526 -1.3997  0.8447
 3781SOL     OW22801   3.072   4.651   5.446  0.1699  0.2996  0.6244
 3781SOL    HW122802   3.134   4.624   5.513  1.4407  0.1436 -0.6154
 3781SOL    HW222803   2.990   4.627   5.488 -0.3455 -1.8849 -1.6627
 3782SOL     OW22804   2.535   4.167  16.959 -0.6515 -0.3572  0.0774
 3782SOL    HW122805   2.585   4.144  17.037 -0.3732  1.0928  0.3307
 3782SOL    HW222806   2.448   4.131  16.978  0.1504 -1.1483  2.1720
 3783SOL     OW22807   0.821   2.303   1.796  0.0910  0.1360 -0.2293
 3783SOL    HW122808   0.737   2.318   1.840  0.4847 -1.5841  1.0978
 3783SOL    HW222809   0.879   2.319   1.870 -1.0574  0.0709  0.6683
 3784SOL     OW22810   2.119   0.921  14.101  0.5016  0.4327 -0.0123
 3784SOL    HW122811   2.188   0.917  14.034  1.2033 -3.2797  0.9351
 3784SOL    HW222812   2.142   1.001  14.149  1.3975  0.4743 -0.5010
 3785SOL     OW22813   2.296   3.954   2.857 -0.2713  0.4587  0.0026
 3785SOL    HW122814   2.317   3.904   2.778 -1.4848 -2.7105  1.6925
 3785SOL    HW222815   2.201   3.939   2.858 -0.2719  0.5247  0.7300
 3786SOL     OW22816   3.410   2.994  16.907  0.2161  0.2035 -0.1361
 3786SOL    HW122817   3.443   2.904  16.897  0.8564  0.4033  0.1462
 3786SOL    HW222818   3.484   3.045  16.874  1.5425 -0.2486  2.1708
 3787SOL     OW22819   3.877   0.547   7.806  0.3417 -0.1029 -0.3655
 3787SOL    HW122820   3.916   0.460   7.794  1.4745  0.4031 -0.3782
 3787SOL    HW222821   3.930   0.604   7.749  2.5174 -2.3435 -0.5749
 3788SOL     OW22822   2.258   1.744   4.516 -0.3125  0.7256 -0.0089
 3788SOL    HW122823   2.231   1.678   4.453  0.3238  0.7577 -0.3139
 3788SOL    HW222824   2.342   1.780   4.488  1.3051 -2.3128  0.9432
 3789SOL     OW22825   2.206   2.353   5.555 -0.2533 -0.1705 -0.0361
 3789SOL    HW122826   2.224   2.440   5.520  0.6115  0.5672  2.2356
 3789SOL    HW222827   2.270   2.295   5.513 -1.6402 -1.5914 -0.1702
 3790SOL     OW22828   3.904   1.694   0.491  0.0633 -0.4136  0.4428
 3790SOL    HW122829   3.995   1.696   0.461 -0.6838 -0.1641 -1.8022
 3790SOL    HW222830   3.916   1.615   0.543  0.9141 -0.9406 -0.5543
 3791SOL     OW22831   4.134   4.288  13.465  0.0104 -0.7399 -0.2776
 3791SOL    HW122832   4.151   4.381  13.455 -0.3812 -0.6425 -0.0450
 3791SOL    HW222833   4.053   4.304  13.514 -0.1257 -0.4066 -0.6110
 3792SOL     OW22834   3.506   1.736   2.281  0.4647 -0.3280  0.0981
 3792SOL    HW122835   3.498   1.640   2.278 -0.5888 -0.1737 -1.8957
 3792SOL    HW222836   3.473   1.756   2.368  0.5309 -0.4560  0.1525
 3793SOL     OW22837   2.649   0.974  14.788 -0.0456  0.0462 -0.2061
 3793SOL    HW122838   2.561   0.964  14.751  0.9898 -1.3763 -2.2882
 3793SOL    HW222839   2.703   0.994  14.712 -1.4040  0.9782 -0.9344
 3794SOL     OW22840   2.775   2.060   4.212 -0.1608  0.1327  0.5216
 3794SOL    HW122841   2.782   1.975   4.169 -2.4846  0.2826 -0.1740
 3794SOL    HW222842   2.691   2.086   4.174  0.4800 -0.6526 -1.4089
 3795SOL     OW22843   0.859   2.199   4.558  0.0687 -0.4500  0.4517
 3795SOL    HW122844   0.766   2.221   4.551  0.2146 -0.1377 -0.5207
 3795SOL    HW222845   0.883   2.205   4.465  1.9018 -0.4948  0.9241
 3796SOL     OW22846   2.748   1.190   0.425  0.3136 -0.0861 -0.8595
 3796SOL    HW122847   2.683   1.131   0.464  1.2856 -0.4839  0.1846
 3796SOL    HW222848   2.756   1.162   0.334  0.9409  0.7080 -1.0417
 3797SOL     OW22849   4.204   1.395  14.216 -0.2882  0.1891 -0.2582
 3797SOL    HW122850   4.263   1.408  14.142 -0.3711  1.3884 -0.1113
 3797SOL    HW222851   4.247   1.453  14.279 -0.9191 -1.4965  1.7364
 3798SOL     OW22852   1.641   1.598  14.440 -0.1910  0.5132 -0.5076
 3798SOL    HW122853   1.583   1.668  14.471 -1.3460  0.5193 -2.6615
 3798SOL    HW222854   1.600   1.518  14.474  0.3101  0.1238 -0.8140
 3799SOL     OW22855   0.060   1.715  12.648 -0.6445 -0.0632  0.4061
 3799SOL    HW122856   0.122   1.654  12.690 -2.2942 -1.8047  0.2898
 3799SOL    HW222857   0.111   1.794  12.629  1.5243 -1.7369 -0.7739
 3800SOL     OW22858   3.971   2.069   2.681  0.4592  0.1537 -0.3014
 3800SOL    HW122859   3.968   2.121   2.601 -2.3533  0.0164 -0.3007
 3800SOL    HW222860   4.029   2.130   2.725  0.3783  1.4605 -2.0362
 3801SOL     OW22861   0.416   0.877   7.393  0.2217  0.1952 -0.5885
 3801SOL    HW122862   0.395   0.806   7.453  1.3389 -0.2704 -0.7460
 3801SOL    HW222863   0.426   0.954   7.450 -0.4335  0.3459 -0.6710
 3802SOL     OW22864   0.322   3.831   7.442  0.3535  0.3363  0.2421
 3802SOL    HW122865   0.237   3.827   7.399  1.5014 -3.4208 -1.7576
 3802SOL    HW222866   0.361   3.743   7.441 -0.1113  0.1332 -0.5082
 3803SOL     OW22867   2.373   2.588   8.510  0.1189 -0.0814 -0.1752
 3803SOL    HW122868   2.325   2.523   8.561 -0.3107 -1.0110 -1.7792
 3803SOL    HW222869   2.371   2.568   8.416  0.9764  1.0213 -0.4288
 3804SOL     OW22870   0.184   0.469  13.562 -0.0547 -0.3959  0.2848
 3804SOL    HW122871   0.213   0.548  13.607 -1.3012  0.1516  0.1506
 3804SOL    HW222872   0.236   0.403  13.607  2.0811  1.8606  1.1039
 3805SOL     OW22873   1.982   1.475  11.495 -0.3569  0.7363 -0.0318
 3805SOL    HW122874   1.990   1.546  11.431 -2.1315 -0.0887 -1.1784
 3805SOL    HW222875   1.998   1.529  11.572  1.6955  0.4611 -0.2473
 3806SOL     OW22876   0.754   4.431   6.748 -0.5697 -0.1535  0.0187
 3806SOL    HW122877   0.761   4.494   6.820  0.1736 -0.1271 -0.0765
 3806SOL    HW222878   0.713   4.361   6.798 -1.1506  0.3403  0.2275
 3807SOL     OW22879   4.533   2.178   1.326  0.6523  0.0261  0.8286
 3807SOL    HW122880   4.474   2.248   1.352  2.7291  1.7430  0.9308
 3807SOL    HW222881   4.592   2.186   1.401 -1.6278 -1.8084  2.8246
 3808SOL     OW22882   4.407   2.149   7.212 -0.0586  0.1234  0.2444
 3808SOL    HW122883   4.480   2.209   7.197 -0.1211  0.1171 -0.0934
 3808SOL    HW222884   4.447   2.100   7.283 -1.6300  0.5581  1.4228
 3809SOL     OW22885   2.144   0.836   1.011  0.9259 -0.6652  0.2874
 3809SOL    HW122886   2.133   0.930   1.025 -1.8302 -0.9494  0.0553
 3809SOL    HW222887   2.133   0.841   0.917 -1.3315  1.2360  0.6525
 3810SOL     OW22888   3.367   1.827   7.419 -0.3835 -0.2851 -0.3001
 3810SOL    HW122889   3.320   1.745   7.406 -0.0945 -0.5580  0.4174
 3810SOL    HW222890   3.418   1.841   7.339 -2.8188 -0.7511 -1.9549
 3811SOL     OW22891   3.346   2.718   4.521  1.2393 -0.1866 -0.6862
 3811SOL    HW122892   3.345   2.712   4.617 -0.8537 -0.6970 -0.7592
 3811SOL    HW222893   3.419   2.780   4.512  0.6170  0.8583  1.4268
 3812SOL     OW22894   1.250   1.687   9.445  0.4001  0.1988 -0.3861
 3812SOL    HW122895   1.212   1.753   9.387 -0.6442 -0.2853 -0.2485
 3812SOL    HW222896   1.175   1.632   9.467  1.7385 -1.0068  1.2080
 3813SOL     OW22897   3.248   3.463   8.511 -0.1573  0.4539 -0.1325
 3813SOL    HW122898   3.180   3.529   8.504 -0.0223  0.6388  0.2842
 3813SOL    HW222899   3.256   3.450   8.606  0.3552  2.3666  0.0931
 3814SOL     OW22900   3.391   3.364   4.825  0.0504 -0.0284  0.1583
 3814SOL    HW122901   3.444   3.433   4.785 -1.0284 -0.3731 -1.8766
 3814SOL    HW222902   3.368   3.407   4.907 -1.6208 -1.6062  0.5202
 3815SOL     OW22903   2.925   0.607   3.911 -0.4154  0.1361  0.3851
 3815SOL    HW122904   2.855   0.629   3.850  0.7025 -1.7259 -1.5954
 3815SOL    HW222905   2.996   0.662   3.876 -0.5758  0.6057  0.8028
 3816SOL     OW22906   1.207   1.697   3.704 -0.1975  0.3973 -0.1408
 3816SOL    HW122907   1.301   1.698   3.685  0.5280  1.0548  3.5669
 3816SOL    HW222908   1.178   1.755   3.633 -0.4322 -0.0521 -0.4135
 3817SOL     OW22909   2.873   0.343   3.709  0.2623 -0.0099 -0.1654
 3817SOL    HW122910   2.894   0.350   3.803 -0.2011  2.5974 -0.2489
 3817SOL    HW222911   2.862   0.248   3.700 -0.8767  0.2604 -1.5467
 3818SOL     OW22912   1.964   0.721   3.657 -0.2515 -0.6114  0.4548
 3818SOL    HW122913   2.012   0.790   3.704 -0.7923  0.6607 -0.8501
 3818SOL    HW222914   2.034   0.656   3.655  0.5915  0.3787 -1.7286
 3819SOL     OW22915   4.537   1.787   4.477 -0.0353 -0.6223  0.2181
 3819SOL    HW122916   4.443   1.774   4.486 -0.0947 -0.3003  0.0996
 3819SOL    HW222917   4.543   1.773   4.383 -0.4129  0.6463 -0.0025
 3820SOL     OW22918   1.614   2.627   3.847  0.4821 -0.0759  0.1021
 3820SOL    HW122919   1.656   2.624   3.933  0.6556 -0.2231  0.0126
 3820SOL    HW222920   1.664   2.701   3.811  1.0860  0.5497  2.2522
 3821SOL     OW22921   1.084   0.845   4.108 -0.1730 -0.3237 -0.3041
 3821SOL    HW122922   1.013   0.795   4.068  0.8833 -1.3629 -0.8628
 3821SOL    HW222923   1.036   0.925   4.129 -1.0270 -0.3766 -2.0127
 3822SOL     OW22924   1.704   4.180  13.480  0.0902 -0.3247  0.3743
 3822SOL    HW122925   1.794   4.204  13.455  0.2019 -0.3563  0.7487
 3822SOL    HW222926   1.726   4.110  13.540  0.8538 -0.6288 -0.2599
 3823SOL     OW22927   1.924   1.271   2.801 -0.6732  0.3547  0.0710
 3823SOL    HW122928   1.908   1.329   2.727 -0.0723 -0.9209 -1.0645
 3823SOL    HW222929   1.930   1.182   2.764 -0.4791  0.8336 -1.0505
 3824SOL     OW22930   1.769   4.638   2.009  0.0709 -0.7407  0.0769
 3824SOL    HW122931   1.772   4.565   1.948 -1.5123 -0.2631 -0.5448
 3824SOL    HW222932   1.675   4.652   2.004  0.0156 -1.5547 -1.0109
 3825SOL     OW22933   0.619   1.371   7.934  0.5744 -0.8334  0.1600
 3825SOL    HW122934   0.548   1.309   7.947 -0.5405  1.0716  3.1298
 3825SOL    HW222935   0.578   1.454   7.959  3.8687  0.0536  2.6885
 3826SOL     OW22936   3.178   1.226   3.801  0.3642 -0.3175 -0.3037
 3826SOL    HW122937   3.121   1.151   3.818 -0.3969  0.2761 -0.2176
 3826SOL    HW222938   3.223   1.202   3.721 -0.0059 -1.4269 -0.1738
 3827SOL     OW22939   2.481   3.006  14.812  0.1021 -0.1752 -0.7588
 3827SOL    HW122940   2.551   2.952  14.776 -0.2711 -0.8977 -0.3836
 3827SOL    HW222941   2.401   2.959  14.787 -1.0959  0.4155  1.9670
 3828SOL     OW22942   0.228   4.303  13.203 -0.1013  0.0062  0.0611
 3828SOL    HW122943   0.275   4.302  13.286 -2.0212  2.3332  1.1588
 3828SOL    HW222944   0.243   4.218  13.161 -0.0050 -1.2651  2.6941
 3829SOL     OW22945   2.344   4.627   5.175  0.1580 -0.4256 -0.4751
 3829SOL    HW122946   2.382   4.540   5.164 -0.0468 -0.7080  1.0441
 3829SOL    HW222947   2.284   4.625   5.101 -1.0861  2.6597  0.4483
 3830SOL     OW22948   1.085   3.586  10.240  0.1101 -0.2700  0.2971
 3830SOL    HW122949   1.085   3.520  10.309  5.0611  0.3584  0.8579
 3830SOL    HW222950   1.123   3.661  10.284 -2.8259  1.5777 -0.2705
 3831SOL     OW22951   1.204   3.331   8.239 -0.0016 -0.4108  0.0168
 3831SOL    HW122952   1.153   3.407   8.267 -1.8955 -1.1489 -1.4337
 3831SOL    HW222953   1.223   3.287   8.322  2.3119  0.4153 -0.0742
 3832SOL     OW22954   1.827   1.566  13.850  0.1435  0.1949  0.4034
 3832SOL    HW122955   1.784   1.491  13.893  0.4286 -0.0388  0.2802
 3832SOL    HW222956   1.781   1.634  13.898 -2.2814 -0.9465 -0.2803
 3833SOL     OW22957   2.179   0.810  13.684  0.2071  1.0635 -0.3797
 3833SOL    HW122958   2.203   0.833  13.594  1.8286 -1.8026 -0.6519
 3833SOL    HW222959   2.200   0.893  13.728  2.1769  0.9206 -1.0672
 3834SOL     OW22960   3.010   4.586   1.793  0.0337  0.1515 -0.5127
 3834SOL    HW122961   2.944   4.612   1.857  0.2487  1.1097 -0.6852
 3834SOL    HW222962   2.963   4.560   1.714  0.7274  0.5264 -1.0536
 3835SOL     OW22963   4.076   1.291   0.454 -0.6904  0.6369 -0.6818
 3835SOL    HW122964   4.028   1.312   0.534 -0.6272 -2.0896  0.0964
 3835SOL    HW222965   4.003   1.245   0.411 -0.2491 -0.3677 -0.3751
 3836SOL     OW22966   0.572   4.518   4.307 -1.0280 -0.0182 -0.0102
 3836SOL    HW122967   0.575   4.608   4.274  1.8782 -0.8112 -1.8529
 3836SOL    HW222968   0.600   4.471   4.229 -1.1450 -0.8623  0.4644
 3837SOL     OW22969   2.702   3.036  10.898  0.0200  0.1611  0.3239
 3837SOL    HW122970   2.641   3.092  10.849 -0.4729 -2.3801 -1.9449
 3837SOL    HW222971   2.690   3.074  10.985 -1.0273 -0.0923  0.2899
 3838SOL     OW22972   4.440   4.027   9.093  0.2301  0.0806 -0.5780
 3838SOL    HW122973   4.371   4.070   9.042  0.3881  3.0674  1.6920
 3838SOL    HW222974   4.515   4.050   9.038 -0.6964 -1.6542 -2.5890
 3839SOL     OW22975   0.466   2.118   5.038 -0.4714  0.0700 -0.2521
 3839SOL    HW122976   0.485   2.030   5.070 -1.5117 -0.6782 -1.6329
 3839SOL    HW222977   0.388   2.115   4.982 -0.0448 -1.2916 -0.7637
 3840SOL     OW22978   4.678   3.041   3.083 -0.0829 -0.0401  0.0083
 3840SOL    HW122979   0.022   3.104   3.056  1.0588 -0.8543  0.8542
 3840SOL    HW222980   4.659   3.066   3.174 -0.3671 -1.9254  0.4765
 3841SOL     OW22981   3.023   3.334   2.019 -0.5592 -0.0225 -0.5828
 3841SOL    HW122982   3.103   3.385   2.009 -0.5186 -0.1774 -1.0417
 3841SOL    HW222983   2.976   3.383   2.086  0.8498 -1.8256  1.7591
 3842SOL     OW22984   0.467   2.024   7.826 -0.0329  0.0415  0.4389
 3842SOL    HW122985   0.526   1.961   7.786 -0.0657  0.5004 -0.3373
 3842SOL    HW222986   0.522   2.103   7.825  0.0210 -0.0253 -0.8978
 3843SOL     OW22987   2.066   2.020   4.230 -0.1329  0.1787  0.3471
 3843SOL    HW122988   2.134   2.021   4.297  0.8669  3.3428 -0.7156
 3843SOL    HW222989   1.982   2.024   4.277  0.3843  1.0681  1.1939
 3844SOL     OW22990   2.566   1.217  15.160  0.1250  0.2945  0.0310
 3844SOL    HW122991   2.560   1.306  15.193  0.4920  0.2544  0.2126
 3844SOL    HW222992   2.479   1.193  15.128  0.0176  1.3846 -0.4989
 3845SOL     OW22993   3.676   0.894   4.671  0.3281  0.0074 -0.1500
 3845SOL    HW122994   3.739   0.923   4.736  1.7335  0.6703 -1.8003
 3845SOL    HW222995   3.611   0.852   4.727  0.1547  2.8955  1.7818
 3846SOL     OW22996   1.642   0.492   6.470 -0.5252  0.5812  0.1970
 3846SOL    HW122997   1.727   0.515   6.432 -0.7370 -1.7718 -1.7145
 3846SOL    HW222998   1.652   0.537   6.554  0.1314 -0.9581  0.9511
 3847SOL     OW22999   4.545   1.545  11.406 -0.2569 -0.0565  0.2708
 3847SOL    HW123000   4.482   1.615  11.422 -0.4458  0.3650 -2.2484
 3847SOL    HW223001   4.577   1.537  11.496  2.1764 -1.8339 -0.7685
 3848SOL     OW23002   2.126   3.903   1.499 -0.3758  0.2866 -0.1701
 3848SOL    HW123003   2.148   3.994   1.517  1.3326 -0.8366  3.3506
 3848SOL    HW223004   2.034   3.909   1.473 -0.2666 -1.5666 -0.9817
 3849SOL     OW23005   4.052   1.010   8.965  0.3414  0.5268  0.8869
 3849SOL    HW123006   4.036   1.059   9.045 -2.4493  0.9876  0.0652
 3849SOL    HW223007   4.048   1.083   8.902 -2.1699  1.2497  1.8658
 3850SOL     OW23008   0.119   0.524   6.577 -0.3248 -0.0569  0.4049
 3850SOL    HW123009   0.102   0.434   6.552  0.2960  0.4363 -1.7392
 3850SOL    HW223010   0.034   0.563   6.556  0.3370 -0.0406 -2.1558
 3851SOL     OW23011   1.115   1.153   2.906  0.6946 -0.1681 -0.3418
 3851SOL    HW123012   1.033   1.196   2.933  2.1868  2.7047 -0.4527
 3851SOL    HW223013   1.085   1.073   2.862 -0.6657  0.5558 -0.7402
 3852SOL     OW23014   1.958   3.843   0.352  0.3270 -0.2214 -0.4180
 3852SOL    HW123015   1.940   3.929   0.390 -3.9001 -1.0329 -0.5901
 3852SOL    HW223016   2.051   3.842   0.371  0.5255  1.6332 -1.3106
 3853SOL     OW23017   3.090   1.391   3.343 -0.5176 -0.1072  0.1512
 3853SOL    HW123018   3.062   1.433   3.261  1.9349  2.2275  0.4872
 3853SOL    HW223019   3.153   1.329   3.306  1.2122  1.2858  0.7222
 3854SOL     OW23020   3.774   3.961   2.902 -0.4359  0.5791  0.2982
 3854SOL    HW123021   3.725   3.926   2.828  1.9999  0.8058 -1.4366
 3854SOL    HW223022   3.838   3.893   2.920 -0.9669 -0.0014 -0.0333
 3855SOL     OW23023   2.211   4.334   8.248 -0.2454 -0.4673 -0.2751
 3855SOL    HW123024   2.261   4.253   8.260 -0.7709 -0.6879  0.4579
 3855SOL    HW223025   2.123   4.306   8.272 -0.2858  1.0102  1.2758
 3856SOL     OW23026   1.824   3.814   4.273 -0.3247 -0.0702  0.0460
 3856SOL    HW123027   1.818   3.724   4.307 -4.1296  0.3049  0.4167
 3856SOL    HW223028   1.832   3.858   4.358 -1.6573  0.8549 -0.2951
 3857SOL     OW23029   4.431   1.792   1.539  0.6335 -0.0319 -0.0664
 3857SOL    HW123030   4.444   1.704   1.573 -3.0865  0.4753  2.6333
 3857SOL    HW223031   4.340   1.802   1.567  0.5108  0.7598 -0.7398
 3858SOL     OW23032   3.551   3.702   7.627  0.0867  0.5342 -0.1399
 3858SOL    HW123033   3.523   3.610   7.624 -0.1116  0.5884  0.2024
 3858SOL    HW223034   3.590   3.719   7.541  1.4803 -0.4261  0.2941
 3859SOL     OW23035   4.710   3.063   0.811  0.0228 -0.6036 -0.2006
 3859SOL    HW123036   0.002   2.970   0.832 -3.9375 -1.3068 -0.5658
 3859SOL    HW223037   0.069   3.087   0.766  0.7999 -0.3926  1.3279
 3860SOL     OW23038   4.614   2.623   3.118 -0.7049 -0.1135  0.2547
 3860SOL    HW123039   4.657   2.542   3.144 -0.2790  0.0900  0.1736
 3860SOL    HW223040   4.651   2.681   3.185 -2.2217  0.9322  0.2061
 3861SOL     OW23041   0.124   1.895   6.653 -0.5830  0.1827 -0.2416
 3861SOL    HW123042   0.030   1.897   6.670 -0.2617  0.4548  1.5549
 3861SOL    HW223043   0.161   1.977   6.685 -0.5317 -0.8344  2.3298
 3862SOL     OW23044   2.762   0.129   2.419  0.6604 -1.0771 -0.2162
 3862SOL    HW123045   2.670   0.146   2.435  0.3502 -2.2729 -0.6703
 3862SOL    HW223046   2.763   0.035   2.400  1.7600 -1.3593  1.2204
 3863SOL     OW23047   0.456   2.194   9.054 -0.1742  0.8992 -0.2246
 3863SOL    HW123048   0.515   2.261   9.087 -0.8065  0.3139  2.0688
 3863SOL    HW223049   0.428   2.178   9.144 -0.6496 -0.6544 -0.6436
 3864SOL     OW23050   1.385   1.319   9.490 -0.5493 -0.5160 -0.0372
 3864SOL    HW123051   1.376   1.414   9.498  1.7922 -0.1189 -2.0428
 3864SOL    HW223052   1.342   1.291   9.570 -0.7287 -1.3035 -0.4103
 3865SOL     OW23053   4.265   1.977   3.591  0.0162 -0.3353  0.3698
 3865SOL    HW123054   4.350   2.004   3.626 -0.2726  0.7601  0.2477
 3865SOL    HW223055   4.211   2.030   3.649  1.3333 -2.7190  3.7705
 3866SOL     OW23056   3.331   3.146   5.954  0.0917  0.6174 -0.1700
 3866SOL    HW123057   3.406   3.128   6.011 -0.0564  1.3862  0.2564
 3866SOL    HW223058   3.291   3.206   6.016  0.1939  1.1244 -0.5919
 3867SOL     OW23059   3.409   1.474  12.245  0.6145 -0.2341  0.0399
 3867SOL    HW123060   3.407   1.507  12.335  0.8133 -0.9990  0.3214
 3867SOL    HW223061   3.475   1.406  12.248  0.2314 -0.4954  2.3641
 3868SOL     OW23062   0.157   3.910  15.789  0.1394  0.3307 -0.2066
 3868SOL    HW123063   0.098   3.857  15.736  0.4693 -2.1872  1.9816
 3868SOL    HW223064   0.151   3.991  15.739  1.3721  1.2599  1.1555
 3869SOL     OW23065   4.238   2.374  16.878  0.2237  0.5208 -0.0240
 3869SOL    HW123066   4.225   2.334  16.792 -1.0879 -0.9135  0.8459
 3869SOL    HW223067   4.225   2.309  16.948 -1.8445  1.6314  0.6242
 3870SOL     OW23068   3.917   2.527   2.415  0.0020  0.8045 -0.4589
 3870SOL    HW123069   3.830   2.543   2.377 -0.2933  1.6750  0.5905
 3870SOL    HW223070   3.971   2.589   2.367  0.2492  1.0781  0.1813
 3871SOL     OW23071   3.194   4.230  17.563 -0.8740  0.4134  0.3970
 3871SOL    HW123072   3.219   4.198  17.650  0.3835 -1.7406 -0.7821
 3871SOL    HW223073   3.248   4.177  17.505 -0.9398 -0.0851  0.7964
 3872SOL     OW23074   4.167   2.244   7.311  0.3619 -0.1253  0.5863
 3872SOL    HW123075   4.243   2.198   7.275  0.8692 -0.2170  1.7767
 3872SOL    HW223076   4.215   2.316   7.352 -0.5036  0.1593  1.0744
 3873SOL     OW23077   1.975   2.067  17.221 -0.3945  0.3013 -0.0442
 3873SOL    HW123078   2.025   1.995  17.259 -0.9862 -0.6892 -1.1642
 3873SOL    HW223079   1.983   2.139  17.284 -0.2603  1.3054 -1.2170
 3874SOL     OW23080   1.586   4.678   5.674  0.3328  0.6770  0.4143
 3874SOL    HW123081   1.652   4.690   5.743  0.9858 -0.5801  0.0157
 3874SOL    HW223082   1.550   0.044   5.665 -2.1733 -0.6088 -2.0626
 3875SOL     OW23083   0.393   4.381  13.438 -0.1682  0.5094 -0.5699
 3875SOL    HW123084   0.438   4.463  13.461  2.7464 -1.8127  1.9842
 3875SOL    HW223085   0.367   4.362  13.529  1.7792  0.2398 -0.0776
 3876SOL     OW23086   0.012   4.441   2.932  0.2586 -0.4618  0.1971
 3876SOL    HW123087   0.011   4.383   3.008  0.7002  0.9881  1.3142
 3876SOL    HW223088   0.090   4.494   2.950 -1.5534  2.4891 -0.6513
 3877SOL     OW23089   0.784   3.216   7.356 -0.2182  0.0955  0.5835
 3877SOL    HW123090   0.762   3.123   7.361  0.4286 -0.0779  0.2252
 3877SOL    HW223091   0.766   3.238   7.265  1.7890  0.4335  0.2686
 3878SOL     OW23092   1.757   2.127   0.441  0.2800  0.3650  0.2293
 3878SOL    HW123093   1.665   2.119   0.414  0.5017 -2.6628  0.3504
 3878SOL    HW223094   1.772   2.045   0.488  0.2196 -0.0843 -0.5308
 3879SOL     OW23095   0.350   1.305   2.762  0.3318  0.2863 -0.4320
 3879SOL    HW123096   0.421   1.359   2.797 -0.5479  1.5181 -0.5045
 3879SOL    HW223097   0.370   1.215   2.786  0.4442  0.2377 -0.7153
 3880SOL     OW23098   3.934   4.101  14.142 -0.0991 -0.1664 -0.1909
 3880SOL    HW123099   4.020   4.075  14.173  0.3358 -0.0988 -1.3424
 3880SOL    HW223100   3.895   4.137  14.221  0.6059 -2.7792  1.3586
 3881SOL     OW23101   0.299   0.964   5.132  0.0332  0.4696 -0.3559
 3881SOL    HW123102   0.245   1.028   5.178 -0.4908 -0.0142 -0.2919
 3881SOL    HW223103   0.336   0.916   5.207  0.3007  2.6693  0.9195
 3882SOL     OW23104   3.106   0.190   3.851  0.7746  0.5405  0.0938
 3882SOL    HW123105   3.158   0.135   3.792 -1.8691 -1.0150 -0.7641
 3882SOL    HW223106   3.179   0.245   3.881  0.8543  1.0093 -0.9591
 3883SOL     OW23107   0.685   1.067   2.722 -0.4868  0.3661 -0.5307
 3883SOL    HW123108   0.705   1.133   2.655 -0.9697 -0.4465 -1.4878
 3883SOL    HW223109   0.712   0.990   2.670 -2.1109 -0.9286  0.5713
 3884SOL     OW23110   1.049   3.071  16.170  0.0991 -0.1917 -0.1587
 3884SOL    HW123111   1.048   3.153  16.119  0.5092  0.0246  0.1765
 3884SOL    HW223112   0.964   3.036  16.144  0.6754 -0.2434 -1.9966
 3885SOL     OW23113   0.587   2.889   9.028  0.6449  0.1885  0.3665
 3885SOL    HW123114   0.662   2.907   8.972  1.5319 -1.1265  1.1467
 3885SOL    HW223115   0.598   2.800   9.061  2.9071  1.4126  2.8829
 3886SOL     OW23116   4.003   1.626   7.943  0.3353  0.1150 -0.0843
 3886SOL    HW123117   3.916   1.621   7.982  1.2473  0.3563  2.0115
 3886SOL    HW223118   4.003   1.537   7.909 -0.3906 -0.8409  2.4444
 3887SOL     OW23119   3.040   3.392   7.682 -0.0913 -0.5457 -0.1597
 3887SOL    HW123120   2.956   3.405   7.638 -1.2833  0.0977  2.2959
 3887SOL    HW223121   3.016   3.354   7.766 -1.1925 -0.9312 -0.6524
 3888SOL     OW23122   4.173   0.602   1.608 -0.6734 -0.1381  0.0329
 3888SOL    HW123123   4.180   0.582   1.515  2.3716  0.1766  0.1892
 3888SOL    HW223124   4.078   0.612   1.608 -0.6257  0.3436 -1.5825
 3889SOL     OW23125   0.174   3.321  15.317 -0.2117  0.7055  0.1046
 3889SOL    HW123126   0.207   3.402  15.278 -1.2824  0.7547 -0.7092
 3889SOL    HW223127   0.256   3.271  15.316 -2.0887 -2.3711 -0.7857
 3890SOL     OW23128   3.926   3.534  17.519 -0.2678  0.0969 -0.2302
 3890SOL    HW123129   3.956   3.573  17.437  2.1222 -1.2954 -0.0055
 3890SOL    HW223130   3.878   3.461  17.482 -0.8086  0.6878 -0.7035
 3891SOL     OW23131   2.622   2.676   3.707 -0.1244  0.2135 -0.1765
 3891SOL    HW123132   2.661   2.625   3.778 -0.7149 -0.2930 -0.2139
 3891SOL    HW223133   2.694   2.737   3.691 -0.8448  0.8862 -0.8737
 3892SOL     OW23134   1.514   1.999   6.887  0.5583 -0.3663 -0.0443
 3892SOL    HW123135   1.528   2.009   6.982  2.4718 -1.3996 -0.2151
 3892SOL    HW223136   1.597   1.969   6.851 -0.0321 -1.6759 -0.2903
 3893SOL     OW23137   1.039   0.308  12.869 -0.4563 -0.6290 -0.4040
 3893SOL    HW123138   1.114   0.336  12.816 -2.2584  0.3161 -2.4927
 3893SOL    HW223139   0.974   0.374  12.845 -1.1394  0.1243  3.5484
 3894SOL     OW23140   3.481   3.652   3.765  0.1373  0.3311 -0.2163
 3894SOL    HW123141   3.472   3.628   3.673  1.8179  1.3977 -0.6614
 3894SOL    HW223142   3.567   3.618   3.789 -0.8460 -2.2643 -0.4225
 3895SOL     OW23143   3.567   2.866  10.664  0.4034  0.0209  0.1861
 3895SOL    HW123144   3.515   2.817  10.728  1.8730 -0.4558  1.0200
 3895SOL    HW223145   3.506   2.933  10.632  0.4278 -0.5321 -1.0182
 3896SOL     OW23146   4.491   4.366  17.046 -0.5477 -0.0397 -0.1852
 3896SOL    HW123147   4.577   4.325  17.050  0.0256  1.2483  0.5254
 3896SOL    HW223148   4.504   4.414  16.965  0.0632 -0.1691 -0.1615
 3897SOL     OW23149   1.188   2.191   6.399 -0.4420 -0.0528 -0.1239
 3897SOL    HW123150   1.231   2.105   6.396 -1.8176 -0.7487  0.0250
 3897SOL    HW223151   1.228   2.231   6.322  3.0531 -0.3823  1.5246
 3898SOL     OW23152   2.616   1.413   2.611 -0.3605 -0.2793 -0.0010
 3898SOL    HW123153   2.634   1.359   2.534  1.0636  0.4329 -0.1664
 3898SOL    HW223154   2.540   1.370   2.650 -1.0216  1.6430  0.8534
 3899SOL     OW23155   0.144   0.353   7.256 -0.4157  0.0681  0.5912
 3899SOL    HW123156   0.130   0.275   7.203  1.8266 -0.0594  0.1637
 3899SOL    HW223157   0.216   0.329   7.315  1.5720 -1.3778 -2.4027
 3900SOL     OW23158   2.841   4.129   6.732 -0.1604  0.4569  0.5387
 3900SOL    HW123159   2.770   4.070   6.709 -0.4736 -0.0234  2.6953
 3900SOL    HW223160   2.820   4.208   6.682  1.9611  0.4120 -0.4113
 3901SOL     OW23161   2.928   1.125   3.517  0.1671  0.6047 -0.1682
 3901SOL    HW123162   2.885   1.166   3.592  0.4142  1.1964 -0.3517
 3901SOL    HW223163   2.875   1.045   3.509 -0.2553  0.4622  4.0168
 3902SOL     OW23164   0.836   2.331   4.067 -0.7473  0.0774  0.6597
 3902SOL    HW123165   0.765   2.281   4.026  0.6541 -0.2722 -1.3411
 3902SOL    HW223166   0.892   2.335   3.990 -0.8046 -0.4161  0.5928
 3903SOL     OW23167   1.395   0.557   9.364 -0.0782 -0.0620 -0.5563
 3903SOL    HW123168   1.328   0.619   9.336  1.1311  0.7262 -1.7149
 3903SOL    HW223169   1.454   0.550   9.288 -2.0070  1.5336 -2.1945
 3904SOL     OW23170   1.545   0.013  11.289  0.0799  0.0957 -0.4812
 3904SOL    HW123171   1.632   4.701  11.272  0.0940 -0.2174  0.2025
 3904SOL    HW223172   1.498   4.657  11.319 -0.8927  0.4653 -1.0552
 3905SOL     OW23173   3.194   4.402   3.765 -0.6748  0.0297 -0.0427
 3905SOL    HW123174   3.129   4.336   3.790 -0.0879 -0.7125 -0.4698
 3905SOL    HW223175   3.267   4.363   3.812 -1.2744 -0.5128  0.4400
 3906SOL     OW23176   2.465   2.137  17.311 -0.4778 -0.1001  0.6914
 3906SOL    HW123177   2.373   2.162  17.302 -0.6875 -0.9964  0.3791
 3906SOL    HW223178   2.472   2.060  17.255 -0.4444 -0.5812  1.3643
 3907SOL     OW23179   2.872   3.131   9.669  0.3379  0.3286  1.0225
 3907SOL    HW123180   2.888   3.050   9.623  0.3421 -0.3607  2.2305
 3907SOL    HW223181   2.934   3.128   9.742  1.3565  2.2136  0.2277
 3908SOL     OW23182   2.867   2.367   1.285 -0.0954 -0.4318  0.0653
 3908SOL    HW123183   2.880   2.439   1.223 -0.7388  1.3835  2.0351
 3908SOL    HW223184   2.940   2.380   1.346 -0.2840  1.8358 -0.2000
 3909SOL     OW23185   3.202   2.551   3.218  0.1821  0.2724  0.4055
 3909SOL    HW123186   3.161   2.637   3.223 -1.0721 -0.4146  2.2636
 3909SOL    HW223187   3.296   2.567   3.217  0.4960 -1.5017  1.6402
 3910SOL     OW23188   2.778   1.900   7.271 -0.1368  0.4018  0.1131
 3910SOL    HW123189   2.694   1.911   7.316  0.6900 -2.3483  2.3560
 3910SOL    HW223190   2.757   1.966   7.205 -2.5318  1.7720  2.2712
 3911SOL     OW23191   1.500   1.884  13.495 -0.5184  0.0012  0.4856
 3911SOL    HW123192   1.537   1.893  13.583  0.7965  1.3517 -0.1976
 3911SOL    HW223193   1.445   1.806  13.499  1.9011 -1.5113  3.8189
 3912SOL     OW23194   2.579   1.413   6.554  0.0802  0.3164 -0.6009
 3912SOL    HW123195   2.567   1.372   6.640 -1.8550 -2.7865 -2.3814
 3912SOL    HW223196   2.609   1.500   6.581 -0.8052  0.3308  0.3631
 3913SOL     OW23197   0.970   4.630   5.903  0.2681  0.0153 -0.0863
 3913SOL    HW123198   0.900   4.662   5.847  0.0444  0.9920  0.7450
 3913SOL    HW223199   0.917   4.557   5.935 -0.5402  0.7964  0.3831
 3914SOL     OW23200   1.359   2.107  12.994 -0.4735  0.2417  0.1760
 3914SOL    HW123201   1.388   2.033  13.047 -0.9476  0.6813  1.0625
 3914SOL    HW223202   1.365   2.180  13.056  2.6549 -1.1037  1.4429
 3915SOL     OW23203   1.383   2.784   6.045  0.4435  0.4428  0.0470
 3915SOL    HW123204   1.375   2.798   6.139  1.5588 -1.9505  0.5093
 3915SOL    HW223205   1.384   2.874   6.013 -0.2383  0.6676  0.6708
 3916SOL     OW23206   2.291   3.689   1.384  0.9320 -0.0081  0.0712
 3916SOL    HW123207   2.238   3.759   1.424 -2.6972 -2.2187 -0.8840
 3916SOL    HW223208   2.255   3.692   1.295 -1.2686  0.7157  0.9657
 3917SOL     OW23209   2.192   2.395   4.423 -0.2664  0.3847  0.1426
 3917SOL    HW123210   2.226   2.423   4.508  1.9789 -0.3082 -0.5227
 3917SOL    HW223211   2.273   2.379   4.375 -0.9420 -3.2048  0.1981
 3918SOL     OW23212   1.570   3.469  10.776 -0.3640 -0.2267  0.0113
 3918SOL    HW123213   1.638   3.507  10.720 -0.7624  0.1408 -0.2297
 3918SOL    HW223214   1.593   3.376  10.775 -0.4643 -0.2421 -0.6736
 3919SOL     OW23215   2.610   1.735  14.871 -0.0877 -0.1855  0.0758
 3919SOL    HW123216   2.574   1.715  14.958 -0.2018 -1.5191 -0.2728
 3919SOL    HW223217   2.535   1.707  14.817 -0.4150  1.6356 -0.4184
 3920SOL     OW23218   0.970   1.475   6.100 -0.1945  0.1919 -0.0087
 3920SOL    HW123219   1.042   1.523   6.058 -0.2914  1.3889  1.1798
 3920SOL    HW223220   0.939   1.540   6.164  1.6282  0.4984  0.5571
 3921SOL     OW23221   1.804   3.861   5.731 -0.0629 -0.5104  0.0965
 3921SOL    HW123222   1.876   3.856   5.668 -0.8248  0.5862 -0.8741
 3921SOL    HW223223   1.802   3.768   5.755 -0.4460 -0.3869  0.5373
 3922SOL     OW23224   4.294   0.649   5.354 -0.0666 -0.3707 -0.4055
 3922SOL    HW123225   4.314   0.656   5.447 -1.2580 -3.8201  0.0959
 3922SOL    HW223226   4.226   0.717   5.349  0.3312  0.0460 -0.1013
 3923SOL     OW23227   0.815   0.874   2.049  0.2959 -0.1865  0.1239
 3923SOL    HW123228   0.720   0.872   2.060  0.5205  2.4609  2.6044
 3923SOL    HW223229   0.822   0.849   1.957  0.0585  0.2261 -0.0087
 3924SOL     OW23230   0.511   0.681  13.009  0.8222 -0.7790 -0.2417
 3924SOL    HW123231   0.580   0.615  13.017  0.4627 -1.3186 -1.5683
 3924SOL    HW223232   0.430   0.629  13.011  0.7589 -0.6551  0.3532
 3925SOL     OW23233   0.513   2.203   4.147 -0.0436  0.2087  0.8823
 3925SOL    HW123234   0.509   2.193   4.052 -0.5036  2.6589  0.6392
 3925SOL    HW223235   0.490   2.295   4.157 -2.4837 -0.3496  0.4045
 3926SOL     OW23236   1.893   1.716  17.520  0.3900  0.0805 -0.2356
 3926SOL    HW123237   1.928   1.731  17.608 -0.7490  0.1581  0.2023
 3926SOL    HW223238   1.834   1.643  17.539  0.5926  0.2852  1.2075
 3927SOL     OW23239   4.680   1.785  15.055  0.4747  0.1730 -0.0501
 3927SOL    HW123240   0.008   1.825  15.127  0.4792  0.4581 -0.2105
 3927SOL    HW223241   4.594   1.769  15.095 -0.6740  1.6086 -1.9391
 3928SOL     OW23242   3.925   4.643   7.695  0.3431 -0.0811  0.5410
 3928SOL    HW123243   3.948   4.550   7.690  1.3906  0.2380 -0.7086
 3928SOL    HW223244   4.012   4.680   7.677  0.2984 -0.6704 -0.8936
 3929SOL     OW23245   0.718   3.598   2.389  0.1538  0.6035 -0.1676
 3929SOL    HW123246   0.758   3.579   2.304 -0.8001 -0.7032 -0.3388
 3929SOL    HW223247   0.709   3.509   2.422  1.2329  0.0242 -1.4418
 3930SOL     OW23248   3.270   3.390   4.469  0.4000 -1.0312  0.4340
 3930SOL    HW123249   3.319   3.315   4.502 -0.8321 -1.9514  0.1932
 3930SOL    HW223250   3.181   3.355   4.465  0.7908 -1.8316 -1.5025
 3931SOL     OW23251   3.446   1.436  15.601 -0.1824 -0.4680 -0.2412
 3931SOL    HW123252   3.396   1.428  15.682  0.6295 -2.6447  0.0404
 3931SOL    HW223253   3.436   1.348  15.566 -1.0931 -0.2491 -0.5414
 3932SOL     OW23254   3.914   1.789   0.177  0.2860 -0.0588 -0.2698
 3932SOL    HW123255   3.904   1.696   0.154 -0.2043  0.2000 -1.1078
 3932SOL    HW223256   4.009   1.800   0.168  0.7258 -3.7266 -0.0670
 3933SOL     OW23257   1.150   3.045   9.878  0.5952 -0.4301  0.3540
 3933SOL    HW123258   1.057   3.069   9.886  0.9321  1.2295 -0.6087
 3933SOL    HW223259   1.184   3.084   9.959 -0.9938 -1.6285  1.6074
 3934SOL     OW23260   3.763   0.277   9.111  0.6081 -0.7593  0.0496
 3934SOL    HW123261   3.786   0.369   9.095  0.1583 -0.9297 -1.5935
 3934SOL    HW223262   3.773   0.244   9.022  0.8658 -3.2638  1.0271
 3935SOL     OW23263   2.207   0.241  14.778  0.2627  0.2166  0.1346
 3935SOL    HW123264   2.285   0.187  14.773  1.4747  2.0525 -0.7546
 3935SOL    HW223265   2.149   0.189  14.834  1.7348  0.9444  2.2809
 3936SOL     OW23266   4.312   0.933   5.025 -0.2326  0.0589 -0.0004
 3936SOL    HW123267   4.248   0.980   4.971 -1.3673  0.1898  1.4783
 3936SOL    HW223268   4.387   0.919   4.968  0.3215  1.8207  0.2993
 3937SOL     OW23269   1.723   1.215   6.190 -0.9193  0.1744 -0.0440
 3937SOL    HW123270   1.773   1.164   6.253 -0.5223  0.8698  0.2063
 3937SOL    HW223271   1.790   1.256   6.135 -1.0367 -0.9117 -0.9779
 3938SOL     OW23272   0.526   1.465   2.993 -0.2117 -0.3816 -0.7578
 3938SOL    HW123273   0.567   1.378   2.994  0.4001 -0.0968 -1.0840
 3938SOL    HW223274   0.596   1.519   2.955 -0.5590 -1.2448 -2.6576
 3939SOL     OW23275   0.560   2.641   4.581 -0.1728 -0.5122  0.4021
 3939SOL    HW123276   0.591   2.671   4.495  0.8599 -1.7995  0.3206
 3939SOL    HW223277   0.516   2.559   4.560 -0.7303  0.6219 -2.7922
 3940SOL     OW23278   1.093   2.939   6.155  0.3228 -0.0271  0.1421
 3940SOL    HW123279   1.071   2.892   6.075  1.6174  0.1346 -0.3174
 3940SOL    HW223280   1.174   2.981   6.126  0.5035 -0.1863  0.4111
 3941SOL     OW23281   4.045   0.672   4.336  0.5366 -0.0048 -0.4400
 3941SOL    HW123282   4.131   0.658   4.375  0.1862  1.1206  0.7292
 3941SOL    HW223283   4.056   0.748   4.280 -3.8699  0.3015 -0.8911
 3942SOL     OW23284   3.624   2.499   5.829  1.1510 -0.3287 -0.0178
 3942SOL    HW123285   3.661   2.581   5.863 -2.4006  0.1640  2.6636
 3942SOL    HW223286   3.682   2.433   5.867 -0.4446 -0.8001  1.5814
 3943SOL     OW23287   0.338   2.466   1.275 -0.0504  0.2159 -0.0058
 3943SOL    HW123288   0.292   2.489   1.194  0.5264  2.4560  0.3066
 3943SOL    HW223289   0.425   2.446   1.240 -0.8358 -1.7221 -0.9085
 3944SOL     OW23290   1.342   1.851  11.778 -0.4001  0.2983  0.1297
 3944SOL    HW123291   1.429   1.815  11.793 -0.3208  0.5514  0.2864
 3944SOL    HW223292   1.294   1.778  11.818 -0.0082  0.1992  0.4168
 3945SOL     OW23293   2.884   0.278   7.923  0.7951  0.4441 -0.6013
 3945SOL    HW123294   2.953   0.326   7.968  2.4418 -1.1234 -1.4738
 3945SOL    HW223295   2.829   0.357   7.925  0.3238  0.0667  1.8939
 3946SOL     OW23296   4.322   2.456   5.807  0.5636 -0.2938  0.4601
 3946SOL    HW123297   4.258   2.434   5.875 -1.4519 -2.7990 -2.2913
 3946SOL    HW223298   4.398   2.405   5.835 -0.4615 -0.9193  2.1290
 3947SOL     OW23299   3.326   1.563   4.508 -0.2034 -0.4453  0.6496
 3947SOL    HW123300   3.259   1.510   4.550 -1.3630  0.0035 -0.6357
 3947SOL    HW223301   3.289   1.650   4.526  1.9268  0.4482  0.7959
 3948SOL     OW23302   3.512   3.467   6.427 -0.4000 -0.1939  0.8552
 3948SOL    HW123303   3.545   3.548   6.389 -0.0948 -0.2107  1.0886
 3948SOL    HW223304   3.527   3.489   6.519  0.7739 -2.0675  1.1230
 3949SOL     OW23305   3.572   2.270   4.834 -0.7274  0.1290 -0.3389
 3949SOL    HW123306   3.504   2.268   4.902 -1.0804  1.1943 -0.6723
 3949SOL    HW223307   3.595   2.177   4.828  0.1768  0.4754 -2.1106
 3950SOL     OW23308   0.092   2.165   0.288 -0.2123  0.2064  0.1145
 3950SOL    HW123309   0.186   2.160   0.271 -0.0288  0.7246  0.9586
 3950SOL    HW223310   0.065   2.228   0.221 -1.6587 -1.0352 -0.4713
 3951SOL     OW23311   1.485   4.447   5.737 -0.8404 -0.2097 -0.4325
 3951SOL    HW123312   1.506   4.537   5.712 -1.0266 -0.3594 -1.1094
 3951SOL    HW223313   1.460   4.415   5.651 -0.8168 -1.7331  0.1187
 3952SOL     OW23314   4.357   0.625   8.631  0.5110  0.2822 -1.1490
 3952SOL    HW123315   4.315   0.539   8.633 -0.0337  0.5630 -0.3672
 3952SOL    HW223316   4.432   0.613   8.689  0.1185  0.1664 -0.6664
 3953SOL     OW23317   4.619   0.096   7.633 -0.7942  0.1540 -0.5543
 3953SOL    HW123318   4.577   0.165   7.685  3.0159  0.5456  1.9714
 3953SOL    HW223319   4.649   0.151   7.561  0.3996  0.5296  0.2265
 3954SOL     OW23320   1.763   0.231  16.349  0.1304  0.5736  0.0901
 3954SOL    HW123321   1.712   0.267  16.422 -0.7165 -1.6083  0.5718
 3954SOL    HW223322   1.767   0.305  16.288  0.1859 -0.3305 -1.0083
 3955SOL     OW23323   0.229   3.793   2.053  0.2614 -0.5980  0.1999
 3955SOL    HW123324   0.306   3.766   2.103  1.2482 -0.0146 -1.0170
 3955SOL    HW223325   0.247   3.874   2.005  2.3482 -1.8952 -1.1983
 3956SOL     OW23326   1.465   0.174   5.775  0.5877 -0.0406 -0.1795
 3956SOL    HW123327   1.389   0.129   5.813  0.0813  1.9802  1.1613
 3956SOL    HW223328   1.536   0.152   5.836  0.8135  2.0696  0.3182
 3957SOL     OW23329   1.763   0.481   9.431  0.2192 -0.3831  0.3737
 3957SOL    HW123330   1.709   0.551   9.465  1.1012  0.6060 -0.2724
 3957SOL    HW223331   1.833   0.536   9.396  1.4501 -0.9250  1.9959
 3958SOL     OW23332   2.692   0.153   3.377 -0.3023  0.1226  0.2821
 3958SOL    HW123333   2.688   0.067   3.335  0.1619 -0.3971  1.3079
 3958SOL    HW223334   2.713   0.209   3.302  0.1044 -0.6664 -0.1967
 3959SOL     OW23335   2.874   2.367  15.744 -0.2214 -0.2138  0.1552
 3959SOL    HW123336   2.822   2.287  15.735  1.1636 -1.1370  0.1928
 3959SOL    HW223337   2.941   2.320  15.795  0.3571 -1.3915 -1.6888
 3960SOL     OW23338   2.305   1.868   2.000 -0.3060 -0.6006  0.4090
 3960SOL    HW123339   2.219   1.838   1.969 -1.6565  0.4998  3.0267
 3960SOL    HW223340   2.295   1.959   1.973  1.3273 -0.4693  0.2816
 3961SOL     OW23341   1.132   2.537  16.318  0.3763 -0.2271  0.0583
 3961SOL    HW123342   1.221   2.551  16.349  0.8700 -2.6626 -0.2358
 3961SOL    HW223343   1.086   2.591  16.382 -2.0335 -2.0672 -0.1263
 3962SOL     OW23344   2.378   3.055   2.991  0.1084 -0.6026  0.5574
 3962SOL    HW123345   2.437   3.125   2.962 -1.2661  0.0907 -0.5204
 3962SOL    HW223346   2.299   3.109   2.993  0.0821 -0.6265  0.0363
 3963SOL     OW23347   1.126   1.708   6.289 -0.0535  0.3775 -0.0240
 3963SOL    HW123348   1.159   1.795   6.313  0.8727  0.1778 -0.6032
 3963SOL    HW223349   1.115   1.663   6.373  1.1507 -1.6964 -0.9826
 3964SOL     OW23350   3.354   0.387  13.166  0.7461 -0.1026 -0.2920
 3964SOL    HW123351   3.419   0.317  13.156 -1.4918 -1.8402 -2.5006
 3964SOL    HW223352   3.392   0.441  13.235  0.3447  1.1959 -1.0799
 3965SOL     OW23353   1.211   0.743   1.583  0.2561 -0.6594  0.2033
 3965SOL    HW123354   1.258   0.698   1.513 -1.3145 -2.6563  0.4489
 3965SOL    HW223355   1.243   0.697   1.661  3.4361  0.2118 -0.6002
 3966SOL     OW23356   4.558   0.250  13.730  0.9860  0.2259  0.3089
 3966SOL    HW123357   4.568   0.341  13.702 -0.9832  0.1018 -0.8079
 3966SOL    HW223358   4.623   0.208  13.673 -1.4962  1.0647 -3.1284
 3967SOL     OW23359   2.663   3.608   4.617  0.2212  0.4256  0.0921
 3967SOL    HW123360   2.691   3.551   4.688  2.0559  1.5606  0.2857
 3967SOL    HW223361   2.599   3.558   4.567 -0.6380  0.6472  0.9754
 3968SOL     OW23362   3.682   1.310   9.144  0.1443  0.0963 -0.6200
 3968SOL    HW123363   3.671   1.374   9.215 -0.5233  0.1697 -0.7986
 3968SOL    HW223364   3.776   1.320   9.127  0.7787 -1.4571  1.9888
 3969SOL     OW23365   0.876   0.885   4.344 -0.6545  0.3268 -0.1663
 3969SOL    HW123366   0.840   0.940   4.274 -0.3989 -1.8236 -2.0184
 3969SOL    HW223367   0.817   0.906   4.416 -0.0094  3.9456 -0.7375
 3970SOL     OW23368   3.407   0.531  17.350  0.1227 -0.4780 -0.5805
 3970SOL    HW123369   3.467   0.551  17.278 -0.4204  0.5564 -0.7365
 3970SOL    HW223370   3.431   0.607  17.404 -2.1064  1.6082 -2.5436
 3971SOL     OW23371   1.277   1.883   7.119  0.4097 -0.7181  0.0448
 3971SOL    HW123372   1.346   1.941   7.086  0.7794 -0.2673  1.6446
 3971SOL    HW223373   1.325   1.811   7.158  0.8951 -1.6648 -2.2997
 3972SOL     OW23374   4.105   3.375   6.268  0.7855 -0.6231  0.0878
 3972SOL    HW123375   4.120   3.461   6.230 -1.1912 -0.1488  0.3692
 3972SOL    HW223376   4.105   3.316   6.193 -3.1882  0.9357 -1.1471
 3973SOL     OW23377   0.992   3.863   9.192  0.1379  0.0404  0.6318
 3973SOL    HW123378   0.968   3.926   9.260  1.5996 -2.0258  3.0514
 3973SOL    HW223379   1.079   3.836   9.220  0.2892 -0.2680 -0.1384
 3974SOL     OW23380   0.677   4.651   9.435 -0.1916 -0.1378 -0.1196
 3974SOL    HW123381   0.650   4.560   9.427  2.1281 -0.7389 -1.2685
 3974SOL    HW223382   0.735   4.642   9.511  1.2780  1.7869 -1.0031
 3975SOL     OW23383   2.230   0.272   8.624  1.0707  0.5237  0.1126
 3975SOL    HW123384   2.232   0.301   8.716 -0.7435 -0.5092  0.4899
 3975SOL    HW223385   2.250   0.351   8.575  0.4972  1.1077  0.8196
 3976SOL     OW23386   0.349   3.727   0.948  0.4874  0.4789 -0.3035
 3976SOL    HW123387   0.300   3.808   0.932  1.7797  1.5526  1.1243
 3976SOL    HW223388   0.278   3.675   0.986  0.0180  1.3634  0.0385
 3977SOL     OW23389   0.804   0.145   8.753  0.0087  0.1020  0.4644
 3977SOL    HW123390   0.798   0.166   8.846 -1.1684  1.7131  0.0258
 3977SOL    HW223391   0.841   0.228   8.724 -1.3368  0.1531 -1.1298
 3978SOL     OW23392   2.799   0.413  13.973 -0.3188  0.4822  0.1179
 3978SOL    HW123393   2.779   0.452  14.057 -1.3388  0.1855  0.0135
 3978SOL    HW223394   2.824   0.492  13.926  1.3085  0.9378  1.7734
 3979SOL     OW23395   4.134   3.382   4.325 -0.2719 -0.2307 -0.0059
 3979SOL    HW123396   4.091   3.389   4.239 -0.2409 -0.8705 -0.0687
 3979SOL    HW223397   4.100   3.302   4.364 -0.6390 -0.0700  0.0095
 3980SOL     OW23398   1.162   2.245   3.274 -0.4185 -0.1195 -0.9344
 3980SOL    HW123399   1.168   2.320   3.333  0.6314 -1.0368  0.1058
 3980SOL    HW223400   1.080   2.265   3.228  0.4462  2.2682 -1.4809
 3981SOL     OW23401   3.412   3.971   7.115 -0.1765  0.0502  0.6850
 3981SOL    HW123402   3.414   3.954   7.209 -1.6933  2.9770  1.2259
 3981SOL    HW223403   3.353   4.044   7.098 -0.8101 -0.5203  0.3992
 3982SOL     OW23404   0.993   2.824   7.292  0.3513 -0.0041 -0.2765
 3982SOL    HW123405   1.033   2.740   7.268  2.0766  1.8877 -3.8981
 3982SOL    HW223406   0.986   2.809   7.387  0.5084  2.4337  0.1189
 3983SOL     OW23407   2.428   0.343   1.504 -0.2753  0.4243  0.0688
 3983SOL    HW123408   2.335   0.335   1.481 -0.2292 -1.5300  0.4999
 3983SOL    HW223409   2.447   0.249   1.507  4.2989  1.3141 -2.1996
 3984SOL     OW23410   1.514   2.829   1.691  0.0164  0.0401 -0.1907
 3984SOL    HW123411   1.418   2.833   1.689 -0.0092 -1.5603 -1.9517
 3984SOL    HW223412   1.527   2.741   1.727 -0.5803  0.7454  1.7575
 3985SOL     OW23413   4.129   3.672   6.130 -0.2506  0.1427 -1.0300
 3985SOL    HW123414   4.169   3.754   6.100 -1.5950  1.6577  1.3686
 3985SOL    HW223415   4.034   3.676   6.117 -0.2082  0.0821 -1.3530
 3986SOL     OW23416   3.188   2.810   7.247  0.2591 -0.1805 -0.1785
 3986SOL    HW123417   3.259   2.854   7.293 -0.1443 -1.1676  1.3951
 3986SOL    HW223418   3.133   2.778   7.319  2.4816 -4.1901 -0.1956
 3987SOL     OW23419   3.352   1.818  16.126  0.2131  0.0237 -0.3135
 3987SOL    HW123420   3.256   1.826  16.132  0.2526  1.3348 -1.5574
 3987SOL    HW223421   3.391   1.905  16.120 -2.6089  1.4010  1.1817
 3988SOL     OW23422   1.990   3.555   8.473 -0.3001  0.0073 -0.1778
 3988SOL    HW123423   2.010   3.499   8.398 -1.0565  0.3333 -0.6173
 3988SOL    HW223424   1.930   3.615   8.430 -0.0046  0.1623 -0.3710
 3989SOL     OW23425   3.040   2.359   6.957 -0.1596 -0.0613 -0.1064
 3989SOL    HW123426   2.947   2.335   6.958  0.3721 -2.1449 -0.0713
 3989SOL    HW223427   3.057   2.404   7.040  1.7749  1.3362 -1.2675
 3990SOL     OW23428   4.140   0.716   2.142 -0.4785  0.0257  0.9594
 3990SOL    HW123429   4.048   0.734   2.161 -1.1909 -2.5388 -0.0445
 3990SOL    HW223430   4.133   0.707   2.047  0.1027  1.0626  0.8132
 3991SOL     OW23431   4.538   3.561  13.825 -0.5483  0.0346  0.5066
 3991SOL    HW123432   4.525   3.626  13.756 -1.9688 -0.0231  0.7354
 3991SOL    HW223433   4.452   3.520  13.821 -0.8242  0.7506 -1.0961
 3992SOL     OW23434   1.796   2.636   0.509 -0.2542  0.8722 -0.0717
 3992SOL    HW123435   1.798   2.702   0.440  1.3995  1.3567  0.4454
 3992SOL    HW223436   1.889   2.618   0.518 -0.9413 -2.8997 -0.4770
 3993SOL     OW23437   4.229   3.656   2.439 -0.0003 -0.1772  0.0921
 3993SOL    HW123438   4.301   3.595   2.425 -0.7925 -1.5331  1.9877
 3993SOL    HW223439   4.178   3.614   2.508 -0.4659  1.8768  1.0050
 3994SOL     OW23440   3.302   0.759   0.907 -0.0539  0.0939  0.7590
 3994SOL    HW123441   3.275   0.787   0.819 -1.3370 -0.4935  0.9684
 3994SOL    HW223442   3.363   0.826   0.938 -2.3318  1.9193  1.2873
 3995SOL     OW23443   2.081   1.357   8.626  0.2323  0.4660  0.1300
 3995SOL    HW123444   2.085   1.364   8.531 -2.0286  0.4212  0.0358
 3995SOL    HW223445   2.004   1.411   8.641  0.6700 -0.0436  4.3895
 3996SOL     OW23446   2.490   0.218   5.756 -0.2667 -0.5160 -0.6594
 3996SOL    HW123447   2.461   0.258   5.838 -0.3003 -3.3261  0.6841
 3996SOL    HW223448   2.569   0.169   5.781  0.4081 -0.3176 -2.3995
 3997SOL     OW23449   4.630   2.745   7.193 -0.0656 -0.1961 -0.1755
 3997SOL    HW123450   4.694   2.754   7.264 -3.4470 -1.1686  2.9999
 3997SOL    HW223451   4.648   2.833   7.161 -0.4024  0.9481  2.7869
 3998SOL     OW23452   3.364   0.825   3.135  0.1186  0.5970 -0.0594
 3998SOL    HW123453   3.402   0.737   3.131 -2.0328 -0.4345  1.7729
 3998SOL    HW223454   3.334   0.821   3.226  2.1173  1.9365  0.6388
 3999SOL     OW23455   3.130   0.401   7.675  0.4961  0.1308 -0.0052
 3999SOL    HW123456   3.047   0.372   7.637  1.9911  0.0258 -3.1591
 3999SOL    HW223457   3.164   0.326   7.724 -0.6026 -0.1125  0.3934
 4000SOL     OW23458   3.143   0.813   4.149 -0.1927 -0.0346  0.1899
 4000SOL    HW123459   3.067   0.866   4.174  0.6722  0.1988  2.3006
 4000SOL    HW223460   3.218   0.864   4.181 -0.6134  1.2483 -0.8203
 4001SOL     OW23461   0.143   2.387   7.981 -0.3165  0.4020 -0.1590
 4001SOL    HW123462   0.122   2.388   8.074 -1.2670  3.0441 -0.4054
 4001SOL    HW223463   0.235   2.413   7.987 -0.3462  0.1002  1.6838
 4002SOL     OW23464   3.746   3.290   3.180  0.8323  0.3605 -0.0563
 4002SOL    HW123465   3.663   3.338   3.173  1.9467  2.2854 -0.0433
 4002SOL    HW223466   3.718   3.217   3.235 -1.1468  0.2076 -1.2603
 4003SOL     OW23467   2.410   2.211   1.831 -0.2343 -0.2086  0.1638
 4003SOL    HW123468   2.401   2.137   1.771 -0.2271 -0.9111  1.0405
 4003SOL    HW223469   2.432   2.269   1.758 -0.5501 -1.8911 -1.2675
 4004SOL     OW23470   0.458   0.502   5.230  0.1776  0.5121  0.0381
 4004SOL    HW123471   0.416   0.420   5.254  1.0430  0.8284  2.6066
 4004SOL    HW223472   0.524   0.460   5.176 -1.1341  0.7864 -1.7859
 4005SOL     OW23473   3.112   0.864  15.466 -0.0284  0.6288  0.3455
 4005SOL    HW123474   3.109   0.772  15.439  1.2144  0.3874  1.0362
 4005SOL    HW223475   3.024   0.900  15.453 -0.4849 -0.6660 -0.1165
 4006SOL     OW23476   1.831   3.909  11.674  0.2985  0.1989 -0.6267
 4006SOL    HW123477   1.758   3.927  11.733  0.7825  0.7017 -0.1735
 4006SOL    HW223478   1.813   3.981  11.613 -0.5086  0.7728  0.2946
 4007SOL     OW23479   3.174   2.968  10.586  0.2948 -0.1418  0.1209
 4007SOL    HW123480   3.119   2.996  10.659  2.3090  0.6177  1.3393
 4007SOL    HW223481   3.113   2.927  10.525  0.2723  2.6240 -1.6891
 4008SOL     OW23482   4.392   0.696  17.113 -0.5049 -0.2414 -0.0158
 4008SOL    HW123483   4.397   0.603  17.133 -2.5192 -0.9138 -2.6447
 4008SOL    HW223484   4.315   0.733  17.156 -0.5503  0.4647 -0.6956
 4009SOL     OW23485   3.122   2.703  14.828  0.0389 -0.6314  0.2877
 4009SOL    HW123486   3.192   2.639  14.838  0.8880  0.6248  2.3926
 4009SOL    HW223487   3.050   2.640  14.840 -3.3498  2.9332 -1.1763
 4010SOL     OW23488   2.338   1.726   6.412  0.5831  0.2327 -0.0748
 4010SOL    HW123489   2.391   1.697   6.487 -3.4295 -0.5899  2.4370
 4010SOL    HW223490   2.275   1.654   6.408  0.1279  0.6272  0.0465
 4011SOL     OW23491   0.037   0.694   3.934  0.3897 -0.1906  0.0064
 4011SOL    HW123492   0.115   0.681   3.879  0.3016 -1.4444  0.1717
 4011SOL    HW223493   0.072   0.730   4.015  1.0327 -0.6029 -0.0792
 4012SOL     OW23494   2.024   1.183   8.166 -0.1002  0.1587 -0.3179
 4012SOL    HW123495   2.099   1.133   8.133 -0.2016 -0.8568  0.9871
 4012SOL    HW223496   2.012   1.240   8.090  4.3956  0.4230 -0.8055
 4013SOL     OW23497   1.119   3.412   2.769  0.7261 -0.2807  0.3826
 4013SOL    HW123498   1.206   3.385   2.740 -0.2698 -1.1175 -1.8640
 4013SOL    HW223499   1.119   3.367   2.853 -0.4092  0.8800  1.0091
 4014SOL     OW23500   3.835   3.329  11.750 -0.2221  0.4347 -0.3155
 4014SOL    HW123501   3.852   3.310  11.842  0.8686  2.8758 -0.0215
 4014SOL    HW223502   3.917   3.292  11.719 -0.5200  2.3503 -3.4629
 4015SOL     OW23503   1.986   0.300  17.120  0.6032 -0.7073 -0.5483
 4015SOL    HW123504   2.033   0.383  17.129 -1.5129  0.4621 -0.4407
 4015SOL    HW223505   2.024   0.272  17.204  0.3083  2.4954  0.6708
 4016SOL     OW23506   3.554   2.717   5.425  0.1366 -0.2961 -0.1165
 4016SOL    HW123507   3.571   2.740   5.516 -0.3804  0.8797 -0.3146
 4016SOL    HW223508   3.639   2.683   5.398  0.4715 -0.6836  1.4177
 4017SOL     OW23509   3.819   0.954  12.814 -0.2961  0.3068  0.4491
 4017SOL    HW123510   3.888   1.020  12.814 -0.1718  0.1618 -1.5223
 4017SOL    HW223511   3.857   0.883  12.866 -3.4663 -1.5316  0.2779
 4018SOL     OW23512   3.696   3.029   5.717 -0.0535  0.6336 -0.1563
 4018SOL    HW123513   3.725   3.073   5.797 -1.1493 -1.6132  1.4776
 4018SOL    HW223514   3.767   2.965   5.705 -0.5633  0.2111 -0.9072
 4019SOL     OW23515   0.714   4.145   2.053 -0.4064  0.6049 -0.1244
 4019SOL    HW123516   0.669   4.088   1.991 -0.4492  1.8039 -1.1803
 4019SOL    HW223517   0.752   4.071   2.101 -0.7785 -0.3971 -1.3955
 4020SOL     OW23518   1.279   1.629   2.583  0.1777  0.1991  0.4034
 4020SOL    HW123519   1.219   1.555   2.577  0.7350 -0.2793  0.7085
 4020SOL    HW223520   1.229   1.685   2.643 -1.1767 -1.5419  0.8919
 4021SOL     OW23521   4.037   2.925  16.445 -0.0964  0.4529  0.0780
 4021SOL    HW123522   4.059   3.004  16.395  0.8853  0.3291  0.3133
 4021SOL    HW223523   4.085   2.859  16.395  1.7917 -0.0395  2.5070
 4022SOL     OW23524   0.740   0.039  16.247  0.5236 -0.2801 -0.1748
 4022SOL    HW123525   0.705   0.048  16.336 -2.1493  0.7871 -1.3319
 4022SOL    HW223526   0.802   0.111  16.255  1.0211 -0.6611 -0.5991
 4023SOL     OW23527   3.882   2.608   7.051 -0.0951 -0.6612  0.4957
 4023SOL    HW123528   3.925   2.523   7.057 -1.1792 -1.2553 -0.1412
 4023SOL    HW223529   3.899   2.646   7.137 -0.1579 -2.0732  1.1164
 4024SOL     OW23530   4.626   4.381   7.469  0.3959  0.1694  0.0875
 4024SOL    HW123531   4.676   4.381   7.551 -0.3532  0.5354  0.5401
 4024SOL    HW223532   4.542   4.353   7.503 -0.6697  1.7912 -1.2282
 4025SOL     OW23533   0.609   0.197   8.405  0.1096 -0.3686  0.3926
 4025SOL    HW123534   0.700   0.169   8.400  0.8835  2.3629 -0.7580
 4025SOL    HW223535   0.580   0.146   8.330  0.9599 -0.5771  0.2059
 4026SOL     OW23536   2.505   1.277  17.543 -0.0007 -0.6986  0.2845
 4026SOL    HW123537   2.526   1.184  17.535 -3.0859 -1.1583 -2.5887
 4026SOL    HW223538   2.422   1.277  17.589 -0.3142  2.4397 -0.2990
 4027SOL     OW23539   4.544   3.774   2.399 -0.0364 -0.3852 -0.6125
 4027SOL    HW123540   4.505   3.687   2.393 -0.2952 -0.1181 -3.0714
 4027SOL    HW223541   4.622   3.767   2.344 -0.6876  0.5967 -1.6672
 4028SOL     OW23542   2.885   0.611   1.473  0.4659 -0.3524 -0.3264
 4028SOL    HW123543   2.875   0.523   1.437 -0.8192 -0.0013 -0.8048
 4028SOL    HW223544   2.865   0.663   1.395 -1.2510 -0.5232  0.0112
 4029SOL     OW23545   2.888   0.865  15.900  0.1278  0.1685  0.2026
 4029SOL    HW123546   2.859   0.938  15.845  0.9580 -0.7605 -1.4628
 4029SOL    HW223547   2.856   0.783  15.862  1.3541  0.8141 -2.2155
 4030SOL     OW23548   3.759   4.115   6.312 -0.7998  0.4055  0.0575
 4030SOL    HW123549   3.815   4.193   6.303 -1.4370  0.7868 -0.6005
 4030SOL    HW223550   3.730   4.133   6.402  0.5411 -0.0793  0.5918
 4031SOL     OW23551   2.307   4.494  17.460 -0.2624 -0.1994 -0.5470
 4031SOL    HW123552   2.327   4.570  17.404 -1.7786  0.7013  0.1380
 4031SOL    HW223553   2.256   4.439  17.400  1.2691 -1.6632 -0.4947
 4032SOL     OW23554   3.533   2.384   7.378 -0.8997  0.0353 -0.2917
 4032SOL    HW123555   3.614   2.427   7.406 -1.1120  0.6705 -0.6515
 4032SOL    HW223556   3.497   2.443   7.312 -1.2067 -0.6853 -0.7727
 4033SOL     OW23557   0.716   4.286   9.974  0.2732  0.0125  0.5129
 4033SOL    HW123558   0.733   4.350   9.905  0.8483  0.6543  1.2513
 4033SOL    HW223559   0.774   4.324  10.040 -0.5497  2.6628 -0.2797
 4034SOL     OW23560   0.272   1.053   7.208  0.5037 -0.5728  0.4597
 4034SOL    HW123561   0.353   1.103   7.200  0.3124 -0.6217 -1.8093
 4034SOL    HW223562   0.297   0.989   7.275 -0.8382 -1.7767 -0.2042
 4035SOL     OW23563   1.147   1.544  11.231  0.0132  0.3615 -0.2315
 4035SOL    HW123564   1.235   1.564  11.198 -0.8965 -0.6024 -3.2412
 4035SOL    HW223565   1.117   1.634  11.245 -1.0035 -0.0730  0.3704
 4036SOL     OW23566   1.978   3.154  12.016 -0.4032  0.1982 -0.4905
 4036SOL    HW123567   1.981   3.245  11.987  2.2547  0.0103 -0.8562
 4036SOL    HW223568   1.953   3.160  12.108  0.6331  0.4574 -0.2298
 4037SOL     OW23569   0.283   0.317  12.008  0.5225 -0.1509  0.2960
 4037SOL    HW123570   0.245   0.385  12.063  2.3538  0.5101  0.7354
 4037SOL    HW223571   0.252   0.346  11.922  1.6675 -1.0662 -0.4170
 4038SOL     OW23572   1.456   2.267  10.245  0.0609  0.1151 -0.4524
 4038SOL    HW123573   1.379   2.306  10.204  0.9047  0.1506 -2.0181
 4038SOL    HW223574   1.447   2.174  10.221 -1.0745 -0.4683  2.2612
 4039SOL     OW23575   1.260   3.418  14.759  0.1024  0.0386  0.4328
 4039SOL    HW123576   1.184   3.472  14.738 -0.9743 -1.1300  1.2996
 4039SOL    HW223577   1.228   3.328  14.765  1.5533 -0.6718 -2.3097
 4040SOL     OW23578   0.515   3.274   0.601  0.4261 -0.6689 -0.6698
 4040SOL    HW123579   0.478   3.231   0.677 -0.8794 -0.8829 -1.4200
 4040SOL    HW223580   0.441   3.269   0.541  0.0171  1.9437 -0.4003
 4041SOL     OW23581   0.873   4.207  15.987 -0.4331  0.2148 -0.2199
 4041SOL    HW123582   0.909   4.247  16.066  0.3525  0.8937 -0.9194
 4041SOL    HW223583   0.869   4.116  16.017 -2.4135  0.4346  0.1588
 4042SOL     OW23584   2.327   1.143  15.035  0.1875 -0.8140 -0.3637
 4042SOL    HW123585   2.363   1.054  15.043 -0.9977 -1.1773  0.8796
 4042SOL    HW223586   2.234   1.125  15.043 -0.3299  1.3377 -1.4217
 4043SOL     OW23587   4.350   0.941   7.361 -0.2256  0.1401  0.7021
 4043SOL    HW123588   4.423   0.916   7.303 -1.6969  1.4003 -1.6879
 4043SOL    HW223589   4.305   0.998   7.298  1.2596  1.8820  1.2338
 4044SOL     OW23590   0.288   0.160   2.207  0.1504 -0.2623  0.4550
 4044SOL    HW123591   0.222   0.229   2.207  2.2985  1.8061  2.1261
 4044SOL    HW223592   0.233   0.095   2.164  1.0306 -2.1839  2.2037
 4045SOL     OW23593   3.561   1.107  15.142  0.1673  0.2523  0.0871
 4045SOL    HW123594   3.583   1.108  15.235 -0.9904 -0.2085  0.3632
 4045SOL    HW223595   3.478   1.155  15.143  1.2376  2.0445  0.5998
 4046SOL     OW23596   1.198   2.386  11.929  0.1952 -0.1625  0.0220
 4046SOL    HW123597   1.263   2.382  11.999  0.7818 -0.1434 -0.5216
 4046SOL    HW223598   1.254   2.407  11.854 -0.3808  0.3820 -0.2493
 4047SOL     OW23599   2.648   2.088  15.529  0.1447 -0.1297  0.3767
 4047SOL    HW123600   2.688   2.169  15.499 -1.2313 -0.2704 -1.8450
 4047SOL    HW223601   2.609   2.126  15.608 -1.7590  1.0504 -1.1439
 4048SOL     OW23602   1.491   3.593  12.803 -0.0622  0.3934 -0.0695
 4048SOL    HW123603   1.526   3.534  12.736 -0.6491  0.9297 -0.8540
 4048SOL    HW223604   1.412   3.622  12.756 -0.1829  0.6736  0.3051
 4049SOL     OW23605   1.752   3.273  10.295 -0.0484  0.0723  0.0062
 4049SOL    HW123606   1.743   3.344  10.232  0.4009 -0.8041 -1.0481
 4049SOL    HW223607   1.819   3.216  10.257  0.3710 -0.5434  1.6796
 4050SOL     OW23608   0.840   0.296  16.188 -0.7852 -0.1880  0.4924
 4050SOL    HW123609   0.891   0.315  16.109 -1.0527  2.1888  0.8901
 4050SOL    HW223610   0.755   0.338  16.173 -0.0983  0.5290 -1.3729
 4051SOL     OW23611   4.650   2.249  15.516 -0.4686  0.4997 -0.0867
 4051SOL    HW123612   4.630   2.331  15.470 -0.6500 -0.0516 -0.9920
 4051SOL    HW223613   4.558   2.243  15.542 -0.9218  1.4580 -1.4489
 4052SOL     OW23614   0.827   1.976   0.131  0.2050 -0.2513  0.5030
 4052SOL    HW123615   0.820   2.064   0.092  0.6934 -0.9789 -1.2441
 4052SOL    HW223616   0.906   1.944   0.087  0.0990 -0.3779  0.4043
 4053SOL     OW23617   1.991   1.732  13.637 -0.1425  0.1869  0.0695
 4053SOL    HW123618   1.900   1.750  13.610  1.1135  2.7164 -2.5008
 4053SOL    HW223619   2.039   1.754  13.558 -1.0445 -1.6368 -0.9697
 4054SOL     OW23620   3.007   3.312   7.950  0.4860  0.2845 -0.0357
 4054SOL    HW123621   3.063   3.290   8.025 -0.8187  0.6324  1.0510
 4054SOL    HW223622   2.950   3.236   7.938  0.0122  1.2680 -3.7347
 4055SOL     OW23623   1.179   1.273   5.153  0.5198  0.0882  0.2449
 4055SOL    HW123624   1.155   1.363   5.134 -0.4299  0.3489  2.7387
 4055SOL    HW223625   1.112   1.233   5.208  3.2657 -1.2244  2.6563
 4056SOL     OW23626   3.589   3.502   4.118 -0.9902  0.1498  0.1140
 4056SOL    HW123627   3.621   3.592   4.124 -1.1874  0.3927 -2.5242
 4056SOL    HW223628   3.500   3.506   4.152 -1.1934 -0.2566 -0.3627
 4057SOL     OW23629   0.581   4.463   1.162  0.0945 -0.1767  0.4122
 4057SOL    HW123630   0.551   4.422   1.243 -0.0797 -1.4187 -0.2752
 4057SOL    HW223631   0.643   4.530   1.189  2.7340 -0.8971 -3.7611
 4058SOL     OW23632   4.252   2.995   5.813 -0.1321 -0.4543 -0.3722
 4058SOL    HW123633   4.329   2.974   5.760 -0.3977 -2.2660 -0.0440
 4058SOL    HW223634   4.280   3.077   5.853  0.1450 -0.4841 -0.5055
 4059SOL     OW23635   0.015   2.581   4.350  0.1484  0.8400  0.1849
 4059SOL    HW123636   4.673   2.605   4.418  0.0530  0.1447  0.3413
 4059SOL    HW223637   4.702   2.613   4.267 -0.0065  0.1978  0.0016
 4060SOL     OW23638   2.628   2.890   2.742  0.3690  0.5534 -0.6897
 4060SOL    HW123639   2.548   2.839   2.758  0.5475  0.3839 -0.3372
 4060SOL    HW223640   2.630   2.907   2.648  2.3429  0.8187 -0.5964
 4061SOL     OW23641   4.119   3.963   8.670 -0.9365  0.0436  0.3958
 4061SOL    HW123642   4.040   3.909   8.662  0.0110 -1.3279  0.2989
 4061SOL    HW223643   4.172   3.929   8.598  0.2770  1.0595  0.8200
 4062SOL     OW23644   1.642   3.017  15.252 -0.3206  0.0831 -0.2256
 4062SOL    HW123645   1.646   3.112  15.256  1.6837 -0.0615  1.5775
 4062SOL    HW223646   1.612   3.002  15.162  0.8485  2.9919 -1.0819
 4063SOL     OW23647   2.295   0.449  10.777  0.3705 -0.2021  0.2110
 4063SOL    HW123648   2.250   0.533  10.790 -0.8263 -0.5022 -2.0490
 4063SOL    HW223649   2.384   0.470  10.806  1.0488 -0.5614 -1.6328
 4064SOL     OW23650   2.619   2.148   0.427  0.8927 -0.1243  0.4413
 4064SOL    HW123651   2.639   2.083   0.361  0.3295 -0.0579  0.2019
 4064SOL    HW223652   2.525   2.144   0.408  1.2838 -0.2622 -1.3772
 4065SOL     OW23653   1.995   0.634   6.190 -0.0193 -0.0980  0.2425
 4065SOL    HW123654   1.991   0.612   6.097  0.9259  0.1298  0.1432
 4065SOL    HW223655   2.088   0.638   6.211 -0.5857  0.8089  2.5159
 4066SOL     OW23656   0.066   0.129   3.735  0.3578 -0.2259  0.0480
 4066SOL    HW123657   0.137   0.189   3.712  0.8298  0.3292  2.9130
 4066SOL    HW223658   0.114   0.063   3.786  2.1409 -0.4697 -1.9498
 4067SOL     OW23659   2.815   1.996   3.491  0.2175  0.1418  0.2269
 4067SOL    HW123660   2.773   1.991   3.405  1.1651 -0.4937 -0.1936
 4067SOL    HW223661   2.867   1.916   3.497 -0.7007 -0.6185 -1.8208
 4068SOL     OW23662   4.681   0.244   3.039 -0.2382 -0.1478  0.3342
 4068SOL    HW123663   0.008   0.164   3.020 -0.0155  0.5809 -2.2326
 4068SOL    HW223664   4.670   0.286   2.954 -0.2791 -1.2872 -0.2188
 4069SOL     OW23665   1.796   3.242   5.654 -0.2262 -0.4051  0.4720
 4069SOL    HW123666   1.770   3.277   5.569  1.1844 -1.4802 -0.3976
 4069SOL    HW223667   1.778   3.149   5.642  1.1431 -0.3312 -2.0978
 4070SOL     OW23668   3.254   3.302  17.466 -0.1962 -0.0645 -0.1537
 4070SOL    HW123669   3.301   3.340  17.392 -0.0977 -1.8994 -1.0455
 4070SOL    HW223670   3.310   3.319  17.542  0.0428  0.2694 -0.4047
 4071SOL     OW23671   4.286   4.092   8.862  0.7779 -0.3135 -0.6267
 4071SOL    HW123672   4.360   4.074   8.803  0.8510 -0.2133 -0.5651
 4071SOL    HW223673   4.209   4.049   8.824 -0.1306 -0.8418  1.8639
 4072SOL     OW23674   4.360   2.380   4.069  0.2622 -0.6321  0.1184
 4072SOL    HW123675   4.442   2.345   4.102  0.4359  0.4143  0.7921
 4072SOL    HW223676   4.306   2.399   4.145  0.4018  2.1274 -0.4744
 4073SOL     OW23677   1.450   2.173   2.128  0.0556  0.5662  0.6449
 4073SOL    HW123678   1.393   2.154   2.203  0.1699  1.3183  0.9242
 4073SOL    HW223679   1.431   2.087   2.091  2.4350  0.5794 -0.6120
 4074SOL     OW23680   4.187   3.099   1.790 -0.4083 -0.0372 -1.2695
 4074SOL    HW123681   4.195   3.075   1.883 -1.2560 -1.0152 -1.4503
 4074SOL    HW223682   4.239   3.179   1.790 -0.6436  0.1244  1.1296
 4075SOL     OW23683   4.436   3.889   4.934 -0.0366 -0.7187  0.0412
 4075SOL    HW123684   4.441   3.934   5.018  0.9302  0.5609 -0.7200
 4075SOL    HW223685   4.344   3.862   4.928 -0.0577 -0.7434  0.4861
 4076SOL     OW23686   1.856   0.594   7.709 -0.0985 -0.2838  0.1061
 4076SOL    HW123687   1.789   0.661   7.727 -0.8846 -1.5908  2.0432
 4076SOL    HW223688   1.920   0.621   7.775  2.0708 -0.9662 -1.7321
 4077SOL     OW23689   2.737   0.879   7.858 -0.1596  0.0655  0.2772
 4077SOL    HW123690   2.665   0.818   7.876 -0.1657  0.2818  0.9766
 4077SOL    HW223691   2.683   0.946   7.816 -0.7940  0.5344  1.8418
 4078SOL     OW23692   0.056   0.698   6.825 -0.3937 -0.2873  0.0964
 4078SOL    HW123693   0.091   0.637   6.760  0.8027  0.7583 -0.2456
 4078SOL    HW223694   0.039   0.774   6.769  0.7470 -1.2171 -1.5273
 4079SOL     OW23695   1.536   4.166   6.430 -0.2533 -0.2520 -0.0843
 4079SOL    HW123696   1.547   4.133   6.341 -0.6008  1.1485 -0.6448
 4079SOL    HW223697   1.442   4.180   6.443  0.2643  2.4300  0.7164
 4080SOL     OW23698   1.380   1.484   6.893 -0.0374 -0.3372  0.2239
 4080SOL    HW123699   1.367   1.440   6.809  2.7987  1.5998 -1.2291
 4080SOL    HW223700   1.329   1.433   6.955  1.0493  1.9540  2.9951
 4081SOL     OW23701   0.765   0.541   6.021 -0.2344  0.7020 -0.1638
 4081SOL    HW123702   0.821   0.588   5.960  1.5985 -0.7326  0.4126
 4081SOL    HW223703   0.714   0.619   6.042 -0.9850 -0.0080  0.6579
 4082SOL     OW23704   2.930   1.672  15.506  0.0135  0.0467  0.4628
 4082SOL    HW123705   2.986   1.747  15.491  1.0247 -0.8580 -0.2596
 4082SOL    HW223706   2.999   1.615  15.541  0.3476  0.5850  0.6720
 4083SOL     OW23707   4.046   4.168   2.049 -0.6337 -0.4150 -0.1329
 4083SOL    HW123708   4.061   4.163   1.955  0.5302 -2.2148  0.1392
 4083SOL    HW223709   4.034   4.263   2.050  2.5219 -0.0340 -0.2639
 4084SOL     OW23710   0.036   4.300  15.685 -0.6769 -0.1102  0.3343
 4084SOL    HW123711   0.021   4.302  15.591 -0.6469  0.4276  0.3385
 4084SOL    HW223712   0.081   4.217  15.698 -1.2246 -0.3980  0.4113
 4085SOL     OW23713   2.846   0.985  15.478 -0.2538 -0.2718 -0.2795
 4085SOL    HW123714   2.824   1.056  15.417  1.9285 -0.5196 -1.3628
 4085SOL    HW223715   2.818   1.019  15.563  2.0092 -0.3094  0.4833
 4086SOL     OW23716   2.228   4.325   7.951 -0.1517  0.0513  0.3151
 4086SOL    HW123717   2.203   4.404   8.000  4.0589  2.6371 -1.6862
 4086SOL    HW223718   2.251   4.254   8.010  0.7312 -0.6817 -0.9234
 4087SOL     OW23719   0.357   0.743   5.886  0.0366  0.3568 -0.3833
 4087SOL    HW123720   0.386   0.818   5.936  0.0672 -0.3822  0.7187
 4087SOL    HW223721   0.373   0.679   5.956  0.9523  0.3255 -0.6244
 4088SOL     OW23722   2.461   4.067  10.727 -0.0862  0.2807 -0.4000
 4088SOL    HW123723   2.449   4.149  10.678  0.2189  0.6448  0.1282
 4088SOL    HW223724   2.462   4.005  10.654 -0.4578 -0.2360  0.0311
 4089SOL     OW23725   3.328   2.003   0.198  0.3189 -0.4620  0.1520
 4089SOL    HW123726   3.420   1.987   0.175  0.8669  1.1280  1.2562
 4089SOL    HW223727   3.335   2.094   0.226 -0.8320  0.1004 -1.4202
 4090SOL     OW23728   3.659   2.214  11.670 -0.1158  0.3279  0.1702
 4090SOL    HW123729   3.613   2.250  11.745  0.9253  2.1630 -0.0655
 4090SOL    HW223730   3.733   2.275  11.668  1.8949 -1.9838  2.9007
 4091SOL     OW23731   2.617   2.045  11.703 -0.5696  0.3393  0.2671
 4091SOL    HW123732   2.711   2.061  11.699 -0.5706  0.5199  1.0706
 4091SOL    HW223733   2.597   1.966  11.653  1.5605  1.0912 -1.8106
 4092SOL     OW23734   2.586   0.172  11.542 -0.3387 -0.0147  0.5634
 4092SOL    HW123735   2.500   0.140  11.568 -0.2735 -1.3216 -0.8647
 4092SOL    HW223736   2.585   0.137  11.453 -2.2560 -2.8702  1.6930
 4093SOL     OW23737   3.529   0.120  12.351  0.0953 -0.3654 -0.3373
 4093SOL    HW123738   3.542   0.088  12.262  0.2191 -4.1370  1.0263
 4093SOL    HW223739   3.437   0.096  12.357 -0.1916  0.7366 -0.3455
 4094SOL     OW23740   2.110   2.724   6.357  0.2528 -0.2650 -0.1059
 4094SOL    HW123741   2.200   2.741   6.330  1.2643 -1.6243  2.4156
 4094SOL    HW223742   2.075   2.680   6.280 -0.8330 -1.5263  1.1033
 4095SOL     OW23743   2.992   1.258  10.621 -0.0498  0.6363  0.2971
 4095SOL    HW123744   2.987   1.224  10.711  0.1154 -0.6013 -0.1549
 4095SOL    HW223745   2.934   1.334  10.625 -2.1994 -0.9194 -1.0864
 4096SOL     OW23746   4.083   3.213   6.047  0.2457 -0.0739 -0.2370
 4096SOL    HW123747   4.123   3.163   6.118  2.6449  0.8633 -0.9271
 4096SOL    HW223748   4.026   3.152   6.000  2.5443 -0.6374 -2.2990
 4097SOL     OW23749   0.052   3.452   4.172  0.2007 -0.0998 -0.3137
 4097SOL    HW123750   0.024   3.507   4.099 -1.7941 -0.8472 -0.1363
 4097SOL    HW223751   4.702   3.389   4.177 -1.3131  1.7633  1.3542
 4098SOL     OW23752   0.898   1.822   1.635  0.3709 -0.1676  0.0061
 4098SOL    HW123753   0.851   1.877   1.699  1.6146 -0.6451  1.3271
 4098SOL    HW223754   0.878   1.731   1.658 -1.5543  0.3859  0.5624
 4099SOL     OW23755   1.349   4.437   7.002 -0.1070  0.3638  0.0314
 4099SOL    HW123756   1.443   4.426   6.993  0.1022  0.3010  2.3558
 4099SOL    HW223757   1.335   4.349   7.038  0.3876  0.4444  0.4239
 4100SOL     OW23758   1.441   4.174  13.518 -0.2687  0.8719 -0.8777
 4100SOL    HW123759   1.527   4.209  13.493  0.4934  0.2431  0.8451
 4100SOL    HW223760   1.410   4.254  13.561 -0.3906  0.2701  0.1602
 4101SOL     OW23761   4.023   1.202   4.368 -0.2238  0.4747  0.1117
 4101SOL    HW123762   4.021   1.141   4.294  0.8845 -0.8002  1.1271
 4101SOL    HW223763   3.999   1.288   4.335 -0.9687  0.4542  0.5904
 4102SOL     OW23764   0.682   2.655  13.662 -0.2547 -0.0248 -0.4203
 4102SOL    HW123765   0.603   2.602  13.652  0.0537 -0.5025 -0.3352
 4102SOL    HW223766   0.654   2.710  13.735 -0.7564 -1.8310  0.7261
 4103SOL     OW23767   1.073   0.421   4.331 -0.1615 -0.5883 -0.2949
 4103SOL    HW123768   0.985   0.408   4.296  0.4663 -0.0908 -2.0228
 4103SOL    HW223769   1.067   0.512   4.361  0.1276 -0.2717 -1.2241
 4104SOL     OW23770   3.551   2.387   1.116 -0.1471  0.1819 -0.5516
 4104SOL    HW123771   3.642   2.375   1.088 -0.3337  2.4526 -2.1914
 4104SOL    HW223772   3.513   2.414   1.032  0.1385 -1.0403 -1.0754
 4105SOL     OW23773   0.979   1.486   8.104 -0.5378  0.3648  0.0135
 4105SOL    HW123774   0.940   1.458   8.187 -0.6284  0.8881  0.1418
 4105SOL    HW223775   1.064   1.441   8.107 -1.1981 -0.8307  0.7588
 4106SOL     OW23776   2.740   0.917   4.386 -0.2196  0.3906  0.3521
 4106SOL    HW123777   2.764   0.986   4.448 -0.1006 -0.1636  0.9266
 4106SOL    HW223778   2.688   0.863   4.445 -0.9038 -1.5447 -2.0178
 4107SOL     OW23779   2.242   1.590  13.548  0.1114  0.0750 -0.2840
 4107SOL    HW123780   2.237   1.621  13.457  0.5444  1.0199  0.0110
 4107SOL    HW223781   2.172   1.525  13.550  1.3658 -1.3506 -1.5382
 4108SOL     OW23782   2.258   3.285   4.412 -0.1286 -0.4079  0.0025
 4108SOL    HW123783   2.175   3.268   4.367  0.1939 -1.0751 -0.3544
 4108SOL    HW223784   2.235   3.363   4.462 -0.2314  0.0130 -0.7067
 4109SOL     OW23785   4.156   0.397  13.125 -0.4513  0.6518 -0.0029
 4109SOL    HW123786   4.240   0.438  13.143  0.4178 -1.0261 -0.2128
 4109SOL    HW223787   4.188   0.309  13.148 -2.0249  0.1059  0.1421
 4110SOL     OW23788   3.939   3.079  12.973 -0.0571 -0.8166  0.1564
 4110SOL    HW123789   3.918   2.988  12.950 -0.1824 -0.7819  0.1353
 4110SOL    HW223790   4.009   3.071  13.038 -0.1735 -0.1788  0.3596
 4111SOL     OW23791   1.810   4.491   8.393 -0.4170  0.3721  0.2640
 4111SOL    HW123792   1.877   4.453   8.450 -0.6693  1.1636  1.0773
 4111SOL    HW223793   1.739   4.461   8.450  0.1482 -1.2883  0.0925
 4112SOL     OW23794   1.820   2.831   2.877 -0.4814  0.0139 -0.1001
 4112SOL    HW123795   1.786   2.797   2.795  0.6813  0.4837 -0.7823
 4112SOL    HW223796   1.738   2.846   2.924 -0.6653 -1.4191  0.0416
 4113SOL     OW23797   4.174   1.656  15.128  0.5332  0.6307  0.0925
 4113SOL    HW123798   4.123   1.578  15.107  1.6374 -0.1405  0.2670
 4113SOL    HW223799   4.106   1.713  15.165  0.9264  2.3831 -1.9537
 4114SOL     OW23800   2.394   0.886  10.880 -0.0522 -0.1053  0.7462
 4114SOL    HW123801   2.484   0.851  10.878 -0.2552 -0.5822 -0.1164
 4114SOL    HW223802   2.399   0.951  10.951  0.5040 -1.3582  1.8554
 4115SOL     OW23803   4.240   3.783   5.364 -0.3304 -0.4970 -0.1289
 4115SOL    HW123804   4.150   3.785   5.333  0.2971 -1.0709 -2.0601
 4115SOL    HW223805   4.284   3.764   5.280  2.9011 -0.7971  1.6338
 4116SOL     OW23806   1.637   2.937   7.530 -0.6584  0.2790  0.3308
 4116SOL    HW123807   1.545   2.923   7.505 -0.2464 -2.8211  0.4936
 4116SOL    HW223808   1.640   3.031   7.512  2.8750  0.1183  0.0507
 4117SOL     OW23809   2.706   3.265   7.021 -0.2305  0.6371 -0.3269
 4117SOL    HW123810   2.644   3.326   7.061  1.3039  3.3389 -2.0856
 4117SOL    HW223811   2.646   3.208   6.972 -0.4165 -0.1221  0.7899
 4118SOL     OW23812   1.878   4.050   2.190 -0.6126 -0.7809 -0.0691
 4118SOL    HW123813   1.859   4.026   2.281 -1.2715  2.0237  0.5316
 4118SOL    HW223814   1.973   4.048   2.189 -0.5680  1.3484 -0.7527
 4119SOL     OW23815   4.428   0.408  12.025  0.3600 -0.0027 -0.3499
 4119SOL    HW123816   4.496   0.444  11.968 -0.9633  2.6650 -0.2568
 4119SOL    HW223817   4.471   0.340  12.077  0.8252  1.1722  0.8129
 4120SOL     OW23818   2.394   2.970   7.421 -0.3479  0.0504 -0.8071
 4120SOL    HW123819   2.468   2.911   7.436 -0.2352 -0.4954 -3.4083
 4120SOL    HW223820   2.423   3.044   7.369 -0.6136  1.3864  0.9590
 4121SOL     OW23821   3.751   3.771   1.397  0.3120 -0.3102 -0.3208
 4121SOL    HW123822   3.746   3.793   1.490 -0.6800  2.3491 -1.0053
 4121SOL    HW223823   3.835   3.725   1.398  0.2960 -0.3329  0.3171
 4122SOL     OW23824   1.974   4.418   7.756  0.0039 -0.2548 -0.2515
 4122SOL    HW123825   1.881   4.396   7.755 -0.0530 -0.0098  0.2848
 4122SOL    HW223826   2.013   4.370   7.829  0.7166  1.3656  0.4277
 4123SOL     OW23827   3.403   3.922   6.385  0.3963  0.1502 -0.1942
 4123SOL    HW123828   3.459   3.984   6.432 -2.0682  2.4371 -0.3139
 4123SOL    HW223829   3.366   3.976   6.316 -2.2479  0.1390  1.2144
 4124SOL     OW23830   2.750   1.615   8.561  0.3149 -0.0440  0.1531
 4124SOL    HW123831   2.710   1.532   8.589 -0.0241 -0.2841 -1.0539
 4124SOL    HW223832   2.672   1.656   8.523  1.3091  1.1179 -0.6345
 4125SOL     OW23833   1.921   4.198  16.320 -0.2554  0.0953 -0.4183
 4125SOL    HW123834   1.836   4.210  16.277 -0.7264  1.0529  0.7884
 4125SOL    HW223835   1.893   4.216  16.409  1.8553  1.4057 -0.0258
 4126SOL     OW23836   2.264   4.017   0.787 -0.5475 -0.3635 -0.0815
 4126SOL    HW123837   2.302   3.991   0.872 -0.9682  0.5119  0.3743
 4126SOL    HW223838   2.246   3.928   0.755  0.0419  0.5416 -2.8344
 4127SOL     OW23839   2.807   2.599   3.096  0.2008 -0.6353  0.1873
 4127SOL    HW123840   2.714   2.577   3.091 -0.3401  1.7905 -0.4329
 4127SOL    HW223841   2.849   2.513   3.101  1.8345  0.1545  0.1043
 4128SOL     OW23842   1.895   2.630   1.344  0.4503 -0.2703  0.1129
 4128SOL    HW123843   1.940   2.713   1.361 -1.5581  0.2777  2.7321
 4128SOL    HW223844   1.957   2.580   1.398 -0.0671 -0.9752  0.0555
 4129SOL     OW23845   0.355   2.144  16.142 -0.0607  0.2948  0.0597
 4129SOL    HW123846   0.305   2.154  16.223  0.5919 -2.7756  0.8597
 4129SOL    HW223847   0.346   2.226  16.094  0.0103  0.3542  0.1470
 4130SOL     OW23848   2.165   3.745  17.352 -0.2345 -0.4645 -0.4292
 4130SOL    HW123849   2.183   3.678  17.286  2.9029  0.5082 -0.5892
 4130SOL    HW223850   2.092   3.705  17.399  1.0180 -1.0785  1.0099
 4131SOL     OW23851   0.791   2.741   3.624 -0.0075 -0.4063  0.1932
 4131SOL    HW123852   0.714   2.745   3.568  0.1405  1.4571  0.1083
 4131SOL    HW223853   0.778   2.822   3.675  1.2752 -0.6526  0.9164
 4132SOL     OW23854   1.998   1.668   1.617  0.5123  0.6965 -0.0315
 4132SOL    HW123855   1.948   1.677   1.536  0.2218  0.9300  0.1762
 4132SOL    HW223856   2.028   1.577   1.604 -0.9953  0.4254 -1.7012
 4133SOL     OW23857   2.436   1.246   6.207  0.0567 -0.0825 -0.2364
 4133SOL    HW123858   2.508   1.229   6.267 -1.8654 -3.8617  1.0288
 4133SOL    HW223859   2.478   1.291   6.134  4.4188 -0.8860  1.8107
 4134SOL     OW23860   1.596   3.734   1.776 -0.1999 -0.1200 -0.1351
 4134SOL    HW123861   1.529   3.681   1.819  0.3508 -0.3587  0.4205
 4134SOL    HW223862   1.657   3.735   1.849 -2.3572  0.6117  1.6534
 4135SOL     OW23863   0.778   1.836   8.088  0.1292 -0.0650  0.4580
 4135SOL    HW123864   0.757   1.762   8.032 -0.1240 -0.5879  1.2435
 4135SOL    HW223865   0.860   1.865   8.047  0.2296 -1.2730 -0.1744
 4136SOL     OW23866   1.275   3.690   2.894 -0.7404  0.4175 -0.5560
 4136SOL    HW123867   1.332   3.615   2.875 -0.7752  0.2872 -0.1680
 4136SOL    HW223868   1.296   3.752   2.825  1.5128 -0.2979 -0.5196
 4137SOL     OW23869   1.912   3.660  11.815 -0.0373  0.0356  0.0603
 4137SOL    HW123870   1.878   3.747  11.796  0.3812 -0.0555 -1.1062
 4137SOL    HW223871   1.978   3.647  11.747 -1.1631 -0.1604 -0.9735
 4138SOL     OW23872   3.728   2.910   3.153 -0.1145 -0.2256 -0.4769
 4138SOL    HW123873   3.644   2.907   3.197  0.0724 -1.0594 -0.1784
 4138SOL    HW223874   3.721   2.963   3.073  2.6682 -0.0217 -0.6096
 4139SOL     OW23875   1.437   2.687   7.179  0.1189 -0.1940  0.6214
 4139SOL    HW123876   1.426   2.650   7.267 -0.8539  0.6515  0.8554
 4139SOL    HW223877   1.370   2.638   7.130 -0.0515  0.7132 -0.0469
 4140SOL     OW23878   2.628   1.896   3.210 -0.6500 -0.1948  0.1875
 4140SOL    HW123879   2.667   1.836   3.145  2.1759  0.3714  1.3588
 4140SOL    HW223880   2.542   1.859   3.230 -1.5239  0.3172 -2.5767
 4141SOL     OW23881   1.051   1.325  15.974 -0.2738 -0.4078  0.1244
 4141SOL    HW123882   1.019   1.242  15.939  0.1226 -0.0044 -1.1844
 4141SOL    HW223883   0.969   1.368  15.951  0.3579 -0.3549 -1.9968
 4142SOL     OW23884   0.112   1.746   8.467 -0.6699  0.5735  0.1031
 4142SOL    HW123885   0.050   1.743   8.540 -0.1164  2.8914  0.6526
 4142SOL    HW223886   0.188   1.785   8.511  1.0865  0.2596 -2.6433
 4143SOL     OW23887   3.257   2.648   4.267  0.1621  0.0641 -0.7283
 4143SOL    HW123888   3.285   2.662   4.357  3.9889 -2.1107 -1.5922
 4143SOL    HW223889   3.343   2.641   4.225  0.0968  0.8835 -1.0126
 4144SOL     OW23890   1.481   1.764  14.602 -0.4875  0.0511 -0.6722
 4144SOL    HW123891   1.534   1.739  14.677 -0.4694  1.9075 -0.0609
 4144SOL    HW223892   1.394   1.769  14.642 -0.9612  0.8870 -1.8015
 4145SOL     OW23893   0.208   2.869  14.148  0.2138  0.6301  0.7408
 4145SOL    HW123894   0.232   2.778  14.133  0.0289  0.9926 -1.6975
 4145SOL    HW223895   0.187   2.891  14.058 -0.0763 -1.0067  0.4195
 4146SOL     OW23896   3.816   1.859  10.148 -0.3483 -0.2525  0.2290
 4146SOL    HW123897   3.894   1.877  10.096 -1.5702  0.3160 -1.3983
 4146SOL    HW223898   3.774   1.945  10.160  0.5262  0.1276  0.5869
 4147SOL     OW23899   0.642   1.591  11.519 -0.7577 -0.7535  0.1928
 4147SOL    HW123900   0.639   1.497  11.497 -1.8193 -0.8916  0.9348
 4147SOL    HW223901   0.590   1.628  11.448 -0.0660 -1.0812 -0.4786
 4148SOL     OW23902   3.450   1.964   1.949  0.2947 -0.0937  0.3309
 4148SOL    HW123903   3.404   1.889   1.988  1.4345 -1.7410 -1.4955
 4148SOL    HW223904   3.525   1.922   1.908 -2.3377 -2.2692 -2.2585
 4149SOL     OW23905   1.855   4.329   2.634  0.0562  0.2340  0.0573
 4149SOL    HW123906   1.830   4.378   2.712 -1.5842  0.0656 -0.3659
 4149SOL    HW223907   1.795   4.256   2.649 -0.6579  0.4835 -1.6544
 4150SOL     OW23908   1.276   0.641   6.409 -0.1036  0.1918 -0.1402
 4150SOL    HW123909   1.312   0.583   6.342 -1.1610 -2.4749  1.5936
 4150SOL    HW223910   1.254   0.720   6.359 -0.6078 -0.1641 -0.4784
 4151SOL     OW23911   3.938   0.092   1.540  0.3420 -0.9109 -0.6185
 4151SOL    HW123912   3.927   0.010   1.491  1.9509 -1.1598 -0.5636
 4151SOL    HW223913   3.932   0.147   1.462  0.9289  0.9731  0.6538
 4152SOL     OW23914   1.181   0.905   2.762  0.5028  0.4323 -0.6855
 4152SOL    HW123915   1.108   0.855   2.725  1.8947 -1.1390 -1.2911
 4152SOL    HW223916   1.234   0.829   2.787  0.2757 -0.3961 -2.7268
 4153SOL     OW23917   0.838   3.583   5.169  0.3048  0.4632  0.5223
 4153SOL    HW123918   0.752   3.571   5.209 -0.2117 -0.3901 -0.8367
 4153SOL    HW223919   0.900   3.591   5.241 -0.5860 -1.9621  1.5292
 4154SOL     OW23920   2.761   3.363   7.672  0.2817  0.1202 -0.1840
 4154SOL    HW123921   2.693   3.309   7.633 -2.2338  2.9876  0.2134
 4154SOL    HW223922   2.707   3.442   7.665 -0.3207 -0.5031 -2.3393
 4155SOL     OW23923   2.517   0.409   9.137 -0.1116  0.2104 -0.7818
 4155SOL    HW123924   2.585   0.357   9.095 -0.5364  0.1159 -1.3642
 4155SOL    HW223925   2.508   0.484   9.078  1.9888  2.4239  1.7213
 4156SOL     OW23926   0.053   1.092   4.312  0.2114  0.0212 -0.1934
 4156SOL    HW123927   0.105   1.138   4.246  0.5513  2.0465  1.5105
 4156SOL    HW223928   0.125   1.045   4.355 -1.9955 -1.1456  2.2439
 4157SOL     OW23929   2.270   1.037   7.132  0.3528 -0.4449  0.0844
 4157SOL    HW123930   2.311   1.056   7.216  1.8515 -0.0961 -0.7346
 4157SOL    HW223931   2.237   1.123   7.108 -0.7231 -0.4246  1.6592
 4158SOL     OW23932   2.673   1.598   8.213 -0.0148  0.2233  0.0291
 4158SOL    HW123933   2.622   1.665   8.258 -0.5222  1.4619 -2.4280
 4158SOL    HW223934   2.758   1.587   8.257  0.6503  1.5946 -0.9362
 4159SOL     OW23935   2.265   1.777  11.618  0.3775 -0.7860 -0.1250
 4159SOL    HW123936   2.187   1.738  11.658  0.9626 -1.1490  0.6617
 4159SOL    HW223937   2.269   1.867  11.652 -1.0928 -0.8971  0.3359
 4160SOL     OW23938   4.041   3.625   0.801 -0.5149 -0.0219  0.0636
 4160SOL    HW123939   4.089   3.546   0.777 -0.9545  0.3477 -2.0773
 4160SOL    HW223940   3.955   3.599   0.834 -0.7597  1.4056  0.5477
 4161SOL     OW23941   0.719   1.835   6.936  0.0033 -0.6533  0.1445
 4161SOL    HW123942   0.625   1.842   6.923  0.0587  1.4066  0.8521
 4161SOL    HW223943   0.742   1.750   6.898 -0.7304 -1.1720  0.8559
 4162SOL     OW23944   2.231   1.481  10.319 -0.1332 -0.2967 -0.5823
 4162SOL    HW123945   2.251   1.555  10.261 -1.2484 -1.6469 -2.7236
 4162SOL    HW223946   2.187   1.523  10.392  1.2258 -1.1729  0.7552
 4163SOL     OW23947   1.543   0.463   8.204  0.2509  0.0686 -0.5501
 4163SOL    HW123948   1.497   0.513   8.136  1.4604  1.5198 -0.2775
 4163SOL    HW223949   1.629   0.504   8.211  0.7938 -1.4043  1.4038
 4164SOL     OW23950   0.641   2.298   3.040  0.1696 -0.1958  0.1117
 4164SOL    HW123951   0.590   2.340   3.110  0.0165  2.4514 -1.6220
 4164SOL    HW223952   0.597   2.329   2.961  2.9679 -1.6009 -2.0092
 4165SOL     OW23953   2.074   1.378   7.996 -0.2819 -0.7303 -0.2789
 4165SOL    HW123954   2.168   1.366   7.990 -0.4356 -1.8334 -0.5046
 4165SOL    HW223955   2.063   1.466   7.960 -0.7078 -1.1003 -1.0618
 4166SOL     OW23956   3.437   1.431   8.868  0.0761 -0.1784  0.7355
 4166SOL    HW123957   3.389   1.385   8.798  0.3744  0.2653  0.2385
 4166SOL    HW223958   3.518   1.381   8.880  0.7462  0.5864 -0.6183
 4167SOL     OW23959   0.297   0.420   9.755  0.0367  0.2372 -0.4039
 4167SOL    HW123960   0.323   0.333   9.786 -1.0959  0.0894  0.1287
 4167SOL    HW223961   0.341   0.470   9.824 -0.5388  0.8451 -0.4755
 4168SOL     OW23962   4.474   3.193  11.130 -0.8533  0.3681 -0.1205
 4168SOL    HW123963   4.535   3.219  11.199  0.6718 -0.6983 -1.0960
 4168SOL    HW223964   4.484   3.098  11.126 -2.1050  0.2218  0.1101
 4169SOL     OW23965   3.018   2.006   9.527 -0.2805  0.1782 -0.1776
 4169SOL    HW123966   3.078   1.950   9.577 -0.9310 -0.5517 -0.2067
 4169SOL    HW223967   3.024   2.083   9.583  0.3784  0.3196 -0.4323
 4170SOL     OW23968   0.669   3.118  13.538 -0.7277 -0.0587  0.5351
 4170SOL    HW123969   0.732   3.050  13.515  0.6563  1.5545 -0.4530
 4170SOL    HW223970   0.593   3.096  13.484 -0.0981  0.3946 -0.5294
 4171SOL     OW23971   3.075   1.093   6.304 -0.7121 -0.4344 -0.0434
 4171SOL    HW123972   3.078   1.035   6.228 -0.7968 -0.0561 -0.3355
 4171SOL    HW223973   3.078   1.178   6.261 -0.0375 -1.6070 -2.3098
 4172SOL     OW23974   1.166   4.645   7.763 -0.3392 -0.7444  0.1181
 4172SOL    HW123975   1.183   4.666   7.671  0.6664 -1.7944  0.0721
 4172SOL    HW223976   1.254   4.625   7.794 -0.9505 -0.6149  1.9399
 4173SOL     OW23977   1.547   2.007   7.155  0.2683 -0.1598 -0.0519
 4173SOL    HW123978   1.565   1.932   7.212  0.5019 -0.4424 -0.4937
 4173SOL    HW223979   1.550   2.071   7.226 -1.4589  0.3274 -0.4148
 4174SOL     OW23980   3.266   0.557   8.353 -0.0868 -0.2358  0.6299
 4174SOL    HW123981   3.175   0.564   8.384  0.1718  1.2233  1.0590
 4174SOL    HW223982   3.306   0.495   8.414 -0.3579 -1.5529 -0.5440
 4175SOL     OW23983   1.036   0.984  15.180 -0.3828 -0.9392  0.5550
 4175SOL    HW123984   0.974   0.935  15.127 -1.3560  1.2190 -0.2822
 4175SOL    HW223985   1.033   0.933  15.262 -1.2956  0.3011  1.2902
 4176SOL     OW23986   0.070   1.716   2.041  0.5322  0.1355  0.3638
 4176SOL    HW123987   0.036   1.725   2.130 -2.0978  0.7569 -0.6871
 4176SOL    HW223988   4.717   1.674   1.997  0.2485  1.6383 -0.5888
 4177SOL     OW23989   4.550   3.040   9.072 -0.0175  0.0013  0.6202
 4177SOL    HW123990   4.544   2.974   9.141  1.2411 -0.6960  0.0621
 4177SOL    HW223991   4.633   3.010   9.035 -1.4310 -2.1312 -0.7936
 4178SOL     OW23992   2.467   1.646   2.097 -0.1855 -0.1286 -0.2582
 4178SOL    HW123993   2.424   1.710   2.040  0.1428  1.0752  0.8255
 4178SOL    HW223994   2.504   1.705   2.164 -0.2948 -0.2583 -0.0821
 4179SOL     OW23995   0.413   3.306   2.344  0.6533  0.1419 -0.6897
 4179SOL    HW123996   0.425   3.280   2.253 -3.3778 -0.8746 -0.9207
 4179SOL    HW223997   0.474   3.242   2.381 -0.1629  0.5152  1.3132
 4180SOL     OW23998   4.161   0.191   3.957  0.9792 -0.3411 -0.0842
 4180SOL    HW123999   4.127   0.188   3.868  0.0449  1.0680  0.2442
 4180SOL    HW224000   4.164   0.285   3.974 -0.5377 -0.3648  0.2655
 4181SOL     OW24001   0.466   1.829   4.417  0.2737 -0.0080 -0.3875
 4181SOL    HW124002   0.535   1.843   4.483  1.2335 -3.6315 -0.6129
 4181SOL    HW224003   0.504   1.883   4.349  1.5153  0.9640  1.0844
 4182SOL     OW24004   3.206   1.982   2.203  0.3630 -0.3442 -1.0369
 4182SOL    HW124005   3.187   1.898   2.244  0.1104  0.5763  0.7537
 4182SOL    HW224006   3.294   1.964   2.169 -0.2343 -1.2209 -2.1071
 4183SOL     OW24007   3.961   4.607  15.081  0.0631 -0.0567 -0.1730
 4183SOL    HW124008   4.025   4.635  15.147 -0.1575  2.9474 -1.2345
 4183SOL    HW224009   3.908   4.547  15.133 -1.2253  0.4417 -0.9087
 4184SOL     OW24010   3.185   1.974   0.496  0.1274 -0.0525 -0.4665
 4184SOL    HW124011   3.185   2.007   0.406 -0.9710  2.8269  0.5745
 4184SOL    HW224012   3.091   1.977   0.514  0.3626 -0.4765  0.8251
 4185SOL     OW24013   0.799   2.072   5.329  0.0705 -0.2219 -0.1231
 4185SOL    HW124014   0.819   2.007   5.396  3.5693  1.1207  0.0987
 4185SOL    HW224015   0.718   2.106   5.367 -0.0874 -0.2643 -0.4153
 4186SOL     OW24016   3.000   2.713  10.387 -0.3081  0.4659 -0.6128
 4186SOL    HW124017   3.074   2.664  10.424  0.1295 -0.4612 -2.7612
 4186SOL    HW224018   2.951   2.727  10.469 -0.3324  0.4286 -0.6211
 4187SOL     OW24019   4.619   2.556   4.908 -0.3599 -0.1375  0.1003
 4187SOL    HW124020   4.655   2.573   4.995 -0.0388 -2.8506  0.5114
 4187SOL    HW224021   4.645   2.631   4.855  0.1020  0.3413  1.0055
 4188SOL     OW24022   4.048   0.533   8.057 -0.1525  1.0596 -0.1987
 4188SOL    HW124023   3.971   0.588   8.074 -1.2403 -0.6864  0.4419
 4188SOL    HW224024   4.057   0.571   7.970  2.9466  0.3529 -0.2166
 4189SOL     OW24025   3.965   1.947   4.407 -0.3270 -0.6860  0.0300
 4189SOL    HW124026   3.937   1.974   4.320 -0.5836  0.5813  0.4926
 4189SOL    HW224027   3.881   1.944   4.454 -0.9007  0.3738 -0.9263
 4190SOL     OW24028   0.457   3.865   3.862  0.1598 -0.3996  0.3196
 4190SOL    HW124029   0.409   3.944   3.884 -1.0655 -0.7115 -1.2597
 4190SOL    HW224030   0.393   3.800   3.890 -0.6883  0.6817  0.9050
 4191SOL     OW24031   4.119   2.630  12.509 -0.2669 -0.0233 -0.0114
 4191SOL    HW124032   4.176   2.707  12.506  0.4648 -0.6471 -2.4609
 4191SOL    HW224033   4.183   2.563  12.531 -0.5452 -0.4746 -0.5830
 4192SOL     OW24034   0.535   0.091   1.503  0.3713  0.1141  0.6410
 4192SOL    HW124035   0.573   0.118   1.419 -1.7889 -2.1721 -1.0404
 4192SOL    HW224036   0.577   0.156   1.560 -1.5837  2.9995 -1.2218
 4193SOL     OW24037   1.127   3.828   5.447 -0.2189  0.2460  0.4541
 4193SOL    HW124038   1.189   3.901   5.446  0.7564 -0.6264 -1.4624
 4193SOL    HW224039   1.045   3.862   5.483 -0.2997  0.1515  0.3593
 4194SOL     OW24040   1.936   0.878   5.616  0.1991  0.2170 -0.4226
 4194SOL    HW124041   1.891   0.963   5.623  0.2124  0.1189  0.9685
 4194SOL    HW224042   1.879   0.844   5.547 -0.0207 -0.9318  0.3219
 4195SOL     OW24043   0.414   3.597  11.765  0.0300  0.2280  0.0382
 4195SOL    HW124044   0.497   3.558  11.791  0.2213 -0.0870 -1.0635
 4195SOL    HW224045   0.443   3.688  11.763 -0.2063  0.2818 -0.8087
 4196SOL     OW24046   1.397   1.138   6.828  0.3102 -0.1727  0.2822
 4196SOL    HW124047   1.378   1.103   6.741  0.5178  1.3357 -0.3634
 4196SOL    HW224048   1.475   1.089   6.856 -0.8805 -1.2051  1.7661
 4197SOL     OW24049   3.081   0.932   8.889  0.1856  0.1598 -0.3268
 4197SOL    HW124050   3.013   0.956   8.952 -0.8606 -0.9586 -1.0229
 4197SOL    HW224051   3.043   0.964   8.807 -1.1599  2.6944  1.2974
 4198SOL     OW24052   3.823   2.794   3.695 -0.0963  0.3291 -0.5555
 4198SOL    HW124053   3.817   2.858   3.766 -0.7249  0.5934 -0.8488
 4198SOL    HW224054   3.882   2.738   3.745  1.8184  2.0830 -0.8494
 4199SOL     OW24055   1.972   0.348   3.437  0.2676 -0.6089  0.3441
 4199SOL    HW124056   1.990   0.265   3.481 -0.7004 -1.1541 -0.2743
 4199SOL    HW224057   2.052   0.391   3.469 -1.0917  0.8777  1.7931
 4200SOL     OW24058   0.654   1.374   5.311  0.0978 -0.2523  0.7416
 4200SOL    HW124059   0.672   1.332   5.396 -2.7529  0.3891  1.6558
 4200SOL    HW224060   0.694   1.302   5.261 -1.0883  1.5830 -2.7834
 4201SOL     OW24061   0.084   4.059   3.772 -0.6379  0.0474 -0.8410
 4201SOL    HW124062   0.013   4.007   3.810  0.8868 -0.8642  0.8015
 4201SOL    HW224063   0.134   3.985   3.738 -0.5171  0.4229 -1.4785
 4202SOL     OW24064   0.552   4.130  11.562  0.1608 -0.0317  0.1818
 4202SOL    HW124065   0.503   4.048  11.572  0.5626 -0.3209 -0.2575
 4202SOL    HW224066   0.529   4.153  11.472  0.7233  1.3941  0.4122
 4203SOL     OW24067   3.697   1.713   2.742 -0.0631  0.3313  0.0723
 4203SOL    HW124068   3.756   1.745   2.673  0.5450  0.3836  0.6234
 4203SOL    HW224069   3.755   1.735   2.814 -0.4079  0.3711  0.3362
 4204SOL     OW24070   3.326   4.510   3.311 -0.2181 -0.1042 -0.0546
 4204SOL    HW124071   3.276   4.499   3.392 -2.6377  1.7782 -1.2990
 4204SOL    HW224072   3.252   4.534   3.255  0.8881 -1.7389 -2.1908
 4205SOL     OW24073   2.390   1.756   7.671  0.3173  0.5492 -0.3790
 4205SOL    HW124074   2.361   1.839   7.632  0.3360  0.4176 -0.6785
 4205SOL    HW224075   2.471   1.784   7.714  0.3007  2.1474 -1.3783
 4206SOL     OW24076   3.765   0.711  13.810 -0.5534 -0.3121  0.0660
 4206SOL    HW124077   3.765   0.712  13.906 -1.9012 -0.6659  0.0754
 4206SOL    HW224078   3.843   0.761  13.786 -0.5359 -0.3818 -0.0232
 4207SOL     OW24079   2.957   0.433   4.751  0.8858  0.8405  0.3834
 4207SOL    HW124080   2.989   0.483   4.826  1.7110  0.7437  0.0953
 4207SOL    HW224081   2.863   0.437   4.770  0.2870 -1.5469 -2.0597
 4208SOL     OW24082   1.674   4.416   6.669  0.0828 -0.0652 -0.1137
 4208SOL    HW124083   1.585   4.403   6.703 -0.3167  4.1482  0.4595
 4208SOL    HW224084   1.718   4.392   6.751 -2.8656  0.6997  1.6941
 4209SOL     OW24085   3.799   0.116   4.630  0.0752  0.4709  0.3195
 4209SOL    HW124086   3.808   0.202   4.670 -0.2705  1.7617 -2.3578
 4209SOL    HW224087   3.776   0.142   4.541  0.0905 -2.5200 -0.5610
 4210SOL     OW24088   2.402   0.650   3.710 -0.1889 -0.5337 -0.2401
 4210SOL    HW124089   2.480   0.704   3.720 -1.0562  0.7271 -0.3085
 4210SOL    HW224090   2.367   0.684   3.628 -1.0612  0.7756  0.6764
 4211SOL     OW24091   2.299   1.621   3.703 -0.0302  0.0598  0.0144
 4211SOL    HW124092   2.385   1.646   3.671 -0.2262  0.6676 -0.0369
 4211SOL    HW224093   2.306   1.653   3.793 -2.9287  1.2493 -0.1859
 4212SOL     OW24094   1.281   1.554   7.578  0.3258 -0.3917 -0.7573
 4212SOL    HW124095   1.314   1.515   7.496 -1.4085 -2.6709 -0.3819
 4212SOL    HW224096   1.314   1.492   7.643 -1.2730 -0.7102 -0.2546
 4213SOL     OW24097   0.530   2.565  15.747  0.4636 -0.3461 -0.1153
 4213SOL    HW124098   0.457   2.505  15.727  0.6893 -0.3630 -0.9003
 4213SOL    HW224099   0.590   2.551  15.674  1.6811 -1.1780  1.0628
 4214SOL     OW24100   1.038   2.604  16.974 -0.5155 -0.0749  0.0693
 4214SOL    HW124101   1.126   2.568  16.971  0.3191  1.6517  2.9272
 4214SOL    HW224102   1.062   2.664  17.045 -1.0493 -0.5889  0.6861
 4215SOL     OW24103   3.926   4.183   7.472  0.0598 -0.4891 -0.2981
 4215SOL    HW124104   3.928   4.096   7.511  0.4646 -1.0793 -1.6031
 4215SOL    HW224105   3.852   4.174   7.412  0.7343 -1.7521 -0.9550
 4216SOL     OW24106   2.532   0.888  13.851 -0.0296  0.1023  0.5585
 4216SOL    HW124107   2.613   0.847  13.820 -0.1409  0.3239 -0.0219
 4216SOL    HW224108   2.483   0.817  13.891 -1.4363  0.3106 -0.8020
 4217SOL     OW24109   2.135   1.446   3.584 -0.1867  0.2004  0.4767
 4217SOL    HW124110   2.185   1.512   3.632  0.0466  1.0969 -1.0105
 4217SOL    HW224111   2.187   1.366   3.589 -0.4537  0.0832  1.3825
 4218SOL     OW24112   0.465   2.551   2.498  0.1624  0.2685 -0.5857
 4218SOL    HW124113   0.442   2.507   2.416  1.5841 -1.4757 -0.0495
 4218SOL    HW224114   0.375   2.558   2.530  0.0026 -1.2076 -0.7218
 4219SOL     OW24115   0.789   3.425   9.142  0.1365 -0.0319  0.4300
 4219SOL    HW124116   0.801   3.468   9.227 -4.0658  0.0423  0.9792
 4219SOL    HW224117   0.851   3.481   9.094  0.7411 -0.8675  0.2333
 4220SOL     OW24118   0.099   3.810   0.362 -0.3565 -0.0435  0.4722
 4220SOL    HW124119   0.162   3.752   0.319  1.8809  3.1105 -0.4853
 4220SOL    HW224120   0.133   3.895   0.334 -0.1431 -0.3104 -0.0641
 4221SOL     OW24121   0.934   0.233   1.316  0.1016  0.6199 -0.9744
 4221SOL    HW124122   0.909   0.154   1.364  2.1561  0.2132 -0.5732
 4221SOL    HW224123   1.025   0.208   1.297 -0.1294 -1.1257  0.2553
 4222SOL     OW24124   0.086   3.097  15.021  0.3574  0.0506 -0.9470
 4222SOL    HW124125   0.156   3.135  15.073  0.1723 -0.2930 -0.4540
 4222SOL    HW224126   0.074   3.164  14.954 -0.5201  1.0299  0.1963
 4223SOL     OW24127   1.261   3.909   9.208  0.1667  0.3200 -0.4550
 4223SOL    HW124128   1.332   3.870   9.259 -0.4652  1.4173  1.2586
 4223SOL    HW224129   1.270   3.864   9.124 -0.5377 -0.0220 -0.3515
 4224SOL     OW24130   3.727   1.304  13.527  0.1714 -0.3038 -0.1834
 4224SOL    HW124131   3.695   1.215  13.510 -0.8863 -0.0248  0.3642
 4224SOL    HW224132   3.745   1.294  13.620 -1.6462 -0.9123  0.0991
 4225SOL     OW24133   0.839   0.990  13.002  0.4206  0.0135  0.0455
 4225SOL    HW124134   0.856   0.958  13.090  0.7575  2.0052  0.6997
 4225SOL    HW224135   0.924   0.998  12.958 -0.7895 -0.1623 -2.3779
 4226SOL     OW24136   1.975   1.198   2.338 -0.1455 -0.4044  0.0518
 4226SOL    HW124137   1.941   1.109   2.336  2.1482 -1.3102  1.2657
 4226SOL    HW224138   1.984   1.205   2.243 -0.7659  0.5480  0.0660
 4227SOL     OW24139   4.500   0.266   9.665 -0.1373  0.3318 -0.0457
 4227SOL    HW124140   4.502   0.191   9.606 -1.7594  1.1595 -1.1368
 4227SOL    HW224141   4.449   0.327   9.612 -1.3479 -0.3765  0.3125
 4228SOL     OW24142   0.590   2.156   5.454 -0.2245  0.5005  0.2928
 4228SOL    HW124143   0.557   2.218   5.518 -1.8033  1.4471 -1.4355
 4228SOL    HW224144   0.517   2.095   5.444  1.9633 -1.8860 -1.4379
 4229SOL     OW24145   0.902   4.156  15.713  0.0070 -0.1698  0.2565
 4229SOL    HW124146   0.809   4.169  15.697 -0.0950 -1.6628 -0.4084
 4229SOL    HW224147   0.910   4.186  15.804 -1.3430 -1.6137  0.8433
 4230SOL     OW24148   1.938   0.253   6.781  0.6944  0.3806 -0.2051
 4230SOL    HW124149   1.867   0.298   6.827  1.1725  0.8118  0.1088
 4230SOL    HW224150   1.922   0.164   6.813  0.2324 -0.0516 -1.5822
 4231SOL     OW24151   2.376   0.576   7.329  0.1292 -0.0061  0.1293
 4231SOL    HW124152   2.328   0.516   7.271  1.4547 -0.0218 -0.9680
 4231SOL    HW224153   2.334   0.659   7.306  1.2714  0.3358 -0.7161
 4232SOL     OW24154   4.538   0.388   3.248 -0.6708  0.9067  0.4917
 4232SOL    HW124155   4.583   0.338   3.180  0.0361  0.2627  1.4288
 4232SOL    HW224156   4.447   0.373   3.221 -0.4186 -0.6459  0.4592
 4233SOL     OW24157   2.999   1.934   8.039 -0.1159 -0.5844  0.3118
 4233SOL    HW124158   3.030   1.883   7.964  1.2841  1.2412 -0.3495
 4233SOL    HW224159   2.905   1.939   8.023 -0.1553 -0.9087  0.4355
 4234SOL     OW24160   3.800   2.190  12.164 -0.0037  0.7559  0.8644
 4234SOL    HW124161   3.837   2.238  12.090 -1.5018  3.5654  1.9298
 4234SOL    HW224162   3.765   2.107  12.131  2.1338 -0.4745  1.6497
 4235SOL     OW24163   1.673   3.991   3.304  0.0564  0.9214 -0.8023
 4235SOL    HW124164   1.755   3.983   3.353 -0.8975 -0.0043  0.6587
 4235SOL    HW224165   1.635   4.063   3.353  1.2320  0.7629  0.3410
 4236SOL     OW24166   1.452   1.949   9.466  0.1256  0.2979 -0.2490
 4236SOL    HW124167   1.387   1.931   9.399 -0.9913  1.1284  0.6161
 4236SOL    HW224168   1.408   2.012   9.523  0.3734 -0.0594  0.3421
 4237SOL     OW24169   1.950   1.026   6.844  0.3469 -0.1417 -0.1316
 4237SOL    HW124170   1.865   0.996   6.874  0.0851  1.0961  0.3679
 4237SOL    HW224171   1.954   1.116   6.876  0.7732 -0.3759  0.4621
 4238SOL     OW24172   3.358   1.454   6.627  0.0432 -0.9018  0.0910
 4238SOL    HW124173   3.421   1.522   6.602 -0.4452 -0.4524  0.0741
 4238SOL    HW224174   3.422   1.399   6.671  0.0043 -0.8868  0.1653
 4239SOL     OW24175   1.237   1.215  12.050  0.2674  0.1910 -0.2426
 4239SOL    HW124176   1.328   1.227  12.023  0.7515 -1.7615  0.5430
 4239SOL    HW224177   1.238   1.235  12.144  2.8806 -0.3803 -0.1692
 4240SOL     OW24178   1.874   4.589   4.640  0.2392 -0.1217 -0.0908
 4240SOL    HW124179   1.800   4.528   4.643  0.8098 -0.8720 -1.4481
 4240SOL    HW224180   1.836   4.668   4.601  1.5777  0.9117  0.7154
 4241SOL     OW24181   3.054   1.831  16.156 -0.2421 -0.0312 -0.4992
 4241SOL    HW124182   3.065   1.764  16.224 -0.6811  0.3023 -0.0970
 4241SOL    HW224183   2.965   1.865  16.168 -0.1504 -0.0326  0.1569
 4242SOL     OW24184   0.992   4.667   1.841 -0.0332 -0.1863 -0.0427
 4242SOL    HW124185   1.047   4.695   1.768 -0.0628 -0.9576 -0.3625
 4242SOL    HW224186   1.006   0.004   1.914  1.5787 -1.6594  0.8386
 4243SOL     OW24187   3.904   1.045  13.542  0.5598  0.2829 -0.0065
 4243SOL    HW124188   3.919   1.124  13.490  2.9960  0.1575  0.4973
 4243SOL    HW224189   3.809   1.039  13.535  0.7516 -0.8364 -1.7675
 4244SOL     OW24190   3.307   3.211   6.695  0.2131  0.0873 -0.7942
 4244SOL    HW124191   3.219   3.203   6.734  0.8723 -1.1905  0.4239
 4244SOL    HW224192   3.300   3.297   6.654 -1.9089 -0.0421 -0.7135
 4245SOL     OW24193   2.311   2.175   6.656  0.2488  0.7629 -0.5368
 4245SOL    HW124194   2.279   2.182   6.566 -1.1726 -1.6423 -0.2231
 4245SOL    HW224195   2.385   2.118   6.635 -2.0915 -1.7402 -2.0067
 4246SOL     OW24196   4.442   3.541   4.001  0.5219  0.2481  0.0869
 4246SOL    HW124197   4.355   3.505   4.014  0.2772 -0.2985 -2.9277
 4246SOL    HW224198   4.425   3.634   3.988  2.0051  0.7808  1.9678
 4247SOL     OW24199   3.409   1.942   4.275 -0.2910 -0.2953 -0.0299
 4247SOL    HW124200   3.364   2.026   4.268 -0.2357 -0.1908  0.8842
 4247SOL    HW224201   3.467   1.951   4.200  0.4730  0.3836  0.6460
 4248SOL     OW24202   1.378   4.059   6.873 -0.1883 -0.5389 -0.0771
 4248SOL    HW124203   1.376   3.967   6.898  0.2764 -1.1288 -2.2314
 4248SOL    HW224204   1.454   4.050   6.816 -0.7377  2.1871 -1.2669
 4249SOL     OW24205   3.527   2.653   0.879  0.1858  0.5846  0.2617
 4249SOL    HW124206   3.461   2.584   0.871  0.5712  0.2026  0.3941
 4249SOL    HW224207   3.606   2.602   0.895  1.1028  2.1841  0.7698
 4250SOL     OW24208   3.923   4.598   1.397  0.3280 -0.7296  0.0412
 4250SOL    HW124209   3.891   4.567   1.312 -1.3262 -0.4807  0.5604
 4250SOL    HW224210   3.928   4.517   1.448  0.6527  0.8240  2.4761
 4251SOL     OW24211   0.062   2.301   8.235  0.4978 -0.0543 -0.3841
 4251SOL    HW124212   0.128   2.352   8.283 -0.4354  0.0346  0.8178
 4251SOL    HW224213   0.072   2.213   8.273 -1.7014  0.1650  0.6985
 4252SOL     OW24214   0.770   0.130  14.970  0.5667 -0.2082 -0.1591
 4252SOL    HW124215   0.749   0.223  14.976  1.0134 -0.2213  1.7971
 4252SOL    HW224216   0.747   0.098  15.058 -0.2560  2.7533  0.6858
 4253SOL     OW24217   4.626   2.214   5.290  0.5738 -0.3706 -0.3603
 4253SOL    HW124218   4.655   2.299   5.323 -2.2685  0.7500 -0.6578
 4253SOL    HW224219   4.699   2.168   5.331  0.0465 -2.1846 -1.4725
 4254SOL     OW24220   1.950   3.816   1.096  0.3717  0.0955 -0.4342
 4254SOL    HW124221   1.896   3.818   1.175  0.1973  1.6786 -0.5804
 4254SOL    HW224222   1.986   3.729   1.113  1.2827  0.7410  0.9221
 4255SOL     OW24223   0.867   2.611  14.523  0.4857  0.2014  0.0205
 4255SOL    HW124224   0.915   2.583  14.445  0.5830 -0.8957  0.4792
 4255SOL    HW224225   0.855   2.526  14.564 -0.7088 -0.1294 -1.0023
 4256SOL     OW24226   2.695   4.642   2.755  0.0111 -0.2931 -0.2644
 4256SOL    HW124227   2.658   0.004   2.727 -0.8999 -0.3891  0.6788
 4256SOL    HW224228   2.643   4.587   2.696 -0.6638  1.7806 -1.6240
 4257SOL     OW24229   1.359   1.409   5.882 -0.3049 -0.6485 -0.3411
 4257SOL    HW124230   1.450   1.392   5.905  0.7409  3.6995 -1.3040
 4257SOL    HW224231   1.370   1.431   5.789 -1.5370 -0.9347 -0.5599
 4258SOL     OW24232   0.485   1.889   3.935 -0.2910 -0.8975  0.2193
 4258SOL    HW124233   0.507   1.921   3.847 -2.4885  0.1901  0.0762
 4258SOL    HW224234   0.461   1.799   3.916 -0.9267 -0.4967 -0.8640
 4259SOL     OW24235   2.664   1.305  12.477 -0.1367 -0.2528  0.6547
 4259SOL    HW124236   2.580   1.277  12.440  0.7135 -0.4845 -1.1085
 4259SOL    HW224237   2.720   1.305  12.399  1.0902  0.9838  1.5263
 4260SOL     OW24238   1.336   0.674   6.683 -0.1790  0.3865  0.3973
 4260SOL    HW124239   1.257   0.726   6.696 -1.0604 -1.3612  2.0201
 4260SOL    HW224240   1.314   0.649   6.593  4.2185  3.1512 -1.4757
 4261SOL     OW24241   2.302   1.584   2.507  0.0561  0.4298 -0.2103
 4261SOL    HW124242   2.305   1.541   2.592  3.9731 -1.4576 -1.2953
 4261SOL    HW224243   2.390   1.622   2.493 -1.9377  4.2032 -2.6500
 4262SOL     OW24244   1.228   3.897  14.153 -0.1120 -0.5707  0.6041
 4262SOL    HW124245   1.160   3.861  14.096 -0.0309  1.1942 -0.6349
 4262SOL    HW224246   1.296   3.856  14.100 -0.6473  0.2677 -0.7442
 4263SOL     OW24247   2.300   0.227   5.958 -0.1453  0.7253 -0.1464
 4263SOL    HW124248   2.277   0.276   6.037 -0.4186 -1.0340  0.8716
 4263SOL    HW224249   2.243   0.274   5.897 -2.1600  2.1154  2.8107
 4264SOL     OW24250   4.194   0.153   2.886 -0.3023 -0.5505 -0.2310
 4264SOL    HW124251   4.119   0.119   2.837  0.3200  0.5406 -1.9519
 4264SOL    HW224252   4.230   0.219   2.827 -0.3743  0.8211  1.2638
 4265SOL     OW24253   1.271   2.491  16.919  0.0877 -0.1990  0.1455
 4265SOL    HW124254   1.284   2.413  16.865 -0.5288 -1.2578  1.5284
 4265SOL    HW224255   1.336   2.552  16.884  0.9998 -1.4013 -0.2816
 4266SOL     OW24256   4.082   0.302  16.252 -0.7412  0.1489  0.4015
 4266SOL    HW124257   4.063   0.367  16.185  4.2778 -1.8722 -3.0241
 4266SOL    HW224258   4.176   0.283  16.247 -1.4331 -3.1439 -0.5459
 4267SOL     OW24259   3.027   1.861   4.657 -0.4681  0.0476 -0.1986
 4267SOL    HW124260   3.096   1.860   4.591  0.9826  1.8414  1.2712
 4267SOL    HW224261   2.958   1.804   4.623  1.7812 -3.0996  0.4782
 4268SOL     OW24262   3.590   4.306  11.112 -0.5106 -0.5360 -0.2471
 4268SOL    HW124263   3.650   4.347  11.173 -1.5693 -0.4838  0.7544
 4268SOL    HW224264   3.520   4.281  11.172 -0.0615 -0.7386  0.1859
 4269SOL     OW24265   2.725   2.069  15.244 -0.0103  0.0952  0.2393
 4269SOL    HW124266   2.670   2.035  15.316 -1.2726  2.3668  0.3612
 4269SOL    HW224267   2.809   2.053  15.286 -0.0620 -0.5498  0.0977
 4270SOL     OW24268   1.502   4.690  14.333  0.1588 -0.0465  0.8574
 4270SOL    HW124269   1.420   4.655  14.298  0.9957 -0.2716 -0.8899
 4270SOL    HW224270   1.464   0.053  14.354  0.4836 -0.0689  1.5265
 4271SOL     OW24271   3.866   0.046  11.241  0.7394 -0.2908 -0.0623
 4271SOL    HW124272   3.848   0.097  11.162  1.4827 -2.4416 -1.6117
 4271SOL    HW224273   3.959   0.058  11.256  1.1571  0.3315 -3.1923
 4272SOL     OW24274   0.646   0.813   0.697 -0.1228  0.7197  0.2233
 4272SOL    HW124275   0.733   0.850   0.711 -0.0128  0.2704  0.7197
 4272SOL    HW224276   0.618   0.787   0.785 -0.1052 -0.2811 -0.0691
 4273SOL     OW24277   4.052   1.608  14.082  0.3134 -0.2305  0.5081
 4273SOL    HW124278   4.043   1.685  14.137 -1.3950  2.3842 -3.3912
 4273SOL    HW224279   4.127   1.643  14.034  1.1151  0.5566  2.3435
 4274SOL     OW24280   4.623   0.642   6.466 -0.2006  0.0401 -0.0970
 4274SOL    HW124281   4.546   0.648   6.410 -0.7210  0.9776  0.7164
 4274SOL    HW224282   4.682   0.690   6.408 -2.0275  1.9856 -0.3469
 4275SOL     OW24283   0.863   2.405   5.639 -0.1773  0.7740  0.1125
 4275SOL    HW124284   0.799   2.352   5.592 -0.5159  1.5598 -0.3199
 4275SOL    HW224285   0.813   2.483   5.665  1.1942  2.0145 -0.9557
 4276SOL     OW24286   1.799   0.053   8.963  0.6763 -0.0784 -0.3556
 4276SOL    HW124287   1.746   4.702   8.932 -0.8112  0.8778 -0.0677
 4276SOL    HW224288   1.746   0.073   9.041 -1.3727 -0.7484 -1.5719
 4277SOL     OW24289   2.540   2.675  15.348 -0.6340 -0.2695  0.0303
 4277SOL    HW124290   2.448   2.703  15.347 -0.5406  0.0251 -0.2487
 4277SOL    HW224291   2.553   2.654  15.440  1.2578  4.0863  0.7269
 4278SOL     OW24292   1.704   1.669  15.337 -0.2534  0.3791  0.4334
 4278SOL    HW124293   1.637   1.646  15.401  0.0240  1.2803  1.0492
 4278SOL    HW224294   1.780   1.618  15.364  1.4411  2.4789 -0.3904
 4279SOL     OW24295   4.567   2.212  17.040  0.1524  0.5125  0.4558
 4279SOL    HW124296   4.582   2.298  17.000  0.5269  1.0912  1.8727
 4279SOL    HW224297   4.508   2.239  17.110 -1.2931  0.0842 -0.5857
 4280SOL     OW24298   2.490   0.161   2.411  0.6008 -0.2429  0.2934
 4280SOL    HW124299   2.427   0.147   2.482  0.1565 -0.6141 -0.1740
 4280SOL    HW224300   2.467   0.088   2.354 -0.2958  1.7507 -1.8827
 4281SOL     OW24301   0.668   0.108   4.484 -0.6455 -0.2475 -0.5520
 4281SOL    HW124302   0.736   0.105   4.416  0.2908 -0.7806  0.4009
 4281SOL    HW224303   0.720   0.131   4.561 -1.4339 -0.1209 -0.0621
 4282SOL     OW24304   0.653   3.051   4.167 -0.4251  0.2043  0.3214
 4282SOL    HW124305   0.606   3.126   4.129  0.6888  0.2747 -0.9495
 4282SOL    HW224306   0.573   2.999   4.171 -0.2258 -0.3409 -2.6860
 4283SOL     OW24307   3.345   0.184   1.994 -0.4687  0.1909 -0.2857
 4283SOL    HW124308   3.322   0.145   1.910 -1.1114 -1.2136  0.5541
 4283SOL    HW224309   3.438   0.205   1.986  0.2624 -2.1958  2.1164
 4284SOL     OW24310   2.836   2.729   3.361  0.0574  0.2837  0.7248
 4284SOL    HW124311   2.743   2.722   3.384  0.2231  3.0246  2.2713
 4284SOL    HW224312   2.841   2.730   3.266 -0.1078  1.8680  0.7310
 4285SOL     OW24313   3.230   3.510   1.971  0.0992 -0.2289 -0.1187
 4285SOL    HW124314   3.316   3.545   1.993 -1.5382  2.3329  2.1315
 4285SOL    HW224315   3.269   3.450   1.907  0.7339  0.3366 -0.2565
 4286SOL     OW24316   3.994   3.066   5.185 -0.4085  0.2437  0.3077
 4286SOL    HW124317   3.970   3.143   5.238  0.1518 -0.0125  0.9236
 4286SOL    HW224318   4.076   3.038   5.224 -1.4453 -1.7506  1.0384
 4287SOL     OW24319   1.102   3.469  12.869 -0.3347  0.2301  0.0150
 4287SOL    HW124320   1.145   3.546  12.905 -0.5673  1.6011 -2.6411
 4287SOL    HW224321   1.137   3.395  12.920  2.3822  1.4455 -0.0553
 4288SOL     OW24322   2.757   4.241  13.738 -0.4073  0.1964 -1.1166
 4288SOL    HW124323   2.675   4.205  13.773  0.1204  0.0221 -0.0271
 4288SOL    HW224324   2.722   4.318  13.694 -3.2836 -0.6524 -0.3692
 4289SOL     OW24325   3.180   1.925  13.382 -0.2220 -0.1288 -0.4925
 4289SOL    HW124326   3.212   1.936  13.471 -1.6302  1.2168 -0.1579
 4289SOL    HW224327   3.244   1.877  13.330 -0.8407 -0.6543 -0.7669
 4290SOL     OW24328   1.383   2.255   3.102 -0.0563 -0.5095 -0.0238
 4290SOL    HW124329   1.337   2.229   3.181  0.7850  0.1403  0.6866
 4290SOL    HW224330   1.437   2.322   3.145  0.0253 -0.2890 -0.4655
 4291SOL     OW24331   1.844   2.597   8.565  0.4140 -0.0154  0.0055
 4291SOL    HW124332   1.861   2.559   8.479 -0.3274 -0.7616  0.1843
 4291SOL    HW224333   1.805   2.525   8.614 -0.5510  0.8522  0.5119
 4292SOL     OW24334   1.391   0.578   8.422  0.6645  0.6556  0.4542
 4292SOL    HW124335   1.419   0.556   8.333 -0.8379 -0.0326  0.1429
 4292SOL    HW224336   1.467   0.552   8.473 -1.2912 -2.8259  1.6068
 4293SOL     OW24337   2.769   1.790  17.146  0.2446  0.6629  0.3806
 4293SOL    HW124338   2.696   1.829  17.195 -0.1171  0.8796 -0.3315
 4293SOL    HW224339   2.751   1.697  17.137  1.3441  0.3372  1.5807
 4294SOL     OW24340   4.654   0.171  13.204 -0.3103 -0.4489 -0.0181
 4294SOL    HW124341   4.714   0.229  13.251  0.2680 -1.5988  0.6588
 4294SOL    HW224342   4.666   0.194  13.112  1.4287 -0.3014  0.2442
 4295SOL     OW24343   0.991   2.220  14.523 -0.2585 -0.0809 -0.3174
 4295SOL    HW124344   1.061   2.281  14.549  0.5194 -0.3667 -1.7400
 4295SOL    HW224345   0.927   2.285  14.494 -0.7318 -0.6286 -0.4938
 4296SOL     OW24346   1.771   1.738   0.457 -0.2236  0.2658  0.2176
 4296SOL    HW124347   1.765   1.817   0.510  1.6248 -0.6920  1.8240
 4296SOL    HW224348   1.700   1.684   0.493 -0.0482 -0.3824 -0.4062
 4297SOL     OW24349   2.878   1.477   5.957 -0.5457  0.0210  0.8665
 4297SOL    HW124350   2.973   1.468   5.954 -0.4909  1.3264 -1.1570
 4297SOL    HW224351   2.857   1.449   5.868  0.1670  1.5848  0.1976
 4298SOL     OW24352   2.648   1.751  13.846  0.0673 -0.1583 -0.4174
 4298SOL    HW124353   2.622   1.780  13.934  0.0393  2.0414 -1.1386
 4298SOL    HW224354   2.560   1.734  13.811 -0.8596  1.6382  1.0124
 4299SOL     OW24355   0.040   1.297   8.946  0.0550 -0.1996  0.0008
 4299SOL    HW124356   0.004   1.221   8.992 -1.0167  0.2380 -0.1171
 4299SOL    HW224357   0.034   1.364   9.014 -1.2103 -1.2417  0.9037
 4300SOL     OW24358   1.575   2.183   4.068  0.0225  0.2545  0.3087
 4300SOL    HW124359   1.511   2.246   4.100  0.6701  0.1483  1.8214
 4300SOL    HW224360   1.637   2.236   4.017  2.4608 -1.0093  1.9233
 4301SOL     OW24361   3.836   1.158   9.668 -0.4430  0.7556  0.0610
 4301SOL    HW124362   3.890   1.079   9.662  0.2330  1.0962  1.8025
 4301SOL    HW224363   3.891   1.204   9.731 -2.2550  1.4901  1.1061
 4302SOL     OW24364   3.383   0.359  10.526  0.4687  0.0435  0.2297
 4302SOL    HW124365   3.299   0.313  10.529  2.1193 -2.9006  0.3053
 4302SOL    HW224366   3.397   0.378  10.618 -0.4471  1.3674  0.1068
 4303SOL     OW24367   1.468   0.093  10.422 -0.3609 -0.0442 -0.6426
 4303SOL    HW124368   1.479   0.006  10.461  0.3836 -0.0915 -0.9512
 4303SOL    HW224369   1.440   0.079  10.331 -0.0580 -0.6649 -0.6448
 4304SOL     OW24370   0.044   3.949   0.079  0.0750 -0.4812  0.2127
 4304SOL    HW124371   0.131   3.936   0.039 -0.7662 -0.2591 -1.7106
 4304SOL    HW224372   0.007   3.863   0.060  0.5487 -1.0597  1.9086
 4305SOL     OW24373   4.244   2.624   5.458  0.2175  0.7278  0.4413
 4305SOL    HW124374   4.286   2.710   5.461  1.0902  0.2537  1.8132
 4305SOL    HW224375   4.301   2.568   5.510 -1.4886 -0.4168  1.0658
 4306SOL     OW24376   1.904   1.398   2.526 -0.1520 -0.2607  0.5470
 4306SOL    HW124377   1.934   1.314   2.490  2.3707  0.9024 -0.1062
 4306SOL    HW224378   1.947   1.453   2.460 -2.8270  1.3723  0.1553
 4307SOL     OW24379   1.424   0.504   3.193 -0.0466 -0.1471  0.1635
 4307SOL    HW124380   1.411   0.581   3.249  1.7042  0.2056  0.0581
 4307SOL    HW224381   1.377   0.533   3.115 -1.2254  0.6325  1.1579
 4308SOL     OW24382   0.413   2.033   8.463 -0.0715 -0.4620 -0.0025
 4308SOL    HW124383   0.480   1.991   8.408 -0.2619 -0.2859 -0.3699
 4308SOL    HW224384   0.461   2.113   8.485 -1.3548 -0.3244  2.3101
 4309SOL     OW24385   1.844   0.061   9.412  0.6046  0.9882 -0.1612
 4309SOL    HW124386   1.895   0.107   9.346  0.8669  0.3619 -0.3920
 4309SOL    HW224387   1.911   0.006   9.452 -2.7964 -2.5757  0.6808
 4310SOL     OW24388   0.342   1.389  12.673 -0.3455  0.1648  0.2039
 4310SOL    HW124389   0.270   1.396  12.736 -0.8988  1.4341 -0.5829
 4310SOL    HW224390   0.319   1.438  12.594 -1.1033  0.1920  0.4401
 4311SOL     OW24391   0.701   2.769   9.921  0.2006  0.0073  0.5687
 4311SOL    HW124392   0.619   2.723   9.907 -0.4641  0.3925  3.3077
 4311SOL    HW224393   0.680   2.852   9.879  2.1412 -0.2797 -1.0034
 4312SOL     OW24394   3.772   0.017   5.610 -0.3584 -0.4925 -0.0304
 4312SOL    HW124395   3.792   4.648   5.635  0.2696  0.0734  1.5326
 4312SOL    HW224396   3.722   4.719   5.531  0.6549 -0.8578 -0.5708
 4313SOL     OW24397   4.403   3.834   3.924 -0.5332 -0.3295  0.3398
 4313SOL    HW124398   4.365   3.846   3.837  0.0365  0.3481  0.1846
 4313SOL    HW224399   4.495   3.859   3.916 -0.6537 -0.0248 -0.1147
 4314SOL     OW24400   0.721   2.539   3.244 -0.4269 -0.1922  0.3786
 4314SOL    HW124401   0.752   2.574   3.160  1.2778 -1.3340  0.5448
 4314SOL    HW224402   0.635   2.507   3.218  1.0634 -2.5453 -1.7622
 4315SOL     OW24403   0.430   0.450  12.566 -0.5229  0.4496  0.6000
 4315SOL    HW124404   0.429   0.445  12.471  1.2424  0.0201  0.6088
 4315SOL    HW224405   0.483   0.526  12.590 -1.0841  1.4833 -1.4530
 4316SOL     OW24406   2.301   0.057   8.193 -0.2589  0.2425 -0.7859
 4316SOL    HW124407   2.321   4.699   8.242  3.7669  0.5858 -1.8775
 4316SOL    HW224408   2.208   0.045   8.175 -0.5394  1.5200 -0.1839
 4317SOL     OW24409   0.512   1.599  17.091  0.4338 -0.1102 -0.2934
 4317SOL    HW124410   0.423   1.588  17.056  0.6838  2.5072 -1.8134
 4317SOL    HW224411   0.552   1.512  17.089  0.8856  0.1035 -0.6157
 4318SOL     OW24412   0.414   2.852  13.433  0.0125  0.5560 -0.4919
 4318SOL    HW124413   0.336   2.846  13.489 -0.0621  1.1384 -0.5361
 4318SOL    HW224414   0.421   2.947  13.423  2.2830  0.5783  1.3258
 4319SOL     OW24415   4.557   1.600   4.668 -0.1051 -0.2692 -0.2468
 4319SOL    HW124416   4.580   1.674   4.611 -0.5003 -0.7575 -1.0500
 4319SOL    HW224417   4.624   1.534   4.647  0.7689  0.5071  0.1433
 4320SOL     OW24418   0.547   3.376   4.865 -0.0437 -0.5285 -0.0529
 4320SOL    HW124419   0.557   3.466   4.835 -3.5213  0.2952  1.1998
 4320SOL    HW224420   0.549   3.384   4.961  2.5440  0.5532 -0.2052
 4321SOL     OW24421   0.198   3.804   9.269  0.1067 -0.4435  0.3488
 4321SOL    HW124422   0.264   3.779   9.334 -0.6729  0.3403  1.4562
 4321SOL    HW224423   0.115   3.798   9.316  0.4570  1.1658  1.1883
 4322SOL     OW24424   0.098   3.660   8.544  0.4774  0.2209 -0.0491
 4322SOL    HW124425   0.182   3.654   8.498  0.1345 -0.9459 -0.5260
 4322SOL    HW224426   0.062   3.572   8.543 -2.0912  1.2249  3.1479
 4323SOL     OW24427   2.527   0.129   9.440  0.4074 -0.1337  0.5763
 4323SOL    HW124428   2.433   0.112   9.433  0.8764 -3.4843  2.2154
 4323SOL    HW224429   2.525   0.224   9.448  0.3668 -0.0115 -0.8902
 4324SOL     OW24430   2.767   2.078   2.322  0.3401  0.0763  0.0432
 4324SOL    HW124431   2.859   2.102   2.330  0.6499 -0.5542 -1.6483
 4324SOL    HW224432   2.737   2.116   2.239 -0.5179  1.0324  0.7860
 4325SOL     OW24433   2.119   4.572   8.460 -0.4337 -0.2529 -0.2398
 4325SOL    HW124434   2.091   4.481   8.467 -1.0847  0.0619  1.1192
 4325SOL    HW224435   2.208   4.562   8.426  0.3165 -0.9714  1.9398
 4326SOL     OW24436   4.586   3.600   1.110 -0.1553 -0.4349  0.0021
 4326SOL    HW124437   4.509   3.597   1.054 -0.9052  0.3442  0.9838
 4326SOL    HW224438   4.554   3.588   1.200 -1.3656  1.8401 -0.1286
 4327SOL     OW24439   3.223   1.779  14.897 -0.0335 -0.4697  0.1576
 4327SOL    HW124440   3.244   1.753  14.987 -2.7789  2.0689  1.5484
 4327SOL    HW224441   3.209   1.697  14.850 -0.4679  0.2574 -0.9776
 4328SOL     OW24442   0.118   2.158  15.938  0.2768 -0.5464  0.4056
 4328SOL    HW124443   0.200   2.164  15.988  0.3853 -2.4512  0.4341
 4328SOL    HW224444   0.147   2.154  15.847  0.0545  0.6473  0.2768
 4329SOL     OW24445   1.587   4.673   6.877  0.4293  0.3581 -0.8917
 4329SOL    HW124446   1.595   4.592   6.926  0.1943 -0.1665 -1.7211
 4329SOL    HW224447   1.514   4.649   6.820 -0.4569  1.1219 -0.0768
 4330SOL     OW24448   1.547   3.374   9.755 -0.5270  0.0227  0.3081
 4330SOL    HW124449   1.530   3.315   9.681  1.3964 -0.1160 -0.0210
 4330SOL    HW224450   1.642   3.381   9.744 -1.1922  3.4347 -3.5356
 4331SOL     OW24451   1.686   1.392   8.042  0.2546 -0.5435  0.2373
 4331SOL    HW124452   1.702   1.397   8.137 -0.9603  2.8344  0.2581
 4331SOL    HW224453   1.765   1.428   8.004 -0.8427  1.6704  0.0363
 4332SOL     OW24454   0.887   0.756  14.730  0.0028  0.1885 -0.2363
 4332SOL    HW124455   0.908   0.849  14.740  2.6898 -0.6046  1.5831
 4332SOL    HW224456   0.831   0.760  14.652 -0.4672  0.4195  0.1114
 4333SOL     OW24457   2.372   4.273   5.851 -0.1613  0.3447 -0.0799
 4333SOL    HW124458   2.460   4.312   5.853 -0.6113  1.2349  2.3297
 4333SOL    HW224459   2.327   4.334   5.793  1.8043  1.4427 -0.4753
 4334SOL     OW24460   0.298   2.330  16.665  0.3147  0.1375  0.2358
 4334SOL    HW124461   0.279   2.279  16.744 -0.4113 -1.0259 -0.6795
 4334SOL    HW224462   0.377   2.377  16.691  0.6650 -2.3538  3.7535
 4335SOL     OW24463   4.436   0.077  12.566  0.5268  0.2611  0.6658
 4335SOL    HW124464   4.512   0.057  12.620 -0.2933 -1.0634  1.3227
 4335SOL    HW224465   4.469   0.104  12.480 -2.7038 -0.7064 -0.8846
 4336SOL     OW24466   4.031   2.472   8.460 -0.2693  0.8449  0.3410
 4336SOL    HW124467   3.942   2.494   8.487 -0.4805 -0.3924  0.6411
 4336SOL    HW224468   4.081   2.506   8.534  2.8137 -1.3636 -0.7241
 4337SOL     OW24469   1.449   3.130   4.065 -0.2459 -0.4952 -0.0033
 4337SOL    HW124470   1.383   3.127   4.135 -0.3435  1.6855 -0.0124
 4337SOL    HW224471   1.485   3.042   4.077 -0.6485 -0.5806  0.6028
 4338SOL     OW24472   1.552   4.307  12.707  0.1880 -0.0892  0.1749
 4338SOL    HW124473   1.634   4.356  12.718  0.5618 -0.9945  1.5044
 4338SOL    HW224474   1.485   4.374  12.713  0.8892  0.6034  0.2771
 4339SOL     OW24475   0.910   1.284   0.766 -0.0945 -0.4400  0.0103
 4339SOL    HW124476   0.996   1.319   0.745  0.5333 -1.8965  0.1264
 4339SOL    HW224477   0.846   1.348   0.736  1.1768  0.1356 -1.4455
 4340SOL     OW24478   2.819   1.725   3.025  0.8051  0.2195 -0.2635
 4340SOL    HW124479   2.812   1.818   3.004  0.4824  0.1507 -0.4650
 4340SOL    HW224480   2.906   1.701   2.994  1.5694  1.2695  1.0958
 4341SOL     OW24481   0.577   0.804   9.679  0.2360  0.2462  0.7440
 4341SOL    HW124482   0.607   0.721   9.717 -2.3004 -0.4872  1.1823
 4341SOL    HW224483   0.494   0.777   9.640  1.1629 -0.3604 -0.7970
 4342SOL     OW24484   0.428   2.520  13.652  0.5313 -0.0766 -0.1578
 4342SOL    HW124485   0.415   2.518  13.557 -1.7718  1.9942  0.1148
 4342SOL    HW224486   0.338   2.525  13.683  1.2121 -1.0467  1.9610
 4343SOL     OW24487   0.370   0.393   1.992 -0.0769  0.1047  0.2455
 4343SOL    HW124488   0.391   0.322   1.931  0.6979  0.1174  0.4989
 4343SOL    HW224489   0.323   0.448   1.929 -0.1464  1.0208  1.1112
 4344SOL     OW24490   3.063   2.260  14.750  0.2045  0.6548 -0.1817
 4344SOL    HW124491   3.056   2.173  14.787  3.1006  0.5046 -0.0424
 4344SOL    HW224492   3.019   2.245  14.666  0.6998  1.2803 -0.5544
 4345SOL     OW24493   0.359   3.069   2.848  0.3193  0.3618 -0.7550
 4345SOL    HW124494   0.292   3.053   2.781  0.6112  1.1957 -1.2426
 4345SOL    HW224495   0.435   3.093   2.795  2.6125 -2.9995  1.0396
 4346SOL     OW24496   2.213   1.631   4.819 -0.1738  0.8284 -0.3221
 4346SOL    HW124497   2.238   1.714   4.859  0.5328  0.3326  0.2629
 4346SOL    HW224498   2.243   1.632   4.728  2.0750  0.1771  0.3828
 4347SOL     OW24499   4.223   2.684   3.115 -0.5837  0.1067  0.2972
 4347SOL    HW124500   4.293   2.749   3.114 -1.6196  1.1898 -0.6338
 4347SOL    HW224501   4.156   2.733   3.069 -1.1547 -0.6805  0.2935
 4348SOL     OW24502   2.168   0.783   4.781  0.2574  0.0228 -0.4150
 4348SOL    HW124503   2.144   0.867   4.822  1.7051  0.5317 -0.6309
 4348SOL    HW224504   2.090   0.736   4.812  0.3010  0.2453  0.0416
 4349SOL     OW24505   0.811   3.007   1.907  0.1614  0.2142 -0.1163
 4349SOL    HW124506   0.827   2.973   1.819 -1.4008 -1.9112  0.4213
 4349SOL    HW224507   0.838   2.940   1.969  0.3405  0.5255  0.1437
 4350SOL     OW24508   0.850   1.747   5.724  0.2905 -0.0373 -0.0323
 4350SOL    HW124509   0.905   1.787   5.792 -2.1171 -0.3427  2.0778
 4350SOL    HW224510   0.804   1.673   5.764 -0.9099  0.6008 -0.2453
 4351SOL     OW24511   3.381   3.115   2.460  0.6290 -0.4485  0.0555
 4351SOL    HW124512   3.307   3.055   2.447  1.1491 -1.2872  1.0352
 4351SOL    HW224513   3.452   3.071   2.412  1.3720 -0.5986  1.3015
 4352SOL     OW24514   0.781   0.988   4.123 -0.1842 -0.2089  0.5072
 4352SOL    HW124515   0.761   1.070   4.079 -0.9379  0.1279  1.4680
 4352SOL    HW224516   0.725   0.926   4.077  0.1927  0.5495 -0.9667
 4353SOL     OW24517   1.402   1.590   6.408 -0.1436 -0.1299 -0.2849
 4353SOL    HW124518   1.467   1.544   6.355 -1.0552 -2.4752  0.6073
 4353SOL    HW224519   1.331   1.594   6.344  0.6727 -1.4159 -1.2733
 4354SOL     OW24520   1.158   0.856   6.257  0.6249 -0.7855 -0.1407
 4354SOL    HW124521   1.099   0.915   6.305  1.1523 -0.2238 -0.1959
 4354SOL    HW224522   1.115   0.825   6.177 -2.2180  0.6276  0.8311
 4355SOL     OW24523   2.466   1.219   8.557 -0.1905 -0.4512  0.3503
 4355SOL    HW124524   2.470   1.250   8.467  2.0244 -1.1945  0.1777
 4355SOL    HW224525   2.424   1.133   8.547 -0.8275 -0.1190  0.1904
 4356SOL     OW24526   3.397   4.486   0.779  0.1974 -0.0161 -0.2619
 4356SOL    HW124527   3.462   4.511   0.844  1.1555  1.2002 -1.6824
 4356SOL    HW224528   3.401   4.394   0.801  1.7726  0.7726  2.6482
 4357SOL     OW24529   2.980   4.355   5.365  0.7854  0.1107  0.2112
 4357SOL    HW124530   2.911   4.318   5.311 -0.0214  3.2403 -0.9327
 4357SOL    HW224531   2.950   4.338   5.454 -3.1185 -0.9683 -1.3391
 4358SOL     OW24532   0.440   3.428   5.659 -0.3883  0.0524  0.2818
 4358SOL    HW124533   0.527   3.463   5.641 -0.9030  0.8912 -0.5671
 4358SOL    HW224534   0.398   3.501   5.704 -1.4872 -0.4961  0.1550
 4359SOL     OW24535   4.475   1.581  12.351 -0.1816  0.1283  0.1938
 4359SOL    HW124536   4.405   1.532  12.394 -1.1017  2.5347  1.4684
 4359SOL    HW224537   4.428   1.664  12.341 -0.2745  0.0437 -0.0675
 4360SOL     OW24538   0.601   1.364   2.298 -0.6203  0.5739 -0.0131
 4360SOL    HW124539   0.538   1.292   2.306  0.6957 -0.5897 -0.1280
 4360SOL    HW224540   0.628   1.350   2.207 -0.0018  1.0984  0.0974
 4361SOL     OW24541   3.643   2.737   7.081  0.1752  0.4686  0.3570
 4361SOL    HW124542   3.686   2.818   7.109 -0.8025  0.5401  1.6013
 4361SOL    HW224543   3.724   2.693   7.053  0.2848  0.6328  0.4167
 4362SOL     OW24544   4.454   1.569  16.292  0.2831  0.0948 -0.6438
 4362SOL    HW124545   4.477   1.511  16.365  0.0965  1.2259  0.3043
 4362SOL    HW224546   4.363   1.542  16.278  0.1577  0.3637 -0.3395
 4363SOL     OW24547   1.335   3.101  14.920 -0.0384 -0.4213 -0.0476
 4363SOL    HW124548   1.324   3.013  14.956 -2.0582 -0.4352 -0.6793
 4363SOL    HW224549   1.430   3.108  14.913  0.1241 -1.3726  1.1492
 4364SOL     OW24550   3.264   1.050   5.199 -0.7874  0.1132  0.1210
 4364SOL    HW124551   3.266   0.958   5.171 -2.7475 -0.3807  1.6333
 4364SOL    HW224552   3.358   1.066   5.211 -1.2195  1.0967  2.2191
 4365SOL     OW24553   0.674   0.429  10.972  0.0591 -0.1734  0.3421
 4365SOL    HW124554   0.602   0.367  10.979 -0.7800  0.4960 -2.2503
 4365SOL    HW224555   0.654   0.482  11.049  1.3142  0.8059  0.0043
 4366SOL     OW24556   2.282   0.117   7.302  0.1397  0.3998 -0.2082
 4366SOL    HW124557   2.252   0.046   7.359  2.6285  0.5555  1.2848
 4366SOL    HW224558   2.265   0.091   7.212 -1.1298 -0.7417  0.3615
 4367SOL     OW24559   2.747   2.614   2.703 -0.1508  0.3020 -0.3227
 4367SOL    HW124560   2.764   2.644   2.792  4.6450 -1.6444 -0.5945
 4367SOL    HW224561   2.722   2.695   2.657  0.5198  0.6680 -0.0512
 4368SOL     OW24562   2.889   3.252  17.658  0.1155 -0.1127  0.1879
 4368SOL    HW124563   2.941   3.300  17.593 -0.6869  2.5712  1.5398
 4368SOL    HW224564   2.902   3.320   0.033  0.7704  0.5612 -0.6408
 4369SOL     OW24565   1.996   4.584  14.234  0.0529 -0.0282  0.2146
 4369SOL    HW124566   1.910   4.624  14.248 -0.1830 -0.9109  1.2479
 4369SOL    HW224567   1.977   4.493  14.213 -1.2596  0.5247 -1.0798
 4370SOL     OW24568   2.513   1.435  14.301  0.1257  0.2837  0.2528
 4370SOL    HW124569   2.582   1.407  14.240 -0.9164  0.0302 -0.8174
 4370SOL    HW224570   2.570   1.445  14.377  1.6780  2.2806 -1.1589
 4371SOL     OW24571   3.924   0.683  14.043 -0.1710  0.0421 -0.4082
 4371SOL    HW124572   3.939   0.762  14.094 -1.0193  0.4357 -0.7661
 4371SOL    HW224573   4.006   0.678  13.994  0.7447  1.1434  1.0311
 4372SOL     OW24574   0.352   3.126  15.123  0.1939 -0.5271 -0.1961
 4372SOL    HW124575   0.407   3.189  15.170 -0.0873 -1.3588  1.2533
 4372SOL    HW224576   0.337   3.068  15.198 -0.9733  0.0007 -0.0355
 4373SOL     OW24577   1.536   2.517   1.010  0.3428  0.3003 -0.0775
 4373SOL    HW124578   1.594   2.539   0.937  0.3310 -0.5722 -0.3477
 4373SOL    HW224579   1.494   2.441   0.970  3.0641 -1.1410 -0.1690
 4374SOL     OW24580   3.979   4.630   4.508  0.0589 -0.5093 -0.1664
 4374SOL    HW124581   3.930   4.700   4.551  1.2355 -1.0848  2.1119
 4374SOL    HW224582   4.049   4.682   4.469 -0.3990 -1.2613 -1.9885
 4375SOL     OW24583   3.625   0.176   2.039  0.8671 -0.1651 -0.1544
 4375SOL    HW124584   3.595   0.085   2.043 -0.9064  0.5703  3.6375
 4375SOL    HW224585   3.704   0.154   1.991  0.1933  0.6459 -1.6437
 4376SOL     OW24586   4.504   2.057   9.053  0.1647 -0.4021 -0.6356
 4376SOL    HW124587   4.538   2.089   8.970  1.3456 -0.1702 -0.0612
 4376SOL    HW224588   4.410   2.051   9.035 -0.7706  0.8145  3.8104
 4377SOL     OW24589   0.654   3.354   7.548  0.0040 -0.1507  0.5186
 4377SOL    HW124590   0.697   3.315   7.472  0.9494 -0.4692  1.2229
 4377SOL    HW224591   0.730   3.375   7.602  0.0531  2.2455 -0.4939
 4378SOL     OW24592   1.636   4.189  12.229  0.2414 -0.7172 -0.1733
 4378SOL    HW124593   1.712   4.228  12.271 -0.2247 -1.9811  1.8661
 4378SOL    HW224594   1.587   4.156  12.304  1.6547 -1.9259  0.2081
 4379SOL     OW24595   0.186   3.317   7.804 -0.5604  0.2385  0.3639
 4379SOL    HW124596   0.278   3.296   7.789 -0.6131  1.2108 -1.2892
 4379SOL    HW224597   0.149   3.244   7.854 -1.3193  0.9653  0.8639
 4380SOL     OW24598   3.196   1.371   6.425  0.1154 -0.0732 -0.3057
 4380SOL    HW124599   3.253   1.402   6.496 -1.2275 -1.5197  1.3870
 4380SOL    HW224600   3.140   1.309   6.471 -0.5538 -0.0215 -1.0602
 4381SOL     OW24601   0.034   1.251   6.487  0.3930  0.0857  0.0760
 4381SOL    HW124602   4.664   1.231   6.503  0.4968 -0.1818  0.3296
 4381SOL    HW224603   0.066   1.237   6.576  1.7674 -2.6245 -0.8626
 4382SOL     OW24604   0.439   0.599   9.548  0.2137  0.5918  0.5803
 4382SOL    HW124605   0.405   0.538   9.614 -1.6827  0.8090 -0.1980
 4382SOL    HW224606   0.374   0.602   9.478  3.5346 -0.9408 -2.5681
 4383SOL     OW24607   1.266   0.313   8.135 -0.6749  0.0999 -0.5771
 4383SOL    HW124608   1.225   0.357   8.209 -0.5332 -2.0012  0.7338
 4383SOL    HW224609   1.325   0.379   8.097 -0.4446 -0.6242 -1.4702
 4384SOL     OW24610   0.637   4.152   9.670 -0.5691 -0.4450  0.3067
 4384SOL    HW124611   0.566   4.155   9.734 -0.9075  3.3477 -0.2236
 4384SOL    HW224612   0.695   4.224   9.695  1.9770 -1.4949 -2.4648
 4385SOL     OW24613   1.793   0.516   4.386 -0.0879 -0.1499  0.5722
 4385SOL    HW124614   1.745   0.505   4.304  1.1192 -1.5474  0.0664
 4385SOL    HW224615   1.763   0.434   4.425 -3.9657  0.6516 -0.6258
 4386SOL     OW24616   1.371   4.123   4.771  0.0897  0.3798  0.5146
 4386SOL    HW124617   1.307   4.183   4.731  0.9969  0.5081 -0.7311
 4386SOL    HW224618   1.445   4.181   4.790  1.2559 -1.3626  1.3053
 4387SOL     OW24619   0.489   4.146   3.957 -0.5898  0.6178  0.2048
 4387SOL    HW124620   0.542   4.069   3.979  0.5968  1.4312  0.1622
 4387SOL    HW224621   0.499   4.147   3.862 -0.6037 -1.0722  0.1844
 4388SOL     OW24622   0.981   4.688  15.815 -0.6485 -0.4105  0.0909
 4388SOL    HW124623   0.997   4.629  15.888  0.2583  0.4165  0.5644
 4388SOL    HW224624   0.905   0.020  15.836 -0.4842 -0.6493  1.3001
 4389SOL     OW24625   0.871   1.666  17.600 -0.4438  0.0697 -0.2900
 4389SOL    HW124626   0.784   1.666  17.640 -0.6041 -0.9752 -0.6536
 4389SOL    HW224627   0.847   1.666  17.507  0.5408 -1.1353 -0.5439
 4390SOL     OW24628   0.296   3.569  15.247  0.4226  0.2686 -0.7706
 4390SOL    HW124629   0.376   3.535  15.287 -0.1477 -2.0522 -1.5753
 4390SOL    HW224630   0.329   3.619  15.173  2.4631 -0.6588 -0.4876
 4391SOL     OW24631   4.042   0.819   8.233 -0.0466  0.3147 -0.2801
 4391SOL    HW124632   4.047   0.795   8.140  2.7649 -1.7313  0.3934
 4391SOL    HW224633   4.132   0.842   8.258  0.1210 -1.3874  0.6781
 4392SOL     OW24634   1.667   1.760   1.194  0.1451 -0.0165 -0.3249
 4392SOL    HW124635   1.578   1.733   1.216  0.5096 -0.2038  0.9264
 4392SOL    HW224636   1.642   1.820   1.124 -0.6252  1.1978  0.9914
 4393SOL     OW24637   3.487   0.992   6.746 -0.7682  0.0351  0.3574
 4393SOL    HW124638   3.456   0.912   6.790 -0.4304  1.0521  2.4492
 4393SOL    HW224639   3.406   1.042   6.754 -1.2162 -0.7432  0.7231
 4394SOL     OW24640   0.984   1.115   5.856  0.3729 -1.3127  0.3862
 4394SOL    HW124641   0.897   1.077   5.848 -0.5277  0.7271  0.4949
 4394SOL    HW224642   0.989   1.158   5.942 -0.1714 -0.1894 -0.1580
 4395SOL     OW24643   3.339   1.912   3.660  0.3378 -0.0480  0.0400
 4395SOL    HW124644   3.324   1.857   3.737 -0.3869  1.3122  0.8720
 4395SOL    HW224645   3.375   1.858   3.590 -0.2663 -0.0363 -0.2828
 4396SOL     OW24646   1.445   2.171  10.508  0.2010  0.0709 -0.1763
 4396SOL    HW124647   1.505   2.111  10.465  0.0900  0.8824 -1.4687
 4396SOL    HW224648   1.420   2.211  10.424  0.2190  1.2288  0.3742
 4397SOL     OW24649   1.562   0.739   5.786  0.3772  0.0458 -0.2974
 4397SOL    HW124650   1.597   0.740   5.875  1.7926 -0.2734 -0.8379
 4397SOL    HW224651   1.471   0.736   5.814  0.9126 -1.4065  1.2874
 4398SOL     OW24652   3.795   0.112  14.930 -0.2713  0.0284  0.1124
 4398SOL    HW124653   3.797   0.149  15.018 -0.4394  0.7281 -0.1821
 4398SOL    HW224654   3.794   0.018  14.951 -1.4648 -0.4760 -2.2290
 4399SOL     OW24655   3.115   3.947   8.461  0.1408  0.1402  0.2520
 4399SOL    HW124656   3.187   3.960   8.399 -1.1162  0.0882 -1.2245
 4399SOL    HW224657   3.051   4.008   8.425  1.4440  1.1356 -0.3869
 4400SOL     OW24658   2.421   0.153   6.638 -0.6790  0.1139 -0.0956
 4400SOL    HW124659   2.444   0.173   6.547  2.0379 -0.0765  0.5563
 4400SOL    HW224660   2.402   0.245   6.653 -2.5820  0.0370 -2.0436
 4401SOL     OW24661   4.134   1.353   6.852 -0.7722 -0.4095 -0.1766
 4401SOL    HW124662   4.121   1.438   6.894  0.9604 -0.8105  1.1830
 4401SOL    HW224663   4.177   1.378   6.770  0.8621 -0.6875  0.5888
 4402SOL     OW24664   0.142   4.650   5.781  0.5243 -0.1229 -0.0527
 4402SOL    HW124665   0.096   4.568   5.801 -0.3118 -0.0225 -1.5426
 4402SOL    HW224666   0.077   4.707   5.740  2.4985  1.1396 -1.4084
 4403SOL     OW24667   0.479   1.424   1.733  0.3536 -0.0205  0.0563
 4403SOL    HW124668   0.534   1.349   1.755  0.1932 -0.4810 -1.1243
 4403SOL    HW224669   0.452   1.460   1.818 -0.7512 -1.8830  0.4941
 4404SOL     OW24670   2.909   1.299   2.847  0.4837 -0.1207  0.3897
 4404SOL    HW124671   2.859   1.381   2.843  0.7510 -0.0520 -1.7311
 4404SOL    HW224672   2.884   1.244   2.772  0.7773 -0.8184  0.8071
 4405SOL     OW24673   3.193   3.026   8.537  0.2263 -0.0458  0.9473
 4405SOL    HW124674   3.118   3.049   8.482  0.0299 -1.1808  0.7363
 4405SOL    HW224675   3.158   3.000   8.622  0.0085  0.8851  1.1426
 4406SOL     OW24676   4.357   3.241   9.506  0.1598 -0.0781 -0.2753
 4406SOL    HW124677   4.445   3.217   9.477  0.6107  0.7703  0.4042
 4406SOL    HW224678   4.347   3.220   9.599  0.1202  0.9759 -0.0420
 4407SOL     OW24679   4.666   0.953   5.089 -0.5362  0.3364  0.0928
 4407SOL    HW124680   4.614   1.032   5.104 -0.2757  0.7264 -1.0580
 4407SOL    HW224681   0.034   0.986   5.082 -0.3914 -0.5205 -1.8769
 4408SOL     OW24682   3.757   0.752   8.845 -0.1182 -0.5394 -0.9949
 4408SOL    HW124683   3.846   0.763   8.813  0.4432  0.2753  0.8443
 4408SOL    HW224684   3.720   0.836   8.815 -0.9118 -0.6577 -0.3328
 4409SOL     OW24685   1.103   3.106   3.739 -0.1274  0.3122  0.6325
 4409SOL    HW124686   1.174   3.045   3.759 -0.7581 -0.7823 -0.4311
 4409SOL    HW224687   1.061   3.078   3.657  0.4359 -1.5373  0.9758
 4410SOL     OW24688   2.836   1.475   9.923  0.3640  0.2269  0.2558
 4410SOL    HW124689   2.826   1.399   9.865  2.1048  1.0466 -1.1198
 4410SOL    HW224690   2.863   1.551   9.872  0.3372 -0.5692 -0.9317
 4411SOL     OW24691   0.137   1.342  14.876 -0.3616  0.4381 -0.0220
 4411SOL    HW124692   0.159   1.435  14.874 -2.9459  1.0647 -0.4079
 4411SOL    HW224693   0.099   1.332  14.964  0.7664 -0.1299  0.3916
 4412SOL     OW24694   2.440   3.096   8.286  0.3523 -0.8429  0.0496
 4412SOL    HW124695   2.399   3.017   8.252  0.1865 -0.4629 -0.6293
 4412SOL    HW224696   2.517   3.065   8.335  0.3938  0.8784  1.0588
 4413SOL     OW24697   3.532   1.210   6.522 -1.0440  0.1421 -0.6650
 4413SOL    HW124698   3.494   1.145   6.464  0.2444 -0.1527 -1.1807
 4413SOL    HW224699   3.545   1.156   6.600  0.9170  0.4290 -0.7796
 4414SOL     OW24700   4.382   1.591  17.095  0.1248  0.3056 -0.1763
 4414SOL    HW124701   4.409   1.515  17.145  0.2683  1.3202  1.2859
 4414SOL    HW224702   4.449   1.657  17.116  1.0031 -0.6466  0.0007
 4415SOL     OW24703   0.191   3.519   8.929  0.2181  0.0526 -0.2251
 4415SOL    HW124704   0.165   3.431   8.959 -0.2181 -0.1035 -1.0606
 4415SOL    HW224705   0.102   3.545   8.906  1.1240  2.7996 -0.5704
 4416SOL     OW24706   0.077   0.608   6.041 -0.4607 -0.1208  0.1927
 4416SOL    HW124707   0.045   0.696   6.019  0.5503 -0.0266 -0.9191
 4416SOL    HW224708   0.019   0.549   5.994 -0.7285 -0.6973  1.2754
 4417SOL     OW24709   2.487   4.264   3.825 -0.3876  0.0208  0.2560
 4417SOL    HW124710   2.513   4.213   3.748  2.4427  1.4832  0.2315
 4417SOL    HW224711   2.521   4.203   3.890 -1.7699 -0.2839  0.6796
 4418SOL     OW24712   3.943   2.452   2.712  0.2629  0.3667 -0.2909
 4418SOL    HW124713   3.955   2.422   2.622  2.2012  1.1767 -0.2980
 4418SOL    HW224714   3.872   2.516   2.708  0.3054  0.5157  1.4724
 4419SOL     OW24715   0.911   2.013  10.052  0.2863 -0.0709  0.0622
 4419SOL    HW124716   0.988   1.991  10.000  0.8769  1.5346  0.2460
 4419SOL    HW224717   0.930   1.948  10.120  0.6605 -1.1704 -1.1055
 4420SOL     OW24718   3.643   4.596   4.669  0.2005 -0.8426  0.3328
 4420SOL    HW124719   3.699   4.670   4.646  0.6587 -0.5915  2.2547
 4420SOL    HW224720   3.561   4.643   4.662 -0.2118 -1.7374 -0.9572
 4421SOL     OW24721   3.026   3.547   4.194 -0.0583  0.3399 -0.6141
 4421SOL    HW124722   2.952   3.497   4.228 -0.3372  1.1156 -0.0745
 4421SOL    HW224723   3.032   3.506   4.108  0.1065 -1.1279  0.1073
 4422SOL     OW24724   1.787   3.175  16.391  0.0480 -0.2174  0.0085
 4422SOL    HW124725   1.740   3.119  16.328  0.6000 -0.9564  0.2538
 4422SOL    HW224726   1.820   3.246  16.336 -2.3041 -0.3581 -1.6293
 4423SOL     OW24727   2.367   3.646   3.614  0.3560  0.7920  0.8949
 4423SOL    HW124728   2.361   3.738   3.640 -0.5422  0.8555  0.4705
 4423SOL    HW224729   2.437   3.650   3.548  1.5485 -0.6885  2.0639
 4424SOL     OW24730   0.328   2.365  15.972 -0.0281 -0.3158  0.2584
 4424SOL    HW124731   0.352   2.374  15.880  0.6067  0.8433  0.5409
 4424SOL    HW224732   0.275   2.444  15.980 -0.4230 -0.6809  1.3031
 4425SOL     OW24733   4.433   3.903   2.115  0.1002  0.2924 -0.5595
 4425SOL    HW124734   4.486   3.978   2.088  1.4481 -0.0666  1.1249
 4425SOL    HW224735   4.406   3.924   2.204  0.7579 -0.0455 -0.2797
 4426SOL     OW24736   1.822   1.518  13.571 -0.1357  0.1731 -0.0770
 4426SOL    HW124737   1.907   1.478  13.590  0.1378 -0.3177 -2.4162
 4426SOL    HW224738   1.803   1.573  13.647 -3.3745 -0.6441 -0.3184
 4427SOL     OW24739   0.263   2.650   2.660 -0.0313  0.2796  0.5555
 4427SOL    HW124740   0.175   2.621   2.637 -0.1205  1.0757 -0.1260
 4427SOL    HW224741   0.236   2.737   2.691  2.7321  0.1527  3.3244
 4428SOL     OW24742   1.034   0.091   7.534 -0.2471  0.3745  0.3825
 4428SOL    HW124743   1.004   0.159   7.593 -0.4928  0.1224  0.5486
 4428SOL    HW224744   0.959   0.031   7.537 -0.5267  0.6879 -0.3020
 4429SOL     OW24745   1.001   4.529  15.010  0.2143  0.0718  0.0709
 4429SOL    HW124746   1.052   4.452  15.034 -1.2147 -1.7202 -2.6767
 4429SOL    HW224747   0.947   4.528  15.089 -0.1755  1.6351 -0.1797
 4430SOL     OW24748   2.206   2.437  13.762 -0.2275 -0.1336  0.4031
 4430SOL    HW124749   2.217   2.401  13.850  0.6031  2.0376  1.2070
 4430SOL    HW224750   2.275   2.504  13.766  0.4339 -1.0502  5.0683
 4431SOL     OW24751   0.815   3.655  16.102  0.7795 -0.5137 -0.4617
 4431SOL    HW124752   0.845   3.732  16.150  2.0807  0.1924 -2.4131
 4431SOL    HW224753   0.735   3.687  16.060  0.1554 -1.3257  0.1007
 4432SOL     OW24754   4.380   1.587   3.080 -0.0810 -0.0150 -0.3973
 4432SOL    HW124755   4.451   1.555   3.024  1.2401  2.0182  0.1368
 4432SOL    HW224756   4.314   1.533   3.036 -0.3096  0.1375 -0.2422
 4433SOL     OW24757   4.247   3.876   4.508  0.1217 -0.4456  0.7475
 4433SOL    HW124758   4.201   3.794   4.495 -1.4334  0.9113 -2.3511
 4433SOL    HW224759   4.223   3.910   4.594  1.0563  0.4549  0.6470
 4434SOL     OW24760   2.629   3.402   5.802  0.3272  0.9192 -0.3676
 4434SOL    HW124761   2.647   3.407   5.896  0.3667  2.3016 -0.4442
 4434SOL    HW224762   2.551   3.458   5.798  0.9643  1.9341  1.1523
 4435SOL     OW24763   2.950   0.702   7.888  0.4783 -0.3393 -0.0442
 4435SOL    HW124764   2.896   0.639   7.936  0.5705 -0.1021  0.3724
 4435SOL    HW224765   2.896   0.781   7.892  0.8353  0.0062 -2.0520
 4436SOL     OW24766   1.553   0.876   9.271 -0.6291 -0.3781  0.1400
 4436SOL    HW124767   1.504   0.886   9.190 -1.6443 -0.7217  0.7160
 4436SOL    HW224768   1.499   0.936   9.323  1.3865  0.4969  1.2385
 4437SOL     OW24769   2.862   3.329   5.032  0.3136 -0.3306  0.4226
 4437SOL    HW124770   2.913   3.281   5.098  0.6061  0.4598  0.7696
 4437SOL    HW224771   2.927   3.376   4.980  0.7276 -0.1951  1.0631
 4438SOL     OW24772   2.087   1.388  13.926 -0.9058  0.1639  0.1079
 4438SOL    HW124773   2.147   1.336  13.873 -0.1227  0.1822  0.9626
 4438SOL    HW224774   2.004   1.343  13.911 -0.8648  0.0200  0.3046
 4439SOL     OW24775   1.701   4.204   2.079  0.3824  0.1568 -0.6452
 4439SOL    HW124776   1.621   4.165   2.044 -0.3579  1.6825 -0.6783
 4439SOL    HW224777   1.762   4.135   2.103  0.9204  0.2322 -1.7849
 4440SOL     OW24778   4.159   4.050   7.145  0.5556  0.0648 -0.1859
 4440SOL    HW124779   4.135   3.984   7.210  2.6217 -1.3550 -0.8862
 4440SOL    HW224780   4.082   4.105   7.131  2.5634  2.0252 -3.5530
 4441SOL     OW24781   1.031   4.097   1.511 -0.6418 -0.5181  0.1914
 4441SOL    HW124782   1.003   4.101   1.419 -0.0395 -2.7384 -0.0877
 4441SOL    HW224783   1.125   4.114   1.506 -0.3834 -1.2372  2.4403
 4442SOL     OW24784   0.012   4.056  13.935  0.0019 -0.0347  0.3653
 4442SOL    HW124785   4.649   4.096  13.915 -0.8307 -1.5903  0.8457
 4442SOL    HW224786   4.716   3.965  13.911  0.4605  0.2511 -1.0938
 4443SOL     OW24787   1.662   2.876   6.500  0.7890  0.1290 -0.3091
 4443SOL    HW124788   1.680   2.884   6.407 -1.0609 -0.0131 -0.6824
 4443SOL    HW224789   1.577   2.920   6.506  0.9574  0.2809  1.1711
 4444SOL     OW24790   0.590   2.434   1.158  0.2727  0.4649  0.2181
 4444SOL    HW124791   0.609   2.343   1.181 -2.4443 -0.5589 -1.5708
 4444SOL    HW224792   0.662   2.480   1.201  0.7488  1.2253 -1.3902
 4445SOL     OW24793   0.298   3.646   9.932  0.0242 -0.0071 -0.2599
 4445SOL    HW124794   0.363   3.685   9.990 -2.5135 -1.0923  3.2815
 4445SOL    HW224795   0.244   3.599   9.995  1.2117 -0.7623  0.1840
 4446SOL     OW24796   1.131   4.463   3.245 -0.0050  0.2492 -0.2700
 4446SOL    HW124797   1.052   4.442   3.195 -1.2245  2.9778  0.4848
 4446SOL    HW224798   1.190   4.479   3.172  0.3563 -4.2216 -0.9862
 4447SOL     OW24799   0.353   1.091  12.919  0.1962 -0.2917  0.2272
 4447SOL    HW124800   0.280   1.036  12.948  0.3507 -1.2584 -1.1893
 4447SOL    HW224801   0.336   1.171  12.968  0.0014 -0.7478  0.9012
 4448SOL     OW24802   2.038   3.105   8.884 -0.3748  0.0892  0.6367
 4448SOL    HW124803   2.006   3.015   8.898 -1.9225  0.7886  1.6116
 4448SOL    HW224804   2.065   3.126   8.973  0.6210  1.7474 -0.0666
 4449SOL     OW24805   0.509   2.194   6.769 -0.4185  0.1028  0.0818
 4449SOL    HW124806   0.515   2.288   6.786 -1.1059  0.0340  0.7184
 4449SOL    HW224807   0.575   2.191   6.700 -0.8470  0.6321 -0.3549
 4450SOL     OW24808   1.406   0.570  16.754  0.2617  0.2653 -0.0185
 4450SOL    HW124809   1.434   0.507  16.820 -0.5394 -1.7972 -1.6017
 4450SOL    HW224810   1.312   0.575  16.775  0.0040 -0.3919 -0.9960
 4451SOL     OW24811   3.034   0.609   5.224  0.0461  0.0341 -0.0960
 4451SOL    HW124812   3.021   0.700   5.250  1.0806  0.2089 -0.2061
 4451SOL    HW224813   3.070   0.572   5.304 -0.8205 -1.5025 -0.4139
 4452SOL     OW24814   3.424   0.505   0.960  0.2184  0.5655  0.4853
 4452SOL    HW124815   3.356   0.475   1.020 -0.3669 -0.9190 -0.9474
 4452SOL    HW224816   3.400   0.597   0.945 -0.4405  0.5042  1.1723
 4453SOL     OW24817   1.776   3.071   9.078  0.4947  0.5075 -0.4290
 4453SOL    HW124818   1.731   3.077   8.994 -2.1046 -1.1624  0.8295
 4453SOL    HW224819   1.797   2.978   9.091  0.2255  0.6372  0.9321
 4454SOL     OW24820   0.463   2.193  12.675  0.1991  0.7219 -0.3069
 4454SOL    HW124821   0.389   2.178  12.616  0.7922  0.9494 -1.0919
 4454SOL    HW224822   0.504   2.275  12.649  2.3200  0.4690  2.2228
 4455SOL     OW24823   0.949   0.327   5.885  0.0749  0.6063 -0.6590
 4455SOL    HW124824   0.883   0.376   5.934  0.6986  1.3991 -0.6106
 4455SOL    HW224825   0.902   0.244   5.878  1.8940 -0.5530  1.0468
 4456SOL     OW24826   1.910   4.100  13.058 -0.3411  0.4669  0.7780
 4456SOL    HW124827   1.990   4.148  13.079  0.6574 -1.2524  0.8623
 4456SOL    HW224828   1.900   4.116  12.964 -2.1952  1.8820  1.2079
 4457SOL     OW24829   4.712   0.674   9.894  0.4081 -0.5103  0.3166
 4457SOL    HW124830   4.707   0.700   9.986 -0.8605  1.6765 -0.3692
 4457SOL    HW224831   0.067   0.617   9.893  0.3221 -0.6246  0.2018
 4458SOL     OW24832   3.726   0.383   8.802 -0.5665 -0.1856 -0.0490
 4458SOL    HW124833   3.709   0.418   8.714 -1.3232  0.3224  0.2994
 4458SOL    HW224834   3.726   0.462   8.856  0.1216 -0.5010  0.4102
 4459SOL     OW24835   0.561   1.625   7.442 -0.4404 -0.1748  0.0732
 4459SOL    HW124836   0.650   1.608   7.475 -0.0327  0.4926 -0.6842
 4459SOL    HW224837   0.581   1.675   7.363 -0.1937 -1.4561 -0.6737
 4460SOL     OW24838   2.320   1.380   4.936  0.0318  0.1712  0.2233
 4460SOL    HW124839   2.304   1.473   4.947 -1.6999 -0.1075  0.0084
 4460SOL    HW224840   2.318   1.376   4.841  0.4954 -0.2540  0.2311
 4461SOL     OW24841   2.839   3.266   6.537 -0.0244  0.3204  0.4435
 4461SOL    HW124842   2.860   3.302   6.623  2.9114  1.7734 -0.8842
 4461SOL    HW224843   2.901   3.194   6.533 -1.1009 -0.5094 -1.7356
 4462SOL     OW24844   3.896   1.626  12.219  0.0716 -0.1718 -0.1800
 4462SOL    HW124845   3.973   1.583  12.181  1.9206  0.0281  3.2478
 4462SOL    HW224846   3.855   1.544  12.245 -1.1621  0.0155 -1.5916
 4463SOL     OW24847   1.130   1.031   3.638 -0.0034 -0.4880  0.5564
 4463SOL    HW124848   1.220   1.021   3.670 -0.2239 -1.9288  0.7233
 4463SOL    HW224849   1.131   0.978   3.558  1.0599 -0.3125  0.4524
 4464SOL     OW24850   4.412   2.993   3.591  0.1123 -0.0593 -0.3426
 4464SOL    HW124851   4.414   2.901   3.562  0.4262 -0.9327  2.4074
 4464SOL    HW224852   4.325   3.012   3.555 -0.3835  0.3280  1.0798
 4465SOL     OW24853   1.191   2.288   7.671  0.0774 -0.0046 -0.4096
 4465SOL    HW124854   1.222   2.374   7.698  1.3774  0.0821 -2.0971
 4465SOL    HW224855   1.214   2.234   7.746  0.4605  3.7531  2.1646
 4466SOL     OW24856   3.214   0.860   3.395  0.2728 -0.2131  0.4197
 4466SOL    HW124857   3.282   0.916   3.431  1.0283 -1.0905  0.3637
 4466SOL    HW224858   3.195   0.798   3.466 -2.5459 -0.2350 -0.3639
 4467SOL     OW24859   4.280   1.731  16.054  0.3743 -0.4726  0.6317
 4467SOL    HW124860   4.291   1.660  16.117 -0.1451 -1.2791 -0.1932
 4467SOL    HW224861   4.189   1.722  16.027  0.8936 -0.7963 -0.9782
 4468SOL     OW24862   3.146   2.347   8.506 -0.4357  0.2401  0.1644
 4468SOL    HW124863   3.107   2.289   8.441 -1.9025  0.9834  0.3779
 4468SOL    HW224864   3.177   2.421   8.453  0.7679 -0.5182 -0.2041
 4469SOL     OW24865   1.228   3.806   9.883  0.1103 -0.2798  0.2345
 4469SOL    HW124866   1.302   3.860   9.856 -1.4244  0.8706 -1.7239
 4469SOL    HW224867   1.176   3.861   9.942 -0.8681 -0.4927 -0.4196
 4470SOL     OW24868   0.818   1.742   3.543  0.0721 -0.2197 -0.1357
 4470SOL    HW124869   0.896   1.792   3.568 -0.4930 -1.7756  4.7313
 4470SOL    HW224870   0.863   1.664   3.512  0.3639  0.3604 -1.1611
 4471SOL     OW24871   4.566   2.731   8.616  0.1661  0.0755 -0.1864
 4471SOL    HW124872   4.572   2.717   8.710  2.1463  1.2006 -0.1541
 4471SOL    HW224873   4.609   2.816   8.608  2.8511 -0.9051  3.9991
 4472SOL     OW24874   1.774   4.385   1.869 -0.1390  0.2345  0.3810
 4472SOL    HW124875   1.865   4.358   1.873  0.0378  0.9360  1.0960
 4472SOL    HW224876   1.738   4.320   1.930  1.0186  1.0887  1.9545
 4473SOL     OW24877   0.278   0.020   1.390  0.0439  0.1305 -0.4274
 4473SOL    HW124878   0.262   4.656   1.429  0.5195 -1.6094 -4.0665
 4473SOL    HW224879   0.362   0.041   1.430  0.0701 -0.7370 -0.0171
 4474SOL     OW24880   2.769   4.369   7.581 -0.1395 -0.3110  0.0940
 4474SOL    HW124881   2.768   4.441   7.517 -0.3156 -1.1662 -0.8704
 4474SOL    HW224882   2.849   4.383   7.631  0.3705 -0.9822 -0.5389
 4475SOL     OW24883   2.809   2.536  12.487  0.4997 -0.2831  0.3555
 4475SOL    HW124884   2.801   2.444  12.465 -1.7603  0.3648 -1.5183
 4475SOL    HW224885   2.808   2.578  12.401 -0.0950  0.4550  0.7176
 4476SOL     OW24886   2.915   0.681  13.360 -0.2865 -0.1889  0.1940
 4476SOL    HW124887   2.990   0.740  13.368 -1.0602  0.6912  0.8904
 4476SOL    HW224888   2.848   0.746  13.378 -0.1060  0.1216 -0.2524
 4477SOL     OW24889   0.584   4.705   5.101  0.5699  0.7193  0.2054
 4477SOL    HW124890   0.570   4.654   5.021 -2.5066  1.3450  0.3569
 4477SOL    HW224891   0.538   0.065   5.089  3.4642  1.9444 -2.5241
 4478SOL     OW24892   1.987   2.873  16.767 -0.2229 -0.0585 -0.3620
 4478SOL    HW124893   2.056   2.822  16.809 -0.0750  1.7270  1.5631
 4478SOL    HW224894   1.955   2.927  16.839  2.1204  1.8456 -0.7370
 4479SOL     OW24895   3.876   0.185   1.285 -0.2146 -0.1005 -0.0075
 4479SOL    HW124896   3.919   0.229   1.211 -0.2556  0.7322  0.4619
 4479SOL    HW224897   3.786   0.188   1.254 -0.2798  1.6593  0.3170
 4480SOL     OW24898   4.219   0.386   8.217  0.5646  0.0012  1.0812
 4480SOL    HW124899   4.171   0.438   8.152 -1.3584 -0.5314  2.0606
 4480SOL    HW224900   4.301   0.435   8.218 -0.3427  1.6856 -3.0103
 4481SOL     OW24901   0.667   0.369   2.376  0.5172 -0.1064 -0.3625
 4481SOL    HW124902   0.615   0.351   2.298  0.3556 -0.2319 -0.2245
 4481SOL    HW224903   0.729   0.431   2.337 -0.9650  1.7478  0.2153
 4482SOL     OW24904   2.815   3.621   5.689 -0.1923 -0.3213 -0.2501
 4482SOL    HW124905   2.730   3.651   5.720  0.7470  1.4825  0.5760
 4482SOL    HW224906   2.826   3.540   5.737  1.3762  1.5987  2.6383
 4483SOL     OW24907   0.863   2.593   1.621 -1.4609 -0.3668  0.3455
 4483SOL    HW124908   0.906   2.511   1.596  2.2535  1.5147  0.6684
 4483SOL    HW224909   0.834   2.587   1.712 -1.1989 -1.3918  0.3565
 4484SOL     OW24910   2.264   2.678  15.295  0.1254  0.1117  0.1815
 4484SOL    HW124911   2.233   2.599  15.251  0.0666 -0.6150  1.5213
 4484SOL    HW224912   2.242   2.668  15.388 -0.0359  0.6226  0.2025
 4485SOL     OW24913   0.169   3.392   8.525  0.2730 -0.6398  0.7821
 4485SOL    HW124914   0.175   3.317   8.584  2.2338  0.0519  1.4880
 4485SOL    HW224915   0.079   3.374   8.501  0.5976  0.5683 -1.3571
 4486SOL     OW24916   2.117   0.081   3.408  0.5912 -0.0691  0.2919
 4486SOL    HW124917   2.145   4.712   3.402 -0.4613 -0.3341 -0.7364
 4486SOL    HW224918   2.199   0.127   3.389 -1.2299  2.0886 -2.5235
 4487SOL     OW24919   3.847   3.475   4.901  0.5240  0.5546  0.0399
 4487SOL    HW124920   3.844   3.427   4.819  3.0264  1.0529 -0.3424
 4487SOL    HW224921   3.939   3.499   4.914  0.8066 -0.7494  0.4427
 4488SOL     OW24922   0.635   4.581  17.213  1.1567 -0.1466  0.0565
 4488SOL    HW124923   0.602   4.492  17.221  0.7988 -0.0720 -0.5951
 4488SOL    HW224924   0.711   4.577  17.271  0.5155 -1.2012  0.8265
 4489SOL     OW24925   0.635   0.297   5.316 -0.2593 -0.2022  0.3558
 4489SOL    HW124926   0.722   0.262   5.297  0.4535  0.8093  1.8164
 4489SOL    HW224927   0.607   0.220   5.366 -1.7601  1.0676  1.4985
 4490SOL     OW24928   0.950   0.186   3.690 -0.8440 -0.2429  0.0498
 4490SOL    HW124929   0.875   0.212   3.743 -1.2155 -2.5802  0.6600
 4490SOL    HW224930   0.977   0.100   3.720  2.3396  0.9769  0.7316
 4491SOL     OW24931   4.583   2.925  11.349  0.4636 -1.0114 -0.0334
 4491SOL    HW124932   4.630   3.006  11.332  0.6113 -1.2907 -0.9344
 4491SOL    HW224933   4.508   2.950  11.404  0.2657 -0.2354 -0.6517
 4492SOL     OW24934   3.097   2.934   5.856 -0.0556  0.1055  0.2783
 4492SOL    HW124935   3.176   2.976   5.823 -0.5561  0.7458 -0.1071
 4492SOL    HW224936   3.099   2.924   5.951  2.6627  0.7031  0.2647
 4493SOL     OW24937   1.042   1.994   3.836  0.3230  0.4389  0.0213
 4493SOL    HW124938   1.026   2.053   3.762 -1.8081 -0.7299 -0.4398
 4493SOL    HW224939   1.138   1.993   3.844  0.2816 -1.2780  0.2107
 4494SOL     OW24940   2.436   4.316   9.538 -0.4353  0.4291  0.3927
 4494SOL    HW124941   2.407   4.306   9.447 -1.5687 -0.9791  0.9257
 4494SOL    HW224942   2.517   4.367   9.526 -0.2685  0.0187 -0.2416
 4495SOL     OW24943   3.821   2.739   2.001  0.7617  0.2942  0.3504
 4495SOL    HW124944   3.781   2.756   2.086 -0.3770 -0.2499 -0.0827
 4495SOL    HW224945   3.857   2.825   1.980  1.0930 -0.2771 -1.4767
 4496SOL     OW24946   3.638   1.657  10.120 -0.0170 -0.0899 -0.0895
 4496SOL    HW124947   3.622   1.654  10.215 -1.3139  3.4359 -0.1943
 4496SOL    HW224948   3.709   1.720  10.130  1.1203 -1.0402 -2.3476
 4497SOL     OW24949   3.756   2.001   8.312  0.1837  0.0352 -0.7566
 4497SOL    HW124950   3.779   1.977   8.222  2.4899  0.0949 -0.1662
 4497SOL    HW224951   3.805   2.078   8.340 -0.8149 -0.0081  1.0633
 4498SOL     OW24952   1.424   3.590   6.559 -0.6555  0.4201 -0.2964
 4498SOL    HW124953   1.506   3.580   6.511  0.0348  2.7392  0.3979
 4498SOL    HW224954   1.429   3.679   6.594 -1.6180  0.8061 -1.1268
 4499SOL     OW24955   1.811   3.729  14.408  0.6526 -0.4751 -0.2882
 4499SOL    HW124956   1.800   3.821  14.383  1.3352  0.2796  2.2513
 4499SOL    HW224957   1.773   3.724  14.496 -0.8807 -2.4880 -1.0506
 4500SOL     OW24958   1.190   3.729   5.884 -0.0991  0.4286 -0.4523
 4500SOL    HW124959   1.107   3.777   5.879 -0.1371  0.3261 -0.7747
 4500SOL    HW224960   1.262   3.792   5.879  0.1916  0.1757  0.6449
 4501SOL     OW24961   2.618   1.482  14.549 -0.3216 -0.0174  0.1213
 4501SOL    HW124962   2.691   1.498  14.608 -0.8658  0.1063  0.7588
 4501SOL    HW224963   2.548   1.516  14.605 -0.1757  1.7784 -0.7893
 4502SOL     OW24964   1.837   1.817   6.443  0.4523 -0.1493 -0.3681
 4502SOL    HW124965   1.840   1.913   6.443 -0.8278 -0.1083 -0.0409
 4502SOL    HW224966   1.879   1.797   6.526 -1.4627 -1.8614  0.1972
 4503SOL     OW24967   4.418   0.875   5.952 -0.0368  0.0917  0.4216
 4503SOL    HW124968   4.408   0.808   5.885 -1.7819  1.6743 -0.9043
 4503SOL    HW224969   4.493   0.918   5.910  0.0468 -0.0890  0.3887
 4504SOL     OW24970   0.396   2.488   2.028  0.1155 -0.2568 -0.0434
 4504SOL    HW124971   0.374   2.557   1.965 -0.7406  0.7760  1.3951
 4504SOL    HW224972   0.344   2.421   1.985 -1.6686  0.6508  0.7152
 4505SOL     OW24973   4.429   3.688   2.781 -0.0589  0.3542  0.2787
 4505SOL    HW124974   4.478   3.674   2.700  1.0154  1.6777  0.7014
 4505SOL    HW224975   4.437   3.782   2.797 -0.7463  0.3523  0.6280
 4506SOL     OW24976   0.755   1.649  11.766 -0.6958  0.5318  0.0423
 4506SOL    HW124977   0.837   1.651  11.717 -1.1527 -2.1322 -0.8462
 4506SOL    HW224978   0.692   1.641  11.695 -1.6476 -0.1516  0.9606
 4507SOL     OW24979   1.933   1.771   3.681 -0.2970  0.2851  0.5460
 4507SOL    HW124980   1.996   1.811   3.622 -1.7870  1.4732 -0.2293
 4507SOL    HW224981   1.900   1.701   3.624 -1.2886 -0.0183  1.4781
 4508SOL     OW24982   3.234   0.557   7.984  0.3996 -0.1059  0.0187
 4508SOL    HW124983   3.165   0.622   7.974  1.0888  0.3153 -1.7716
 4508SOL    HW224984   3.190   0.493   8.041  1.2842 -0.7203  0.0143
 4509SOL     OW24985   2.554   0.727  13.602  0.4792  0.1615 -0.5034
 4509SOL    HW124986   2.513   0.802  13.646  1.7653 -2.1406  4.5337
 4509SOL    HW224987   2.625   0.703  13.661  0.2552 -1.3763 -0.8619
 4510SOL     OW24988   2.018   3.394   5.660  0.0653  0.3742 -0.7677
 4510SOL    HW124989   1.938   3.344   5.676 -1.0860  3.1378  1.9154
 4510SOL    HW224990   2.058   3.333   5.597  0.7848 -0.2913  0.3220
 4511SOL     OW24991   4.442   0.286   2.105  0.1279  0.0223 -1.0704
 4511SOL    HW124992   4.525   0.238   2.103  0.5174  0.6772 -0.7238
 4511SOL    HW224993   4.463   0.372   2.067  1.3947 -1.6365 -4.1655
 4512SOL     OW24994   3.162   4.060   4.521 -0.6602 -0.2164 -0.1464
 4512SOL    HW124995   3.192   4.043   4.610 -1.6121  0.4525  0.2933
 4512SOL    HW224996   3.235   4.111   4.487 -0.8503  0.2449  0.1466
 4513SOL     OW24997   1.093   1.535  14.570  0.1622  0.4901 -0.3174
 4513SOL    HW124998   0.999   1.525  14.582  0.5544  1.1041  3.3187
 4513SOL    HW224999   1.126   1.454  14.610 -0.7648  1.4796  2.4477
 4514SOL     OW25000   4.433   0.363  12.788 -0.4127 -0.2763 -0.0928
 4514SOL    HW125001   4.450   0.270  12.799  1.5271  0.3841  2.2574
 4514SOL    HW225002   4.519   0.390  12.755 -0.2002 -0.6135  0.1918
 4515SOL     OW25003   1.283   0.393   9.162  0.1068 -0.2437 -0.1811
 4515SOL    HW125004   1.344   0.454   9.203 -1.5503  1.1873  0.1638
 4515SOL    HW225005   1.331   0.313   9.184  0.3317  0.8288  3.3053
 4516SOL     OW25006   4.494   1.799   4.917 -0.1540  0.1976 -0.5252
 4516SOL    HW125007   4.404   1.820   4.895 -0.9730 -1.0399  1.6149
 4516SOL    HW225008   4.541   1.865   4.866  0.6445 -0.0294 -0.0893
 4517SOL     OW25009   2.424   2.569   7.556 -0.2385 -0.1416 -0.0010
 4517SOL    HW125010   2.339   2.564   7.600 -0.8145 -1.8272 -1.3318
 4517SOL    HW225011   2.483   2.531   7.622 -1.3659  1.6912  2.0752
 4518SOL     OW25012   0.126   2.089   2.870 -0.0683 -0.1133  0.0091
 4518SOL    HW125013   0.118   2.005   2.916 -0.9972 -0.1626 -0.2308
 4518SOL    HW225014   0.044   2.094   2.819 -0.2381 -0.0636  0.2887
 4519SOL     OW25015   4.306   1.314   0.315 -0.3627 -0.2698  0.6282
 4519SOL    HW125016   4.222   1.317   0.360  0.1932 -0.9181  1.7244
 4519SOL    HW225017   4.283   1.265   0.237 -1.0453 -1.4219  1.5524
 4520SOL     OW25018   3.158   2.762  13.011 -0.8840  0.0226 -0.0692
 4520SOL    HW125019   3.202   2.834  13.056  0.2157 -1.3890  1.0841
 4520SOL    HW225020   3.211   2.693  13.049  0.2172  0.2617 -1.1554
 4521SOL     OW25021   3.186   4.489   2.404 -0.0048  0.2247 -0.8128
 4521SOL    HW125022   3.104   4.517   2.443  0.0229 -0.9953  0.1348
 4521SOL    HW225023   3.253   4.509   2.470 -0.5536 -2.9583  0.7011
 4522SOL     OW25024   1.376   3.067  11.559 -0.2819  0.2730 -0.1233
 4522SOL    HW125025   1.436   3.116  11.503 -1.2252  1.8753  0.2663
 4522SOL    HW225026   1.425   3.048  11.639 -2.6267  1.2491  1.5324
 4523SOL     OW25027   0.177   4.494   5.225  0.0537  0.2772  0.5224
 4523SOL    HW125028   0.108   4.489   5.159  0.6383 -0.1918 -0.0595
 4523SOL    HW225029   0.232   4.426   5.185  0.2400  0.8969 -0.2838
 4524SOL     OW25030   1.863   1.209   7.273 -0.5869 -0.2962  0.0068
 4524SOL    HW125031   1.914   1.229   7.351 -1.4806 -2.5942  1.1850
 4524SOL    HW225032   1.908   1.138   7.229 -0.6710  0.4106 -1.2108
 4525SOL     OW25033   3.882   1.343   2.841 -0.0637  0.0666 -0.0509
 4525SOL    HW125034   3.787   1.346   2.852  0.0036  0.2660  0.4684
 4525SOL    HW225035   3.916   1.385   2.920  3.1172 -0.2047 -1.3026
 4526SOL     OW25036   2.118   2.177   2.992  0.1352  0.2861 -0.3615
 4526SOL    HW125037   2.097   2.251   2.936 -1.4631 -0.0067 -0.1696
 4526SOL    HW225038   2.089   2.217   3.074 -0.1369 -0.0841 -0.2717
 4527SOL     OW25039   1.264   1.924   6.406 -0.0004 -0.0451 -0.0748
 4527SOL    HW125040   1.257   1.943   6.499  1.5089  0.0787  0.0247
 4527SOL    HW225041   1.360   1.930   6.402  0.0278 -1.0806 -0.7828
 4528SOL     OW25042   2.218   1.761   3.047  0.6615 -0.2272 -0.6043
 4528SOL    HW125043   2.181   1.768   2.959  1.7200 -3.0385 -1.2633
 4528SOL    HW225044   2.241   1.668   3.043 -1.3432 -0.6751 -1.5900
 4529SOL     OW25045   4.268   3.905   7.596 -0.7427  0.1655  0.0955
 4529SOL    HW125046   4.315   3.877   7.518 -1.6226  1.1515 -0.7950
 4529SOL    HW225047   4.338   3.944   7.649 -0.1471 -1.5433  0.5394
 4530SOL     OW25048   3.515   4.194   7.331  0.1298 -0.3721 -0.0253
 4530SOL    HW125049   3.574   4.231   7.397 -0.9375  1.6423 -0.2042
 4530SOL    HW225050   3.547   4.250   7.260  1.3441  0.3897  1.1187
 4531SOL     OW25051   4.347   4.575   6.226 -0.4995  0.6567 -0.3193
 4531SOL    HW125052   4.355   4.525   6.145  0.0872 -0.3217  0.3501
 4531SOL    HW225053   4.411   4.646   6.218  0.9814 -0.5721  0.8074
 4532SOL     OW25054   1.184   1.281   0.712 -0.3006 -0.0904  0.3943
 4532SOL    HW125055   1.154   1.211   0.770  0.1116  1.1637  2.1148
 4532SOL    HW225056   1.266   1.242   0.682 -1.7033 -2.3135 -0.5218
 4533SOL     OW25057   4.715   1.978   4.533 -0.0813 -0.0262  0.4772
 4533SOL    HW125058   4.644   1.920   4.506  0.8060 -0.2563 -1.3745
 4533SOL    HW225059   0.057   1.911   4.556  1.4227  1.4380  0.5878
 4534SOL     OW25060   0.551   0.452   1.453  0.0909 -0.3394  0.3898
 4534SOL    HW125061   0.492   0.527   1.450  1.0549  0.5454  3.6897
 4534SOL    HW225062   0.629   0.491   1.491 -0.8282  0.2194  1.7174
 4535SOL     OW25063   1.676   1.939   0.676 -0.1016 -0.7375  0.4302
 4535SOL    HW125064   1.610   2.008   0.687 -1.2918 -2.0292  1.3466
 4535SOL    HW225065   1.760   1.957   0.719 -0.0195  1.3683 -0.6067
 4536SOL     OW25066   0.092   3.060   1.513  0.5498 -0.3327 -0.2387
 4536SOL    HW125067   0.149   2.986   1.535 -0.5376 -0.1966  3.0194
 4536SOL    HW225068   0.037   3.068   1.591 -1.7396 -2.7620 -1.5859
 4537SOL     OW25069   0.870   0.676   2.975  0.7757 -0.4968  0.2348
 4537SOL    HW125070   0.846   0.597   3.024  1.2451 -1.9012 -1.7618
 4537SOL    HW225071   0.815   0.661   2.898 -2.0664 -0.3963  2.2362
 4538SOL     OW25072   1.781   1.055   3.710 -0.5351 -0.3926 -0.1170
 4538SOL    HW125073   1.727   1.105   3.648  0.5355 -0.5069 -1.1458
 4538SOL    HW225074   1.842   1.014   3.648  1.8628  0.0278  1.9907
 4539SOL     OW25075   0.654   0.885  12.832  0.1025 -0.0132  0.2659
 4539SOL    HW125076   0.622   0.831  12.904  0.3479 -0.1738  0.2547
 4539SOL    HW225077   0.737   0.916  12.869  0.8842 -1.0968 -0.5859
 4540SOL     OW25078   1.241   1.885   9.716 -0.4905  0.2080  0.2185
 4540SOL    HW125079   1.239   1.812   9.655  0.3841 -0.4200  0.9494
 4540SOL    HW225080   1.302   1.949   9.678  1.7532 -2.1046 -0.0170
 4541SOL     OW25081   3.691   3.222   7.328  0.1505  0.5689  0.4650
 4541SOL    HW125082   3.755   3.152   7.341 -3.3309 -2.6886  0.0882
 4541SOL    HW225083   3.702   3.246   7.236  0.9415 -0.5015  0.2747
 4542SOL     OW25084   0.390   0.081  11.931  0.5217 -0.1157  0.4403
 4542SOL    HW125085   0.332   0.023  11.882 -2.4171  0.4723  3.2664
 4542SOL    HW225086   0.338   0.149  11.974 -0.2359 -1.2872  1.3726
 4543SOL     OW25087   2.000   1.383  17.610 -0.3855 -0.2726 -0.2575
 4543SOL    HW125088   1.927   1.323  17.603  0.2093 -1.1461  1.1171
 4543SOL    HW225089   2.029   1.384   0.011  0.6834 -1.7275 -0.5791
 4544SOL     OW25090   0.860   0.487  12.768  0.0163  0.1105  0.0890
 4544SOL    HW125091   0.883   0.559  12.826  0.0789 -0.5153  0.8553
 4544SOL    HW225092   0.792   0.533  12.719  1.4890  0.5127 -1.5717
 4545SOL     OW25093   4.526   0.688   5.594 -0.3491 -0.3023  0.1536
 4545SOL    HW125094   4.528   0.767   5.541  0.5938 -0.0280  0.5958
 4545SOL    HW225095   4.461   0.706   5.662 -1.1177 -0.1308 -0.6363
 4546SOL     OW25096   3.359   0.335   7.524  0.7949  0.6374  0.2822
 4546SOL    HW125097   3.286   0.384   7.486  0.8174 -0.5552 -1.3278
 4546SOL    HW225098   3.328   0.246   7.543  0.6104  1.1085  2.2216
 4547SOL     OW25099   3.188   0.660   9.004 -0.1944 -0.5057  0.2222
 4547SOL    HW125100   3.205   0.610   8.924  0.5640 -1.7978  1.2006
 4547SOL    HW225101   3.164   0.746   8.971  0.2855 -1.0208 -1.4445
 4548SOL     OW25102   2.139   2.931   2.864 -0.1132 -0.1954 -0.9978
 4548SOL    HW125103   2.175   2.973   2.786 -1.1801 -0.8055 -1.8136
 4548SOL    HW225104   2.140   3.005   2.925 -0.6070  0.5603 -1.9126
 4549SOL     OW25105   1.578   1.828   3.429 -0.5695 -0.4722  0.1441
 4549SOL    HW125106   1.637   1.753   3.429  0.7274  0.5566 -2.7978
 4549SOL    HW225107   1.538   1.813   3.515  0.9766  0.0563  0.9518
 4550SOL     OW25108   0.291   2.137  10.654  0.2081  0.7509  0.1679
 4550SOL    HW125109   0.371   2.094  10.682  0.1363 -0.2396 -1.1765
 4550SOL    HW225110   0.315   2.230  10.652  0.7668  0.6381  1.9209
 4551SOL     OW25111   3.155   2.782  14.149  0.8215 -0.3560 -0.2943
 4551SOL    HW125112   3.153   2.852  14.215  2.5077  0.1087 -0.7285
 4551SOL    HW225113   3.145   2.707  14.207  4.5858 -0.7093 -0.1368
 4552SOL     OW25114   4.597   0.433   7.991 -0.4262 -0.1629  0.4551
 4552SOL    HW125115   4.554   0.479   8.063  1.0553 -0.0015  1.2353
 4552SOL    HW225116   4.589   0.340   8.013 -0.4107 -0.5055 -1.0063
 4553SOL     OW25117   1.124   3.544   6.174  0.2096 -0.4722  0.2093
 4553SOL    HW125118   1.134   3.609   6.104  0.6082 -1.6432 -0.8296
 4553SOL    HW225119   1.207   3.503   6.149 -0.1735 -1.1163 -0.0201
 4554SOL     OW25120   1.942   4.149   4.364  0.5752  0.4724 -0.6264
 4554SOL    HW125121   1.923   4.143   4.457 -0.2759  0.9357 -0.7688
 4554SOL    HW225122   2.037   4.156   4.355  0.7703  0.2921  1.3657
 4555SOL     OW25123   2.622   3.726   3.516 -0.8173 -0.4968  0.3973
 4555SOL    HW125124   2.598   3.735   3.423 -0.9060 -0.7618  0.3917
 4555SOL    HW225125   2.704   3.772   3.530 -0.6669 -0.2443 -1.3244
 4556SOL     OW25126   4.318   4.081   3.554  0.2284 -1.1358  0.2351
 4556SOL    HW125127   4.268   4.040   3.625 -0.3602  1.5874  1.4021
 4556SOL    HW225128   4.259   4.128   3.496 -2.7290 -2.9523  1.7475
 4557SOL     OW25129   3.028   0.756   1.025  0.6590 -0.3421 -0.3943
 4557SOL    HW125130   2.970   0.784   0.954 -0.9600 -0.0650  1.0393
 4557SOL    HW225131   3.111   0.766   0.979  0.5786 -0.8837 -0.6632
 4558SOL     OW25132   2.676   1.298   2.348  0.2790  0.3992 -0.2910
 4558SOL    HW125133   2.627   1.241   2.289 -0.4014  1.4646 -0.7668
 4558SOL    HW225134   2.756   1.251   2.369  1.0287  1.6232 -0.3871
 4559SOL     OW25135   4.105   3.808   8.164 -0.9484 -0.3593  0.7639
 4559SOL    HW125136   4.046   3.877   8.134 -0.8041 -0.2987  0.6146
 4559SOL    HW225137   4.193   3.842   8.181 -1.0146 -0.2477  0.8773
 4560SOL     OW25138   0.239   0.023  13.478  0.2260  0.4909  0.1186
 4560SOL    HW125139   0.273   0.045  13.391  1.4349  1.1765  0.7541
 4560SOL    HW225140   0.317   4.697  13.508 -0.0643 -0.4783 -0.6875
 4561SOL     OW25141   2.147   0.687  11.432  0.4040 -0.0802 -0.4712
 4561SOL    HW125142   2.181   0.773  11.456  1.0365 -0.3936 -0.2512
 4561SOL    HW225143   2.052   0.702  11.436  0.0743 -1.7309 -1.6372
 4562SOL     OW25144   4.583   0.035  16.131  0.7788  0.2645 -0.4019
 4562SOL    HW125145   4.647   0.012  16.063  1.7171  2.3206 -0.2295
 4562SOL    HW225146   4.604   4.695  16.200 -0.7316  0.0148 -0.1821
 4563SOL     OW25147   4.152   2.135  12.507  0.0201 -0.0723  0.5630
 4563SOL    HW125148   4.108   2.215  12.537 -3.5529 -2.0614  0.5514
 4563SOL    HW225149   4.215   2.105  12.572 -0.1834  1.0580  1.2844
 4564SOL     OW25150   2.568   3.695   2.619 -0.1537  0.0483  0.3025
 4564SOL    HW125151   2.573   3.775   2.671 -0.3136 -0.3012  0.8631
 4564SOL    HW225152   2.634   3.719   2.554 -0.7156  0.1944 -0.2140
 4565SOL     OW25153   2.360   0.452   8.004 -0.0201  0.6797 -0.0097
 4565SOL    HW125154   2.274   0.428   7.970 -0.3403  1.4037  0.2866
 4565SOL    HW225155   2.355   0.391   8.078  2.9583  1.2030  0.6181
 4566SOL     OW25156   4.400   2.790  12.511  0.3130  0.2219 -0.3056
 4566SOL    HW125157   4.487   2.783  12.550  1.0098 -1.0958 -2.1319
 4566SOL    HW225158   4.398   2.707  12.464  0.0387  0.1999 -0.2584
 4567SOL     OW25159   4.166   1.083   6.918 -0.1166 -0.1423 -0.0741
 4567SOL    HW125160   4.149   1.176   6.903  1.1586  0.2079  0.6782
 4567SOL    HW225161   4.248   1.072   6.871  1.3871  1.5091  2.1535
 4568SOL     OW25162   1.535   0.380  10.382 -0.0267 -0.5773 -0.1278
 4568SOL    HW125163   1.522   0.291  10.415  0.0577 -0.2472  0.8034
 4568SOL    HW225164   1.488   0.367  10.299  2.2152 -2.2438 -1.1288
 4569SOL     OW25165   2.621   3.658   7.684  0.0006  0.5994 -0.0757
 4569SOL    HW125166   2.714   3.678   7.675  0.6698 -2.3046  0.0933
 4569SOL    HW225167   2.612   3.639   7.778  0.4697 -1.3160 -0.4094
 4570SOL     OW25168   3.413   2.976   7.371 -0.1781  0.5245 -0.4151
 4570SOL    HW125169   3.457   2.933   7.444 -2.8360 -3.4026 -1.1229
 4570SOL    HW225170   3.474   2.967   7.298  0.9573  0.9032  0.4885
 4571SOL     OW25171   3.310   2.198   5.307  0.1739 -0.5670  0.2328
 4571SOL    HW125172   3.304   2.293   5.321  2.3286 -0.1153 -2.0618
 4571SOL    HW225173   3.358   2.173   5.386  0.5342  1.7246  0.7254
 4572SOL     OW25174   0.852   0.505   0.955 -0.0380 -0.0259 -0.3206
 4572SOL    HW125175   0.865   0.412   0.974 -0.4077  0.1200  0.6073
 4572SOL    HW225176   0.872   0.508   0.861  1.1834  0.5354 -0.0505
 4573SOL     OW25177   4.654   4.027  14.448  0.4007 -0.0551 -0.2510
 4573SOL    HW125178   0.004   4.029  14.385  0.0935 -1.9280 -0.6736
 4573SOL    HW225179   4.625   3.937  14.459  0.1160 -0.0992 -1.2964
 4574SOL     OW25180   2.339   3.285   6.295  0.3322 -0.1388  0.0937
 4574SOL    HW125181   2.427   3.249   6.288 -0.3846 -1.7335 -0.6913
 4574SOL    HW225182   2.364   3.375   6.273  0.1604  0.2249  1.3940
 4575SOL     OW25183   0.690   2.408   8.858  0.0994  0.4347  0.2858
 4575SOL    HW125184   0.622   2.424   8.793 -1.5507  2.2394  2.4425
 4575SOL    HW225185   0.690   2.315   8.880  0.6439  0.3844  0.0662
 4576SOL     OW25186   2.633   2.485   9.011 -0.5983  0.1847  0.2793
 4576SOL    HW125187   2.721   2.448   9.001 -0.6390  0.2275 -0.2522
 4576SOL    HW225188   2.636   2.535   8.929 -0.9759 -0.5890 -0.2139
 4577SOL     OW25189   2.143   1.775  11.206  0.1078 -0.5621 -0.3858
 4577SOL    HW125190   2.054   1.765  11.171 -0.0911 -1.7236  0.4422
 4577SOL    HW225191   2.121   1.838  11.275 -2.2000 -1.8621  0.0747
 4578SOL     OW25192   2.064   2.258   0.194 -0.0481 -0.2759 -0.3626
 4578SOL    HW125193   2.101   2.337   0.155  0.4700 -0.0806  0.5196
 4578SOL    HW225194   2.018   2.297   0.268  1.2534  0.5505  0.0199
 4579SOL     OW25195   0.036   1.571   3.112 -0.0991  0.2565  0.0086
 4579SOL    HW125196   0.085   1.555   3.031  1.5555  1.3360  0.8061
 4579SOL    HW225197   4.679   1.527   3.079 -1.2590  0.5712  2.3981
 4580SOL     OW25198   3.411   1.491   8.218 -0.0006 -0.3689  0.3220
 4580SOL    HW125199   3.393   1.584   8.204 -1.1608 -0.5450  0.5769
 4580SOL    HW225200   3.384   1.479   8.309 -2.5478 -2.0461 -0.6478
 4581SOL     OW25201   1.969   3.413   7.334 -0.3636  0.0145  0.3225
 4581SOL    HW125202   1.917   3.440   7.259  0.4146 -0.5091 -0.4082
 4581SOL    HW225203   2.053   3.394   7.291 -0.3597 -0.0750  0.3703
 4582SOL     OW25204   4.593   2.311  10.995 -0.6693  0.5343  0.1603
 4582SOL    HW125205   4.540   2.234  10.977 -2.1415  1.4204  0.7662
 4582SOL    HW225206   4.687   2.290  10.992 -1.0784 -0.8775 -3.1850
 4583SOL     OW25207   1.556   1.630   3.013  0.1574 -0.2666  0.6572
 4583SOL    HW125208   1.592   1.714   3.042  0.0035 -0.2757  0.8796
 4583SOL    HW225209   1.578   1.582   3.093  1.8456  0.5725  0.6880
 4584SOL     OW25210   2.578   1.822   2.298 -0.1050  0.3321  0.1441
 4584SOL    HW125211   2.583   1.772   2.380  0.4044  0.7464  0.3673
 4584SOL    HW225212   2.654   1.879   2.306  0.0436 -0.3154  3.3663
 4585SOL     OW25213   1.400   2.839   9.596  0.0967 -0.4406 -0.3232
 4585SOL    HW125214   1.367   2.768   9.542 -0.1376  0.9071 -1.9467
 4585SOL    HW225215   1.415   2.797   9.681  1.5083  1.7849  0.5200
 4586SOL     OW25216   2.656   2.279  16.844  0.4638  0.6902 -0.1328
 4586SOL    HW125217   2.743   2.238  16.839  0.7793  1.3196  0.1385
 4586SOL    HW225218   2.619   2.266  16.757 -3.2820 -1.2279  1.7771
 4587SOL     OW25219   3.009   1.602   9.095  0.5973 -0.6026 -0.2133
 4587SOL    HW125220   3.082   1.617   9.034  0.8691 -0.2222  0.2138
 4587SOL    HW225221   3.047   1.532   9.148  1.6618  0.8278  0.8994
 4588SOL     OW25222   0.944   4.282  15.454 -0.6028  0.6236 -0.0725
 4588SOL    HW125223   0.913   4.277  15.544 -0.6150 -0.2860 -0.1257
 4588SOL    HW225224   1.039   4.284  15.459 -0.6757 -1.6658  1.9233
 4589SOL     OW25225   4.494   4.590   2.401 -0.3013 -0.0602  0.6834
 4589SOL    HW125226   4.454   4.505   2.420  0.9939  0.1406  4.2948
 4589SOL    HW225227   4.451   4.609   2.317  0.7932 -0.6444 -0.0066
 4590SOL     OW25228   4.442   2.170   9.290 -0.0704  0.1046 -0.1986
 4590SOL    HW125229   4.504   2.243   9.295  1.6513 -1.3160 -1.1033
 4590SOL    HW225230   4.473   2.124   9.212  0.2615 -0.8831  0.5141
 4591SOL     OW25231   3.299   2.017   3.972  0.0668 -0.1749  0.0396
 4591SOL    HW125232   3.355   1.940   3.969  0.3777  0.0527  0.0115
 4591SOL    HW225233   3.265   2.014   3.882 -1.2479  0.8629  0.4906
 4592SOL     OW25234   3.615   4.659   5.984 -0.5687 -0.4121  0.5747
 4592SOL    HW125235   3.703   4.674   6.018 -0.3707 -1.6657  0.6362
 4592SOL    HW225236   3.608   4.567   6.012 -2.2748 -0.2538  0.6079
 4593SOL     OW25237   0.794   2.872   8.822  0.1309  0.3355  0.0887
 4593SOL    HW125238   0.802   2.964   8.800 -0.2039  0.4965  0.6482
 4593SOL    HW225239   0.885   2.846   8.838  0.3034  0.5777 -0.4653
 4594SOL     OW25240   0.860   3.875   8.401 -0.3125 -0.1625  0.0835
 4594SOL    HW125241   0.784   3.819   8.417 -0.5301 -0.1654 -1.0074
 4594SOL    HW225242   0.830   3.955   8.446 -2.6608 -0.6023 -0.7211
 4595SOL     OW25243   0.440   3.084   6.805 -0.0448  0.5846 -0.0941
 4595SOL    HW125244   0.382   3.079   6.729  0.9112 -0.3240 -0.7638
 4595SOL    HW225245   0.378   3.099   6.877  0.8407  1.2140  0.5389
 4596SOL     OW25246   4.179   2.236  16.128  0.1715 -0.1647 -0.1494
 4596SOL    HW125247   4.187   2.163  16.189  2.6133 -0.6557 -1.0440
 4596SOL    HW225248   4.087   2.238  16.103  0.6838  0.6498 -2.0072
 4597SOL     OW25249   1.496   1.088  16.397  0.2174 -0.5477  0.5508
 4597SOL    HW125250   1.589   1.090  16.420  0.1769  1.1363  0.5253
 4597SOL    HW225251   1.465   1.012  16.448 -0.3376 -0.1364  0.8259
 4598SOL     OW25252   4.691   4.056   1.412 -0.1973  0.0862 -0.0393
 4598SOL    HW125253   4.714   4.089   1.499 -0.7130  0.5075 -0.0628
 4598SOL    HW225254   0.049   4.012   1.385 -0.7039 -1.5371  1.1071
 4599SOL     OW25255   2.495   0.104   4.217  0.0052 -0.8963 -0.1607
 4599SOL    HW125256   2.506   0.009   4.224  3.1691 -0.4543  0.6427
 4599SOL    HW225257   2.519   0.124   4.127 -0.9405  0.7714 -0.0407
 4600SOL     OW25258   1.423   3.790   8.052  0.4134  0.3193  0.5942
 4600SOL    HW125259   1.476   3.814   7.976 -2.0591 -1.4369 -1.6774
 4600SOL    HW225260   1.334   3.817   8.027  1.4724  3.3749  0.1956
 4601SOL     OW25261   4.291   0.047   7.413 -0.1096 -0.7363  0.2265
 4601SOL    HW125262   4.306   0.070   7.322  1.7390  0.3355  0.8191
 4601SOL    HW225263   4.377   0.013   7.438 -1.4844 -2.1054  3.1702
 4602SOL     OW25264   3.802   1.640   8.105 -0.4998 -0.1103 -0.1916
 4602SOL    HW125265   3.839   1.626   8.192  0.4925  2.6635 -0.1711
 4602SOL    HW225266   3.710   1.662   8.123 -0.5837  0.2407 -1.0620
 4603SOL     OW25267   2.347   3.706   5.979 -0.3242  0.2490  0.1058
 4603SOL    HW125268   2.336   3.801   5.971 -0.4183 -0.0619 -3.3827
 4603SOL    HW225269   2.273   3.668   5.933 -0.1904  0.7512 -0.5311
 4604SOL     OW25270   0.259   3.449  10.117 -0.4034  0.1563  0.6541
 4604SOL    HW125271   0.218   3.438  10.203 -1.3197 -1.6643 -0.0156
 4604SOL    HW225272   0.347   3.415  10.134  0.2976  2.6088  1.9878
 4605SOL     OW25273   2.544   3.881   7.946  0.1362 -0.3990 -0.5114
 4605SOL    HW125274   2.464   3.846   7.906  0.0225 -1.5232  0.6793
 4605SOL    HW225275   2.576   3.790   7.939 -5.5757 -2.3348 -1.3467
 4606SOL     OW25276   2.450   3.099   4.459  0.3342 -0.1044  0.2944
 4606SOL    HW125277   2.400   3.022   4.487 -0.4070  0.5283  0.6878
 4606SOL    HW225278   2.382   3.155   4.423  1.4047  1.2779  0.4053
 4607SOL     OW25279   1.877   1.320  11.712  0.2249  0.2067 -0.7033
 4607SOL    HW125280   1.935   1.255  11.753 -1.0591  0.7048  1.9152
 4607SOL    HW225281   1.894   1.305  11.619 -0.2563 -2.9361 -0.3139
 4608SOL     OW25282   3.956   4.079  15.439 -0.3115 -0.8662  0.1263
 4608SOL    HW125283   4.004   4.148  15.393 -1.0721 -1.9042 -2.2166
 4608SOL    HW225284   3.919   4.029  15.366 -0.0310  1.5048 -1.6302
 4609SOL     OW25285   0.648   2.094   8.642 -0.0008  0.3597 -0.2075
 4609SOL    HW125286   0.666   2.101   8.736  0.6321 -0.5410 -0.2664
 4609SOL    HW225287   0.613   2.006   8.631 -0.6830  0.8084 -1.6315
 4610SOL     OW25288   0.454   2.815   7.740 -0.0454 -0.4296  0.3858
 4610SOL    HW125289   0.468   2.761   7.662  0.4178 -0.4448  0.4818
 4610SOL    HW225290   0.360   2.833   7.737 -0.1493 -1.1363 -0.3643
 4611SOL     OW25291   1.522   3.202   9.539 -0.2409 -0.3592  0.1329
 4611SOL    HW125292   1.519   3.194   9.443  0.1830 -0.5691  0.1381
 4611SOL    HW225293   1.597   3.151   9.570  1.4470  1.2863 -1.2063
 4612SOL     OW25294   3.703   1.483   9.348 -0.3682 -0.5526  0.1881
 4612SOL    HW125295   3.609   1.492   9.366 -0.9812 -1.9148 -2.3079
 4612SOL    HW225296   3.723   1.568   9.309  0.5342 -1.4454 -1.3159
 4613SOL     OW25297   1.936   0.054   9.831  0.4068 -0.8152 -0.1000
 4613SOL    HW125298   1.924   0.138   9.787  1.2026 -1.1602 -0.9823
 4613SOL    HW225299   1.977   0.074   9.915  1.3626 -1.0557 -0.5031
 4614SOL     OW25300   1.337   2.933   4.841  0.0951  0.4957 -0.0906
 4614SOL    HW125301   1.317   2.999   4.908 -0.5477 -1.0068  1.2037
 4614SOL    HW225302   1.428   2.951   4.818  0.4124 -0.0575  0.6993
 4615SOL     OW25303   2.983   3.289  14.319  0.5336 -0.7304 -0.1722
 4615SOL    HW125304   2.933   3.246  14.389  1.6462 -0.4391  0.8041
 4615SOL    HW225305   2.918   3.347  14.280  0.9126 -0.7049 -0.7596
 4616SOL     OW25306   3.424   2.487  12.606  0.2363 -0.0413 -0.0680
 4616SOL    HW125307   3.476   2.567  12.618  1.8953 -0.9495 -1.1878
 4616SOL    HW225308   3.357   2.514  12.669  1.7505  2.7875  0.3882
 4617SOL     OW25309   3.441   0.938   3.741 -0.1163 -0.0784  0.3900
 4617SOL    HW125310   3.473   1.000   3.807  1.2048 -0.3964  0.0511
 4617SOL    HW225311   3.393   0.875   3.795 -0.1736  1.1011  1.7300
 4618SOL     OW25312   1.790   1.341  12.407 -0.4587 -0.4006 -0.1057
 4618SOL    HW125313   1.738   1.279  12.460 -0.2887  0.0273  0.5652
 4618SOL    HW225314   1.875   1.297  12.412 -0.0026  0.5299  0.1428
 4619SOL     OW25315   3.571   1.969  17.525  0.2013 -0.1834 -0.7247
 4619SOL    HW125316   3.573   2.046  17.583 -2.0455 -2.1258  1.9113
 4619SOL    HW225317   3.542   1.902  17.587  1.4344  0.4649  0.5722
 4620SOL     OW25318   0.138   4.403  12.722  0.0899 -0.0987  0.0544
 4620SOL    HW125319   0.222   4.420  12.681  0.0348  1.1745  0.4459
 4620SOL    HW225320   0.169   4.428  12.809  2.0345 -0.2022 -0.6090
 4621SOL     OW25321   0.035   4.204   8.691 -0.4492  0.1858 -0.2408
 4621SOL    HW125322   0.081   4.248   8.619  0.4815 -0.1432  0.1503
 4621SOL    HW225323   0.104   4.152   8.734  1.1681  1.9478 -0.6862
 4622SOL     OW25324   2.699   3.782  17.500 -0.7078  0.5833  0.3202
 4622SOL    HW125325   2.760   3.847  17.464  1.2982 -0.0706  2.5255
 4622SOL    HW225326   2.715   3.721  17.428  2.0643 -2.0878  3.2028
 4623SOL     OW25327   1.457   2.566   1.783 -0.6177  0.4219  0.2965
 4623SOL    HW125328   1.478   2.490   1.838  2.1861  1.1743  0.2296
 4623SOL    HW225329   1.465   2.528   1.695 -1.7871 -1.4555  0.9975
 4624SOL     OW25330   4.570   2.649  11.439 -0.5549  0.0019  0.0474
 4624SOL    HW125331   4.657   2.650  11.479  0.0868  0.7565 -1.3701
 4624SOL    HW225332   4.575   2.730  11.388  0.7972 -0.1236  0.0031
 4625SOL     OW25333   4.505   3.209   2.491 -0.1241  0.2347  0.5616
 4625SOL    HW125334   4.524   3.184   2.582 -0.7682 -2.7058 -0.1142
 4625SOL    HW225335   4.590   3.204   2.449 -0.5382 -0.5008 -0.1998
 4626SOL     OW25336   0.133   0.262  15.631  0.3083  0.1437 -0.3258
 4626SOL    HW125337   0.115   0.253  15.537  1.5225  0.3031 -0.5726
 4626SOL    HW225338   0.097   0.348  15.650 -0.8758 -0.0891 -1.5115
 4627SOL     OW25339   2.843   1.290   1.552  0.0591  0.3380 -0.3016
 4627SOL    HW125340   2.883   1.290   1.465 -0.2077 -1.0092 -0.4289
 4627SOL    HW225341   2.760   1.332   1.530 -0.0083 -0.3619 -1.3777
 4628SOL     OW25342   0.174   0.640   8.201 -0.2937  0.7946  0.0230
 4628SOL    HW125343   0.164   0.573   8.134  2.0720  0.9318 -0.4776
 4628SOL    HW225344   0.098   0.697   8.186  0.0757  1.3582  0.2862
 4629SOL     OW25345   2.968   4.448   5.000 -0.0431 -0.4524 -0.3027
 4629SOL    HW125346   2.902   4.456   5.069  1.0503 -1.5483  0.8704
 4629SOL    HW225347   3.042   4.485   5.047 -0.6879  1.6079 -0.9203
 4630SOL     OW25348   1.071   2.208   1.745  0.0651 -0.2411  0.0014
 4630SOL    HW125349   0.990   2.221   1.696  0.4702  1.0844 -0.3176
 4630SOL    HW225350   1.060   2.255   1.827 -0.1371 -0.8273  0.3113
 4631SOL     OW25351   3.484   1.453   3.406 -0.0412 -0.0029  0.0051
 4631SOL    HW125352   3.455   1.421   3.320 -1.3693  1.9937 -0.2916
 4631SOL    HW225353   3.411   1.508   3.437 -0.4031  0.0297 -0.8951
 4632SOL     OW25354   2.582   1.362   9.667 -0.2696  0.0585 -0.2624
 4632SOL    HW125355   2.506   1.305   9.659 -0.0990 -0.3731  1.2763
 4632SOL    HW225356   2.543   1.449   9.658  1.0918  0.8238  1.1858
 4633SOL     OW25357   0.187   2.265  14.344  0.4992  0.2836  0.3965
 4633SOL    HW125358   0.234   2.204  14.288 -1.5226 -3.1041  2.3398
 4633SOL    HW225359   0.125   2.314  14.290  1.8874  0.7723 -0.7465
 4634SOL     OW25360   2.760   0.679  17.212 -0.0035 -0.1583  0.0595
 4634SOL    HW125361   2.680   0.673  17.159 -1.4950  2.0865  2.0676
 4634SOL    HW225362   2.825   0.705  17.147  0.4757 -1.5576 -0.0254
 4635SOL     OW25363   0.008   2.215  10.113 -0.1108  0.2078  0.2041
 4635SOL    HW125364   0.015   2.306  10.086  1.7738  0.3290  1.0449
 4635SOL    HW225365   0.081   2.216  10.175 -0.2115  1.0011  0.3003
 4636SOL     OW25366   2.301   4.640   9.623  0.3528  1.2265  0.1268
 4636SOL    HW125367   2.265   4.692   9.551 -1.7600  0.1530  0.4283
 4636SOL    HW225368   2.329   4.714   9.677  0.7343  3.0468 -2.5066
 4637SOL     OW25369   2.543   3.550   8.197  0.1129  0.0127 -0.3638
 4637SOL    HW125370   2.562   3.569   8.289  0.1682  0.0716 -0.3871
 4637SOL    HW225371   2.502   3.463   8.195  1.8515 -0.7915 -1.0487
 4638SOL     OW25372   4.660   1.843   8.259 -0.4043  0.7238 -0.0061
 4638SOL    HW125373   4.619   1.911   8.313  1.0652  0.5558  1.3057
 4638SOL    HW225374   4.717   1.808   8.327  0.7982  1.2199 -0.7524
 4639SOL     OW25375   2.864   4.227   1.842 -0.1362  0.3644 -0.1982
 4639SOL    HW125376   2.836   4.216   1.751  3.2095 -1.9211 -0.9483
 4639SOL    HW225377   2.954   4.260   1.831  0.2063 -0.4149  0.2900
 4640SOL     OW25378   1.854   4.702  12.969  0.0998  0.2788  0.0059
 4640SOL    HW125379   1.760   4.684  12.964 -0.0266  0.7464  0.5763
 4640SOL    HW225380   1.869   0.045  12.900 -3.0032  1.9651  0.8976
 4641SOL     OW25381   4.021   3.512   0.076  0.2460 -0.2416  0.3710
 4641SOL    HW125382   4.101   3.550   0.040  0.7262 -0.5032  1.1642
 4641SOL    HW225383   3.972   3.506  17.684 -0.6649  0.3553  0.8686
 4642SOL     OW25384   3.815   3.150  16.570  0.0618  0.4065  0.1015
 4642SOL    HW125385   3.901   3.112  16.557 -0.3463 -0.0571 -1.2753
 4642SOL    HW225386   3.820   3.236  16.527 -0.5998  0.6971  0.6044
 4643SOL     OW25387   3.473   2.685  14.957 -0.6220  0.1731 -0.2728
 4643SOL    HW125388   3.437   2.699  15.045  0.3481  0.4471  0.0800
 4643SOL    HW225389   3.422   2.607  14.933 -2.4700  0.5823  2.3523
 4644SOL     OW25390   0.675   1.296   4.510  0.5352  0.0990 -0.2513
 4644SOL    HW125391   0.583   1.276   4.491 -0.1741  2.3527  0.8946
 4644SOL    HW225392   0.673   1.273   4.603 -1.0592 -1.6887 -0.7110
 4645SOL     OW25393   4.483   0.416   3.852 -0.1320 -0.2421  0.2453
 4645SOL    HW125394   4.443   0.330   3.836 -0.2033 -0.6369  2.6325
 4645SOL    HW225395   4.552   0.415   3.786  0.3867  1.7237  0.7921
 4646SOL     OW25396   2.601   1.535   6.303 -0.0509 -0.2316  0.3388
 4646SOL    HW125397   2.593   1.489   6.386 -1.9430 -1.0662 -0.3211
 4646SOL    HW225398   2.626   1.624   6.328 -0.0748  0.0299 -0.5671
 4647SOL     OW25399   3.006   3.957  10.256 -0.5104 -0.1092  0.0886
 4647SOL    HW125400   3.046   3.871  10.269 -0.4178  0.0244  0.6459
 4647SOL    HW225401   3.066   4.015  10.302  2.1825 -1.5040 -1.6879
 4648SOL     OW25402   1.962   4.517   9.412 -0.0063 -0.3482  0.4518
 4648SOL    HW125403   2.037   4.538   9.358  1.1887 -3.1213  1.0321
 4648SOL    HW225404   1.957   4.424   9.389  1.6645 -0.1679 -0.5920
 4649SOL     OW25405   4.237   3.405   7.642  0.6668 -0.2341  0.4983
 4649SOL    HW125406   4.316   3.401   7.588 -0.4858  2.8981 -1.4433
 4649SOL    HW225407   4.160   3.419   7.588  0.5004  0.0554  0.8085
 4650SOL     OW25408   4.295   1.331   5.289  0.6629 -0.7004 -0.2600
 4650SOL    HW125409   4.330   1.399   5.346  0.4938  0.5080 -1.5997
 4650SOL    HW225410   4.207   1.323   5.326  1.8169 -0.0046  2.6151
 4651SOL     OW25411   1.540   2.918  12.440 -0.0826  0.5733  0.0464
 4651SOL    HW125412   1.622   2.966  12.446 -0.1509  0.7366 -0.3385
 4651SOL    HW225413   1.512   2.915  12.532  0.8124  0.2738  0.3020
 4652SOL     OW25414   1.551   1.397  14.599 -0.4605  0.2307  0.1156
 4652SOL    HW125415   1.476   1.420  14.653 -0.0613  1.7583  0.0049
 4652SOL    HW225416   1.593   1.326  14.647 -2.0013 -1.4629 -1.0304
 4653SOL     OW25417   2.556   1.492   9.191  0.2861 -0.3874 -0.6450
 4653SOL    HW125418   2.643   1.453   9.203  1.4220  1.9564 -1.2022
 4653SOL    HW225419   2.529   1.519   9.278  0.4867 -1.7783 -0.1533
 4654SOL     OW25420   0.371   1.448  15.185 -0.2512  0.3334 -0.4801
 4654SOL    HW125421   0.400   1.359  15.205  1.5608  1.0498  0.1294
 4654SOL    HW225422   0.345   1.439  15.093 -0.5811  0.3284 -0.3847
 4655SOL     OW25423   2.702   1.480  15.195 -0.0406 -0.4722 -0.3288
 4655SOL    HW125424   2.761   1.469  15.270  2.9301  2.8981 -2.1800
 4655SOL    HW225425   2.761   1.522  15.132 -0.1465 -0.2682 -0.2886
 4656SOL     OW25426   3.959   0.636  14.619  0.4372 -0.4074  0.7036
 4656SOL    HW125427   3.869   0.668  14.628 -0.4023 -3.2929  2.5696
 4656SOL    HW225428   3.946   0.542  14.615  2.6341 -0.6277 -1.0330
 4657SOL     OW25429   0.770   2.552   7.623 -0.0886  0.5602  0.4205
 4657SOL    HW125430   0.779   2.587   7.711 -2.9576  1.1177  0.4780
 4657SOL    HW225431   0.834   2.481   7.628 -0.0638  0.6049  0.7027
 4658SOL     OW25432   0.801   1.082   8.445  0.1440  0.0118 -0.0654
 4658SOL    HW125433   0.803   1.027   8.523  0.7432 -1.4491 -1.1032
 4658SOL    HW225434   0.845   1.027   8.380  1.0551  0.6995 -0.0405
 4659SOL     OW25435   4.326   2.905  12.775 -0.0857  0.0493  0.5645
 4659SOL    HW125436   4.333   2.810  12.769  0.6043  0.1186  0.2520
 4659SOL    HW225437   4.388   2.939  12.710 -0.5184  0.3653  0.3178
 4660SOL     OW25438   1.272   4.047  13.287 -0.0743  0.6017 -1.0022
 4660SOL    HW125439   1.349   4.083  13.332 -0.8293 -1.1898  1.7124
 4660SOL    HW225440   1.203   4.109  13.309  0.0434  0.8760 -1.4061
 4661SOL     OW25441   3.294   3.727   8.051 -0.3003  0.3913  0.7559
 4661SOL    HW125442   3.356   3.786   8.094 -0.8765  2.2501 -0.9614
 4661SOL    HW225443   3.350   3.666   8.003 -1.4735  0.6917 -0.9851
 4662SOL     OW25444   3.518   2.801   5.694 -0.4211  0.1559 -0.3525
 4662SOL    HW125445   3.532   2.894   5.712  0.1181  0.4317 -2.2525
 4662SOL    HW225446   3.558   2.761   5.771 -0.7338 -1.0311 -0.8039
 4663SOL     OW25447   3.315   0.803   1.999  0.0989 -0.1600  0.3194
 4663SOL    HW125448   3.253   0.747   1.953  0.9591  1.1728 -2.4384
 4663SOL    HW225449   3.266   0.816   2.080  4.0179 -2.8256  3.1595
 4664SOL     OW25450   2.761   3.273  10.621 -0.0810  0.3009 -0.1612
 4664SOL    HW125451   2.708   3.258  10.543  1.4422  0.4061 -1.2140
 4664SOL    HW225452   2.690   3.301  10.678 -0.6464 -1.1069 -0.1866
 4665SOL     OW25453   0.157   1.158   2.450 -0.1382  0.1940  0.6464
 4665SOL    HW125454   0.160   1.063   2.444  1.2326  0.3295 -0.8846
 4665SOL    HW225455   0.079   1.170   2.396  0.1801 -0.1589  0.1076
 4666SOL     OW25456   2.936   2.708   7.057  0.0347 -0.6454  0.1498
 4666SOL    HW125457   3.001   2.659   7.107  0.0245  1.0919  1.8304
 4666SOL    HW225458   2.970   2.710   6.967  0.5950 -3.6271  0.2951
 4667SOL     OW25459   2.032   4.641  13.186  0.1933  0.5108  0.0733
 4667SOL    HW125460   1.967   4.634  13.257 -1.7057 -0.2904 -1.7552
 4667SOL    HW225461   1.974   4.656  13.111  0.4766 -0.5230 -0.3533
 4668SOL     OW25462   2.167   3.246   3.317 -0.0203 -0.5190  0.5802
 4668SOL    HW125463   2.215   3.304   3.376  0.9843 -1.3132  0.5517
 4668SOL    HW225464   2.204   3.159   3.328  0.0673 -0.7806 -1.8807
 4669SOL     OW25465   0.855   1.201   6.687 -0.1840  0.0288  0.6638
 4669SOL    HW125466   0.800   1.246   6.751 -3.1984 -2.1895 -0.3759
 4669SOL    HW225467   0.910   1.270   6.648  2.4237 -1.9507  0.8496
 4670SOL     OW25468   0.341   0.766   7.063 -0.3657 -0.3715 -0.2624
 4670SOL    HW125469   0.414   0.809   7.109  0.1392 -2.1591  0.6019
 4670SOL    HW225470   0.299   0.718   7.134  0.2027  0.5125  0.6860
 4671SOL     OW25471   1.269   3.991   2.510  0.1526  0.6637 -0.1467
 4671SOL    HW125472   1.327   4.033   2.446  0.6108  0.9398  0.4440
 4671SOL    HW225473   1.320   3.921   2.550 -0.5597  1.0510  1.4275
 4672SOL     OW25474   0.270   0.492   2.448 -0.3632  0.1542 -0.0798
 4672SOL    HW125475   0.337   0.429   2.475 -1.1265 -0.4940  0.2771
 4672SOL    HW225476   0.312   0.575   2.473 -2.0857  1.1149 -0.3916
 4673SOL     OW25477   3.173   2.564   2.824  0.0278  0.2507 -0.1592
 4673SOL    HW125478   3.260   2.571   2.865  1.2055  0.6176 -2.6982
 4673SOL    HW225479   3.129   2.505   2.886  0.7927 -0.3755 -0.2132
 4674SOL     OW25480   0.066   0.888   7.081  0.8489 -0.0091 -0.0400
 4674SOL    HW125481   0.135   0.955   7.084  2.8334 -2.1103  0.8955
 4674SOL    HW225482   0.112   0.805   7.089 -0.3768 -0.4082  3.0579
 4675SOL     OW25483   0.446   3.878  11.499 -0.0997 -0.6903 -0.6294
 4675SOL    HW125484   0.527   3.833  11.475 -0.3670 -1.7237  0.3611
 4675SOL    HW225485   0.376   3.813  11.492  0.6866 -1.4982 -0.9483
 4676SOL     OW25486   3.454   4.061   5.155 -0.5159 -0.8455  0.1132
 4676SOL    HW125487   3.371   4.108   5.167  0.4514  1.0682 -0.7094
 4676SOL    HW225488   3.425   3.994   5.216  0.6618 -0.4239  1.1429
 4677SOL     OW25489   2.438   3.653   5.449 -0.7015  0.5492 -0.0208
 4677SOL    HW125490   2.447   3.569   5.496  0.4765  1.0475  0.6449
 4677SOL    HW225491   2.426   3.719   5.517  0.4695 -1.3948  2.0853
 4678SOL     OW25492   3.782   0.032  13.973  0.0277  0.1517 -0.0515
 4678SOL    HW125493   3.722   0.037  14.047 -0.0098 -2.9975  0.1505
 4678SOL    HW225494   3.825   0.117  13.987  0.5159  0.0217 -0.7299
 4679SOL     OW25495   2.536   3.339  15.981 -0.0921  0.4166 -0.4621
 4679SOL    HW125496   2.552   3.287  15.902 -1.9523  0.6134 -0.9690
 4679SOL    HW225497   2.529   3.430  15.950 -1.6175  1.0079  1.6353
 4680SOL     OW25498   1.664   3.515   9.331  0.1853  0.0866  0.4653
 4680SOL    HW125499   1.751   3.496   9.367  0.1645 -1.0343 -0.0665
 4680SOL    HW225500   1.661   3.450   9.261  0.7325  0.3640  0.1769
 4681SOL     OW25501   0.419   2.867   9.952  0.3107 -0.2527  0.0328
 4681SOL    HW125502   0.380   2.926  10.016 -2.5649 -2.3757  0.2359
 4681SOL    HW225503   0.495   2.915   9.919 -1.1530  1.5317 -0.7918
 4682SOL     OW25504   3.764   4.291   2.080 -1.0212  0.7978  0.1080
 4682SOL    HW125505   3.842   4.341   2.055  1.0429 -1.8093  1.3583
 4682SOL    HW225506   3.699   4.319   2.015  0.1384 -1.8366 -2.1696
 4683SOL     OW25507   0.641   3.712   5.791 -0.2842 -0.2437  0.6748
 4683SOL    HW125508   0.670   3.634   5.838  0.8719 -0.2247 -0.0017
 4683SOL    HW225509   0.668   3.783   5.850 -0.8753  0.9614 -0.4848
 4684SOL     OW25510   2.902   3.792   6.794  0.0708  0.4228  0.6342
 4684SOL    HW125511   2.985   3.746   6.799 -0.3933 -0.4475  0.2911
 4684SOL    HW225512   2.930   3.867   6.847 -1.4800  1.0694  0.5468
 4685SOL     OW25513   1.364   1.518  14.751  0.8581 -0.7963  0.7008
 4685SOL    HW125514   1.310   1.588  14.713  2.9841  0.1595 -0.5735
 4685SOL    HW225515   1.430   1.573  14.794 -0.4254  2.1257 -1.0472
 4686SOL     OW25516   1.464   4.162  12.960  0.1283 -0.2795  0.2625
 4686SOL    HW125517   1.533   4.198  13.016 -0.8896 -2.1390  2.7336
 4686SOL    HW225518   1.486   4.215  12.884 -0.8864  1.3860  1.1404
 4687SOL     OW25519   3.802   4.312  16.039  0.4903 -0.5139  0.2030
 4687SOL    HW125520   3.764   4.368  15.971  1.2471  0.5691  0.6765
 4687SOL    HW225521   3.782   4.371  16.111  0.7910  0.8591 -0.8390
 4688SOL     OW25522   2.137   4.093   7.306 -0.6465  0.2737  0.1438
 4688SOL    HW125523   2.072   4.133   7.364 -1.2526 -1.0776  0.3952
 4688SOL    HW225524   2.074   4.042   7.256 -0.9864  1.8711 -1.0518
 4689SOL     OW25525   1.213   1.062   2.553  0.0185  0.1392 -0.5401
 4689SOL    HW125526   1.170   1.140   2.589  2.4295  0.7115  1.1226
 4689SOL    HW225527   1.215   1.010   2.633  0.3253 -0.8169 -1.1659
 4690SOL     OW25528   2.794   2.159   8.300  0.2186  0.7907 -0.5131
 4690SOL    HW125529   2.708   2.176   8.336 -0.8156 -2.3847 -1.4826
 4690SOL    HW225530   2.830   2.078   8.336  1.2855  0.7999 -1.5170
 4691SOL     OW25531   4.546   2.689   7.509  0.4709 -0.1993 -0.3857
 4691SOL    HW125532   4.639   2.670   7.509  0.7984  1.3859 -2.9766
 4691SOL    HW225533   4.552   2.780   7.482 -1.7243  0.9818  3.1215
 4692SOL     OW25534   3.043   3.565   2.197  0.5320 -0.2203 -0.2922
 4692SOL    HW125535   3.123   3.537   2.153  0.6253 -0.4484  0.0298
 4692SOL    HW225536   3.008   3.646   2.159 -1.3183 -0.6411  0.4998
 4693SOL     OW25537   3.053   0.541  10.316 -0.2226 -0.3739 -0.3260
 4693SOL    HW125538   3.128   0.583  10.274  2.1943 -1.5046  2.8841
 4693SOL    HW225539   3.035   0.597  10.392  0.4521  0.5501 -0.8421
 4694SOL     OW25540   2.372   2.105   5.886 -0.0686 -0.6091 -0.3941
 4694SOL    HW125541   2.439   2.046   5.918 -1.9371 -3.2977 -1.4611
 4694SOL    HW225542   2.404   2.095   5.796  2.3003  2.5775  0.0799
 4695SOL     OW25543   1.747   1.417   4.511 -0.2987  0.2349 -0.3798
 4695SOL    HW125544   1.770   1.473   4.586  1.8178  0.7336 -1.4186
 4695SOL    HW225545   1.743   1.475   4.435  0.1175  0.6140 -0.1097
 4696SOL     OW25546   2.187   0.089   8.943 -0.0031 -0.1597  0.0480
 4696SOL    HW125547   2.270   0.054   8.976 -0.7621 -0.5126  1.5614
 4696SOL    HW225548   2.181   0.040   8.861  0.0009 -0.4539  0.2252
 4697SOL     OW25549   4.577   2.071   6.981  0.2280  0.0846  0.0108
 4697SOL    HW125550   4.561   1.977   6.988  0.2427  0.0173 -0.7877
 4697SOL    HW225551   4.514   2.103   6.915 -0.9292  0.4382  1.2917
 4698SOL     OW25552   1.717   3.364   5.405 -0.3224  0.2720  0.0182
 4698SOL    HW125553   1.634   3.375   5.358 -0.1176  0.3260 -0.3294
 4698SOL    HW225554   1.724   3.454   5.437 -2.2563 -0.4908  2.5485
 4699SOL     OW25555   0.857   0.440   7.924 -0.6353 -0.5257  0.1664
 4699SOL    HW125556   0.850   0.384   8.001  0.0612 -0.0714  0.5642
 4699SOL    HW225557   0.944   0.411   7.895 -0.2581  0.4634  0.3108
 4700SOL     OW25558   3.035   3.784   7.943 -0.1087  0.1915 -0.1392
 4700SOL    HW125559   3.002   3.704   7.985  0.5182  0.0303  0.0381
 4700SOL    HW225560   3.125   3.776   7.974 -0.6671 -2.2639  0.8471
 4701SOL     OW25561   0.753   1.988   3.986  0.7555  0.3415 -0.1563
 4701SOL    HW125562   0.661   1.963   3.996  1.1155 -0.2862  1.5450
 4701SOL    HW225563   0.748   2.045   3.909  1.6338 -1.2931 -1.4266
 4702SOL     OW25564   4.198   2.946  12.411  0.1073 -0.2756 -0.0606
 4702SOL    HW125565   4.269   2.900  12.455 -0.5496 -0.2321  1.0405
 4702SOL    HW225566   4.238   2.973  12.328 -0.2606 -1.5122 -0.6409
 4703SOL     OW25567   3.174   1.208   4.476  0.2191 -0.3767 -0.2231
 4703SOL    HW125568   3.110   1.270   4.440  0.6840 -0.0139 -0.4191
 4703SOL    HW225569   3.235   1.207   4.403  1.0789 -1.7013  0.5181
 4704SOL     OW25570   1.027   1.544  10.395  0.0193  0.4545 -0.1186
 4704SOL    HW125571   1.114   1.522  10.363 -0.1013  0.5134 -0.4849
 4704SOL    HW225572   1.051   1.630  10.429 -1.0637  0.1172  1.4806
 4705SOL     OW25573   3.204   3.491   5.346 -0.0861 -0.5564  0.2143
 4705SOL    HW125574   3.299   3.484   5.351  0.0099  0.5318 -0.1256
 4705SOL    HW225575   3.185   3.558   5.412  2.3176 -0.3117  0.6353
 4706SOL     OW25576   3.000   1.441   3.077  0.0461  0.4155 -0.0485
 4706SOL    HW125577   3.014   1.533   3.056  1.4052  0.2395  0.0812
 4706SOL    HW225578   3.001   1.398   2.992  1.0173 -0.4511  0.3996
 4707SOL     OW25579   0.132   4.278   3.921 -0.7188 -0.0874 -0.2269
 4707SOL    HW125580   0.168   4.233   3.998 -0.0334  0.9084  0.0352
 4707SOL    HW225581   0.105   4.202   3.869 -1.6941  0.4048 -0.4256
 4708SOL     OW25582   0.939   3.982   4.888 -0.2697  0.1940 -0.3042
 4708SOL    HW125583   1.007   3.929   4.847 -0.1724 -0.6824  0.9608
 4708SOL    HW225584   0.972   4.001   4.976 -0.8472 -1.3792  0.2625
 4709SOL     OW25585   1.518   1.481  15.991  0.3844 -0.4799  0.2108
 4709SOL    HW125586   1.454   1.413  16.009 -0.4417  0.1587 -0.3108
 4709SOL    HW225587   1.500   1.484  15.897  0.5535 -0.9853  0.1622
 4710SOL     OW25588   0.026   2.518   6.484  0.2405  0.0416 -0.1656
 4710SOL    HW125589   0.005   2.610   6.497 -0.2259  0.0927 -1.3757
 4710SOL    HW225590   0.101   2.504   6.542  0.6152 -1.6284 -1.0666
 4711SOL     OW25591   4.469   2.555   7.099  0.3678 -0.0687  0.5040
 4711SOL    HW125592   4.521   2.478   7.119 -0.7187 -0.9272  0.0247
 4711SOL    HW225593   4.521   2.632   7.122  0.8660 -0.0033 -0.8254
 4712SOL     OW25594   3.936   2.219   3.511  0.6049  0.7128 -0.1559
 4712SOL    HW125595   3.887   2.292   3.473 -0.0430 -0.4978 -1.6334
 4712SOL    HW225596   3.907   2.148   3.454 -1.9020 -0.2139  2.2684
 4713SOL     OW25597   2.965   2.242   4.269  0.9268  0.4479  0.4099
 4713SOL    HW125598   2.896   2.176   4.271  0.4397  0.9531  0.5296
 4713SOL    HW225599   2.924   2.299   4.204 -1.3212 -2.2811 -0.5259
 4714SOL     OW25600   2.367   1.776  11.057  0.2138  0.3411 -0.6605
 4714SOL    HW125601   2.294   1.775  11.119 -0.0317 -2.0193 -0.9760
 4714SOL    HW225602   2.413   1.697  11.085 -1.1029 -0.5170 -0.9046
 4715SOL     OW25603   1.857   1.455   3.605 -0.3218  0.0470  0.6559
 4715SOL    HW125604   1.879   1.454   3.698 -1.2386 -2.3689  0.8450
 4715SOL    HW225605   1.943   1.454   3.563 -0.8116 -2.7275 -0.2971
 4716SOL     OW25606   1.703   0.401  17.670  0.3095  0.6526 -0.1376
 4716SOL    HW125607   1.710   0.425  17.577 -3.1970  3.7770  0.3815
 4716SOL    HW225608   1.634   0.461   0.008  0.6189  1.7805 -1.7693
 4717SOL     OW25609   4.585   4.296   3.485  0.2164 -0.4553  0.6905
 4717SOL    HW125610   4.523   4.327   3.551  1.9012  0.9037  1.6264
 4717SOL    HW225611   4.530   4.232   3.438 -0.1058 -0.5338  1.1799
 4718SOL     OW25612   3.782   0.746  10.049 -0.3046 -0.3206 -0.1642
 4718SOL    HW125613   3.695   0.716  10.076 -0.8925  2.2247  0.8085
 4718SOL    HW225614   3.777   0.709   9.961 -1.3935  0.8249 -0.5862
 4719SOL     OW25615   2.272   0.644   6.333  0.2028  0.5000 -0.3355
 4719SOL    HW125616   2.319   0.727   6.322 -1.0880  1.3658  0.7615
 4719SOL    HW225617   2.260   0.649   6.427  0.4276 -2.7123 -0.1342
 4720SOL     OW25618   3.805   2.833   7.745  0.1691 -0.3312  0.5967
 4720SOL    HW125619   3.897   2.832   7.770 -0.0116  1.1171  1.3341
 4720SOL    HW225620   3.803   2.745   7.710 -0.1437  0.7687 -2.1509
 4721SOL     OW25621   1.493   1.969   4.441  0.2842  0.5121  0.6520
 4721SOL    HW125622   1.413   1.999   4.396 -0.7242 -0.6414  1.6776
 4721SOL    HW225623   1.544   2.048   4.459  0.6594  0.3060  0.4792
 4722SOL     OW25624   1.288   1.166  13.587 -0.1914  0.1057  0.2597
 4722SOL    HW125625   1.238   1.152  13.507 -1.1555 -0.6836  1.0116
 4722SOL    HW225626   1.258   1.104  13.654 -0.5733 -2.2495 -2.1085
 4723SOL     OW25627   1.134   4.055   4.458 -0.0637 -0.0757 -0.3338
 4723SOL    HW125628   1.174   4.062   4.372 -3.4869  3.2177 -1.6462
 4723SOL    HW225629   1.042   4.053   4.433 -0.0753 -3.6622 -0.0229
 4724SOL     OW25630   4.618   2.794   6.396  0.2557 -0.1411 -0.2662
 4724SOL    HW125631   4.575   2.877   6.378  0.4844  0.1690  0.6324
 4724SOL    HW225632   4.590   2.784   6.487  1.6184  2.6262  0.4496
 4725SOL     OW25633   2.968   1.454   7.523 -0.1043  0.0857 -0.2991
 4725SOL    HW125634   2.881   1.415   7.527 -0.2807 -0.0344 -4.9968
 4725SOL    HW225635   3.024   1.377   7.510  0.4773  0.4182  0.2081
 4726SOL     OW25636   1.138   4.314  16.630  0.0528 -0.4313 -0.0969
 4726SOL    HW125637   1.168   4.364  16.705 -0.2478  1.7904 -1.4625
 4726SOL    HW225638   1.048   4.297  16.656 -0.3792 -0.1294 -1.4110
 4727SOL     OW25639   3.616   1.028   9.779 -0.1431  0.7850  0.6474
 4727SOL    HW125640   3.578   1.023   9.867  0.0769 -2.0623  0.5781
 4727SOL    HW225641   3.693   1.081   9.801  0.0111  1.6708 -2.0650
 4728SOL     OW25642   2.508   0.192   2.048 -0.6581 -0.8611  0.0187
 4728SOL    HW125643   2.482   0.184   1.956  0.3003  0.0861 -0.3498
 4728SOL    HW225644   2.603   0.184   2.036 -0.5655 -0.0103  0.1536
 4729SOL     OW25645   2.335   2.476   0.497 -0.0406 -0.4686  0.2575
 4729SOL    HW125646   2.370   2.488   0.585 -2.0680 -0.8895  1.1181
 4729SOL    HW225647   2.371   2.554   0.456  1.1727 -0.9776  0.3438
 4730SOL     OW25648   2.631   1.783   2.767 -0.2516  0.1630 -0.2240
 4730SOL    HW125649   2.672   1.836   2.835 -2.6573  1.0139  0.5672
 4730SOL    HW225650   2.561   1.847   2.756 -0.1870  0.1216 -0.8681
 4731SOL     OW25651   2.213   3.124   4.074  0.0284  0.1914  0.3449
 4731SOL    HW125652   2.237   3.065   4.146  2.5672 -0.2286 -0.8215
 4731SOL    HW225653   2.297   3.170   4.070  1.7195 -2.9465 -0.6480
 4732SOL     OW25654   1.803   4.195  10.142 -0.2687  0.2169  0.4799
 4732SOL    HW125655   1.726   4.164  10.191 -0.4877 -1.6164 -1.0219
 4732SOL    HW225656   1.866   4.132  10.178  0.1255  1.2602  1.6201
 4733SOL     OW25657   0.445   1.356   4.021 -0.6272  0.9501 -0.1586
 4733SOL    HW125658   0.452   1.261   4.021 -0.2257  0.9756  2.7367
 4733SOL    HW225659   0.489   1.374   4.104 -0.1799 -3.9103  0.6417
 4734SOL     OW25660   0.158   2.295   4.675 -0.0899  0.0916 -0.1929
 4734SOL    HW125661   0.181   2.218   4.728  1.8310  0.5235 -0.3931
 4734SOL    HW225662   0.064   2.294   4.688  0.1634 -0.7808  1.6557
 4735SOL     OW25663   4.643   3.278   8.919 -0.4056 -0.4338  0.2158
 4735SOL    HW125664   4.639   3.186   8.895  0.1586 -0.0607 -1.3300
 4735SOL    HW225665   4.600   3.326   8.848 -2.2538 -1.6383  0.5117
 4736SOL     OW25666   3.007   2.721   1.765 -0.2105 -0.2606 -0.2352
 4736SOL    HW125667   3.075   2.655   1.779 -0.0582  0.0829  0.6742
 4736SOL    HW225668   2.937   2.665   1.733  0.6780 -1.1272 -0.6623
 4737SOL     OW25669   1.488   3.116   9.144  0.1592 -0.3459  0.2377
 4737SOL    HW125670   1.472   3.080   9.232  0.3350 -0.8216  0.0760
 4737SOL    HW225671   1.435   3.062   9.086  2.1654 -2.2647  0.1791
 4738SOL     OW25672   4.362   1.006   8.701 -0.2921  0.5613  1.1106
 4738SOL    HW125673   4.327   0.931   8.748  2.5491 -1.5164 -0.0536
 4738SOL    HW225674   4.323   1.000   8.614 -0.3524 -0.0932  1.1860
 4739SOL     OW25675   1.149   2.769   9.948 -0.9858  0.2643 -0.0241
 4739SOL    HW125676   1.157   2.865   9.942  3.4294 -0.0675  0.7742
 4739SOL    HW225677   1.219   2.728   9.998 -0.2004  2.1219  0.4049
 4740SOL     OW25678   1.842   3.985   4.610  0.0131  0.2619 -0.3986
 4740SOL    HW125679   1.852   4.069   4.655  1.4768 -1.0921  1.8425
 4740SOL    HW225680   1.753   3.961   4.636  0.0687 -1.3545 -1.7292
 4741SOL     OW25681   0.791   3.823   7.501 -0.2536 -0.3998 -0.5694
 4741SOL    HW125682   0.844   3.901   7.482  0.4497 -1.0525 -1.3116
 4741SOL    HW225683   0.737   3.820   7.422  1.1710 -2.8027 -1.4651
 4742SOL     OW25684   1.526   1.282   4.113  0.2452  0.3474  0.0538
 4742SOL    HW125685   1.475   1.361   4.099  1.6802  1.2109 -0.3398
 4742SOL    HW225686   1.485   1.212   4.061  0.9907 -0.8618  1.0810
 4743SOL     OW25687   0.094   0.017   5.407  0.1033 -0.3379  1.0995
 4743SOL    HW125688   0.105   4.653   5.367  1.8484 -0.2120  1.3103
 4743SOL    HW225689   0.027   0.056   5.350  0.8858  1.1909  1.2321
 4744SOL     OW25690   3.688   3.945   6.093 -0.2035  0.3792 -0.2429
 4744SOL    HW125691   3.720   4.015   6.035 -1.8086  0.9330 -0.4564
 4744SOL    HW225692   3.724   3.981   6.175  0.5543  3.2805 -1.8516
 4745SOL     OW25693   1.636   0.502   3.463 -0.4396 -0.0053 -0.1278
 4745SOL    HW125694   1.574   0.543   3.402  0.1228 -1.0193 -1.3834
 4745SOL    HW225695   1.689   0.442   3.409 -1.0565  0.0217 -0.7682
 4746SOL     OW25696   4.371   2.165   5.259  0.2525 -0.2842  0.5293
 4746SOL    HW125697   4.461   2.180   5.291  0.6028 -1.8825  0.2636
 4746SOL    HW225698   4.337   2.129   5.341  0.2758  1.7351  1.4308
 4747SOL     OW25699   1.216   1.227  14.498  0.7134  0.3214 -0.1891
 4747SOL    HW125700   1.297   1.232  14.448 -0.4539 -1.7998 -2.3115
 4747SOL    HW225701   1.234   1.143  14.541 -0.0135 -0.5079 -1.5114
 4748SOL     OW25702   1.460   1.604   4.580 -0.1851  0.4483 -0.2387
 4748SOL    HW125703   1.411   1.578   4.657 -1.9617 -0.4423 -1.6597
 4748SOL    HW225704   1.390   1.606   4.514  0.7510 -0.9531 -1.2820
 4749SOL     OW25705   3.539   2.923   4.272  0.0033  0.1197 -0.0330
 4749SOL    HW125706   3.454   2.968   4.277  0.5370  0.9891  1.3884
 4749SOL    HW225707   3.546   2.898   4.180 -0.2587 -0.9768  0.2430
 4750SOL     OW25708   3.454   1.526   0.435  0.2037 -0.2628 -0.0361
 4750SOL    HW125709   3.463   1.496   0.525 -0.5822 -1.1375 -0.2459
 4750SOL    HW225710   3.393   1.463   0.397  0.9264 -1.0393  0.0920
 4751SOL     OW25711   1.404   0.741   8.774  0.0203  0.2797  0.1837
 4751SOL    HW125712   1.432   0.811   8.833 -1.5123 -0.1701  1.4505
 4751SOL    HW225713   1.314   0.735   8.807  0.6920 -0.9586  1.7617
 4752SOL     OW25714   2.708   3.974   7.319  0.0125  0.1777 -0.7398
 4752SOL    HW125715   2.768   3.909   7.354  1.5073  2.6120  1.2086
 4752SOL    HW225716   2.726   3.972   7.225 -1.7568  0.5095 -1.0988
 4753SOL     OW25717   0.342   3.659   1.565 -0.1257 -0.2746 -0.8492
 4753SOL    HW125718   0.398   3.598   1.516  1.3589  0.0273  0.5046
 4753SOL    HW225719   0.300   3.599   1.626  1.6773 -0.3185  0.3521
 4754SOL     OW25720   4.378   2.959   6.596  0.6053  0.2293 -0.3259
 4754SOL    HW125721   4.363   3.043   6.552 -0.9688 -0.2291 -0.6538
 4754SOL    HW225722   4.306   2.967   6.658  1.7699  0.0168  1.0365
 4755SOL     OW25723   4.437   3.982   2.818  0.2248 -0.2796  0.2338
 4755SOL    HW125724   4.414   4.069   2.787 -0.0548  0.1603  1.6706
 4755SOL    HW225725   4.387   3.975   2.900 -2.6465  0.1501 -1.4755
 4756SOL     OW25726   3.787   0.201   4.367  0.0494 -0.1805 -0.1923
 4756SOL    HW125727   3.849   0.269   4.341  1.6809 -2.8515 -3.2234
 4756SOL    HW225728   3.810   0.134   4.303 -0.9232  1.1075 -1.9112
 4757SOL     OW25729   4.683   4.432  11.620 -0.5042 -0.0147  0.0442
 4757SOL    HW125730   0.001   4.488  11.553  0.4090 -0.7472 -0.0184
 4757SOL    HW225731   4.657   4.494  11.689  0.5195  1.1286 -0.5923
 4758SOL     OW25732   3.907   2.878   6.358  0.4025  0.5447  0.3985
 4758SOL    HW125733   3.983   2.821   6.370 -1.0889 -1.1845  1.7662
 4758SOL    HW225734   3.841   2.844   6.418 -0.5064  1.0001 -0.3403
 4759SOL     OW25735   2.989   0.464   3.471 -0.1043  0.3168  0.2081
 4759SOL    HW125736   2.990   0.384   3.419 -0.2916 -0.2874  1.1483
 4759SOL    HW225737   2.932   0.437   3.542 -1.0094 -0.7660 -0.9346
 4760SOL     OW25738   2.724   2.630   6.005  0.0797 -0.7608 -0.2509
 4760SOL    HW125739   2.653   2.689   5.979 -0.5899 -0.6400  1.8242
 4760SOL    HW225740   2.796   2.667   5.954 -0.7861 -0.4555 -1.2433
 4761SOL     OW25741   0.195   2.516   2.918 -0.2367  0.3164 -0.2760
 4761SOL    HW125742   0.237   2.546   2.837  0.5664  0.1824  0.0910
 4761SOL    HW225743   0.203   2.600   2.963  0.4100 -0.1031  0.3924
 4762SOL     OW25744   2.741   0.082   8.371 -0.2650 -0.1459  0.2297
 4762SOL    HW125745   2.681   0.101   8.299 -0.6367  1.4580  0.9659
 4762SOL    HW225746   2.818   0.081   8.314 -1.6963 -0.2042 -1.6990
 4763SOL     OW25747   2.741   0.696  14.884  0.1529 -0.4458 -0.0976
 4763SOL    HW125748   2.652   0.699  14.920 -0.8559  0.9029 -2.6944
 4763SOL    HW225749   2.721   0.643  14.806 -0.6095 -2.3469  1.3755
 4764SOL     OW25750   0.211   2.378   4.357  0.3659 -0.6249 -0.2490
 4764SOL    HW125751   0.167   2.348   4.437 -0.8863 -1.9866 -1.4535
 4764SOL    HW225752   0.140   2.437   4.330  1.8027  1.4124  0.3798
 4765SOL     OW25753   4.637   0.107   8.896  0.0529 -0.2017 -0.4914
 4765SOL    HW125754   4.605   0.019   8.919 -0.2760 -0.1106 -0.5889
 4765SOL    HW225755   4.698   0.126   8.967 -0.7326  1.4155 -0.2441
 4766SOL     OW25756   2.894   3.171  16.376 -0.7401  0.0728 -0.1695
 4766SOL    HW125757   2.962   3.137  16.317  0.2903 -0.9534  1.6143
 4766SOL    HW225758   2.906   3.266  16.370  0.0296 -0.0063  0.1440
 4767SOL     OW25759   0.353   2.145  11.474 -0.1913 -0.7101 -0.2320
 4767SOL    HW125760   0.345   2.231  11.432 -0.1613 -1.3555 -1.5503
 4767SOL    HW225761   0.391   2.180  11.554  3.9133 -1.0968 -2.0368
 4768SOL     OW25762   0.936   0.690  12.932 -0.6821 -0.1112  0.2123
 4768SOL    HW125763   1.015   0.698  12.878 -1.7966 -0.1073 -1.4065
 4768SOL    HW225764   0.980   0.723  13.011 -2.7974  1.4044  0.7478
 4769SOL     OW25765   1.505   0.820   1.441  0.2630 -0.4983 -0.0220
 4769SOL    HW125766   1.558   0.747   1.471 -0.6234 -1.6611 -1.2703
 4769SOL    HW225767   1.570   0.872   1.393 -2.4072  0.2477 -2.8276
 4770SOL     OW25768   0.431   0.346  15.207  0.3889 -0.4668  0.2732
 4770SOL    HW125769   0.335   0.343  15.198  0.3249 -0.7288  0.9889
 4770SOL    HW225770   0.444   0.433  15.246  1.1317 -0.4332 -0.0672
 4771SOL     OW25771   0.788   2.864  16.255 -0.0881  0.4761 -0.0043
 4771SOL    HW125772   0.721   2.831  16.194 -2.1460 -0.2234  2.6443
 4771SOL    HW225773   0.752   2.950  16.278 -2.6936 -0.6708  0.2403
 4772SOL     OW25774   4.395   0.265   1.760  0.8016 -0.5413  0.4365
 4772SOL    HW125775   4.325   0.202   1.742  1.9533 -1.6337 -0.2810
 4772SOL    HW225776   4.439   0.257   1.675 -1.0473 -1.4795 -0.4421
 4773SOL     OW25777   4.030   2.562   1.307 -0.1909  0.2062 -0.1562
 4773SOL    HW125778   4.025   2.538   1.399 -1.3969 -0.4331 -0.3843
 4773SOL    HW225779   3.943   2.538   1.275  1.3004 -1.5906 -2.8258
 4774SOL     OW25780   2.755   2.279   6.323  0.2496 -0.4386 -0.1186
 4774SOL    HW125781   2.695   2.339   6.278  0.0710 -0.7501 -0.2957
 4774SOL    HW225782   2.782   2.330   6.399 -1.7692  0.1140  0.2235
 4775SOL     OW25783   1.545   0.842   3.869  0.5911  0.0648  0.0627
 4775SOL    HW125784   1.608   0.817   3.802  1.3812 -0.4693  1.0066
 4775SOL    HW225785   1.507   0.756   3.886 -0.8182  1.0276  1.8117
 4776SOL     OW25786   1.961   0.758   3.388 -0.1875  0.0467 -0.4464
 4776SOL    HW125787   1.897   0.829   3.386  0.2697  0.4918  0.5934
 4776SOL    HW225788   1.956   0.744   3.483  1.0711 -1.1048 -0.5435
 4777SOL     OW25789   3.429   1.351   2.689  0.0256  0.4202 -0.1601
 4777SOL    HW125790   3.408   1.443   2.680  3.0378  1.0762 -0.3411
 4777SOL    HW225791   3.376   1.327   2.613  2.1903 -0.9174 -1.2429
 4778SOL     OW25792   4.475   0.148  10.056  0.3665  0.2669 -0.3026
 4778SOL    HW125793   4.402   0.086  10.063  3.5658 -3.3639  0.3555
 4778SOL    HW225794   4.466   0.199  10.136 -0.7704 -2.3990  1.2405
 4779SOL     OW25795   1.617   3.953  12.781 -0.9589 -0.3364  0.4451
 4779SOL    HW125796   1.569   3.951  12.698 -0.4202  0.2050  0.1266
 4779SOL    HW225797   1.563   4.019  12.824 -2.0439  0.0702 -1.5254
 4780SOL     OW25798   2.491   1.643  15.079  0.5265 -0.0943  0.0281
 4780SOL    HW125799   2.406   1.606  15.058  0.2972 -0.7771  2.1835
 4780SOL    HW225800   2.543   1.569  15.110  0.3942  0.2968  1.1958
 4781SOL     OW25801   0.053   3.298   3.685 -0.2179  0.1006  0.2265
 4781SOL    HW125802   0.050   3.202   3.686 -1.6141  0.1502  0.7929
 4781SOL    HW225803   4.684   3.319   3.705  0.1477  1.4656  0.4234
 4782SOL     OW25804   4.678   2.521   3.661  0.1651 -0.0512  0.0021
 4782SOL    HW125805   4.715   2.608   3.673 -0.7390  0.4659 -1.0000
 4782SOL    HW225806   4.588   2.550   3.680 -0.2761 -1.9202  0.8594
 4783SOL     OW25807   0.387   4.452   8.629 -0.1926 -0.5759 -0.2346
 4783SOL    HW125808   0.414   4.393   8.700  1.2131  2.4771  1.7917
 4783SOL    HW225809   0.434   4.535   8.638  1.6470 -1.9510  3.0754
 4784SOL     OW25810   2.062   1.172   7.481  0.0507 -0.2558 -0.1979
 4784SOL    HW125811   2.078   1.262   7.512  0.5085 -0.5522  0.4370
 4784SOL    HW225812   2.131   1.166   7.416  1.4145 -0.7157  1.2794
 4785SOL     OW25813   1.143   2.901  11.613 -0.3707  0.1219  0.3953
 4785SOL    HW125814   1.211   2.968  11.601  1.9994 -2.1435  1.2340
 4785SOL    HW225815   1.116   2.889  11.522  0.9958  1.4625 -0.2062
 4786SOL     OW25816   2.461   0.689   2.263  0.2391 -0.0758  0.2944
 4786SOL    HW125817   2.413   0.698   2.180  1.4632  2.7509 -0.1036
 4786SOL    HW225818   2.548   0.657   2.239 -0.5065  0.0011 -2.5958
 4787SOL     OW25819   3.269   0.256   9.604 -0.0351  0.2281  0.3103
 4787SOL    HW125820   3.320   0.176   9.597 -0.9980 -0.2946 -0.7704
 4787SOL    HW225821   3.287   0.302   9.521  0.5057  0.0883  0.3516
 4788SOL     OW25822   0.867   4.636   6.942 -0.3777  0.1958 -0.4698
 4788SOL    HW125823   0.850   4.680   6.858 -1.9316  1.5506  0.5391
 4788SOL    HW225824   0.929   4.698   6.980 -0.5971  1.0107 -1.4343
 4789SOL     OW25825   4.210   4.390   8.033 -0.0236 -0.2161  0.0141
 4789SOL    HW125826   4.128   4.391   7.983 -1.3081  2.8431  2.2521
 4789SOL    HW225827   4.197   4.455   8.101  0.3786 -0.4298  0.2958
 4790SOL     OW25828   4.385   2.964   7.208 -0.3402  0.1906 -0.5297
 4790SOL    HW125829   4.378   3.030   7.277 -2.2581 -0.5727  0.0100
 4790SOL    HW225830   4.474   2.983   7.179 -0.0644  2.8467  2.0553
 4791SOL     OW25831   3.283   0.929  13.537 -0.0416  0.2631 -0.4031
 4791SOL    HW125832   3.295   0.891  13.623 -1.2463 -0.5012 -0.5655
 4791SOL    HW225833   3.327   1.012  13.554  2.3340 -1.4522  1.7822
 4792SOL     OW25834   4.180   3.309   9.902  0.4139  0.6509 -0.2447
 4792SOL    HW125835   4.145   3.372   9.839 -2.6737 -0.9376 -0.0855
 4792SOL    HW225836   4.159   3.358   9.981 -1.9770 -2.7861  1.2596
 4793SOL     OW25837   1.108   2.063   7.017  0.0597 -0.0654  0.1413
 4793SOL    HW125838   1.190   2.027   7.051 -0.3410 -0.9110  0.2246
 4793SOL    HW225839   1.037   2.029   7.072 -0.6627  1.7551  0.3296
 4794SOL     OW25840   3.262   0.739  13.207 -0.2781 -0.2557  0.0157
 4794SOL    HW125841   3.172   0.710  13.193 -1.3840  1.7561  2.8212
 4794SOL    HW225842   3.292   0.744  13.117 -0.0587 -2.0802 -0.0070
 4795SOL     OW25843   0.442   4.092   6.257 -0.5426 -0.4893 -0.4042
 4795SOL    HW125844   0.445   4.186   6.239 -1.2374 -0.6320 -1.2856
 4795SOL    HW225845   0.362   4.088   6.308  0.4324  2.1249  1.3205
 4796SOL     OW25846   3.638   1.617   3.770  0.1021 -0.2981 -0.4292
 4796SOL    HW125847   3.670   1.663   3.693  3.5078  0.5451  1.5036
 4796SOL    HW225848   3.627   1.530   3.732  1.4636 -1.5386  1.9961
 4797SOL     OW25849   2.380   3.352  11.049  0.1382 -0.5766  0.3632
 4797SOL    HW125850   2.370   3.323  10.958 -0.4312  1.6597 -0.3028
 4797SOL    HW225851   2.445   3.294  11.087  1.9053  2.0977  1.3742
 4798SOL     OW25852   4.587   0.685  17.595  0.5847  0.3577 -0.5168
 4798SOL    HW125853   4.563   0.741  17.669 -1.9806 -2.3674  0.7189
 4798SOL    HW225854   4.682   0.681  17.596  0.6052  1.1689  1.8037
 4799SOL     OW25855   0.234   1.968  16.580 -0.0383  0.2794 -0.5087
 4799SOL    HW125856   0.149   1.929  16.559  0.0814 -0.3392  0.1302
 4799SOL    HW225857   0.253   2.020  16.502  0.7928 -0.4562 -0.8026
 4800SOL     OW25858   1.892   2.836   7.350 -0.2826  0.4754 -0.2441
 4800SOL    HW125859   1.846   2.916   7.324 -0.3660  0.2790 -0.7016
 4800SOL    HW225860   1.829   2.770   7.320  0.8401 -1.0193  0.6746
 4801SOL     OW25861   3.193   4.551   8.596 -0.3766 -0.7735 -0.3371
 4801SOL    HW125862   3.247   4.474   8.577 -1.2442 -1.2894 -0.7170
 4801SOL    HW225863   3.118   4.514   8.548 -1.3077 -0.0421  0.5624
 4802SOL     OW25864   1.261   3.600   4.389  0.6466 -0.3233 -0.3306
 4802SOL    HW125865   1.330   3.635   4.445 -0.9806  2.5871 -0.1254
 4802SOL    HW225866   1.193   3.603   4.456 -2.4814 -2.7409 -3.3693
 4803SOL     OW25867   1.225   1.255   7.018  0.6106 -0.1113 -0.4971
 4803SOL    HW125868   1.299   1.196   7.005  1.1048 -0.2649  2.8778
 4803SOL    HW225869   1.159   1.200   6.976  0.5516 -0.8731  0.5879
 4804SOL     OW25870   2.077   2.468   1.486  0.9411  0.3573 -0.1809
 4804SOL    HW125871   2.081   2.373   1.474 -1.8957  0.1183  0.7867
 4804SOL    HW225872   2.054   2.470   1.579  0.2950 -0.8507 -0.3190
 4805SOL     OW25873   1.191   1.313   6.686 -0.0352 -0.1162 -0.0864
 4805SOL    HW125874   1.200   1.228   6.730 -0.0643  0.3520  0.8316
 4805SOL    HW225875   1.228   1.300   6.599  2.2177 -2.1578  1.1540
 4806SOL     OW25876   0.579   1.635   6.561  0.1610  0.0853  0.5398
 4806SOL    HW125877   0.578   1.554   6.510 -2.4626  0.0071  0.7041
 4806SOL    HW225878   0.633   1.624   6.639  1.4561  0.1786 -0.3402
 4807SOL     OW25879   2.723   4.468   3.056  0.2890  0.1560  0.1313
 4807SOL    HW125880   2.761   4.381   3.059 -2.5130 -0.9948  2.6980
 4807SOL    HW225881   2.770   4.504   2.981 -1.4062 -0.7122 -1.3539
 4808SOL     OW25882   3.026   3.044   8.246  0.0270 -0.0278  0.1601
 4808SOL    HW125883   3.057   3.020   8.159 -0.9725  0.9567 -0.4762
 4808SOL    HW225884   3.054   3.134   8.259  0.7686  0.2641 -3.4562
 4809SOL     OW25885   4.399   4.399  11.563  0.5363  0.2003  0.1394
 4809SOL    HW125886   4.363   4.442  11.486  0.8589  0.7245  0.2833
 4809SOL    HW225887   4.493   4.413  11.558  0.2483  2.9290  2.1519
 4810SOL     OW25888   3.409   1.730   5.390 -0.3319  0.6055 -0.6009
 4810SOL    HW125889   3.393   1.796   5.458  0.3389  1.6505 -1.4563
 4810SOL    HW225890   3.409   1.783   5.310  1.6290 -1.5302 -2.0366
 4811SOL     OW25891   2.001   3.153   5.102  0.1079 -0.0209 -0.6328
 4811SOL    HW125892   1.923   3.181   5.150 -0.5798 -0.6669 -1.3518
 4811SOL    HW225893   1.989   3.180   5.011  0.1486 -1.2012 -0.9969
 4812SOL     OW25894   2.246   0.955   9.411  0.2733  0.2212  0.4915
 4812SOL    HW125895   2.158   0.991   9.404 -0.7641 -2.2102  1.1320
 4812SOL    HW225896   2.238   0.943   9.505 -0.3886 -2.2983  0.1344
 4813SOL     OW25897   4.553   3.047   6.310 -0.9394  0.4637  0.4568
 4813SOL    HW125898   4.603   3.027   6.231 -1.2702  0.6114  0.2116
 4813SOL    HW225899   4.478   3.078   6.260 -1.1642  0.0571  0.5379
 4814SOL     OW25900   2.307   2.006   7.601  0.1023  0.4000  0.1361
 4814SOL    HW125901   2.213   2.024   7.604 -0.4687 -2.3072 -1.6535
 4814SOL    HW225902   2.336   2.089   7.563 -0.6788  0.2984 -0.6729
 4815SOL     OW25903   3.903   2.016   3.329 -0.2508  0.4935 -0.0281
 4815SOL    HW125904   3.981   2.031   3.276 -0.3373 -1.9349 -0.8174
 4815SOL    HW225905   3.892   1.921   3.328  1.3081  0.3263 -0.8650
 4816SOL     OW25906   0.512   1.178  10.430  0.3745 -0.2775 -0.2908
 4816SOL    HW125907   0.591   1.173  10.484 -0.0423  0.1629  0.3671
 4816SOL    HW225908   0.460   1.106  10.465  1.3697 -0.0724  1.6311
 4817SOL     OW25909   0.895   0.161   3.080 -0.1362 -0.0657  0.1996
 4817SOL    HW125910   0.859   0.074   3.066  0.6883 -0.1278 -1.5340
 4817SOL    HW225911   0.874   0.182   3.171  1.6014  1.9347  0.1590
 4818SOL     OW25912   1.654   1.051  17.502  0.3326 -0.6847  0.3091
 4818SOL    HW125913   1.684   1.136  17.536  0.5399 -0.7937  0.4001
 4818SOL    HW225914   1.715   1.036  17.429  1.0843  0.7244  0.6469
 4819SOL     OW25915   1.884   0.909   8.700 -0.5542  0.1949 -0.3459
 4819SOL    HW125916   1.928   0.848   8.758 -0.7266 -1.3680 -1.8775
 4819SOL    HW225917   1.946   0.982   8.699  0.4293 -0.5625  4.2373
 4820SOL     OW25918   4.421   1.264  15.590 -0.6270  0.0111 -0.3545
 4820SOL    HW125919   4.338   1.231  15.556 -0.7523  1.9650 -1.9864
 4820SOL    HW225920   4.396   1.355  15.609  2.2086  1.4043 -3.1823
 4821SOL     OW25921   3.123   4.301   1.783  0.0673 -0.2459 -0.2605
 4821SOL    HW125922   3.097   4.386   1.820  0.5486 -0.1536 -0.1324
 4821SOL    HW225923   3.217   4.315   1.787 -0.0898  0.8532 -0.1406
 4822SOL     OW25924   2.950   0.113   8.224 -0.3274  0.1922 -0.2959
 4822SOL    HW125925   3.033   0.128   8.267 -0.4526  0.8532 -0.2920
 4822SOL    HW225926   2.989   0.099   8.137  2.4100  0.2077  0.9421
 4823SOL     OW25927   1.426   3.111   2.383  0.0613  0.1607 -0.4483
 4823SOL    HW125928   1.480   3.057   2.325 -1.7062  0.0764 -2.0380
 4823SOL    HW225929   1.396   3.045   2.446  0.0890 -2.0034 -2.6970
 4824SOL     OW25930   2.017   0.033   8.195  0.5274 -0.6773 -0.7415
 4824SOL    HW125931   1.940   0.086   8.178  0.2761 -0.3587  1.4301
 4824SOL    HW225932   2.015   0.031   8.291 -0.1364 -0.6067 -0.7573
 4825SOL     OW25933   1.240   3.520   0.527 -0.1615  0.4791  0.3853
 4825SOL    HW125934   1.249   3.563   0.441  0.5279  1.7407  1.0848
 4825SOL    HW225935   1.147   3.507   0.547  0.4831 -1.8272  1.8858
 4826SOL     OW25936   1.426   1.259  17.532  0.1659  0.5753  0.2704
 4826SOL    HW125937   1.520   1.276  17.538  0.4602 -1.0006  0.1545
 4826SOL    HW225938   1.429   1.168  17.501  0.3850  0.4536  0.6411
 4827SOL     OW25939   0.616   0.554  15.245  0.1512  0.4960  0.4746
 4827SOL    HW125940   0.688   0.551  15.308  0.1686  0.0275  0.4347
 4827SOL    HW225941   0.632   0.467  15.207 -1.9436 -0.1034  0.9957
 4828SOL     OW25942   0.922   0.018   2.109 -0.7114  0.1553 -0.0366
 4828SOL    HW125943   0.884   0.094   2.064  0.8459  0.3421 -1.0606
 4828SOL    HW225944   0.948   0.053   2.194  1.6340 -1.9168  0.0921
 4829SOL     OW25945   4.026   2.671   3.833  0.0414  0.1483  0.7335
 4829SOL    HW125946   4.105   2.618   3.846 -0.4445 -0.4500  1.2902
 4829SOL    HW225947   4.062   2.759   3.826 -0.7910  0.3864 -0.4867
 4830SOL     OW25948   1.107   3.646   9.694 -0.0988 -0.0336 -0.0191
 4830SOL    HW125949   1.085   3.591   9.770 -0.2505  1.8412  1.2963
 4830SOL    HW225950   1.157   3.717   9.734 -0.1735 -1.5306  2.7021
 4831SOL     OW25951   4.190   3.039   4.039 -0.4873  0.0449 -0.4696
 4831SOL    HW125952   4.186   2.998   3.953  0.7761  1.3904 -1.1588
 4831SOL    HW225953   4.100   3.070   4.051 -0.7081 -0.8545  0.2526
 4832SOL     OW25954   0.864   4.139  12.141  0.0910 -0.2437  0.0428
 4832SOL    HW125955   0.931   4.105  12.082 -0.9662  0.0717 -1.3413
 4832SOL    HW225956   0.817   4.058  12.159 -1.3955  0.6131 -0.0212
 4833SOL     OW25957   0.419   2.969   1.714 -0.0630  0.3235  0.0796
 4833SOL    HW125958   0.347   2.911   1.693  0.5865 -0.1897 -0.7427
 4833SOL    HW225959   0.410   3.046   1.657 -1.7159  0.3659  0.4100
 4834SOL     OW25960   2.618   4.249   4.340 -0.7753  0.2659 -0.1215
 4834SOL    HW125961   2.700   4.288   4.308  0.1513 -0.3407  1.4847
 4834SOL    HW225962   2.633   4.155   4.326 -0.5019 -0.0298  2.0568
 4835SOL     OW25963   2.368   3.704   7.600  0.5262 -0.3987  0.0872
 4835SOL    HW125964   2.381   3.702   7.505  2.2590 -0.9910  0.3379
 4835SOL    HW225965   2.459   3.696   7.630  1.1439 -0.6037 -1.8547
 4836SOL     OW25966   3.837   2.984  11.287 -0.0702 -0.1265  0.0535
 4836SOL    HW125967   3.927   3.005  11.311 -0.0556  1.2743 -1.2324
 4836SOL    HW225968   3.853   2.922  11.216 -0.8895 -0.6020  0.2786
 4837SOL     OW25969   2.763   1.065   8.158  0.3240 -0.1187  0.3530
 4837SOL    HW125970   2.815   1.009   8.215 -1.9458 -0.8696  1.7167
 4837SOL    HW225971   2.823   1.135   8.136 -0.8745  1.3383  1.7310
 4838SOL     OW25972   2.183   4.679   3.788 -0.3474 -0.5923  0.3362
 4838SOL    HW125973   2.166   4.634   3.871  0.0439  1.5406  1.5700
 4838SOL    HW225974   2.253   4.626   3.750  0.3185 -0.6172  1.5903
 4839SOL     OW25975   4.452   3.104   7.794  0.5820  0.8195 -0.3667
 4839SOL    HW125976   4.470   3.184   7.743 -2.2222  0.4599 -1.9545
 4839SOL    HW225977   4.530   3.053   7.773 -0.1964 -0.9314  1.1037
 4840SOL     OW25978   3.700   2.704   2.288 -0.1931 -0.4798  0.3452
 4840SOL    HW125979   3.677   2.754   2.367 -0.5827 -0.2553  0.0888
 4840SOL    HW225980   3.795   2.713   2.295  0.0234 -1.8977 -0.8513
 4841SOL     OW25981   1.355   4.636   1.609  0.0471  0.0784 -0.5127
 4841SOL    HW125982   1.360   4.627   1.514 -0.1438  1.6171 -0.6755
 4841SOL    HW225983   1.360   4.547   1.642  0.4069  1.1394  2.2765
 4842SOL     OW25984   0.879   2.729   3.048  0.2167  0.4901  0.3333
 4842SOL    HW125985   0.809   2.745   2.984  0.0711  0.0702  0.3848
 4842SOL    HW225986   0.940   2.676   2.996  0.5443  1.6119 -0.4204
 4843SOL     OW25987   1.186   4.057  10.196  0.0421  0.3873  0.2166
 4843SOL    HW125988   1.151   3.993  10.133  0.6402  0.9161 -0.6549
 4843SOL    HW225989   1.235   4.123  10.147 -0.8273  1.1264  0.3518
 4844SOL     OW25990   3.475   0.245   9.123  0.2773 -0.1445 -0.8898
 4844SOL    HW125991   3.570   0.256   9.120  0.3388 -0.5182 -0.3505
 4844SOL    HW225992   3.452   0.315   9.184 -1.4186 -1.6994  0.2540
 4845SOL     OW25993   1.761   4.268  17.004 -0.2214  0.8500  0.3704
 4845SOL    HW125994   1.731   4.231  17.087  1.1465  1.8270  1.3017
 4845SOL    HW225995   1.687   4.249  16.946 -0.0887 -0.6120  0.6687
 4846SOL     OW25996   4.625   0.119   5.258  0.3590 -0.9890  0.1950
 4846SOL    HW125997   4.546   0.068   5.280 -0.0419 -0.1207  0.7611
 4846SOL    HW225998   4.588   0.190   5.206  0.2553 -1.7428 -0.7597
 4847SOL     OW25999   0.774   1.622   6.791  0.0496  0.0689 -0.0810
 4847SOL    HW126000   0.842   1.642   6.727 -0.3298  0.3763 -0.3888
 4847SOL    HW226001   0.799   1.537   6.827 -0.6875 -0.4042 -0.6798
 4848SOL     OW26002   4.493   0.071   6.174  0.0532 -0.0306  0.3002
 4848SOL    HW126003   4.571   0.060   6.228  1.3148  0.4943 -1.4169
 4848SOL    HW226004   4.444   0.131   6.229  0.7343  0.1113  0.7549
 4849SOL     OW26005   2.910   1.021   0.596 -0.2496  0.3290  0.1950
 4849SOL    HW126006   2.857   1.095   0.565 -2.8754 -1.6715 -0.1531
 4849SOL    HW226007   2.990   1.038   0.546 -1.2353 -0.1503 -1.5486
 4850SOL     OW26008   1.197   0.477   3.378 -0.3064  0.0539  0.0997
 4850SOL    HW126009   1.276   0.428   3.356 -0.9363 -1.2154  0.6770
 4850SOL    HW226010   1.142   0.414   3.425 -0.3008 -0.0234  0.0006
 4851SOL     OW26011   2.736   2.200   7.338 -0.3140  0.7212  0.6606
 4851SOL    HW126012   2.739   2.291   7.365 -1.2305  1.2860 -1.1231
 4851SOL    HW226013   2.714   2.210   7.245  0.2012 -1.6153  0.2821
 4852SOL     OW26014   0.372   2.636   8.912  0.8665 -0.4857 -0.3445
 4852SOL    HW126015   0.377   2.610   9.004 -1.0323 -0.7310 -0.3137
 4852SOL    HW226016   0.426   2.714   8.904  1.3217 -0.5879  1.5566
 4853SOL     OW26017   1.333   2.503   5.183  0.2126  0.1187 -0.1533
 4853SOL    HW126018   1.272   2.459   5.123 -0.7035  0.2021  0.7010
 4853SOL    HW226019   1.315   2.450   5.261  0.7068  0.4563  0.1844
 4854SOL     OW26020   1.680   0.135  13.734  0.0666 -0.0229 -0.8074
 4854SOL    HW126021   1.647   0.059  13.685 -2.4902  0.2665  0.4351
 4854SOL    HW226022   1.775   0.124  13.728  0.3339  0.8907  1.9714
 4855SOL     OW26023   1.829   0.627   4.894 -0.4236 -0.2869 -0.0407
 4855SOL    HW126024   1.836   0.636   4.799  2.2404  1.8465  0.3509
 4855SOL    HW226025   1.759   0.563   4.907 -0.4728 -0.5099 -1.4002
 4856SOL     OW26026   2.059   4.601   2.101  0.1511  0.0929  0.5090
 4856SOL    HW126027   1.973   4.635   2.076  0.2947 -0.0922 -0.2353
 4856SOL    HW226028   2.106   4.684   2.109  1.6831 -0.4626 -2.5920
 4857SOL     OW26029   1.268   1.012   6.611 -0.0862  0.4579 -0.5562
 4857SOL    HW126030   1.193   0.955   6.631  0.7772 -0.2059  0.8343
 4857SOL    HW226031   1.310   0.978   6.532  1.1115  0.6458 -0.0102
 4858SOL     OW26032   3.292   0.328  17.475 -0.3599  0.0155 -0.4332
 4858SOL    HW126033   3.225   0.345  17.409 -2.0495  0.7912  1.4988
 4858SOL    HW226034   3.349   0.401  17.451 -0.4419  0.1043 -0.3573
 4859SOL     OW26035   2.302   4.357   4.465 -0.4286 -0.4061 -0.3140
 4859SOL    HW126036   2.311   4.264   4.444 -3.5853 -1.0155  1.0610
 4859SOL    HW226037   2.251   4.389   4.391  0.7493 -0.6385 -1.2359
 4860SOL     OW26038   4.485   1.683   3.762  0.1286  0.0590 -0.1504
 4860SOL    HW126039   4.555   1.749   3.759  0.9076 -0.7092  0.9904
 4860SOL    HW226040   4.416   1.723   3.815 -0.5081  0.9024 -1.6224
 4861SOL     OW26041   1.205   3.798   0.619 -0.0918  0.3524 -0.2576
 4861SOL    HW126042   1.286   3.846   0.603 -1.3573  2.0456 -1.5903
 4861SOL    HW226043   1.171   3.786   0.530 -0.6154 -1.1321  0.1413
 4862SOL     OW26044   3.717   1.189   7.304  0.0717 -0.5737  0.2880
 4862SOL    HW126045   3.770   1.112   7.285  0.6484 -0.6298  2.0622
 4862SOL    HW226046   3.670   1.163   7.384 -1.0201 -1.3783 -0.6007
 4863SOL     OW26047   0.763   0.126  14.482 -0.1887 -0.0459  0.2539
 4863SOL    HW126048   0.721   0.105  14.565 -2.1208 -0.6758 -0.8985
 4863SOL    HW226049   0.744   0.220  14.489 -2.7737 -0.7095  2.0959
 4864SOL     OW26050   3.824   3.970   5.423 -0.1933  0.2527  0.0253
 4864SOL    HW126051   3.755   4.036   5.434  0.2542  0.6901  0.2242
 4864SOL    HW226052   3.856   3.963   5.513 -1.8071  1.5489  0.7191
 4865SOL     OW26053   0.334   3.329   9.126  0.5246 -0.0870  0.0440
 4865SOL    HW126054   0.301   3.334   9.215  1.9401  2.6405  0.4214
 4865SOL    HW226055   0.318   3.237   9.106  0.1118 -0.5837  2.7522
 4866SOL     OW26056   1.835   2.981  10.500 -0.3054  0.1969 -0.3025
 4866SOL    HW126057   1.929   2.998  10.508 -0.4052  1.1618 -1.2985
 4866SOL    HW226058   1.834   2.949  10.410 -0.8673 -1.8555  0.4361
 4867SOL     OW26059   2.368   2.866  11.423  0.1182  0.0897 -0.3110
 4867SOL    HW126060   2.417   2.806  11.367  1.1326 -0.0011  0.6827
 4867SOL    HW226061   2.287   2.816  11.433  1.2573 -1.0855  3.0421
 4868SOL     OW26062   2.602   3.329  10.843  0.1738  0.6811  0.7061
 4868SOL    HW126063   2.553   3.412  10.841 -1.9208 -0.5546  0.8055
 4868SOL    HW226064   2.666   3.346  10.913  2.5729 -0.8917 -1.1424
 4869SOL     OW26065   0.507   0.561   8.646  0.5564  0.5330 -0.1840
 4869SOL    HW126066   0.512   0.653   8.674  0.4945  1.2338 -2.4760
 4869SOL    HW226067   0.416   0.557   8.615 -0.0022 -2.0675  1.8344
 4870SOL     OW26068   1.939   0.811  10.862 -0.0474  0.4732  0.1448
 4870SOL    HW126069   1.874   0.848  10.802 -0.9286 -0.8845  0.2596
 4870SOL    HW226070   1.890   0.829  10.942  2.1171  2.8202  0.9426
 4871SOL     OW26071   1.059   2.055  13.980  0.6143  0.8524 -0.0809
 4871SOL    HW126072   1.032   2.147  13.978  0.1214  0.7179  0.5627
 4871SOL    HW226073   1.036   2.021  13.893 -3.1835  0.9509  0.9251
 4872SOL     OW26074   4.390   2.996  15.857 -0.5727 -0.5113 -0.1725
 4872SOL    HW126075   4.392   2.926  15.922 -1.9643 -1.8316 -1.5469
 4872SOL    HW226076   4.483   3.010  15.841 -0.3919 -2.1054 -0.4977
 4873SOL     OW26077   3.245   4.166   7.082  0.7221 -0.2647  0.3027
 4873SOL    HW126078   3.218   4.258   7.094 -0.8711 -0.8763  1.4419
 4873SOL    HW226079   3.204   4.132   7.162  2.4117 -2.2576  0.3161
 4874SOL     OW26080   1.006   3.568   9.040  0.4066 -0.0682 -0.8865
 4874SOL    HW126081   1.068   3.640   9.052 -1.3108  0.9937  1.7067
 4874SOL    HW226082   1.058   3.487   9.036  0.3771 -0.0088 -2.3144
 4875SOL     OW26083   0.393   4.204  15.822 -1.0252  0.6539 -0.1297
 4875SOL    HW126084   0.461   4.251  15.870 -0.8986  0.9707 -0.6162
 4875SOL    HW226085   0.313   4.240  15.858 -1.3554 -0.1592 -0.0498
 4876SOL     OW26086   0.364   0.772   3.084  0.3892  0.0693 -0.0327
 4876SOL    HW126087   0.417   0.756   3.162  0.4492 -1.7168 -0.4543
 4876SOL    HW226088   0.363   0.868   3.078  4.6749  0.2234  1.4227
 4877SOL     OW26089   2.799   2.854   9.927  0.8503 -0.1157 -0.2214
 4877SOL    HW126090   2.779   2.822   9.839 -0.7240 -0.7399  0.3581
 4877SOL    HW226091   2.857   2.789   9.964  1.0657  0.6953  0.8845
 4878SOL     OW26092   2.573   0.982   7.438 -0.2645 -0.4251  0.1017
 4878SOL    HW126093   2.557   0.902   7.488 -0.2995 -0.5173 -0.0565
 4878SOL    HW226094   2.655   1.009   7.480  0.9253 -1.7196 -1.4190
 4879SOL     OW26095   2.748   4.436   4.200 -0.5502 -0.2988 -0.3163
 4879SOL    HW126096   2.843   4.445   4.200 -0.7747  1.9997  0.7422
 4879SOL    HW226097   2.726   4.434   4.107 -1.3851  0.8508 -0.1479
 4880SOL     OW26098   4.171   2.201   0.043  0.2667 -0.2992  0.3408
 4880SOL    HW126099   4.080   2.180   0.062  0.1437 -0.3911 -0.3651
 4880SOL    HW226100   4.168   2.294   0.020 -1.1515 -0.4061  0.1046
 4881SOL     OW26101   2.376   4.708   2.198  0.1486  0.0387  0.2854
 4881SOL    HW126102   2.297   0.038   2.190  0.4238  0.4318  0.1511
 4881SOL    HW226103   2.435   0.041   2.147 -0.2532  0.3654  0.1780
 4882SOL     OW26104   2.315   3.949   9.640 -0.1271  0.4586  0.0597
 4882SOL    HW126105   2.375   4.007   9.686 -0.8161  1.6229 -0.4953
 4882SOL    HW226106   2.303   3.878   9.703  2.3175  0.4510  0.4811
 4883SOL     OW26107   2.112   3.068   5.318 -0.6239 -0.0885 -0.0273
 4883SOL    HW126108   2.081   3.103   5.234 -1.5530  2.6935  1.4910
 4883SOL    HW226109   2.206   3.058   5.303 -0.3189 -2.0888  3.2561
 4884SOL     OW26110   1.240   4.312   4.616  0.2272 -0.5451  0.1255
 4884SOL    HW126111   1.153   4.279   4.640 -0.3098  0.1025 -0.9255
 4884SOL    HW226112   1.222   4.400   4.585 -1.3579 -0.3282  1.6001
 4885SOL     OW26113   2.794   3.151   7.886 -0.1188  0.2975  0.2100
 4885SOL    HW126114   2.700   3.135   7.897  0.1710 -0.7496  1.1363
 4885SOL    HW226115   2.789   3.210   7.810  0.9288 -0.5534 -0.5072
 4886SOL     OW26116   1.392   3.815   6.966 -0.1894 -0.4523 -0.5095
 4886SOL    HW126117   1.326   3.837   7.032  2.0586 -0.8802  1.8507
 4886SOL    HW226118   1.349   3.733   6.941 -0.4406 -0.8816  1.3576
 4887SOL     OW26119   3.939   1.906   8.063 -0.5982 -0.2379  0.9073
 4887SOL    HW126120   3.916   1.814   8.073  1.2724 -0.6318  1.5974
 4887SOL    HW226121   3.963   1.910   7.970 -0.1796  2.0558  1.1091
 4888SOL     OW26122   0.905   1.753  17.326 -0.4355 -0.5998 -0.2076
 4888SOL    HW126123   0.930   1.791  17.242  0.0850 -1.3527 -0.3925
 4888SOL    HW226124   0.968   1.794  17.385  0.6447  0.3732 -2.0671
 4889SOL     OW26125   0.791   0.609  13.241  0.0003 -0.8512 -0.3243
 4889SOL    HW126126   0.797   0.691  13.192  0.8908 -0.9870 -0.4510
 4889SOL    HW226127   0.702   0.595  13.273  0.4761  0.7497  1.7284
 4890SOL     OW26128   4.288   0.250   4.488  0.3227  0.4376 -0.5412
 4890SOL    HW126129   4.343   0.174   4.509 -2.2755 -0.7456  2.0429
 4890SOL    HW226130   4.260   0.222   4.401 -1.8882  1.3055 -0.1104
 4891SOL     OW26131   1.488   2.344   3.508  0.3596 -0.0333 -0.4081
 4891SOL    HW126132   1.408   2.372   3.463 -0.6878 -1.3717  0.6063
 4891SOL    HW226133   1.500   2.261   3.462 -0.6664  0.4444 -1.5496
 4892SOL     OW26134   1.440   0.158   9.136 -0.5013  0.1776  0.1457
 4892SOL    HW126135   1.517   0.103   9.147  1.0418  2.3633  0.2351
 4892SOL    HW226136   1.436   0.166   9.041 -0.2905  0.9765  0.2024
 4893SOL     OW26137   4.625   0.386   2.761  0.6946  0.1488  0.0278
 4893SOL    HW126138   4.678   0.463   2.779  1.5998 -0.4758 -0.0066
 4893SOL    HW226139   4.630   0.379   2.665  0.5808  1.2363 -0.0510
 4894SOL     OW26140   1.094   1.545   5.077 -0.5009  0.2630  0.0277
 4894SOL    HW126141   1.040   1.574   5.151 -1.7427 -4.0681  0.8092
 4894SOL    HW226142   1.085   1.631   5.036 -1.5055 -0.6200 -1.6349
 4895SOL     OW26143   2.466   0.585   2.514  0.2899  0.1155 -0.0301
 4895SOL    HW126144   2.446   0.638   2.436 -0.5888 -0.7472 -0.3917
 4895SOL    HW226145   2.382   0.591   2.559  0.6401  0.1958  0.6059
 4896SOL     OW26146   2.756   0.862   2.931  0.7376  0.4545 -0.1109
 4896SOL    HW126147   2.838   0.907   2.951  0.9763  1.1433 -2.5430
 4896SOL    HW226148   2.792   0.830   2.848  0.2210 -0.2311 -0.0659
 4897SOL     OW26149   0.483   2.967   3.108 -0.0161  0.2322 -0.1124
 4897SOL    HW126150   0.443   3.004   3.029  2.0808 -0.8130 -1.6854
 4897SOL    HW226151   0.558   3.019   3.138 -1.7645  2.2978  0.6823
 4898SOL     OW26152   4.431   1.205   2.135 -0.1574 -0.6386  0.3525
 4898SOL    HW126153   4.343   1.177   2.160 -0.0683  0.4524  1.8958
 4898SOL    HW226154   4.414   1.249   2.052  1.2625  2.3321  1.6351
 4899SOL     OW26155   1.131   3.029   7.180  0.3781  0.4534  0.1662
 4899SOL    HW126156   1.068   2.964   7.212  1.7046 -0.4786  0.9011
 4899SOL    HW226157   1.139   3.074   7.264  2.8515 -0.4750  0.4444
 4900SOL     OW26158   2.360   2.157  14.390  0.1492 -0.1535 -0.3393
 4900SOL    HW126159   2.418   2.083  14.410 -1.3960 -1.1662  0.3822
 4900SOL    HW226160   2.268   2.142  14.412  0.2708  1.0451  1.0129
 4901SOL     OW26161   3.815   3.239   4.425  0.1227 -0.2028 -0.4975
 4901SOL    HW126162   3.795   3.148   4.402  0.7195  0.1338 -2.4042
 4901SOL    HW226163   3.910   3.228   4.431  0.2746  1.3235 -0.0220
 4902SOL     OW26164   4.213   3.302  11.118  0.4552 -0.0447 -0.1640
 4902SOL    HW126165   4.167   3.366  11.172 -1.7880 -1.4504 -0.4145
 4902SOL    HW226166   4.272   3.253  11.177  1.2953  0.3753 -0.6622
 4903SOL     OW26167   3.227   2.587   8.094 -0.0057 -0.1336  0.3360
 4903SOL    HW126168   3.147   2.538   8.077  0.0233 -0.0242 -0.1166
 4903SOL    HW226169   3.191   2.673   8.115  1.0185  0.0687  1.3124
 4904SOL     OW26170   4.060   3.500   9.265  0.1437 -0.1919 -0.4044
 4904SOL    HW126171   4.152   3.475   9.264  0.2589  0.2682 -2.1426
 4904SOL    HW226172   4.015   3.422   9.235 -0.6553 -0.1679  0.7386
 4905SOL     OW26173   1.183   1.413   4.029  0.5536  0.0345 -0.1806
 4905SOL    HW126174   1.231   1.339   3.991  1.3668 -0.2027  1.3403
 4905SOL    HW226175   1.165   1.382   4.117  0.8506  0.1379 -0.0857
 4906SOL     OW26176   1.949   1.646   6.911  0.5588  0.3629 -0.6317
 4906SOL    HW126177   2.024   1.595   6.944  0.4676 -0.0060 -1.0036
 4906SOL    HW226178   1.893   1.637   6.988 -2.2133 -1.1154 -2.8344
 4907SOL     OW26179   0.341   4.303  14.083  0.7201 -0.6597 -0.1530
 4907SOL    HW126180   0.424   4.256  14.088  1.4989  0.6874 -0.1940
 4907SOL    HW226181   0.377   4.391  14.067  1.2362 -0.7892  0.3267
 4908SOL     OW26182   1.546   0.705   2.663  0.0241 -0.0615 -0.2734
 4908SOL    HW126183   1.560   0.798   2.677  1.6889 -0.1338 -1.4436
 4908SOL    HW226184   1.586   0.671   2.743  2.3808 -0.3758 -1.5748
 4909SOL     OW26185   0.305   4.160   9.341 -0.1547 -0.4168  0.1265
 4909SOL    HW126186   0.358   4.089   9.377 -0.0638  0.1816  1.1790
 4909SOL    HW226187   0.240   4.162   9.411  1.7447 -0.0587  1.8921
 4910SOL     OW26188   2.922   3.170   1.368 -0.5922 -0.1966 -0.5353
 4910SOL    HW126189   2.834   3.201   1.386 -0.1158  1.0207 -0.2849
 4910SOL    HW226190   2.930   3.219   1.286  1.7675 -1.0309 -0.8054
 4911SOL     OW26191   0.916   2.722  10.089 -0.2760 -0.2691  0.3738
 4911SOL    HW126192   0.996   2.745  10.042 -0.0052 -0.1768  0.8710
 4911SOL    HW226193   0.844   2.742  10.030 -1.6021  0.3848  2.2355
 4912SOL     OW26194   1.458   1.283   1.887  0.3263 -0.2495  0.2823
 4912SOL    HW126195   1.406   1.204   1.876  0.2989 -0.5301  2.4567
 4912SOL    HW226196   1.519   1.262   1.958 -0.5453 -0.0669  1.0833
 4913SOL     OW26197   0.193   0.822   5.665  0.3918  0.0562 -0.3502
 4913SOL    HW126198   0.129   0.772   5.714  0.7082  1.0939  1.1297
 4913SOL    HW226199   0.274   0.775   5.682 -0.5548 -1.3868  0.1039
 4914SOL     OW26200   3.717   1.080  13.895 -0.0527 -0.6150 -0.1836
 4914SOL    HW126201   3.694   1.085  13.988 -2.3947  2.0245 -0.9215
 4914SOL    HW226202   3.747   1.169  13.876  0.1202 -1.1998 -2.7152
 4915SOL     OW26203   3.078   1.486   2.568 -0.2416  0.4041  0.1706
 4915SOL    HW126204   2.999   1.515   2.524 -0.0323 -2.6909 -2.2093
 4915SOL    HW226205   3.077   1.532   2.652  0.1716 -2.6078  1.8285
 4916SOL     OW26206   0.920   4.655   3.458 -0.6976 -0.4715  0.5447
 4916SOL    HW126207   0.832   4.686   3.476 -0.8132 -1.1073  1.0451
 4916SOL    HW226208   0.896   4.604   3.380 -0.8620 -1.1472  1.0387
 4917SOL     OW26209   3.659   0.732   7.720 -0.2329  0.3865  0.1816
 4917SOL    HW126210   3.578   0.682   7.736 -0.9882  1.8473  0.8835
 4917SOL    HW226211   3.714   0.665   7.759 -1.7552 -1.3892 -0.6932
 4918SOL     OW26212   1.965   1.357   6.273 -0.2140 -0.1789 -0.2055
 4918SOL    HW126213   1.980   1.322   6.185 -0.0684 -2.9149  0.8917
 4918SOL    HW226214   2.059   1.366   6.292 -0.4457  1.5579  0.1016
 4919SOL     OW26215   1.998   1.185   9.028 -0.2596 -0.4903  0.2937
 4919SOL    HW126216   2.049   1.126   8.972 -0.5702 -0.1249 -0.3562
 4919SOL    HW226217   2.057   1.173   9.103  0.6945 -0.4360 -0.4423
 4920SOL     OW26218   0.218   2.216   8.880 -0.4040  0.5057 -0.3310
 4920SOL    HW126219   0.265   2.133   8.873 -0.1930  0.6540 -0.6769
 4920SOL    HW226220   0.281   2.259   8.938  1.3441 -1.2771 -0.9208
 4921SOL     OW26221   1.805   3.635   6.894  0.4193  0.0714 -0.0324
 4921SOL    HW126222   1.737   3.575   6.863  1.6137 -0.4710 -1.6039
 4921SOL    HW226223   1.814   3.687   6.814 -4.0029  1.5134  0.3935
 4922SOL     OW26224   2.062   1.516   9.558  0.3835 -0.6471 -0.1562
 4922SOL    HW126225   2.029   1.519   9.468 -1.6797 -0.0584  0.6150
 4922SOL    HW226226   2.076   1.609   9.575 -0.7364 -0.3351 -0.8649
 4923SOL     OW26227   2.099   4.104   4.728 -0.0811 -0.2226 -0.1799
 4923SOL    HW126228   2.177   4.089   4.782 -1.6052  0.2026  2.1632
 4923SOL    HW226229   2.105   4.199   4.713 -0.0905 -0.4770 -1.7970
 4924SOL     OW26230   2.820   2.458   7.355 -0.0635  0.2930  0.1927
 4924SOL    HW126231   2.791   2.498   7.437 -3.4841  2.6517 -2.1598
 4924SOL    HW226232   2.778   2.510   7.288 -0.1392 -1.2435 -0.9564
 4925SOL     OW26233   4.385   1.312   3.288 -0.2701 -0.0535 -0.3359
 4925SOL    HW126234   4.290   1.324   3.300 -0.7274 -1.3567 -2.8311
 4925SOL    HW226235   4.410   1.371   3.217 -0.6430  0.2237 -0.2427
 4926SOL     OW26236   4.690   2.900   2.865 -0.3180  0.4494  0.5390
 4926SOL    HW126237   0.040   2.839   2.880  1.1412  1.5452 -1.9309
 4926SOL    HW226238   4.672   2.939   2.950  2.6026  0.3842  1.1618
 4927SOL     OW26239   2.556   3.074   2.321 -0.3725 -0.2702  0.0289
 4927SOL    HW126240   2.563   3.070   2.225 -2.2537  1.2085 -0.1651
 4927SOL    HW226241   2.612   3.000   2.347  0.9664  0.7471  0.0750
 4928SOL     OW26242   4.653   0.954   6.155 -0.2041 -0.1635 -0.1758
 4928SOL    HW126243   4.571   1.003   6.167 -1.4579 -1.9406 -1.4190
 4928SOL    HW226244   4.677   0.966   6.063 -0.0609  1.1531  0.0283
 4929SOL     OW26245   2.268   3.433   9.631  0.0754 -0.1439 -0.8297
 4929SOL    HW126246   2.354   3.455   9.666  0.4418 -0.3751 -1.5702
 4929SOL    HW226247   2.294   3.359   9.575  2.8625 -0.2828  0.6488
 4930SOL     OW26248   3.864   3.641   4.182 -0.1154 -0.5710 -0.1652
 4930SOL    HW126249   3.800   3.684   4.125  3.1033  0.7573 -2.7309
 4930SOL    HW226250   3.919   3.713   4.212 -1.0653 -0.1153  0.4964
 4931SOL     OW26251   3.898   4.142   4.002  0.2876  0.3996  0.1844
 4931SOL    HW126252   3.835   4.099   3.944  2.4232  1.7252 -3.1433
 4931SOL    HW226253   3.964   4.073   3.999  0.8136  0.9278 -0.3252
 4932SOL     OW26254   0.717   0.567   3.665  0.2202  0.0610  0.1468
 4932SOL    HW126255   0.775   0.643   3.670  0.9312 -0.4172 -0.9322
 4932SOL    HW226256   0.758   0.507   3.603  0.6945  1.4839 -0.9338
 4933SOL     OW26257   3.403   1.792   8.876  0.4056 -0.1517 -0.1574
 4933SOL    HW126258   3.415   1.887   8.878  0.0794 -0.0815 -1.3886
 4933SOL    HW226259   3.461   1.769   8.804  1.4522  1.1662  0.2539
 4934SOL     OW26260   0.806   0.248   9.101  0.7336  0.6923  0.3387
 4934SOL    HW126261   0.754   0.186   9.051  0.2502  1.0365  0.4171
 4934SOL    HW226262   0.842   0.196   9.173  0.8619 -1.0621 -0.9989
 4935SOL     OW26263   1.047   3.241  10.279  0.6073 -0.3793  0.4601
 4935SOL    HW126264   0.964   3.201  10.254  0.3143  0.9010 -0.6497
 4935SOL    HW226265   1.035   3.278  10.366 -2.2970  2.6377 -1.2559
 4936SOL     OW26266   4.311   1.944   5.456 -0.4060  0.3287 -0.0505
 4936SOL    HW126267   4.265   1.962   5.538 -1.3023 -3.7001  0.3147
 4936SOL    HW226268   4.241   1.914   5.399  0.3501  1.1676 -1.4487
 4937SOL     OW26269   0.423   3.404   8.077 -0.2105 -0.7904  0.3405
 4937SOL    HW126270   0.435   3.431   7.987  0.3912  1.9869  1.2698
 4937SOL    HW226271   0.473   3.323   8.086  2.1293  0.7598  1.0514
 4938SOL     OW26272   2.896   1.613   4.286 -0.0344 -0.3920  0.0498
 4938SOL    HW126273   2.933   1.623   4.198  1.2842 -0.4433  0.6136
 4938SOL    HW226274   2.853   1.697   4.300  0.0538 -1.0633  4.2212
 4939SOL     OW26275   2.673   3.434   2.893  0.2799 -0.3869  0.6642
 4939SOL    HW126276   2.644   3.391   2.812  0.2659 -0.0185  0.4756
 4939SOL    HW226277   2.654   3.358   2.948 -0.7757 -0.0298  0.7869
 4940SOL     OW26278   2.061   0.226   6.168 -0.6476  0.2667  0.0671
 4940SOL    HW126279   1.970   0.228   6.198 -0.4698  4.6287  0.2758
 4940SOL    HW226280   2.102   0.176   6.239  0.7640 -1.3643 -1.9018
 4941SOL     OW26281   1.417   4.216   8.372 -0.1111 -0.0137 -0.2094
 4941SOL    HW126282   1.490   4.268   8.406  1.0959 -1.8837  0.1248
 4941SOL    HW226283   1.459   4.135   8.341  3.2944  1.3363  0.8613
 4942SOL     OW26284   0.297   3.813   7.717 -0.4483 -0.5185 -0.3756
 4942SOL    HW126285   0.372   3.754   7.716  0.6905  0.9354 -0.8544
 4942SOL    HW226286   0.284   3.828   7.624  1.0706  0.6750 -0.3907
 4943SOL     OW26287   4.437   3.176   4.010 -0.3179  0.1768 -0.2525
 4943SOL    HW126288   4.354   3.129   4.019 -0.0092 -0.2516  0.4018
 4943SOL    HW226289   4.441   3.219   3.925  1.0809  2.7767  1.1046
 4944SOL     OW26290   2.583   1.785   0.969 -0.0840  0.3352  0.1441
 4944SOL    HW126291   2.600   1.767   1.061 -2.2756  0.4696  0.5720
 4944SOL    HW226292   2.670   1.816   0.944 -0.4856 -0.4557 -2.3309
 4945SOL     OW26293   2.663   2.152  14.589  0.5131 -0.8273  0.0202
 4945SOL    HW126294   2.700   2.068  14.563  1.4012 -0.6485  0.7026
 4945SOL    HW226295   2.604   2.118  14.656 -0.8289  1.4641  0.0064
 4946SOL     OW26296   1.620   3.498  16.743  0.2724 -0.4557  0.3346
 4946SOL    HW126297   1.527   3.517  16.731  0.4377  2.3308  3.3878
 4946SOL    HW226298   1.618   3.404  16.727 -0.3076 -0.4315  0.2714
 4947SOL     OW26299   1.565   3.905   8.697 -0.0969 -0.0576 -0.1902
 4947SOL    HW126300   1.618   3.831   8.726 -2.5533 -1.7346  0.0078
 4947SOL    HW226301   1.516   3.859   8.629 -1.8050 -0.3693  1.2589
 4948SOL     OW26302   0.195   4.060   2.394 -0.1810  0.1464 -0.6004
 4948SOL    HW126303   0.247   4.085   2.317 -0.8204  1.6008 -0.5609
 4948SOL    HW226304   0.112   4.029   2.357 -0.1913 -0.2058 -0.2800
 4949SOL     OW26305   2.305   0.723   4.236  0.5780 -0.1019  0.4384
 4949SOL    HW126306   2.348   0.752   4.156 -1.3327 -0.4995 -0.7501
 4949SOL    HW226307   2.346   0.638   4.254 -1.4974 -0.5040  3.1654
 4950SOL     OW26308   0.301   1.170   6.010 -0.3376  0.0390 -0.7570
 4950SOL    HW126309   0.233   1.163   6.077  1.1018 -0.8534  0.6086
 4950SOL    HW226310   0.272   1.246   5.960  1.1041  1.0634 -0.0417
 4951SOL     OW26311   4.683   3.784   9.425  0.1878  0.0631 -0.7679
 4951SOL    HW126312   4.591   3.771   9.400 -0.6572  1.0041  1.8974
 4951SOL    HW226313   4.668   3.774   9.519  2.9388  1.2510 -0.2013
 4952SOL     OW26314   4.455   0.536   5.120 -0.7511 -0.4488  0.0068
 4952SOL    HW126315   4.471   0.608   5.060  1.3875 -1.0771 -0.1834
 4952SOL    HW226316   4.413   0.581   5.194  0.1984  0.2773  0.1084
 4953SOL     OW26317   1.171   3.703  12.993 -0.0559  0.2913  0.4720
 4953SOL    HW126318   1.233   3.772  13.015  0.8315  0.0888 -1.4600
 4953SOL    HW226319   1.093   3.750  13.023 -1.6593 -0.1564 -2.9442
 4954SOL     OW26320   4.517   4.429   5.639  0.6998  0.0554  0.2749
 4954SOL    HW126321   4.444   4.450   5.580  1.4012 -0.2515 -0.7053
 4954SOL    HW226322   4.585   4.420   5.572  0.4902  0.0088  0.0700
 4955SOL     OW26323   1.356   3.931   4.969 -0.6905 -0.5216 -0.2264
 4955SOL    HW126324   1.268   3.895   4.976 -1.2813  0.9284 -0.2794
 4955SOL    HW226325   1.352   3.988   4.892 -0.5856 -1.2741 -0.7917
 4956SOL     OW26326   1.719   2.650   7.199  0.2229  1.1707  0.0235
 4956SOL    HW126327   1.624   2.647   7.189  0.3256  0.3151 -0.6337
 4956SOL    HW226328   1.737   2.660   7.106  2.6504  0.2464  0.3855
 4957SOL     OW26329   0.991   3.404   7.330 -0.0406 -0.2197 -0.4777
 4957SOL    HW126330   0.991   3.435   7.420 -0.0387 -0.1873 -0.4886
 4957SOL    HW226331   0.922   3.340   7.345  0.3598 -0.7069 -0.7197
 4958SOL     OW26332   2.723   2.549  14.677 -0.2557 -0.6774  0.4203
 4958SOL    HW126333   2.795   2.505  14.721  0.5869  0.0435 -0.2536
 4958SOL    HW226334   2.700   2.503  14.597  0.9669 -0.4881 -0.0341
 4959SOL     OW26335   3.647   1.102   2.697 -0.4872  0.1183 -0.0837
 4959SOL    HW126336   3.616   1.138   2.780  0.3116  1.3581 -0.3232
 4959SOL    HW226337   3.666   1.014   2.730  0.1228 -0.1250 -1.0867
 4960SOL     OW26338   3.892   3.838   7.874  0.1529  0.3908 -0.1061
 4960SOL    HW126339   3.802   3.809   7.861  1.2260 -2.6650 -0.6906
 4960SOL    HW226340   3.920   3.867   7.787 -1.2149 -1.2181 -1.0857
 4961SOL     OW26341   2.278   0.821   6.572 -0.1117 -0.0724 -0.2782
 4961SOL    HW126342   2.236   0.901   6.542  0.0917  1.3148  3.0725
 4961SOL    HW226343   2.350   0.865   6.619 -0.7540 -0.4389  1.0548
 4962SOL     OW26344   2.370   0.733  14.003  0.3981 -0.9262  0.1169
 4962SOL    HW126345   2.425   0.670  13.956  0.8239  0.2601 -0.9667
 4962SOL    HW226346   2.339   0.683  14.078 -0.9922  0.2755  0.3564
 4963SOL     OW26347   4.414   4.703   3.187 -0.0239  0.1047  0.3881
 4963SOL    HW126348   4.327   0.008   3.158 -0.0329  0.0323  0.3468
 4963SOL    HW226349   4.462   4.715   3.105  2.5772  1.4250  2.1012
 4964SOL     OW26350   0.693   1.090  15.081  0.4985 -0.1490  0.6436
 4964SOL    HW126351   0.747   1.143  15.022 -1.7247  1.4005  0.0051
 4964SOL    HW226352   0.736   1.005  15.090 -1.1154 -1.0705 -0.2672
 4965SOL     OW26353   1.013   1.394  12.663  0.3910  0.3267  0.1566
 4965SOL    HW126354   0.981   1.306  12.644  2.6376 -0.5077  0.2418
 4965SOL    HW226355   0.960   1.416  12.740 -2.3975  1.9873 -2.2085
 4966SOL     OW26356   1.674   1.058   5.952  0.2872 -0.2277  0.2414
 4966SOL    HW126357   1.651   0.973   5.990  1.8038 -1.2502 -1.0921
 4966SOL    HW226358   1.705   1.102   6.031 -1.2451  1.4631 -0.1240
 4967SOL     OW26359   4.417   3.912   6.516 -0.2703 -0.6208 -0.4934
 4967SOL    HW126360   4.356   3.935   6.446  0.3924 -3.2566 -1.9455
 4967SOL    HW226361   4.437   3.823   6.485 -0.0173 -1.0550  0.9288
 4968SOL     OW26362   1.037   1.610  11.709  0.1937 -0.5575  0.3196
 4968SOL    HW126363   1.096   1.621  11.783  0.1711 -1.1071  0.4183
 4968SOL    HW226364   1.098   1.613  11.635 -1.2131  1.0002 -0.7551
 4969SOL     OW26365   0.728   0.101  15.928  0.6992 -0.1653 -0.2640
 4969SOL    HW126366   0.662   0.170  15.930 -0.1116 -1.0656  4.4559
 4969SOL    HW226367   0.712   0.071  16.017 -0.2457 -1.3837 -0.8426
 4970SOL     OW26368   4.498   0.851   2.902 -0.3655 -0.2146  0.2622
 4970SOL    HW126369   4.547   0.845   2.819 -1.6806  1.0446 -0.5951
 4970SOL    HW226370   4.422   0.802   2.870 -0.0628 -0.5209  0.0011
 4971SOL     OW26371   1.045   3.606   8.715  0.4524  0.1777 -0.0092
 4971SOL    HW126372   1.066   3.671   8.648 -1.9365  1.0526  0.0864
 4971SOL    HW226373   1.080   3.654   8.790  2.4489  1.4746 -1.7768
 4972SOL     OW26374   4.386   4.533   9.508 -0.2117  0.5186  0.0545
 4972SOL    HW126375   4.379   4.482   9.428 -2.2179  0.0702  0.5228
 4972SOL    HW226376   4.475   4.510   9.538 -1.1424 -1.0805  1.6032
 4973SOL     OW26377   3.737   2.698   8.350 -0.1634  0.1116  0.0863
 4973SOL    HW126378   3.672   2.753   8.394 -0.7706 -0.2373 -0.3660
 4973SOL    HW226379   3.682   2.654   8.285  1.0145 -2.2035  0.6444
 4974SOL     OW26380   0.233   3.457   6.298  0.6858 -0.3571  0.0024
 4974SOL    HW126381   0.307   3.508   6.266 -0.4898  1.4082  0.1162
 4974SOL    HW226382   0.250   3.373   6.256 -0.5670  0.1062 -1.4375
 4975SOL     OW26383   3.207   3.282   3.894  0.1862  0.0479  0.1206
 4975SOL    HW126384   3.289   3.257   3.935  0.2701 -1.1695 -0.7826
 4975SOL    HW226385   3.153   3.209   3.925 -0.3261  1.2330  2.0441
 4976SOL     OW26386   1.069   2.942   2.863  0.1989  0.3350  0.2714
 4976SOL    HW126387   1.008   2.868   2.865  1.5953 -0.7665  2.2932
 4976SOL    HW226388   1.018   3.007   2.815 -0.9988 -1.1276 -0.4430
 4977SOL     OW26389   1.554   0.975  15.950  0.6336  0.1285 -0.0921
 4977SOL    HW126390   1.556   0.970  16.045  0.1686 -0.9736 -0.1407
 4977SOL    HW226391   1.459   0.974  15.941  0.5623  0.4821  0.6704
 4978SOL     OW26392   0.583   0.979  13.302 -0.1757 -0.2182  0.0152
 4978SOL    HW126393   0.517   0.939  13.245 -1.2680  1.1279  0.3231
 4978SOL    HW226394   0.542   1.047  13.356 -1.2967 -0.1096 -0.9868
 4979SOL     OW26395   2.112   3.618   9.925  0.3264  0.1281  0.1354
 4979SOL    HW126396   2.201   3.651   9.916  0.4184 -0.5315 -1.3325
 4979SOL    HW226397   2.127   3.523   9.922  2.7501  0.5392 -0.6012
 4980SOL     OW26398   0.913   2.604   8.969 -0.1219  0.1990  0.7763
 4980SOL    HW126399   0.824   2.570   8.958 -0.0740  0.5201 -0.6977
 4980SOL    HW226400   0.900   2.656   9.048 -1.7746  0.2563  0.4804
 4981SOL     OW26401   0.043   1.152   7.665  0.7315  0.0677 -0.5559
 4981SOL    HW126402   0.002   1.179   7.747 -3.0143  0.0492 -2.4139
 4981SOL    HW226403   0.133   1.141   7.693  0.4310 -0.5691  0.1382
 4982SOL     OW26404   0.596   1.087   7.711  0.1249  0.2310  0.0697
 4982SOL    HW126405   0.664   1.053   7.653  1.8832  3.1673  0.3836
 4982SOL    HW226406   0.536   1.123   7.646  2.6290  1.8512 -1.3442
 4983SOL     OW26407   2.497   1.930  17.543  0.3125 -0.1222  0.4387
 4983SOL    HW126408   2.513   2.024  17.543  2.1681 -0.4382 -0.9133
 4983SOL    HW226409   2.547   1.906  17.465 -0.5448  0.4001 -0.2674
 4984SOL     OW26410   2.814   1.942  16.221 -0.3514 -1.0715 -0.0126
 4984SOL    HW126411   2.866   2.007  16.267 -0.2384 -0.5222 -0.9248
 4984SOL    HW226412   2.731   1.989  16.228  1.3993  1.7407  1.6824
 4985SOL     OW26413   0.539   4.549   7.488  0.0539 -0.5207  0.2064
 4985SOL    HW126414   0.529   4.473   7.545  0.8555 -0.3582  0.5613
 4985SOL    HW226415   0.489   4.528   7.409  0.7650 -0.2381 -0.3184
 4986SOL     OW26416   1.969   2.033  15.147 -0.1605 -0.1861  0.1700
 4986SOL    HW126417   1.879   2.017  15.175 -0.4752 -0.2484 -0.8656
 4986SOL    HW226418   1.954   2.000  15.058 -1.9800 -1.2462  0.8678
 4987SOL     OW26419   4.671   3.530   2.656  0.6391 -0.1660  0.3441
 4987SOL    HW126420   4.619   3.505   2.580  0.9428 -0.4927  0.2443
 4987SOL    HW226421   0.034   3.548   2.616 -0.2223 -0.0476 -1.4117
 4988SOL     OW26422   0.310   1.879   8.236 -0.4478 -0.0531 -0.0108
 4988SOL    HW126423   0.358   1.797   8.247  0.0557  0.4122  1.2334
 4988SOL    HW226424   0.280   1.905   8.323 -0.8179 -0.6615  0.0471
 4989SOL     OW26425   3.904   3.137   7.621 -0.5859  0.4672 -0.1198
 4989SOL    HW126426   3.974   3.149   7.685  1.6377  0.1745 -2.5158
 4989SOL    HW226427   3.828   3.113   7.674 -0.0771  0.1767  0.4788
 4990SOL     OW26428   1.377   2.543   2.948 -0.1206  0.2705  0.5166
 4990SOL    HW126429   1.458   2.555   2.999  1.5253 -0.3102 -1.9887
 4990SOL    HW226430   1.349   2.457   2.978  0.1314 -0.5532 -1.6568
 4991SOL     OW26431   3.477   3.875   8.188 -0.1446  0.0045 -0.3537
 4991SOL    HW126432   3.449   3.884   8.279  0.5209  1.6328 -0.3057
 4991SOL    HW226433   3.571   3.882   8.206 -0.6991 -0.2605  2.5839
 4992SOL     OW26434   2.746   4.696   7.680 -0.1265  0.0498 -0.4928
 4992SOL    HW126435   2.704   0.048   7.637 -0.1673 -0.2228 -0.9199
 4992SOL    HW226436   2.823   0.021   7.713  0.3960 -0.7698 -0.5440
 4993SOL     OW26437   3.810   0.367   7.172  0.8387  0.1032 -0.2287
 4993SOL    HW126438   3.806   0.296   7.237  0.9488  1.1263  0.8908
 4993SOL    HW226439   3.826   0.439   7.233 -0.5170  0.6673 -0.5351
 4994SOL     OW26440   0.270   3.412   3.843  0.0150  0.3355  0.5133
 4994SOL    HW126441   0.219   3.407   3.762  0.6519  1.3982  0.0509
 4994SOL    HW226442   0.227   3.344   3.894 -0.0210 -0.8252 -1.0318
 4995SOL     OW26443   4.620   3.684   7.170  0.2376 -0.0891  0.2603
 4995SOL    HW126444   4.667   3.739   7.108 -0.5365 -0.6918 -0.8667
 4995SOL    HW226445   4.628   3.599   7.126 -1.4337 -0.4396  0.6296
 4996SOL     OW26446   2.965   1.078   5.667 -0.1737  0.3353  0.5612
 4996SOL    HW126447   2.870   1.091   5.667  0.2572  3.3004 -0.8004
 4996SOL    HW226448   2.983   1.059   5.575 -1.3988 -0.2158  0.4256
 4997SOL     OW26449   3.591   4.635   2.303 -0.1272 -0.2968 -0.0333
 4997SOL    HW126450   3.681   4.610   2.283 -0.7383 -0.9192 -1.9988
 4997SOL    HW226451   3.549   4.640   2.217 -0.0272  0.1259 -0.0562
 4998SOL     OW26452   1.810   2.770  13.289 -0.8495 -0.6217 -0.4679
 4998SOL    HW126453   1.843   2.684  13.316 -0.5177 -0.5541 -0.6484
 4998SOL    HW226454   1.745   2.800  13.351 -0.0999  1.9104 -0.8985
 4999SOL     OW26455   2.024   0.796   8.883 -0.7432 -0.8301  0.3611
 4999SOL    HW126456   2.093   0.861   8.875 -0.1262 -1.6085 -0.6446
 4999SOL    HW226457   2.055   0.711   8.851  1.1468 -1.2157  3.3003
 5000SOL     OW26458   1.762   1.279  13.870 -0.0800  0.0924  0.0428
 5000SOL    HW126459   1.702   1.227  13.923  0.0707 -0.4831 -0.3406
 5000SOL    HW226460   1.841   1.226  13.878 -0.7667 -1.2957 -2.3787
 5001SOL     OW26461   4.560   0.056   2.675  0.3483  0.4901  0.7070
 5001SOL    HW126462   4.650   0.064   2.705 -0.1148  2.5018  1.5271
 5001SOL    HW226463   4.515   0.116   2.734  1.6088  1.0221  1.1208
 5002SOL     OW26464   3.264   1.164   6.754  0.4200 -0.1979  0.0137
 5002SOL    HW126465   3.242   1.257   6.753  0.6300 -0.1574 -1.2299
 5002SOL    HW226466   3.183   1.128   6.716  0.4212 -0.2041  0.0170
 5003SOL     OW26467   1.458   0.936   2.445 -0.5958  0.2295 -0.4889
 5003SOL    HW126468   1.380   0.988   2.460 -0.3022 -0.1403  2.1957
 5003SOL    HW226469   1.507   0.982   2.513 -0.2438  0.4377 -0.8813
 5004SOL     OW26470   0.090   4.692  10.156 -0.9235 -0.1591  0.4267
 5004SOL    HW126471   0.052   0.052  10.124 -2.4344 -0.2914  1.8860
 5004SOL    HW226472   0.179   0.003  10.168 -0.5001 -1.3565  0.5449
 5005SOL     OW26473   2.385   3.509   5.713  0.1491  0.1905  0.2644
 5005SOL    HW126474   2.395   3.601   5.689  1.5984 -0.5098 -1.7878
 5005SOL    HW226475   2.295   3.496   5.741  1.2845 -4.2008  1.9580
 5006SOL     OW26476   4.311   3.633   6.322  0.0181 -0.3370 -0.1585
 5006SOL    HW126477   4.328   3.549   6.278 -2.2428 -1.0495  0.3235
 5006SOL    HW226478   4.242   3.671   6.268  0.0732  0.8414  0.5890
 5007SOL     OW26479   1.670   2.297  12.732  0.1008  0.0820 -0.2979
 5007SOL    HW126480   1.732   2.291  12.659  0.8232  1.0414  0.2359
 5007SOL    HW226481   1.585   2.299  12.688 -0.2154  0.5148  0.3386
 5008SOL     OW26482   2.035   0.034   3.081 -0.1204 -0.1126  0.4596
 5008SOL    HW126483   2.123   4.718   3.078  0.4627  1.2711 -0.0547
 5008SOL    HW226484   2.056   0.126   3.065 -2.2501 -0.1759 -2.5123
 5009SOL     OW26485   0.392   4.335   7.623 -0.6431 -0.6227  0.3336
 5009SOL    HW126486   0.297   4.339   7.637 -0.7711 -2.0761 -0.0779
 5009SOL    HW226487   0.398   4.249   7.580  0.0503 -0.5458  0.2849
 5010SOL     OW26488   1.765   1.146  15.087 -0.5219 -0.0904 -0.1971
 5010SOL    HW126489   1.785   1.239  15.076  0.6276 -0.3268 -0.1003
 5010SOL    HW226490   1.673   1.143  15.060 -1.2810 -0.4986  2.4138
 5011SOL     OW26491   4.451   0.646   6.271  0.1329 -0.6017  0.0164
 5011SOL    HW126492   4.385   0.588   6.232  1.2329 -1.2029 -0.9308
 5011SOL    HW226493   4.462   0.713   6.203 -0.7109 -0.2313  0.2355
 5012SOL     OW26494   0.578   0.541   6.910 -0.2539 -0.6546  0.2306
 5012SOL    HW126495   0.487   0.527   6.883 -0.3692 -1.7904  1.2130
 5012SOL    HW226496   0.601   0.626   6.872  1.5218  0.0539  2.8620
 5013SOL     OW26497   4.206   2.674   7.477 -0.0267 -0.0432 -0.0711
 5013SOL    HW126498   4.261   2.617   7.424  0.1424 -0.2527  0.3274
 5013SOL    HW226499   4.251   2.665   7.561 -0.4388 -0.4639  0.1062
 5014SOL     OW26500   1.993   0.407  12.259 -0.1472  0.0382 -0.7132
 5014SOL    HW126501   2.032   0.323  12.285 -1.0341 -0.6033 -1.4881
 5014SOL    HW226502   2.075   0.456  12.259 -0.2757  0.2559 -0.3211
 5015SOL     OW26503   3.420   3.764   2.684 -0.2614  0.1102 -0.5198
 5015SOL    HW126504   3.439   3.674   2.708  1.3645  1.7252  4.2714
 5015SOL    HW226505   3.356   3.757   2.613  0.8681 -1.2594 -1.3802
 5016SOL     OW26506   1.727   1.862   6.809  0.3698 -0.4589 -0.0401
 5016SOL    HW126507   1.761   1.785   6.764  0.9855 -0.2174  0.0090
 5016SOL    HW226508   1.748   1.932   6.746 -0.7157 -2.2693 -2.3857
 5017SOL     OW26509   2.225   1.671   0.125 -0.2098  0.9465 -0.1220
 5017SOL    HW126510   2.220   1.731   0.050  1.2367 -1.3065 -2.0351
 5017SOL    HW226511   2.320   1.679   0.139 -0.0628  1.0067 -1.1422
 5018SOL     OW26512   2.273   0.369   7.163  0.2898  0.4913 -0.1733
 5018SOL    HW126513   2.258   0.365   7.069 -0.8764  0.4714  0.0198
 5018SOL    HW226514   2.243   0.286   7.200 -0.4825  1.1764  0.7211
 5019SOL     OW26515   2.413   2.249   7.576  0.1686 -0.2794 -0.7609
 5019SOL    HW126516   2.386   2.277   7.664  0.0269 -0.5502 -0.7195
 5019SOL    HW226517   2.507   2.269   7.583  0.2041 -1.2609  1.6706
 5020SOL     OW26518   3.023   3.304   1.107  0.1131 -0.0369 -0.1388
 5020SOL    HW126519   3.090   3.371   1.099 -0.2798  0.0571 -2.8125
 5020SOL    HW226520   3.083   3.230   1.113  0.4301  0.3468  1.2778
 5021SOL     OW26521   1.406   3.229  15.387  0.2904 -0.0840 -0.0530
 5021SOL    HW126522   1.335   3.292  15.394  0.3036 -0.0185 -0.4896
 5021SOL    HW226523   1.454   3.249  15.306 -0.2875  2.3081  0.2210
 5022SOL     OW26524   0.153   1.055   1.336 -0.1980  0.2847 -0.4082
 5022SOL    HW126525   0.118   1.144   1.330 -1.3362 -0.0960  0.5562
 5022SOL    HW226526   0.077   1.017   1.379  1.2901  0.2193  2.1265
 5023SOL     OW26527   2.476   1.668  16.983  0.3789 -0.6007  0.5291
 5023SOL    HW126528   2.390   1.632  17.004 -1.3998  2.3876 -1.6575
 5023SOL    HW226529   2.533   1.609  17.033  1.4691 -1.6203 -1.9076
 5024SOL     OW26530   4.241   0.983   8.451 -0.2817  0.6653 -0.1444
 5024SOL    HW126531   4.157   1.015   8.484  0.8323  3.2058  0.2067
 5024SOL    HW226532   4.252   1.039   8.375  1.1056 -0.0168 -0.4511
 5025SOL     OW26533   2.684   3.727   7.003  0.0916 -0.3028 -0.1180
 5025SOL    HW126534   2.682   3.743   6.909  5.3519 -0.3574 -0.2643
 5025SOL    HW226535   2.775   3.699   7.015 -0.4350 -1.5869  0.9445
 5026SOL     OW26536   2.043   1.634  15.081  0.4511 -0.7585  0.4253
 5026SOL    HW126537   2.101   1.638  15.157  1.8885  0.9694 -0.7627
 5026SOL    HW226538   2.104   1.645  15.008  0.5637 -2.8629  0.1948
 5027SOL     OW26539   3.617   0.884   7.105  0.3103 -0.3540 -1.0076
 5027SOL    HW126540   3.710   0.888   7.130 -0.2375 -0.8423  1.0969
 5027SOL    HW226541   3.576   0.865   7.189 -2.7315  1.2769 -2.1133
 5028SOL     OW26542   4.111   3.954  16.855 -0.7479  0.6459 -0.3628
 5028SOL    HW126543   4.047   3.978  16.788 -2.2044  1.7397  1.4361
 5028SOL    HW226544   4.074   3.870  16.879  0.3726  0.1781 -0.2922
 5029SOL     OW26545   4.461   0.587  11.748  0.0467  0.7212  0.1504
 5029SOL    HW126546   4.377   0.544  11.735  2.0008 -2.4777 -1.9565
 5029SOL    HW226547   4.502   0.604  11.663  1.4037  0.4800  0.7563
 5030SOL     OW26548   0.459   3.018   3.457 -0.0654 -0.0901  0.1558
 5030SOL    HW126549   0.469   3.044   3.365  0.4978 -1.2715 -0.1157
 5030SOL    HW226550   0.418   3.088   3.507  0.3086 -0.3910  0.8788
 5031SOL     OW26551   1.776   0.530   1.668 -0.1272 -0.1762  0.7709
 5031SOL    HW126552   1.769   0.625   1.671 -0.3813 -0.1959  0.8205
 5031SOL    HW226553   1.841   0.514   1.737 -0.8678 -0.8192  1.3159
 5032SOL     OW26554   0.460   4.354   6.198  0.2737  0.5049  0.0520
 5032SOL    HW126555   0.380   4.371   6.148  0.3867 -1.2091 -0.6936
 5032SOL    HW226556   0.478   4.436   6.244 -0.4514 -0.1309  1.4768
 5033SOL     OW26557   1.695   0.770   7.294  0.9041  0.1923  0.6652
 5033SOL    HW126558   1.605   0.797   7.311  0.8178 -0.1096  0.6862
 5033SOL    HW226559   1.689   0.682   7.331  0.7439  0.5085  1.3894
 5034SOL     OW26560   4.456   1.630  12.082  0.1726  0.0930 -0.2911
 5034SOL    HW126561   4.476   1.607  12.173  2.3318  1.0119 -0.5208
 5034SOL    HW226562   4.442   1.724  12.089 -1.0412 -0.0685 -0.6267
 5035SOL     OW26563   1.959   3.678   8.146 -0.0389 -0.2336 -0.5906
 5035SOL    HW126564   1.896   3.608   8.164 -3.0035  1.7634 -3.2034
 5035SOL    HW226565   2.034   3.633   8.184  0.1120  1.3010  0.8781
 5036SOL     OW26566   2.419   3.367   2.205  0.2669  0.2111 -0.0136
 5036SOL    HW126567   2.424   3.326   2.119  1.6990  0.7876 -0.2234
 5036SOL    HW226568   2.464   3.309   2.267 -0.5308  0.8974  1.2024
 5037SOL     OW26569   4.717   2.902   5.782  0.2995  0.1167  0.4146
 5037SOL    HW126570   0.010   2.823   5.833  0.6324 -1.0232 -1.4453
 5037SOL    HW226571   0.067   2.961   5.805 -0.5541  1.5790 -0.6205
 5038SOL     OW26572   0.081   2.766  12.404 -0.2709  0.2212  0.9466
 5038SOL    HW126573   0.028   2.703  12.355 -0.9044  0.4316  1.3525
 5038SOL    HW226574   0.123   2.697  12.455  3.0502  1.3896 -0.2234
 5039SOL     OW26575   4.027   1.090   3.729  0.1110 -0.6966  0.0266
 5039SOL    HW126576   4.100   1.150   3.742 -0.2652 -0.2343 -0.0340
 5039SOL    HW226577   4.005   1.076   3.637 -2.0563  1.6283  0.1898
 5040SOL     OW26578   0.472   3.207   3.725 -0.1035 -0.0041 -0.8625
 5040SOL    HW126579   0.432   3.288   3.695 -1.4594 -0.2330  0.3633
 5040SOL    HW226580   0.561   3.237   3.705  1.0767 -0.8336  3.1479
 5041SOL     OW26581   2.701   4.207   2.838  0.1714 -0.2695 -1.1865
 5041SOL    HW126582   2.757   4.186   2.912 -1.2125 -2.5020 -0.7550
 5041SOL    HW226583   2.610   4.198   2.866  0.5367 -0.5589 -0.1056
 5042SOL     OW26584   0.376   4.458   0.929 -0.2262 -0.4969 -0.3511
 5042SOL    HW126585   0.429   4.459   1.009 -2.7149 -2.8940  1.2967
 5042SOL    HW226586   0.363   4.366   0.907 -3.0819  0.3140 -2.0930
 5043SOL     OW26587   0.103   4.444   9.738 -0.3936 -0.3187  0.3079
 5043SOL    HW126588   0.151   4.517   9.701  1.1924 -1.4883  0.0574
 5043SOL    HW226589   0.155   4.444   9.818 -0.6089  0.5563  0.4516
 5044SOL     OW26590   1.693   4.527   1.624  0.2001  0.7035  0.2187
 5044SOL    HW126591   1.702   4.462   1.694 -2.1731 -0.6123 -0.7152
 5044SOL    HW226592   1.734   4.473   1.556 -1.8329 -0.2987 -0.2102
 5045SOL     OW26593   2.997   0.633   2.086  0.6237  0.1031  0.1429
 5045SOL    HW126594   3.053   0.705   2.116  2.0688 -1.9656  2.4090
 5045SOL    HW226595   2.988   0.651   1.992  1.7308  2.4064  0.4698
 5046SOL     OW26596   2.992   0.904   5.169  0.1685 -0.8006  0.6364
 5046SOL    HW126597   2.929   0.854   5.117  1.4017  1.7785 -3.3305
 5046SOL    HW226598   3.038   0.951   5.100  2.2095 -1.4751  1.5498
 5047SOL     OW26599   2.179   0.079   0.709 -0.2934 -0.0557  0.0440
 5047SOL    HW126600   2.090   0.056   0.735 -0.3526  0.2920  0.1529
 5047SOL    HW226601   2.224   0.078   0.793  2.2532  3.1484 -1.2959
 5048SOL     OW26602   3.243   2.444   5.666  0.0202 -0.1238  0.5837
 5048SOL    HW126603   3.188   2.522   5.659 -0.1380 -0.2310  0.6516
 5048SOL    HW226604   3.322   2.472   5.712  0.9710 -2.8879  0.6316
 5049SOL     OW26605   0.672   2.212   1.289 -0.1555 -0.1473  0.7612
 5049SOL    HW126606   0.681   2.248   1.377  2.6039 -1.7303  1.0904
 5049SOL    HW226607   0.745   2.151   1.279  0.8254  1.4385 -1.9442
 5050SOL     OW26608   0.070   4.137   5.845 -0.2092 -0.1920  0.1811
 5050SOL    HW126609   0.137   4.126   5.913 -0.4949  3.9904  1.1413
 5050SOL    HW226610   0.113   4.158   5.763 -0.3580 -0.8678 -0.0689
 5051SOL     OW26611   0.107   3.193   6.050  0.0301  0.3409 -0.3837
 5051SOL    HW126612   0.153   3.119   6.011 -0.8723 -0.9536  0.9703
 5051SOL    HW226613   0.150   3.189   6.136 -0.0170  0.2943 -0.3620
 5052SOL     OW26614   2.146   2.056   0.782 -0.0190 -0.1217 -0.1670
 5052SOL    HW126615   2.213   2.013   0.835  0.3338  1.5782  0.7706
 5052SOL    HW226616   2.207   2.104   0.726  0.6122 -1.6196 -0.7345
 5053SOL     OW26617   1.892   0.287   8.558 -0.1250  0.1368  0.7787
 5053SOL    HW126618   1.873   0.205   8.512  0.5659 -0.3483  1.3744
 5053SOL    HW226619   1.917   0.253   8.644  1.2318 -0.9172 -0.0275
 5054SOL     OW26620   0.533   3.361   3.248 -0.2631 -0.3826 -0.4389
 5054SOL    HW126621   0.513   3.348   3.155 -0.8367 -0.6375 -0.2823
 5054SOL    HW226622   0.600   3.428   3.251 -0.3982 -0.2727  0.2110
 5055SOL     OW26623   2.946   3.895   1.643  0.0101 -0.2358  0.3095
 5055SOL    HW126624   2.926   3.851   1.561 -0.9160 -1.9991  1.4801
 5055SOL    HW226625   3.041   3.883   1.648 -0.1154 -1.6714 -0.8689
 5056SOL     OW26626   2.931   1.975   8.447 -0.1961 -0.7337  0.1496
 5056SOL    HW126627   2.867   1.965   8.517  1.1275 -0.3038  1.4092
 5056SOL    HW226628   2.979   1.894   8.462  1.9177  0.5922  0.5583
 5057SOL     OW26629   2.592   0.888   7.157 -0.1290  0.1972 -0.3039
 5057SOL    HW126630   2.674   0.842   7.173 -0.4242 -1.4355 -3.3068
 5057SOL    HW226631   2.575   0.933   7.239 -0.2960 -0.6578  0.1339
 5058SOL     OW26632   1.874   2.186   1.965  0.1184 -0.3675 -0.2110
 5058SOL    HW126633   1.960   2.222   1.942  0.8454 -1.7550  0.3813
 5058SOL    HW226634   1.870   2.102   1.919  1.7755 -0.8218  0.5086
 5059SOL     OW26635   0.621   3.135   4.779 -0.3790 -0.4216  0.5111
 5059SOL    HW126636   0.697   3.190   4.796 -0.6794  0.4038 -0.7653
 5059SOL    HW226637   0.555   3.200   4.804 -0.8708  0.0277 -1.9330
 5060SOL     OW26638   2.628   1.888   0.314  0.0298  0.6252  0.1520
 5060SOL    HW126639   2.601   1.840   0.236 -1.2504  0.5359  0.6477
 5060SOL    HW226640   2.718   1.854   0.314 -0.7338 -1.4083 -2.6613
 5061SOL     OW26641   4.716   1.551  17.207 -0.1086  0.0352 -0.0725
 5061SOL    HW126642   4.671   1.622  17.161 -0.9370 -1.2478 -1.2244
 5061SOL    HW226643   0.016   1.499  17.130  2.8560 -1.0508  1.5131
 5062SOL     OW26644   0.481   2.376   5.162 -0.1261  0.2358 -0.2060
 5062SOL    HW126645   0.464   2.294   5.116  0.0842  0.7486 -1.2087
 5062SOL    HW226646   0.492   2.439   5.090 -0.0211  1.3896  0.8159
 5063SOL     OW26647   2.401   3.101   8.927  0.5634 -0.4705  0.5147
 5063SOL    HW126648   2.436   3.012   8.924 -1.5954 -1.2627 -0.9534
 5063SOL    HW226649   2.375   3.119   8.837 -1.0947  0.0896  1.1083
 5064SOL     OW26650   2.580   0.584   6.643  0.2752 -0.4426  0.3371
 5064SOL    HW126651   2.568   0.677   6.623  1.2211 -0.7349 -1.6137
 5064SOL    HW226652   2.631   0.550   6.570  0.1529 -1.0289  0.5297
 5065SOL     OW26653   2.834   3.266   3.238  0.0830  0.5015 -0.0457
 5065SOL    HW126654   2.831   3.185   3.289 -2.0033 -0.6027 -1.8792
 5065SOL    HW226655   2.742   3.285   3.219  0.1370  0.3669 -0.4406
 5066SOL     OW26656   0.778   3.490   8.767 -0.4096  0.2236  0.3422
 5066SOL    HW126657   0.751   3.520   8.853 -2.1234  2.5988 -1.0191
 5066SOL    HW226658   0.860   3.538   8.756  0.7721 -2.1586 -1.2570
 5067SOL     OW26659   3.801   0.571   5.713 -0.0974 -0.5611 -0.0559
 5067SOL    HW126660   3.735   0.550   5.647  1.9947  0.6890 -2.5505
 5067SOL    HW226661   3.845   0.650   5.682  1.4748 -0.4409  2.4263
 5068SOL     OW26662   1.972   2.508   5.674 -0.0057  0.2875 -0.1105
 5068SOL    HW126663   2.011   2.515   5.586 -0.8653  0.5137 -0.4677
 5068SOL    HW226664   2.002   2.590   5.713 -1.6854 -0.7224  3.2391
 5069SOL     OW26665   1.290   1.909   4.122  0.0865  0.4826  0.2331
 5069SOL    HW126666   1.234   1.858   4.181 -0.6366  0.6379 -0.3143
 5069SOL    HW226667   1.297   1.840   4.056  0.5464 -0.9901  1.8368
 5070SOL     OW26668   0.804   3.952   9.675 -0.2134  0.1148 -0.0404
 5070SOL    HW126669   0.843   3.955   9.588 -0.9570  0.7403 -0.3510
 5070SOL    HW226670   0.727   4.008   9.663 -0.3741  0.3669  2.2675
 5071SOL     OW26671   3.659   3.799   9.435  0.0076 -0.4713 -0.0128
 5071SOL    HW126672   3.736   3.755   9.400 -0.2095  0.3892 -1.5547
 5071SOL    HW226673   3.601   3.829   9.365 -0.1935 -0.3714  0.1958
 5072SOL     OW26674   2.186   3.665   9.488  0.6425  0.1390 -0.2124
 5072SOL    HW126675   2.210   3.588   9.539 -0.3312 -0.0063  0.0326
 5072SOL    HW226676   2.278   3.688   9.474  1.5063 -1.8908  2.1129
 5073SOL     OW26677   0.587   0.267   6.794 -0.6180 -0.3742 -0.2089
 5073SOL    HW126678   0.549   0.235   6.713 -0.1246 -0.5207 -0.3843
 5073SOL    HW226679   0.672   0.223   6.790 -0.4756 -0.2373  1.0430
 5074SOL     OW26680   3.592   1.790   8.212 -0.3790 -0.5741 -0.1639
 5074SOL    HW126681   3.506   1.829   8.231 -0.4785 -0.8209 -0.1017
 5074SOL    HW226682   3.640   1.832   8.283  0.4618  2.1723 -2.3929
 5075SOL     OW26683   1.970   1.696   7.579  0.2348  0.5027  0.4413
 5075SOL    HW126684   1.903   1.732   7.521 -0.1633  0.9157  1.1566
 5075SOL    HW226685   1.929   1.729   7.659  2.2800  1.2232  1.1779
 5076SOL     OW26686   4.614   4.528   8.905  0.6331 -0.1362 -0.4772
 5076SOL    HW126687   4.620   4.516   8.810 -1.0758  3.3704 -0.9992
 5076SOL    HW226688   4.708   4.529   8.923  0.8204  2.1633 -1.7505
 5077SOL     OW26689   3.775   1.075   6.310  0.6145  0.5195  0.3518
 5077SOL    HW126690   3.790   1.010   6.242 -1.5006  0.8733 -0.4343
 5077SOL    HW226691   3.680   1.085   6.304  0.8006  0.7647 -2.0943
 5078SOL     OW26692   0.682   2.849   1.649  0.1548 -0.0982  0.0059
 5078SOL    HW126693   0.606   2.907   1.652  0.8552  0.6569  2.6697
 5078SOL    HW226694   0.642   2.768   1.618  0.3471 -0.6038  1.0823
 5079SOL     OW26695   4.174   1.026   3.462  0.3175 -0.4463  0.5855
 5079SOL    HW126696   4.186   1.106   3.514  0.7361  1.2122 -2.0329
 5079SOL    HW226697   4.263   0.993   3.455  0.0446 -0.8847 -0.8876
 5080SOL     OW26698   2.097   4.025   7.626 -0.1640 -0.3212 -0.6744
 5080SOL    HW126699   2.073   4.049   7.715  0.6896  3.0233 -1.3574
 5080SOL    HW226700   2.028   3.963   7.604  0.7086 -0.9506 -1.6723
 5081SOL     OW26701   3.299   0.293  12.128  0.4175  0.0607 -0.2865
 5081SOL    HW126702   3.276   0.228  12.061 -0.7939 -0.8562  1.0223
 5081SOL    HW226703   3.261   0.239  12.197  0.3490  1.5803  0.8683
 5082SOL     OW26704   4.334   3.581   2.167  0.5375 -0.1098  0.0482
 5082SOL    HW126705   4.379   3.600   2.084 -1.3697 -0.9639 -1.1937
 5082SOL    HW226706   4.288   3.662   2.188 -0.4044 -0.5731 -0.2292
 5083SOL     OW26707   2.260   4.185  10.429  0.1449  0.1729  0.0846
 5083SOL    HW126708   2.236   4.267  10.387  1.0651  1.0635  1.3147
 5083SOL    HW226709   2.336   4.211  10.481  0.5465 -2.5120  0.8774
 5084SOL     OW26710   2.969   2.922  14.848 -0.4954 -0.1286 -0.2268
 5084SOL    HW126711   2.949   2.952  14.936 -1.8635  0.5413 -0.7534
 5084SOL    HW226712   3.025   2.846  14.861  1.3328  1.4694  1.0488
 5085SOL     OW26713   3.757   0.049   4.905 -0.2266  0.0685  0.4200
 5085SOL    HW126714   3.806   0.125   4.936  1.0101 -0.6397  0.2374
 5085SOL    HW226715   3.729   0.085   4.820  0.7521  1.3840  0.6480
 5086SOL     OW26716   0.034   0.739   3.519  0.3907  0.3867 -0.3600
 5086SOL    HW126717   0.041   0.683   3.595 -2.3388 -0.0942 -0.4693
 5086SOL    HW226718   0.068   0.684   3.448 -0.1235 -0.3364 -0.0395
 5087SOL     OW26719   3.390   1.863   2.512  0.2476  0.5838 -0.0765
 5087SOL    HW126720   3.406   1.947   2.470 -0.0003  0.8731  0.4127
 5087SOL    HW226721   3.360   1.898   2.595 -0.0278 -4.1511  1.8091
 5088SOL     OW26722   2.044   2.061   7.646  0.5173  0.2362 -0.5978
 5088SOL    HW126723   1.973   2.069   7.582 -1.4431  1.1876  1.6386
 5088SOL    HW226724   2.003   2.099   7.724  1.8262  3.0607 -1.2906
 5089SOL     OW26725   1.138   1.985   1.608 -0.1037 -0.5951 -0.0984
 5089SOL    HW126726   1.108   2.061   1.660 -0.5894 -0.7626 -0.1357
 5089SOL    HW226727   1.067   1.922   1.622  0.4740 -1.1334  0.4281
 5090SOL     OW26728   4.578   1.657   7.462  0.7949 -0.1395 -0.0556
 5090SOL    HW126729   4.654   1.696   7.504  0.8883 -1.1439  0.7181
 5090SOL    HW226730   4.625   1.581   7.426 -0.6522 -0.5706 -1.0474
 5091SOL     OW26731   1.437   1.352   5.104 -0.0930 -0.3565  0.3481
 5091SOL    HW126732   1.352   1.317   5.128 -1.4963  0.4969 -3.3810
 5091SOL    HW226733   1.458   1.420   5.168 -1.0420 -1.9822  2.3761
 5092SOL     OW26734   1.287   0.504   7.496  0.0295 -0.4449  0.1459
 5092SOL    HW126735   1.303   0.414   7.469 -1.6839 -0.9565  0.8343
 5092SOL    HW226736   1.370   0.535   7.533 -0.8841  1.3303  0.7209
 5093SOL     OW26737   0.619   3.656   3.058  0.5299  0.1229 -0.2719
 5093SOL    HW126738   0.704   3.642   3.100 -0.3703 -1.1945  1.1108
 5093SOL    HW226739   0.611   3.584   2.996  1.0869 -1.1587  1.1570
 5094SOL     OW26740   4.275   2.468   2.948  0.2361  0.7001  0.0571
 5094SOL    HW126741   4.324   2.402   2.997  0.7014  0.8458 -0.2181
 5094SOL    HW226742   4.249   2.525   3.021  2.7206  0.5848  1.0398
 5095SOL     OW26743   4.498   3.323   0.651 -0.2343 -0.1112 -0.2002
 5095SOL    HW126744   4.512   3.229   0.641 -0.1812  0.0921 -1.9949
 5095SOL    HW226745   4.584   3.363   0.636 -0.1013  1.0914  3.8519
 5096SOL     OW26746   0.286   1.902   6.426  0.1222  0.8655 -0.3103
 5096SOL    HW126747   0.224   1.875   6.494  2.0783  2.5330  2.1424
 5096SOL    HW226748   0.253   1.979   6.379 -0.7292  1.2753  0.9383
 5097SOL     OW26749   1.315   0.020   2.176  0.4093  0.3563 -0.5080
 5097SOL    HW126750   1.405   0.028   2.210  0.0432  2.0109  0.0415
 5097SOL    HW226751   1.325   4.665   2.119 -0.0966  1.2301 -1.7649
 5098SOL     OW26752   0.126   3.425   5.920  0.8267  0.1381 -0.4628
 5098SOL    HW126753   0.121   3.337   5.958  0.9110  0.2945 -0.0922
 5098SOL    HW226754   0.216   3.456   5.935  0.2378  1.3187  0.5185
 5099SOL     OW26755   1.998   3.400   3.962  0.1603 -0.2299 -0.0782
 5099SOL    HW126756   2.005   3.475   3.902 -0.8179  0.7382  1.0079
 5099SOL    HW226757   2.037   3.448   4.035  0.2908 -2.8967  1.5738
 5100SOL     OW26758   2.324   0.457   1.770  0.1826  0.1831  0.3388
 5100SOL    HW126759   2.342   0.510   1.692 -0.0279  1.7080  1.3247
 5100SOL    HW226760   2.388   0.499   1.827 -2.0082  2.7361  0.9307
 5101SOL     OW26761   2.220   1.749   7.410  0.6094  0.2643 -0.2158
 5101SOL    HW126762   2.210   1.764   7.504 -0.4090  1.2486 -0.4735
 5101SOL    HW226763   2.169   1.819   7.369  1.1774  1.0274  0.3677
 5102SOL     OW26764   0.255   0.806   6.590  0.3490 -0.4313  0.8964
 5102SOL    HW126765   0.252   0.762   6.504  0.7479  1.1062  0.0965
 5102SOL    HW226766   0.168   0.847   6.589  1.4319  1.8457 -0.7213
 5103SOL     OW26767   3.307   1.618  15.440 -0.1755  0.3694 -0.0490
 5103SOL    HW126768   3.264   1.703  15.430  1.3304  1.0093 -1.1781
 5103SOL    HW226769   3.248   1.568  15.496 -1.3526  0.4416 -1.2338
 5104SOL     OW26770   3.193   3.461   3.577  0.0725 -0.2665  0.2756
 5104SOL    HW126771   3.149   3.439   3.659 -0.1844 -1.2497 -0.1273
 5104SOL    HW226772   3.213   3.374   3.541 -0.6993  0.7500 -2.5922
 5105SOL     OW26773   2.355   4.549   2.569 -0.0477  0.8150  0.0835
 5105SOL    HW126774   2.440   4.508   2.552  0.2678  0.5017  2.4564
 5105SOL    HW226775   2.290   4.496   2.525 -0.1737  0.8956  0.1731
 5106SOL     OW26776   4.714   4.301   7.216 -0.6784 -0.4051  0.1603
 5106SOL    HW126777   4.663   4.340   7.288 -2.3072  0.4001 -1.4262
 5106SOL    HW226778   0.021   4.385   7.181  1.3266 -0.5237  1.5337
 5107SOL     OW26779   2.616   0.497  10.799  0.0506  0.3252  0.5715
 5107SOL    HW126780   2.619   0.553  10.876  1.2866  3.0096 -1.4097
 5107SOL    HW226781   2.628   0.558  10.725 -3.3204  2.0299  1.4155
 5108SOL     OW26782   1.254   1.843   7.676  0.5513 -0.3749 -0.1886
 5108SOL    HW126783   1.298   1.769   7.633 -1.7463 -1.8359 -0.0092
 5108SOL    HW226784   1.299   1.823   7.758  2.4691  2.2620 -0.5897
 5109SOL     OW26785   2.319   2.329   2.301  0.0327  0.0954  0.2970
 5109SOL    HW126786   2.345   2.421   2.298 -2.0977  0.6616 -0.5549
 5109SOL    HW226787   2.224   2.335   2.308  0.1795  1.0165  1.4088
 5110SOL     OW26788   4.071   2.692   5.253  0.0924 -0.0957 -0.2663
 5110SOL    HW126789   4.109   2.780   5.248  0.1669 -0.0328  1.3141
 5110SOL    HW226790   4.111   2.654   5.331 -1.3378 -1.7042 -0.3190
 5111SOL     OW26791   1.951   1.937   4.867 -0.2359  0.0691 -0.4261
 5111SOL    HW126792   1.860   1.964   4.850 -0.6078 -0.0840  1.3764
 5111SOL    HW226793   1.935   1.843   4.878  1.5647 -0.1149  0.6672
 5112SOL     OW26794   3.279   0.062   7.557 -0.5540  0.1036  0.4422
 5112SOL    HW126795   3.187   0.035   7.553 -0.5248 -0.0179  0.6005
 5112SOL    HW226796   3.301   0.018   7.639  2.0263 -1.1180 -0.8960
 5113SOL     OW26797   3.450   1.870  15.230 -0.0760 -0.0998 -0.2321
 5113SOL    HW126798   3.457   1.962  15.206 -1.2543 -0.0140 -0.2342
 5113SOL    HW226799   3.527   1.861  15.286  1.0120  0.6870 -1.6024
 5114SOL     OW26800   2.200   3.711   7.176  0.7588 -0.1491 -0.8232
 5114SOL    HW126801   2.189   3.714   7.271 -1.2342 -1.2114 -1.0351
 5114SOL    HW226802   2.285   3.668   7.163  0.0685 -2.0389  1.0118
 5115SOL     OW26803   3.349   3.838   5.259 -0.1448  0.3448 -0.1482
 5115SOL    HW126804   3.291   3.777   5.214  0.1266 -0.6244  0.8205
 5115SOL    HW226805   3.313   3.850   5.348 -1.3065  0.3777 -0.6199
 5116SOL     OW26806   1.517   3.385   2.430 -0.4951 -0.1623 -0.2497
 5116SOL    HW126807   1.606   3.355   2.448  1.0082  3.6817 -1.2342
 5116SOL    HW226808   1.465   3.305   2.430 -0.8395  0.0593 -1.2092
 5117SOL     OW26809   1.506   1.764   2.672  0.2282 -0.5767  0.4035
 5117SOL    HW126810   1.550   1.681   2.652 -0.5145 -0.6198 -1.0626
 5117SOL    HW226811   1.414   1.740   2.662  0.2643 -1.4865  2.3437
 5118SOL     OW26812   0.677   0.042   2.258  0.3862  0.2251 -0.4137
 5118SOL    HW126813   0.700   0.104   2.189  0.3092  1.3185  0.5497
 5118SOL    HW226814   0.759   4.715   2.247  1.3851  1.9458 -0.6764
 5119SOL     OW26815   3.748   3.559   7.990  0.8488  0.0595 -0.0785
 5119SOL    HW126816   3.840   3.539   8.008  0.4547 -1.2154  0.5709
 5119SOL    HW226817   3.721   3.594   8.075  0.3799 -1.6863  0.5065
 5120SOL     OW26818   1.275   1.108   8.452  0.3211  0.0274  0.6353
 5120SOL    HW126819   1.225   1.038   8.410 -3.3596  3.4430 -0.6134
 5120SOL    HW226820   1.349   1.060   8.489  0.2732  0.6705  1.5560
 5121SOL     OW26821   4.018   2.002  13.616  0.0129  0.3958 -0.1925
 5121SOL    HW126822   4.062   2.028  13.535 -0.5455 -1.1566 -1.0077
 5121SOL    HW226823   3.937   1.967  13.578  0.1111 -0.4686  0.3984
 5122SOL     OW26824   4.360   2.898  13.056  0.0414 -0.6449  0.4386
 5122SOL    HW126825   4.333   2.883  12.966  0.5474  0.5192  0.0866
 5122SOL    HW226826   4.433   2.960  13.051 -0.6212  0.1452  0.4802
 5123SOL     OW26827   4.115   4.173   7.826 -0.1519  0.1206  0.5631
 5123SOL    HW126828   4.082   4.141   7.910 -0.8879  0.6265  0.4600
 5123SOL    HW226829   4.209   4.171   7.844  0.2368  0.5818 -1.5014
 5124SOL     OW26830   2.309   3.393   6.757 -0.1403  0.0999 -0.0914
 5124SOL    HW126831   2.333   3.318   6.702 -3.2160  0.2564 -1.7018
 5124SOL    HW226832   2.250   3.438   6.696 -0.3814  1.6154  1.2486
 5125SOL     OW26833   2.159   2.064   9.177 -0.9069  0.8354 -0.0794
 5125SOL    HW126834   2.148   2.094   9.087 -1.1879 -0.9082 -0.6132
 5125SOL    HW226835   2.068   2.068   9.206 -1.3784 -0.3993 -1.4348
 5126SOL     OW26836   2.965   0.551   6.370 -0.0115  0.0478  0.0902
 5126SOL    HW126837   3.059   0.535   6.360  0.1637  1.0361  0.2075
 5126SOL    HW226838   2.952   0.645   6.366  0.3918  0.1769  1.8326
 5127SOL     OW26839   0.368   2.058   9.810 -0.1131  0.2409  0.1965
 5127SOL    HW126840   0.413   2.090   9.889 -1.0770 -2.0163  1.6445
 5127SOL    HW226841   0.279   2.063   9.844 -0.4999 -1.0312 -0.6479
 5128SOL     OW26842   1.472   0.928   8.572 -0.6321 -0.1668  0.2192
 5128SOL    HW126843   1.451   0.858   8.635 -3.8087 -1.1290 -1.8901
 5128SOL    HW226844   1.545   0.971   8.616  1.1382 -1.3076 -1.6179
 5129SOL     OW26845   0.050   4.385   4.195  0.0945 -0.2278  0.2029
 5129SOL    HW126846   0.069   4.426   4.110  0.0982 -0.9007 -0.1207
 5129SOL    HW226847   4.691   4.430   4.220  1.1523  0.6301  2.0608
 5130SOL     OW26848   4.197   0.574  14.272  0.4806 -0.5687 -0.1662
 5130SOL    HW126849   4.192   0.568  14.177  1.7036  0.6437 -0.3139
 5130SOL    HW226850   4.173   0.484  14.295 -0.1355 -0.8381 -1.9229
 5131SOL     OW26851   0.693   0.767   6.805  0.0305  0.1827  0.2998
 5131SOL    HW126852   0.638   0.795   6.732 -0.7340 -0.1729  0.7412
 5131SOL    HW226853   0.723   0.846   6.849  1.7491  0.0749 -0.6802
 5132SOL     OW26854   3.078   0.340   7.257  0.2994  0.4849 -0.1351
 5132SOL    HW126855   3.004   0.315   7.202 -0.2930  0.5267  0.6389
 5132SOL    HW226856   3.028   0.335   7.338  0.2871 -0.8887 -0.2327
 5133SOL     OW26857   2.128   2.234   2.664 -0.0130  0.1068 -0.4340
 5133SOL    HW126858   2.170   2.148   2.658  0.4841  0.3040  0.1883
 5133SOL    HW226859   2.044   2.196   2.690  0.7530 -1.4578 -0.2420
 5134SOL     OW26860   0.008   0.124   5.659  0.2923 -0.0642 -0.0702
 5134SOL    HW126861   0.018   0.111   5.565  3.2661  1.0953  0.1113
 5134SOL    HW226862   4.693   0.211   5.671  0.9295  0.0669  0.9759
 5135SOL     OW26863   2.274   4.719  10.833 -0.7150 -0.5105  0.5205
 5135SOL    HW126864   2.224   4.700  10.754 -0.5189  1.8608 -0.1789
 5135SOL    HW226865   2.295   4.636  10.875  0.9531 -1.5966 -2.4505
 5136SOL     OW26866   1.866   1.148  10.606 -0.3111 -0.5206  0.0116
 5136SOL    HW126867   1.897   1.222  10.555 -0.1833 -0.4135  0.2475
 5136SOL    HW226868   1.876   1.184  10.694  0.0944 -2.5286  0.7991
 5137SOL     OW26869   1.438   0.135   1.173  0.3375 -0.4771  0.0086
 5137SOL    HW126870   1.508   0.077   1.201 -0.0385 -0.8512  0.1772
 5137SOL    HW226871   1.467   0.222   1.199 -1.4596  0.0316  0.3039
 5138SOL     OW26872   0.581   1.616   6.227 -0.3179 -0.1613  0.0616
 5138SOL    HW126873   0.603   1.524   6.237  2.2894  0.8885  4.1596
 5138SOL    HW226874   0.500   1.624   6.278  0.6678 -0.5609  1.7009
 5139SOL     OW26875   3.870   0.359  10.672  0.3248 -0.4566 -0.1367
 5139SOL    HW126876   3.916   0.382  10.591  0.9267  0.0755  0.3600
 5139SOL    HW226877   3.780   0.337  10.648 -0.0377 -2.5400  3.0885
 5140SOL     OW26878   0.073   1.423   0.957 -0.7096  0.0634 -0.6188
 5140SOL    HW126879   0.060   1.455   1.046  2.0050 -0.6910  0.0502
 5140SOL    HW226880   0.065   1.329   0.970 -0.2613  0.1772  0.4941
 5141SOL     OW26881   1.154   0.467  14.693  0.2520  0.0011 -0.1577
 5141SOL    HW126882   1.201   0.400  14.642 -0.2088  0.1336 -0.7617
 5141SOL    HW226883   1.062   0.443  14.682  0.9653 -1.7592 -2.3874
 5142SOL     OW26884   3.553   1.331   6.838  0.3586  0.4605  0.3460
 5142SOL    HW126885   3.635   1.381   6.835  0.3502  0.4696  0.2660
 5142SOL    HW226886   3.591   1.243   6.842  1.2952  0.8251 -0.4222
 5143SOL     OW26887   2.783   0.137   4.541  0.5781  0.1068  0.1346
 5143SOL    HW126888   2.871   0.171   4.557  0.6516  1.3152 -2.6889
 5143SOL    HW226889   2.807   0.064   4.484  1.9850 -0.0457  0.9253
 5144SOL     OW26890   4.213   2.072   7.033 -0.2843  0.2939  0.2462
 5144SOL    HW126891   4.298   2.100   7.067  0.1603 -0.8437  0.0762
 5144SOL    HW226892   4.194   2.140   6.968  0.0980  2.3606  2.2866
 5145SOL     OW26893   3.012   1.071   5.409  0.3321 -0.5930 -0.0805
 5145SOL    HW126894   3.046   1.038   5.326  1.0176  0.3643 -0.1826
 5145SOL    HW226895   2.992   1.162   5.387  1.0839 -0.3057  0.4115
 5146SOL     OW26896   0.129   1.644   3.831  0.2426  0.1174 -0.5092
 5146SOL    HW126897   0.124   1.711   3.763 -1.6382  0.4215 -0.0760
 5146SOL    HW226898   0.222   1.622   3.834  0.0945 -0.6020 -0.9911
 5147SOL     OW26899   1.667   2.866   1.442  0.0377  0.5410 -0.7253
 5147SOL    HW126900   1.622   2.940   1.402  0.5046 -0.6022 -3.3104
 5147SOL    HW226901   1.619   2.868   1.525  0.1128  0.8852 -0.6890
 5148SOL     OW26902   2.217   0.981  14.694 -0.1663  0.1208  0.1547
 5148SOL    HW126903   2.196   0.991  14.787  1.8559  1.9445  0.4044
 5148SOL    HW226904   2.267   0.900  14.701  1.9757  1.4670  0.6077
 5149SOL     OW26905   0.519   3.916  17.548  0.4449 -0.3695 -0.2802
 5149SOL    HW126906   0.564   3.866  17.616 -0.0675 -1.2516 -0.5843
 5149SOL    HW226907   0.538   3.854  17.478 -0.0146 -0.9414  0.0971
 5150SOL     OW26908   4.081   1.801   3.759  0.6071 -0.3277  0.9195
 5150SOL    HW126909   4.107   1.778   3.670 -0.9705 -0.2377  0.4330
 5150SOL    HW226910   4.056   1.719   3.801  3.0634 -0.7202  1.6143
 5151SOL     OW26911   1.296   2.635   4.203  0.6516  0.4981 -0.1074
 5151SOL    HW126912   1.233   2.690   4.249 -0.0686  0.3899 -0.9668
 5151SOL    HW226913   1.234   2.607   4.136  0.3309 -3.3197  1.8060
 5152SOL     OW26914   0.304   1.214  13.880  0.2164  0.4089 -0.1235
 5152SOL    HW126915   0.218   1.206  13.839 -0.0133 -1.9208  0.8134
 5152SOL    HW226916   0.333   1.123  13.888  0.8152  0.6622  0.6135
 5153SOL     OW26917   4.564   3.869   7.879 -0.0603 -0.1167 -0.0139
 5153SOL    HW126918   4.577   3.866   7.784  0.9970 -1.6201  0.1803
 5153SOL    HW226919   4.651   3.843   7.911  0.0997 -1.0154 -1.1553
 5154SOL     OW26920   1.155   2.791   6.554 -0.4193 -0.3964 -0.0884
 5154SOL    HW126921   1.150   2.870   6.500  1.2314 -1.0841 -1.2225
 5154SOL    HW226922   1.195   2.817   6.636 -1.9270  1.1640  0.1396
 5155SOL     OW26923   1.390   4.110   5.331  0.0563 -1.1687 -0.3008
 5155SOL    HW126924   1.318   4.149   5.280  0.0310  1.6016  1.8509
 5155SOL    HW226925   1.442   4.190   5.338 -0.7486 -0.5939 -0.7742
 5156SOL     OW26926   0.637   4.685   1.844  0.4335 -0.0244 -0.0115
 5156SOL    HW126927   0.654   4.696   1.750 -1.2997  0.2635 -0.2934
 5156SOL    HW226928   0.686   4.606   1.865  0.2307 -0.3382 -0.7177
 5157SOL     OW26929   1.271   3.111  10.127 -0.4674  0.8120  0.3112
 5157SOL    HW126930   1.196   3.136  10.180  0.7778  0.0658  2.4436
 5157SOL    HW226931   1.335   3.171  10.167  0.0532  0.9055 -0.6506
 5158SOL     OW26932   2.380   3.685   6.420 -0.6660  0.0895 -0.4410
 5158SOL    HW126933   2.430   3.762   6.448 -2.1915  1.8563 -2.4857
 5158SOL    HW226934   2.326   3.670   6.497  0.0640 -0.9972 -0.1540
 5159SOL     OW26935   1.644   4.595   3.595  0.5483 -0.2774  0.0945
 5159SOL    HW126936   1.733   4.572   3.565 -0.7314 -1.4060 -2.8519
 5159SOL    HW226937   1.641   4.687   3.569 -2.1722 -0.1358  0.9241
 5160SOL     OW26938   2.499   3.463   4.444 -0.2567  0.1897 -0.1743
 5160SOL    HW126939   2.437   3.395   4.468 -0.8272 -0.0946 -2.4196
 5160SOL    HW226940   2.448   3.542   4.423 -0.5700 -0.2815 -1.1781
 5161SOL     OW26941   4.601   4.682   4.830 -0.0619 -0.4169  0.4408
 5161SOL    HW126942   4.518   4.653   4.794  0.0881  1.8129 -1.6963
 5161SOL    HW226943   4.597   4.629   4.910  0.5654 -0.8377  0.1938
 5162SOL     OW26944   2.309   0.750   2.021 -0.1920 -0.3185 -0.0543
 5162SOL    HW126945   2.247   0.822   2.006  3.1639  2.7330  0.8207
 5162SOL    HW226946   2.358   0.741   1.939  0.2103 -2.3115  0.4229
 5163SOL     OW26947   2.922   3.588   2.946  0.1926  0.0357 -0.1209
 5163SOL    HW126948   2.949   3.521   3.009  1.5105  1.0729  0.4137
 5163SOL    HW226949   2.833   3.562   2.924  0.0106  0.0867  0.5472
 5164SOL     OW26950   3.228   0.911   7.171 -0.3557  0.2525  0.3390
 5164SOL    HW126951   3.134   0.903   7.154 -0.1117 -1.1015 -0.3462
 5164SOL    HW226952   3.233   1.006   7.181  0.8395  0.1499  0.6430
 5165SOL     OW26953   1.831   1.712   3.422  0.4055  0.7374 -0.3451
 5165SOL    HW126954   1.869   1.800   3.412  1.9090  0.1623  0.2201
 5165SOL    HW226955   1.883   1.653   3.367  1.1327  1.5945 -0.5846
 5166SOL     OW26956   0.405   0.938  17.124  0.0984 -0.0731  0.5336
 5166SOL    HW126957   0.366   0.978  17.202  0.1255 -2.2476  1.6623
 5166SOL    HW226958   0.404   1.014  17.066 -1.2802 -1.4389 -1.2280
 5167SOL     OW26959   0.736   0.989   6.525 -0.2974 -0.4615 -0.4676
 5167SOL    HW126960   0.770   1.063   6.575 -0.2074 -2.8131  2.9211
 5167SOL    HW226961   0.669   0.960   6.587  0.5049  1.3951  1.2832
 5168SOL     OW26962   3.441   0.081   8.288  0.0096  0.0944  0.6290
 5168SOL    HW126963   3.491   0.032   8.353 -0.3598  0.9493  1.5490
 5168SOL    HW226964   3.482   0.167   8.289  2.4467 -1.0476 -0.8054
 5169SOL     OW26965   2.868   3.393   3.510 -0.2230 -0.6499 -0.4770
 5169SOL    HW126966   2.890   3.380   3.418  3.1747 -1.1380  0.3988
 5169SOL    HW226967   2.931   3.335   3.554  0.2905  0.5148  0.3201
 5170SOL     OW26968   3.477   4.191   9.114 -0.2220 -0.4421 -0.0362
 5170SOL    HW126969   3.518   4.270   9.149  0.1732 -0.9662  0.6947
 5170SOL    HW226970   3.530   4.125   9.159  0.1232 -1.2278 -1.5834
 5171SOL     OW26971   1.249   0.636  16.525 -0.3031  0.0465 -0.2073
 5171SOL    HW126972   1.302   0.584  16.586 -1.1953  0.3947  0.8778
 5171SOL    HW226973   1.178   0.572  16.515 -0.7411  0.9095 -2.5913
 5172SOL     OW26974   4.331   4.506   1.954  0.0115  0.3038  0.3493
 5172SOL    HW126975   4.384   4.585   1.951  0.4165  0.0228  0.1598
 5172SOL    HW226976   4.248   4.541   1.920  0.6888  0.6873 -0.9085
 5173SOL     OW26977   1.322   4.605   8.515 -0.1081  0.6333 -0.1635
 5173SOL    HW126978   1.308   4.696   8.488  1.5833  2.1799  4.2553
 5173SOL    HW226979   1.267   4.597   8.592  0.8479  0.2646  0.4713
 5174SOL     OW26980   3.058   3.489  16.712 -0.3401  0.0430  0.1909
 5174SOL    HW126981   3.152   3.475  16.715 -0.0250  2.3820  1.4098
 5174SOL    HW226982   3.042   3.543  16.789 -1.1284 -1.9540  1.4332
 5175SOL     OW26983   1.709   1.197  11.097 -0.8929 -0.0896 -0.5522
 5175SOL    HW126984   1.670   1.149  11.024 -0.9738  1.4041 -1.5010
 5175SOL    HW226985   1.676   1.143  11.168  0.1132  0.2126  0.1428
 5176SOL     OW26986   2.769   0.574   1.718  0.0982  0.0878  0.3030
 5176SOL    HW126987   2.826   0.497   1.724 -1.3315 -1.2901 -3.4061
 5176SOL    HW226988   2.799   0.609   1.635  0.8954  1.9160  1.3746
 5177SOL     OW26989   2.878   2.096   6.616  0.3753 -0.0621 -0.3098
 5177SOL    HW126990   2.923   2.180   6.627  0.9047 -0.6896  2.2502
 5177SOL    HW226991   2.875   2.055   6.702  0.1552  0.8868  0.1375
 5178SOL     OW26992   2.682   4.254   8.560 -0.1255 -0.2966  0.3665
 5178SOL    HW126993   2.693   4.342   8.525  0.0516 -0.7430 -0.7076
 5178SOL    HW226994   2.606   4.221   8.511 -0.6024 -0.2479  1.0703
 5179SOL     OW26995   0.337   3.763   2.748  0.3157  0.4350  0.1984
 5179SOL    HW126996   0.244   3.744   2.737  0.1046  1.4140  0.3163
 5179SOL    HW226997   0.348   3.849   2.708  0.3971  0.7891  0.9767
 5180SOL     OW26998   0.677   1.465   2.003 -0.8751  0.4733 -0.7568
 5180SOL    HW126999   0.595   1.424   1.974 -0.4873 -1.0112  0.2509
 5180SOL    HW227000   0.637   1.545   2.037 -1.8177  0.3086 -1.4598
 5181SOL     OW27001   4.012   3.297   3.676 -0.4196 -0.2603  0.0766
 5181SOL    HW127002   3.967   3.216   3.699 -2.3887  0.3386 -1.6079
 5181SOL    HW227003   3.946   3.326   3.613  0.8488 -0.0033 -1.1461
 5182SOL     OW27004   1.157   0.600  10.637 -0.3851 -0.4664  0.0522
 5182SOL    HW127005   1.125   0.568  10.721 -0.3579  0.4259  0.4095
 5182SOL    HW227006   1.077   0.579  10.589 -0.8501  1.4019  0.0057
 5183SOL     OW27007   0.362   0.219   7.346 -0.4380 -0.7013  0.0772
 5183SOL    HW127008   0.384   0.140   7.396 -0.6718  0.1519  1.5427
 5183SOL    HW227009   0.423   0.223   7.273  0.5712 -0.6372  0.9283
 5184SOL     OW27010   3.438   0.392   0.406  0.1207  0.6645  0.0068
 5184SOL    HW127011   3.392   0.430   0.331  0.0365  1.9651  0.7277
 5184SOL    HW227012   3.421   0.449   0.480  0.0052  1.4147 -0.5931
 5185SOL     OW27013   3.650   3.517   5.813 -0.0695 -0.2713  0.0955
 5185SOL    HW127014   3.574   3.576   5.817 -0.0631 -0.2692  0.1772
 5185SOL    HW227015   3.694   3.553   5.736  0.4082  0.8176  0.8757
 5186SOL     OW27016   0.545   2.442   6.840 -0.2210 -0.0575 -0.0306
 5186SOL    HW127017   0.627   2.484   6.814 -0.2961 -0.6442 -1.1834
 5186SOL    HW227018   0.555   2.419   6.933 -0.9563  0.7388  0.2426
 5187SOL     OW27019   3.508   1.248   0.905  0.0969 -0.1918  0.6008
 5187SOL    HW127020   3.580   1.259   0.968  1.2358  0.3942 -0.7890
 5187SOL    HW227021   3.501   1.153   0.914 -2.1920 -0.1356 -0.7715
 5188SOL     OW27022   3.800   0.692   6.884 -0.0714 -0.5652  0.2164
 5188SOL    HW127023   3.887   0.703   6.922  1.0212 -2.3005 -1.8138
 5188SOL    HW227024   3.784   0.784   6.861 -1.8199 -1.1824 -0.9369
 5189SOL     OW27025   4.210   4.498   7.493  0.8167  0.1303 -0.1333
 5189SOL    HW127026   4.203   4.593   7.499  1.2484  0.1118  0.6198
 5189SOL    HW227027   4.150   4.461   7.557 -0.0217  1.0135 -0.4158
 5190SOL     OW27028   3.673   3.757   4.015  0.2336  0.0350 -0.7311
 5190SOL    HW127029   3.629   3.840   4.032 -0.0514 -0.2798  0.0490
 5190SOL    HW227030   3.720   3.778   3.934  1.1746 -2.6458 -0.8724
 5191SOL     OW27031   2.273   3.620   4.749 -0.0907 -0.0312  0.2350
 5191SOL    HW127032   2.278   3.715   4.737  3.0436  0.1694  2.9554
 5191SOL    HW227033   2.301   3.622   4.841  0.8399  0.1473 -0.0557
 5192SOL     OW27034   3.558   1.377   6.009 -0.1098  0.3154 -0.2092
 5192SOL    HW127035   3.619   1.451   6.002  0.0615  0.2049  0.1068
 5192SOL    HW227036   3.525   1.408   6.094 -3.2494  2.4262 -2.1785
 5193SOL     OW27037   3.220   0.437   3.030  0.0319 -0.1042  0.1570
 5193SOL    HW127038   3.279   0.478   3.093 -1.1601  2.1954 -0.2255
 5193SOL    HW227039   3.139   0.484   3.051 -0.2147 -0.7294  0.6004
 5194SOL     OW27040   2.166   0.638   9.205 -0.4194 -0.2865  0.4100
 5194SOL    HW127041   2.218   0.702   9.157 -0.4197 -0.3865  0.2759
 5194SOL    HW227042   2.221   0.631   9.283 -0.2111 -3.8371 -0.0681
 5195SOL     OW27043   0.887   0.654   6.236 -0.0060 -0.5068 -0.0515
 5195SOL    HW127044   0.841   0.570   6.241 -0.5607 -0.2230 -0.4452
 5195SOL    HW227045   0.924   0.665   6.324 -2.1387 -1.3073  0.9249
 5196SOL     OW27046   1.950   3.876   7.226 -0.7804 -0.3510  0.4977
 5196SOL    HW127047   2.021   3.817   7.251 -2.0395 -1.1236  2.2767
 5196SOL    HW227048   1.881   3.846   7.286 -3.4353  0.9411 -1.9336
 5197SOL     OW27049   4.277   0.653   4.473 -0.8435  0.3111  0.2817
 5197SOL    HW127050   4.336   0.720   4.507 -0.6798 -0.7767  2.1299
 5197SOL    HW227051   4.345   0.593   4.441 -2.0357 -1.3878  0.9097
 5198SOL     OW27052   1.039   1.880   8.028 -0.1126  0.2173  0.2146
 5198SOL    HW127053   1.081   1.803   8.066 -0.9543  0.5216  1.7391
 5198SOL    HW227054   1.111   1.944   8.032 -0.7692  1.0365 -1.1268
 5199SOL     OW27055   0.888   0.422   3.988 -0.0462 -0.3868 -0.0179
 5199SOL    HW127056   0.899   0.508   3.947 -1.1686 -1.1765 -2.0002
 5199SOL    HW227057   0.858   0.448   4.075 -1.5079  0.9221 -0.9164
 5200SOL     OW27058   4.118   4.477   9.473  0.0573 -0.3771  0.3021
 5200SOL    HW127059   4.085   4.565   9.488 -0.1807  0.0568 -2.8548
 5200SOL    HW227060   4.211   4.496   9.484  0.0349 -0.3881  0.5167
 5201SOL     OW27061   1.698   2.571   0.783 -0.0691  0.2286 -0.1751
 5201SOL    HW127062   1.693   2.608   0.695 -0.3002  0.0660 -0.2298
 5201SOL    HW227063   1.767   2.505   0.774 -0.4632 -0.3105  0.7868
 5202SOL     OW27064   4.696   3.311   9.190 -0.1405  0.0843  0.6842
 5202SOL    HW127065   4.657   3.398   9.179  0.4274  0.6737  3.1711
 5202SOL    HW227066   4.692   3.282   9.099 -0.9746  0.4385  0.6014
 5203SOL     OW27067   3.065   4.252  14.900 -0.4482  0.6698  0.3181
 5203SOL    HW127068   3.146   4.302  14.899  0.6136 -1.0308  1.9259
 5203SOL    HW227069   3.071   4.227  14.992  0.8215  2.1418  0.6256
 5204SOL     OW27070   4.012   4.140   8.283 -0.3617 -0.0586  0.2836
 5204SOL    HW127071   4.021   4.112   8.192  1.6094  0.3940  0.3395
 5204SOL    HW227072   3.985   4.062   8.332  0.5538 -0.1182  0.6914
 5205SOL     OW27073   3.661   2.835  17.485  0.6211  0.0899 -0.6940
 5205SOL    HW127074   3.704   2.776  17.547  1.9819 -0.8413 -2.5177
 5205SOL    HW227075   3.573   2.846  17.521  0.6500 -0.2966 -0.4988
 5206SOL     OW27076   0.103   1.497   1.783  0.1109  0.3617  0.1817
 5206SOL    HW127077   0.069   1.533   1.701  2.7020 -1.0724 -1.4926
 5206SOL    HW227078   0.115   1.576   1.836 -0.8187  1.0316 -0.6063
 5207SOL     OW27079   4.577   1.884   5.374  0.0797  0.3203 -0.2867
 5207SOL    HW127080   4.570   1.797   5.335  2.7399 -0.2655  0.5346
 5207SOL    HW227081   4.486   1.913   5.384  0.4484  1.2866  0.3453
 5208SOL     OW27082   1.696   2.461   8.118  0.2647 -0.2576  0.4950
 5208SOL    HW127083   1.624   2.451   8.055  2.7140 -1.0715 -2.1968
 5208SOL    HW227084   1.681   2.387   8.176 -0.5798 -0.8154 -0.4291
 5209SOL     OW27085   2.778   2.892   6.081 -0.2845 -0.1633  0.0396
 5209SOL    HW127086   2.786   2.974   6.033 -2.2338 -2.1188 -3.6064
 5209SOL    HW227087   2.696   2.900   6.130 -1.2101 -0.1567 -1.5166
 5210SOL     OW27088   1.203   0.010   5.229 -0.1079 -0.3912 -0.0458
 5210SOL    HW127089   1.114   0.025   5.197 -0.8532 -3.9943  0.4114
 5210SOL    HW227090   1.255   0.022   5.150 -1.2263  1.0937 -0.5681
 5211SOL     OW27091   0.007   0.980   3.802  0.3000  0.2925 -0.3224
 5211SOL    HW127092   4.650   0.929   3.816 -0.5320  1.2566 -1.4521
 5211SOL    HW227093   4.701   1.063   3.764 -3.7443 -1.2320 -0.6135
 5212SOL     OW27094   2.934   4.216  16.301  0.4187 -0.6410 -0.5113
 5212SOL    HW127095   2.984   4.263  16.367  0.9822  0.1377 -1.4861
 5212SOL    HW227096   2.869   4.280  16.271  0.7737 -0.0720 -0.0493
 5213SOL     OW27097   3.325   1.558   4.235 -0.2383  0.0291  0.1926
 5213SOL    HW127098   3.352   1.550   4.326 -1.3012  1.7105  0.6409
 5213SOL    HW227099   3.370   1.478   4.204 -0.6690 -0.3460  0.5427
 5214SOL     OW27100   3.963   1.238   3.168 -0.0294 -0.3676  0.3817
 5214SOL    HW127101   3.870   1.241   3.147  0.0135 -0.3949  0.1926
 5214SOL    HW227102   3.990   1.179   3.098 -0.1189 -0.9371  0.8230
 5215SOL     OW27103   4.623   2.338  15.911  0.4434 -0.0324 -0.6411
 5215SOL    HW127104   4.624   2.351  16.005 -2.4335  0.4814 -0.6846
 5215SOL    HW227105   4.684   2.264  15.902  0.9595  0.2512  0.5136
 5216SOL     OW27106   1.179   2.162  10.877 -0.1312 -0.2814  0.1693
 5216SOL    HW127107   1.104   2.190  10.931  0.9765  2.2293  0.3986
 5216SOL    HW227108   1.127   2.092  10.837 -0.7514 -0.6140  1.5359
 5217SOL     OW27109   3.713   1.450   0.793 -0.4047 -0.4778  0.2618
 5217SOL    HW127110   3.700   1.436   0.887 -1.1327  2.7343  0.6259
 5217SOL    HW227111   3.622   1.458   0.765 -0.5701  0.5524  1.1299
 5218SOL     OW27112   0.143   0.603   4.571  0.0190 -0.0330  0.4974
 5218SOL    HW127113   0.193   0.528   4.540 -1.0351 -0.2681 -0.6535
 5218SOL    HW227114   0.053   0.570   4.574  0.3644 -1.2236 -2.6673
 5219SOL     OW27115   1.510   4.420   2.346 -0.5476 -0.1706  0.1434
 5219SOL    HW127116   1.591   4.374   2.324  0.1298  0.7963  0.6730
 5219SOL    HW227117   1.444   4.374   2.293 -0.0306 -1.6528  0.7861
 5220SOL     OW27118   0.411   3.916   4.754  0.6476 -0.4061  0.0302
 5220SOL    HW127119   0.412   3.985   4.688 -1.3982  0.7352  1.2007
 5220SOL    HW227120   0.496   3.923   4.796  1.5462 -0.1201 -1.8152
 5221SOL     OW27121   0.088   1.825  13.609  0.5324 -0.2289 -0.2774
 5221SOL    HW127122   0.153   1.873  13.558  0.2900  0.3448 -0.0441
 5221SOL    HW227123   0.038   1.772  13.547  2.5072 -0.3339 -1.7957
 5222SOL     OW27124   4.531   1.774   7.000  0.2522 -0.1097 -0.1775
 5222SOL    HW127125   4.604   1.762   6.939  0.9713 -0.2911  0.7271
 5222SOL    HW227126   4.523   1.689   7.044 -2.7099 -0.9530 -2.3512
 5223SOL     OW27127   0.308   1.171   1.903  0.0630 -0.0194 -0.0458
 5223SOL    HW127128   0.325   1.191   1.811 -1.6572 -1.4819 -0.6851
 5223SOL    HW227129   0.223   1.127   1.905 -0.4514  1.0734  1.7421
 5224SOL     OW27130   3.648   4.264   1.039 -0.3615 -0.2670 -0.7571
 5224SOL    HW127131   3.633   4.236   1.130  1.1896 -0.0764 -0.4400
 5224SOL    HW227132   3.586   4.336   1.027  0.7896  1.1210  1.5640
 5225SOL     OW27133   2.521   1.760  11.325  0.3062  0.2101 -0.4551
 5225SOL    HW127134   2.502   1.682  11.272  0.0764  0.5433 -0.8643
 5225SOL    HW227135   2.605   1.790  11.290 -0.0147  0.7152 -0.7897
 5226SOL     OW27136   2.155   1.478   6.776  0.2489  0.3779  0.3593
 5226SOL    HW127137   2.185   1.552   6.830  1.0870  0.9584 -0.9040
 5226SOL    HW227138   2.209   1.480   6.697  0.3201 -0.8486  0.3820
 5227SOL     OW27139   2.372   1.968   0.924  0.1033 -0.0862 -0.7701
 5227SOL    HW127140   2.438   2.033   0.902  0.4612  0.1853  1.1174
 5227SOL    HW227141   2.435   1.896   0.931 -2.1785 -1.9085  0.8525
 5228SOL     OW27142   1.060   2.750   8.773 -0.4108  0.2490  0.1196
 5228SOL    HW127143   1.077   2.661   8.805 -1.1501  0.7147  1.7861
 5228SOL    HW227144   1.145   2.794   8.779 -0.0413 -0.7091  1.8749
 5229SOL     OW27145   1.033   0.956  12.093  0.0766 -0.0580 -0.1237
 5229SOL    HW127146   1.084   0.902  12.153  1.4554 -0.2587 -1.4759
 5229SOL    HW227147   1.016   0.897  12.020  0.0478  1.6140 -1.4888
 5230SOL     OW27148   0.983   4.199   8.672  0.1299  0.5180  0.4709
 5230SOL    HW127149   1.066   4.203   8.624 -0.1525  0.0813 -0.0549
 5230SOL    HW227150   0.994   4.108   8.701  2.0924  0.8448  0.7524
 5231SOL     OW27151   1.348   3.708   2.262  0.2179 -0.1379 -0.0021
 5231SOL    HW127152   1.422   3.761   2.233 -0.6066  1.3339  0.5839
 5231SOL    HW227153   1.280   3.756   2.214  0.1101  0.4096  0.7111
 5232SOL     OW27154   0.296   1.131   7.738  0.2318 -0.3796 -0.4458
 5232SOL    HW127155   0.328   1.220   7.724  2.4928 -0.4901  4.0036
 5232SOL    HW227156   0.274   1.129   7.831  1.4800  1.1431 -0.1336
 5233SOL     OW27157   3.899   1.980   4.737 -0.2480 -0.2379 -0.2264
 5233SOL    HW127158   3.980   2.031   4.740 -1.0681  1.0704  0.0888
 5233SOL    HW227159   3.875   1.978   4.829 -1.9738 -0.0937 -0.6566
 5234SOL     OW27160   2.092   0.041   4.572  0.1379 -0.1434  0.2025
 5234SOL    HW127161   2.025   4.697   4.554  0.6098 -0.8409  1.0229
 5234SOL    HW227162   2.104   0.087   4.489  0.3641 -0.7448 -0.0988
 5235SOL     OW27163   0.342   2.924   2.392 -0.2193 -0.2693 -0.1048
 5235SOL    HW127164   0.416   2.915   2.332 -0.7313 -0.5678 -0.6910
 5235SOL    HW227165   0.269   2.895   2.337  0.8527 -4.0155  0.5015
 5236SOL     OW27166   3.863   3.684   6.138 -0.2800  0.2452 -0.0310
 5236SOL    HW127167   3.776   3.715   6.114  0.3576  1.1230 -1.2082
 5236SOL    HW227168   3.850   3.627   6.214 -1.1466  0.5450  0.0465
 5237SOL     OW27169   2.119   1.943   5.540  0.1427 -0.4869  0.6629
 5237SOL    HW127170   2.132   1.939   5.445 -0.8885  0.4048  0.4808
 5237SOL    HW227171   2.080   2.030   5.552 -0.0587 -0.6894  1.4943
 5238SOL     OW27172   3.332   1.942   5.240  0.5891 -0.0128 -0.3509
 5238SOL    HW127173   3.301   1.939   5.150 -0.3842 -0.8977  0.0210
 5238SOL    HW227174   3.334   2.034   5.268 -1.2349  0.3934 -1.5942
 5239SOL     OW27175   1.698   4.306   7.844  0.0130  0.4632 -0.5253
 5239SOL    HW127176   1.606   4.294   7.820  1.1343 -0.4005 -4.3679
 5239SOL    HW227177   1.682   4.390   7.887 -1.1240  0.7401 -1.4923
 5240SOL     OW27178   2.146   3.201   7.232 -0.4345 -0.4111 -0.6386
 5240SOL    HW127179   2.163   3.108   7.222 -0.1263 -0.3650 -0.5674
 5240SOL    HW227180   2.167   3.229   7.143 -3.3248 -0.5683 -1.3598
 5241SOL     OW27181   3.000   2.083  15.348  0.2994  0.6451  0.1657
 5241SOL    HW127182   2.990   2.144  15.421 -3.3187  0.7070 -0.3832
 5241SOL    HW227183   3.072   2.123  15.298 -0.9723  0.4044 -1.8565
 5242SOL     OW27184   4.216   3.484   3.446 -0.0948 -0.0208 -0.1185
 5242SOL    HW127185   4.286   3.420   3.437 -0.4604 -0.4083 -0.2050
 5242SOL    HW227186   4.144   3.431   3.412 -0.4424  0.5892 -0.3588
 5243SOL     OW27187   3.046   3.588   3.352  0.1110  0.3405 -0.3869
 5243SOL    HW127188   3.100   3.571   3.274 -1.0830 -0.3826 -1.0512
 5243SOL    HW227189   3.110   3.554   3.415 -0.6018 -0.2380  0.0231
 5244SOL     OW27190   4.292   1.165  12.904  0.5544  0.0068  0.3777
 5244SOL    HW127191   4.344   1.095  12.863  1.4722  1.0935 -0.3076
 5244SOL    HW227192   4.342   1.241  12.876  0.5797 -0.2322 -0.2407
 5245SOL     OW27193   4.075   4.720   2.175 -0.2764 -0.6759 -0.2193
 5245SOL    HW127194   4.087   4.634   2.215 -0.3085 -0.1626  0.9048
 5245SOL    HW227195   4.056   4.701   2.083  0.2678  1.6535 -0.8143
 5246SOL     OW27196   0.407   1.137   4.930  0.4578  0.3600 -0.1959
 5246SOL    HW127197   0.342   1.193   4.973 -1.4121 -2.1613  0.2355
 5246SOL    HW227198   0.402   1.059   4.985  3.2663  0.3427  0.0453
 5247SOL     OW27199   2.125   2.732   1.834 -0.0318 -0.4195  0.0186
 5247SOL    HW127200   2.132   2.815   1.882  0.0980 -0.0926 -0.5744
 5247SOL    HW227201   2.210   2.736   1.790  0.2170 -0.0331  0.5229
 5248SOL     OW27202   4.658   2.374  11.651 -0.4808 -0.1195 -0.5674
 5248SOL    HW127203   0.009   2.436  11.655 -0.4314  0.0080 -3.3240
 5248SOL    HW227204   4.600   2.405  11.581 -1.2816  0.8796  0.5588
 5249SOL     OW27205   2.001   3.927  15.525 -0.4229  0.4335  0.3862
 5249SOL    HW127206   2.062   3.949  15.596  0.9123 -2.6432  0.2126
 5249SOL    HW227207   2.069   3.896  15.464 -0.6815 -0.0607  0.3515
 5250SOL     OW27208   4.359   0.726   1.162  0.2754  0.3617 -0.0361
 5250SOL    HW127209   4.349   0.820   1.175 -2.8320 -0.4903  3.9978
 5250SOL    HW227210   4.378   0.718   1.068  3.6875  1.4248  0.5761
 5251SOL     OW27211   0.616   0.738   5.757 -0.0855  0.0859  0.6849
 5251SOL    HW127212   0.600   0.678   5.684  1.1232 -0.6534  1.0481
 5251SOL    HW227213   0.526   0.749   5.787  0.3391  0.5946  1.7550
 5252SOL     OW27214   1.390   3.098  12.031 -0.0259 -0.0654  0.0377
 5252SOL    HW127215   1.368   3.152  11.956 -1.6492  0.6363  1.0073
 5252SOL    HW227216   1.475   3.068  12.000  1.5498  1.0953  3.2430
 5253SOL     OW27217   1.509   0.259   2.534 -0.4669 -0.1013 -0.2136
 5253SOL    HW127218   1.517   0.298   2.621 -2.4458  0.3501 -0.2309
 5253SOL    HW227219   1.595   0.218   2.524  0.0977  1.2867 -1.0932
 5254SOL     OW27220   3.928   1.870   7.791 -0.1345  0.1736 -0.1532
 5254SOL    HW127221   4.008   1.833   7.755 -1.7543 -1.6570 -1.8888
 5254SOL    HW227222   3.871   1.794   7.807  0.9708 -0.6091  0.0173
 5255SOL     OW27223   4.266   0.147   0.867  0.1918 -0.2637 -0.1398
 5255SOL    HW127224   4.173   0.127   0.856 -0.2677  2.8090 -1.8663
 5255SOL    HW227225   4.301   0.061   0.843  1.1197 -0.1346  0.7544
 5256SOL     OW27226   4.487   0.795   4.593  0.3973  0.0885 -0.2144
 5256SOL    HW127227   4.566   0.780   4.645 -0.7118 -0.7434  1.2476
 5256SOL    HW227228   4.463   0.881   4.627  1.1980  0.0754  0.3884
 5257SOL     OW27229   3.436   0.786   6.916  0.2836 -0.4338  0.0493
 5257SOL    HW127230   3.357   0.750   6.956 -0.1324  1.6693  1.1417
 5257SOL    HW227231   3.493   0.818   6.986 -1.4044 -2.1044  2.1965
 5258SOL     OW27232   2.502   0.303  15.725 -0.0293 -0.5655 -0.2477
 5258SOL    HW127233   2.493   0.389  15.684  0.1776 -1.0393 -1.2751
 5258SOL    HW227234   2.487   0.249  15.648 -0.1052  1.1733 -1.4617
 5259SOL     OW27235   0.975   4.270   4.676  0.0167 -0.2687  0.7362
 5259SOL    HW127236   0.954   4.207   4.607 -1.8012  0.8352  0.2695
 5259SOL    HW227237   0.892   4.312   4.699  1.1495  2.7946 -0.6120
 5260SOL     OW27238   2.534   3.050   3.895  0.1763 -0.3250  0.7294
 5260SOL    HW127239   2.505   3.137   3.921 -1.7009  0.0550 -2.5299
 5260SOL    HW227240   2.627   3.041   3.917  0.7411  0.5673 -1.3392
 5261SOL     OW27241   2.901   2.048   4.843  0.8148 -0.6622 -0.2904
 5261SOL    HW127242   2.922   1.994   4.767 -3.0520 -1.7036 -0.6201
 5261SOL    HW227243   2.893   1.979   4.910  0.6322 -1.9901 -1.6912
 5262SOL     OW27244   1.986   4.338   8.537 -0.8330  0.0153 -0.1735
 5262SOL    HW127245   1.983   4.243   8.525  0.5902 -0.0342 -0.1366
 5262SOL    HW227246   1.967   4.351   8.630 -2.7532  1.0667 -0.7181
 5263SOL     OW27247   3.612   2.107   3.367 -0.4437 -0.2658 -0.3029
 5263SOL    HW127248   3.579   2.188   3.329 -0.3232 -0.3954 -0.6847
 5263SOL    HW227249   3.689   2.084   3.315 -1.6718  0.3402 -2.3957
 5264SOL     OW27250   1.660   3.118   0.548  0.0152 -0.3064 -0.1868
 5264SOL    HW127251   1.665   3.212   0.566 -1.1492  0.0722 -1.8822
 5264SOL    HW227252   1.575   3.120   0.505 -1.2455  0.3309  2.3818
 5265SOL     OW27253   1.238   0.367   5.536  0.2228  0.0285  0.2263
 5265SOL    HW127254   1.259   0.450   5.579  0.9837  0.1394 -0.3514
 5265SOL    HW227255   1.309   0.306   5.556  0.9319  0.9463  0.5220
 5266SOL     OW27256   2.057   1.008   6.564 -0.2908 -0.4856  0.1149
 5266SOL    HW127257   2.087   1.028   6.653  0.7203 -1.2977 -0.0427
 5266SOL    HW227258   2.027   0.918   6.577 -1.4093 -0.0243  0.7064
 5267SOL     OW27259   3.438   3.254   7.437  0.2646  0.0673  0.5171
 5267SOL    HW127260   3.530   3.264   7.413  0.3486 -1.9415 -0.0546
 5267SOL    HW227261   3.427   3.162   7.411 -1.3788  0.7829 -1.2833
 5268SOL     OW27262   4.301   3.548  10.090 -0.1318  0.2328 -0.0932
 5268SOL    HW127263   4.331   3.512  10.173 -1.9516 -0.2364  0.3545
 5268SOL    HW227264   4.205   3.552  10.094 -0.2007 -0.7740 -0.5477
 5269SOL     OW27265   0.407   4.525   1.979  0.1264 -0.6935 -0.5040
 5269SOL    HW127266   0.494   4.499   1.950  0.4778 -1.2958  1.0730
 5269SOL    HW227267   0.403   4.614   1.944  1.6529 -0.5399 -0.2776
 5270SOL     OW27268   3.547   3.514   6.711  0.0358  0.5174 -0.3403
 5270SOL    HW127269   3.543   3.610   6.712 -0.5132  0.4731  0.9903
 5270SOL    HW227270   3.572   3.495   6.801  1.0492  0.5191 -0.6219
 5271SOL     OW27271   1.688   2.440   5.076 -0.2595 -0.0262  0.0445
 5271SOL    HW127272   1.688   2.385   5.155  1.5718  1.6348  1.2061
 5271SOL    HW227273   1.655   2.525   5.105  0.7953  0.5417 -0.4287
 5272SOL     OW27274   4.571   0.889   8.923 -0.3056  0.0617  0.5058
 5272SOL    HW127275   4.526   0.807   8.904  1.1311 -1.1120  2.1952
 5272SOL    HW227276   4.598   0.919   8.836 -0.4151 -1.0720  0.0930
 5273SOL     OW27277   2.739   3.902   4.580  0.0562  0.0826 -0.1607
 5273SOL    HW127278   2.718   3.809   4.591 -1.4501  0.5115  0.5396
 5273SOL    HW227279   2.764   3.929   4.668  0.9701 -3.7351  0.7523
 5274SOL     OW27280   3.553   1.878   3.984 -0.1278 -0.4473 -0.6136
 5274SOL    HW127281   3.621   1.842   4.041  0.1417 -1.3341 -1.5048
 5274SOL    HW227282   3.553   1.972   4.005 -1.3124 -0.5910 -0.0276
 5275SOL     OW27283   2.473   3.235  16.408  0.1036  0.0149  0.2707
 5275SOL    HW127284   2.525   3.227  16.328  0.5112  2.3948  0.3274
 5275SOL    HW227285   2.428   3.316  16.386 -0.3439  0.0003  1.1471
 5276SOL     OW27286   0.379   3.088  10.123 -0.2218  0.1017 -0.1651
 5276SOL    HW127287   0.412   3.177  10.132  3.6218 -1.4109  0.6805
 5276SOL    HW227288   0.422   3.050  10.200  2.3821  2.5327 -0.4299
 5277SOL     OW27289   3.475   3.678   0.228 -0.3109 -0.1620 -0.2258
 5277SOL    HW127290   3.436   3.688   0.141 -2.0966 -3.1182  0.2535
 5277SOL    HW227291   3.564   3.647   0.211 -0.2497 -0.8504  1.3083
 5278SOL     OW27292   4.340   1.534  16.839 -0.2288 -0.1345 -0.3271
 5278SOL    HW127293   4.385   1.531  16.924 -1.5331 -2.1644  0.3092
 5278SOL    HW227294   4.352   1.623  16.808 -0.5281  0.0770  0.1613
 5279SOL     OW27295   1.947   0.896   3.045 -0.6785 -0.6927  0.0632
 5279SOL    HW127296   1.994   0.847   3.112 -0.0867  1.1079  0.9796
 5279SOL    HW227297   1.910   0.970   3.094 -1.4802 -1.2934  0.3755
 5280SOL     OW27298   1.513   2.684   5.086  0.0846 -0.2019  0.3089
 5280SOL    HW127299   1.503   2.633   5.005  1.0916  0.0104  0.0507
 5280SOL    HW227300   1.449   2.639   5.141  0.2299 -2.8812 -1.7593
 5281SOL     OW27301   3.285   4.444   2.853 -0.3089  0.4562  0.2336
 5281SOL    HW127302   3.301   4.510   2.786  0.0251 -0.4933 -0.6382
 5281SOL    HW227303   3.230   4.492   2.914 -0.2262 -0.8429  1.3300
 5282SOL     OW27304   2.438   3.448  11.833  0.0841  0.8157  0.1467
 5282SOL    HW127305   2.406   3.515  11.893 -0.2418 -0.7858  1.7820
 5282SOL    HW227306   2.376   3.376  11.842  0.0535  0.8100 -0.1073
 5283SOL     OW27307   4.281   0.158  11.943 -0.1198 -0.5595 -0.5365
 5283SOL    HW127308   4.312   0.245  11.968 -0.1203 -0.4490 -0.9173
 5283SOL    HW227309   4.236   0.124  12.020 -3.6527  1.2457 -1.8108
 5284SOL     OW27310   3.036   3.907   2.361 -0.2370  0.0751  0.3534
 5284SOL    HW127311   3.086   3.872   2.287 -2.7541 -0.9694 -0.8876
 5284SOL    HW227312   3.067   3.997   2.356  2.2396 -0.7488  0.9948
 5285SOL     OW27313   1.630   1.999  15.955  0.5353 -0.0022  0.0340
 5285SOL    HW127314   1.622   2.090  15.925  2.1886  0.2908  0.4635
 5285SOL    HW227315   1.548   1.989  16.003  0.3115 -2.6011 -0.8861
 5286SOL     OW27316   4.514   1.015   4.291 -0.5189 -0.0022  0.2617
 5286SOL    HW127317   4.606   1.039   4.305 -0.7874  2.0265 -1.3857
 5286SOL    HW227318   4.504   0.922   4.310 -1.5602 -0.1928 -1.1685
 5287SOL     OW27319   0.229   2.274   3.042  0.6367 -0.3350 -0.1490
 5287SOL    HW127320   0.214   2.358   3.000  0.2708 -0.0619  0.5322
 5287SOL    HW227321   0.202   2.206   2.980  0.7500 -0.2101 -0.3346
 5288SOL     OW27322   3.895   2.493   9.011 -0.1700 -0.1461  0.2182
 5288SOL    HW127323   3.958   2.424   9.027 -1.3801 -1.1524  0.6865
 5288SOL    HW227324   3.846   2.495   9.094  0.5387 -0.1000  0.6365
 5289SOL     OW27325   4.125   4.203   2.858 -0.2011 -0.1259 -0.0009
 5289SOL    HW127326   4.175   4.276   2.895  0.1193  1.6250 -3.9758
 5289SOL    HW227327   4.151   4.132   2.917  1.3206  0.0067 -0.5078
 5290SOL     OW27328   3.848   1.235   4.879 -0.2188 -0.2064  0.2639
 5290SOL    HW127329   3.867   1.243   4.972  0.1796 -2.2610  0.3443
 5290SOL    HW227330   3.877   1.149   4.849 -1.5471 -0.6653  0.3096
 5291SOL     OW27331   2.590   3.278   6.374 -0.4856 -0.2779 -0.3658
 5291SOL    HW127332   2.682   3.249   6.375 -0.3900 -0.0073 -1.3436
 5291SOL    HW227333   2.599   3.349   6.437  0.7261  1.4582 -2.4939
 5292SOL     OW27334   2.897   2.002  12.520  0.1382 -0.1534  0.3757
 5292SOL    HW127335   2.821   1.949  12.495 -0.6197  1.2704 -0.3238
 5292SOL    HW227336   2.852   2.068  12.572 -0.0474  1.2740 -1.6006
 5293SOL     OW27337   0.596   4.213  13.333  0.0056  0.2961  0.5366
 5293SOL    HW127338   0.520   4.271  13.328 -1.8493 -2.3880 -2.1908
 5293SOL    HW227339   0.558   4.127  13.347 -0.7543  0.1864 -2.2178
 5294SOL     OW27340   0.376   2.279   9.609  0.3251  0.2263  0.1214
 5294SOL    HW127341   0.287   2.308   9.593  0.1069 -0.3828  0.2174
 5294SOL    HW227342   0.364   2.223   9.686 -1.1623  0.6622  0.2012
 5295SOL     OW27343   2.958   4.477  14.713 -0.0930 -0.3689  0.4604
 5295SOL    HW127344   3.001   4.408  14.763 -0.6659 -0.1174  1.2977
 5295SOL    HW227345   2.931   4.537  14.783 -0.7559 -1.8284  1.4524
 5296SOL     OW27346   4.330   1.964   7.813  0.3297  0.5890 -0.0361
 5296SOL    HW127347   4.277   1.898   7.857  0.0977  1.2514  0.6812
 5296SOL    HW227348   4.412   1.917   7.800 -0.4668 -0.7556 -0.2455
 5297SOL     OW27349   2.598   3.885   2.823  0.1851  0.3684 -0.2350
 5297SOL    HW127350   2.516   3.932   2.833  0.0011 -0.0810  0.3758
 5297SOL    HW227351   2.658   3.912   2.893  0.7672 -0.7489 -0.3092
 5298SOL     OW27352   1.866   2.203   2.756 -0.0206 -0.2530  0.7200
 5298SOL    HW127353   1.772   2.201   2.739  0.1643 -0.0276 -0.3272
 5298SOL    HW227354   1.853   2.219   2.850 -0.4321  0.6268  0.5149
 5299SOL     OW27355   2.849   4.205   3.098  0.0540  0.2047 -0.0688
 5299SOL    HW127356   2.893   4.254   3.168  1.9322 -0.3506 -0.8631
 5299SOL    HW227357   2.931   4.173   3.061  0.0036 -0.7977  0.7064
 5300SOL     OW27358   3.376   2.970   3.322 -0.0641 -0.4627 -0.2282
 5300SOL    HW127359   3.357   2.948   3.231  0.3840 -1.0522 -0.1766
 5300SOL    HW227360   3.444   2.904   3.335 -1.2698 -1.6394  0.0227
 5301SOL     OW27361   0.191   1.638  11.151  0.8747  0.1943  0.0826
 5301SOL    HW127362   0.182   1.689  11.231 -0.7289  0.0785 -0.0273
 5301SOL    HW227363   0.285   1.648  11.137  0.9158 -0.9763 -0.5121
 5302SOL     OW27364   1.170   4.580   7.143 -0.4517  0.3180  0.0669
 5302SOL    HW127365   1.166   4.591   7.048  2.1206 -1.9501 -0.2821
 5302SOL    HW227366   1.252   4.531   7.141 -1.3535 -1.1909  0.2629
 5303SOL     OW27367   4.399   4.430   3.238  0.4568  0.6295 -0.0115
 5303SOL    HW127368   4.383   4.519   3.207  0.4746  1.1783  1.5363
 5303SOL    HW227369   4.383   4.439   3.332 -0.7968 -1.9462  0.0254
 5304SOL     OW27370   4.043   2.518   1.928  0.1637 -0.0209  0.4000
 5304SOL    HW127371   3.990   2.592   1.957  1.6838  1.0373  0.5092
 5304SOL    HW227372   4.135   2.545   1.939  0.9390 -2.1449 -0.9169
 5305SOL     OW27373   2.628   1.236  16.530  0.2623 -0.0687 -0.0418
 5305SOL    HW127374   2.615   1.204  16.441  0.8298 -1.9927  0.5733
 5305SOL    HW227375   2.552   1.294  16.529  1.3308  1.3488 -0.2634
 5306SOL     OW27376   2.807   2.356   7.820 -0.2353 -0.7375 -0.2910
 5306SOL    HW127377   2.770   2.335   7.906  0.6248  1.6602  0.6674
 5306SOL    HW227378   2.839   2.270   7.792  1.7764 -0.5267  1.3622
 5307SOL     OW27379   0.932   1.274   1.024 -0.3260  0.2528  0.1740
 5307SOL    HW127380   0.911   1.266   0.931 -1.2813 -0.9152  0.4923
 5307SOL    HW227381   0.904   1.187   1.051 -0.5114  0.6555  1.2881
 5308SOL     OW27382   0.660   3.101  11.194  0.2879 -0.2468  0.7384
 5308SOL    HW127383   0.680   3.036  11.127  1.6681  2.0510 -1.0745
 5308SOL    HW227384   0.653   3.184  11.147 -3.7091 -0.9771  0.0021
 5309SOL     OW27385   3.777   0.479  11.072 -0.0763 -0.3478 -0.3530
 5309SOL    HW127386   3.753   0.400  11.119  1.4573 -0.9480 -0.5830
 5309SOL    HW227387   3.774   0.538  11.148  1.7126  0.0672 -0.6121
 5310SOL     OW27388   0.494   4.673   9.221 -0.3947  0.3133 -0.2911
 5310SOL    HW127389   0.524   4.714   9.302 -0.3069 -0.9144  0.3066
 5310SOL    HW227390   0.414   4.631   9.252 -0.3518  1.0145  0.7868
 5311SOL     OW27391   0.372   0.008  13.234  0.5476  0.2123 -0.4737
 5311SOL    HW127392   0.379   4.655  13.176 -1.3025 -0.2666 -0.0910
 5311SOL    HW227393   0.455   0.046  13.206  1.7735 -2.1784 -0.0975
 5312SOL     OW27394   3.735   2.111   7.417 -0.0511  0.5724  0.2268
 5312SOL    HW127395   3.641   2.095   7.410  0.2645 -0.6624 -1.3765
 5312SOL    HW227396   3.740   2.189   7.361 -1.9731  0.6483  0.1658
 5313SOL     OW27397   2.581   0.565   6.925  0.5381 -0.0884 -0.8100
 5313SOL    HW127398   2.493   0.597   6.943  0.1273 -2.5763  1.6638
 5313SOL    HW227399   2.580   0.588   6.832 -0.1682  3.2055  0.0042
 5314SOL     OW27400   2.539   4.014   8.200 -0.5315 -0.4273  0.3332
 5314SOL    HW127401   2.551   3.995   8.107 -2.1316 -0.7792  0.1910
 5314SOL    HW227402   2.617   3.976   8.240  1.1223  0.0335 -2.4588
 5315SOL     OW27403   1.370   0.929   3.037 -0.4594  0.7557  0.1328
 5315SOL    HW127404   1.421   0.848   3.043 -0.9962  0.4279  0.2094
 5315SOL    HW227405   1.285   0.902   3.071  0.2445 -0.8266  0.6494
 5316SOL     OW27406   2.341   2.388  16.464 -0.3129  0.0297  0.6142
 5316SOL    HW127407   2.251   2.418  16.455 -0.0964  0.2188 -0.9561
 5316SOL    HW227408   2.327   2.293  16.468  0.9987 -0.1841  0.3209
 5317SOL     OW27409   0.414   1.628   8.420 -0.0477 -0.5003  0.3776
 5317SOL    HW127410   0.404   1.640   8.514 -1.9773 -1.8632  0.3474
 5317SOL    HW227411   0.508   1.620   8.436  0.0155  3.0433  1.6548
 5318SOL     OW27412   1.521   3.977   4.351  0.0451 -0.0359  0.0828
 5318SOL    HW127413   1.434   3.994   4.314 -0.6001 -1.0259  1.1235
 5318SOL    HW227414   1.557   3.934   4.274 -3.8930 -1.0254 -1.1953
 5319SOL     OW27415   4.483   3.926   5.207 -0.0328 -0.0134  0.5034
 5319SOL    HW127416   4.558   3.873   5.233  0.6835  0.9995  0.5064
 5319SOL    HW227417   4.505   3.998   5.265 -2.1075 -1.3325  2.9125
 5320SOL     OW27418   1.329   2.332  11.693  0.3996 -0.1010 -0.5670
 5320SOL    HW127419   1.413   2.314  11.734  0.3766 -1.8931 -1.3243
 5320SOL    HW227420   1.319   2.253  11.641 -0.4394 -0.5816  0.3108
 5321SOL     OW27421   4.169   3.252  15.777 -0.6029 -0.1110 -0.6000
 5321SOL    HW127422   4.097   3.310  15.802 -0.7094 -0.8217  0.7613
 5321SOL    HW227423   4.214   3.252  15.862 -1.7127  1.6386 -0.0040
 5322SOL     OW27424   0.191   4.500   7.985 -0.0936 -0.6432  0.3380
 5322SOL    HW127425   0.206   4.534   7.896 -0.5680 -0.7408  0.2188
 5322SOL    HW227426   0.148   4.418   7.962 -0.1689 -0.0907 -1.4861
 5323SOL     OW27427   0.886   2.940   0.995 -0.4858 -0.4137  0.4097
 5323SOL    HW127428   0.849   2.891   0.922 -1.0732 -3.3195  2.6428
 5323SOL    HW227429   0.854   3.029   0.987  0.9857 -0.0748 -1.8720
 5324SOL     OW27430   4.472   2.455  16.394 -0.2207  0.1649  0.5623
 5324SOL    HW127431   4.385   2.444  16.430 -0.1696  2.3702  1.3656
 5324SOL    HW227432   4.524   2.484  16.469 -1.5644 -0.5021  1.7478
 5325SOL     OW27433   3.400   1.032   3.468 -0.0187 -0.0510  0.0749
 5325SOL    HW127434   3.333   1.098   3.489  0.6754 -0.0592  2.3421
 5325SOL    HW227435   3.431   1.007   3.555  0.9578  2.4545  0.4445
 5326SOL     OW27436   4.463   3.435   7.315 -0.0058  0.4019 -0.3238
 5326SOL    HW127437   4.529   3.465   7.252  0.2211  2.3652  0.8601
 5326SOL    HW227438   4.383   3.483   7.294  0.0493  0.3193 -0.7357
 5327SOL     OW27439   1.683   4.545   5.432  0.1824 -0.2136 -0.0469
 5327SOL    HW127440   1.609   4.546   5.372 -1.6400 -0.6732  2.2175
 5327SOL    HW227441   1.655   4.607   5.499  0.9983 -0.2925  0.3675
 5328SOL     OW27442   3.904   4.678   6.017  0.2795  0.1267  0.2428
 5328SOL    HW127443   3.882   0.036   6.065 -0.1385  1.3393 -1.9516
 5328SOL    HW227444   3.925   4.715   5.931  1.6362 -1.1489  0.0357
 5329SOL     OW27445   3.409   0.339   2.657 -0.6704 -0.1698 -0.0588
 5329SOL    HW127446   3.414   0.285   2.579 -0.2799 -0.1265 -0.0663
 5329SOL    HW227447   3.496   0.333   2.697 -0.1656 -1.6117 -1.3730
 5330SOL     OW27448   2.198   3.982   8.372 -0.0491  0.3607 -0.3128
 5330SOL    HW127449   2.108   3.973   8.404  0.9806 -0.6721  2.2439
 5330SOL    HW227450   2.236   3.904   8.413 -0.8991  0.9352  1.5412
 5331SOL     OW27451   1.168   1.329   6.400 -0.0645 -0.0961  0.3728
 5331SOL    HW127452   1.263   1.333   6.411  0.1350 -0.6225 -1.2577
 5331SOL    HW227453   1.143   1.241   6.372 -2.5527  0.0224  2.2610
 5332SOL     OW27454   4.448   0.583   1.607  0.4829 -0.0833  0.5483
 5332SOL    HW127455   4.361   0.621   1.596  0.9396  0.4791 -0.9762
 5332SOL    HW227456   4.505   0.628   1.545 -1.6006 -2.1471 -2.9120
 5333SOL     OW27457   1.844   1.487   8.676  0.2357  0.6134  0.7881
 5333SOL    HW127458   1.789   1.463   8.751  1.8487 -0.7035  1.5500
 5333SOL    HW227459   1.821   1.579   8.662  1.2580  1.2300  3.3079
 5334SOL     OW27460   1.870   1.664   5.171 -0.1267  0.4042 -0.5655
 5334SOL    HW127461   1.849   1.580   5.130 -0.9023  0.3644 -0.0885
 5334SOL    HW227462   1.907   1.695   5.088  1.8397  0.1082  0.2162
 5335SOL     OW27463   0.446   1.981  14.786  0.4384  0.0931 -0.1303
 5335SOL    HW127464   0.524   1.933  14.758  0.8313  1.1100 -0.7757
 5335SOL    HW227465   0.474   2.040  14.856  0.3769  0.4101 -0.3742
 5336SOL     OW27466   4.411   4.714   8.260 -0.0965 -0.2575 -0.5840
 5336SOL    HW127467   4.338   0.019   8.204  0.3038 -0.7031 -1.3313
 5336SOL    HW227468   4.408   4.618   8.256  0.4466 -0.3608  1.5564
 5337SOL     OW27469   2.536   2.803   5.889 -0.1384  0.7260  0.0584
 5337SOL    HW127470   2.445   2.819   5.912 -0.6816 -2.8323  0.4313
 5337SOL    HW227471   2.542   2.869   5.819 -1.4842  1.8953  1.0575
 5338SOL     OW27472   1.777   4.380   8.148  0.6643  0.1497 -0.0586
 5338SOL    HW127473   1.707   4.437   8.115 -1.7428 -1.8542  1.5667
 5338SOL    HW227474   1.790   4.414   8.237 -0.3210 -0.0429  0.1643
 5339SOL     OW27475   0.951   0.213  12.219 -0.4004  0.0991 -0.3782
 5339SOL    HW127476   0.889   0.286  12.224 -0.0301  0.3976 -0.1373
 5339SOL    HW227477   0.997   0.213  12.135 -0.3413  0.2247 -0.3465
 5340SOL     OW27478   1.227   2.758   4.613  0.4068 -0.6978  0.0920
 5340SOL    HW127479   1.142   2.792   4.582  1.1019 -0.1934 -1.2920
 5340SOL    HW227480   1.249   2.823   4.679  1.4704 -0.1282 -0.8164
 5341SOL     OW27481   2.264   3.392   7.897 -0.1313  0.3493 -0.1312
 5341SOL    HW127482   2.271   3.298   7.916 -1.7554  0.1044 -0.7711
 5341SOL    HW227483   2.310   3.425   7.974  0.0982 -1.3578  0.4593
 5342SOL     OW27484   3.948   0.628   3.659 -0.0849 -0.6117 -0.2332
 5342SOL    HW127485   4.040   0.630   3.686  0.2368  1.9182 -1.4871
 5342SOL    HW227486   3.951   0.640   3.564 -0.7986 -1.7018 -0.3972
 5343SOL     OW27487   2.990   0.003   6.033 -0.3762  0.2090  0.1072
 5343SOL    HW127488   2.913   0.020   6.087 -1.1950 -0.9592 -0.6980
 5343SOL    HW227489   3.059   0.006   6.100 -0.1436 -0.5491 -0.1016
 5344SOL     OW27490   1.483   1.759   3.738 -0.4382  0.2806 -0.3420
 5344SOL    HW127491   1.517   1.688   3.685 -1.6861  1.5070 -2.7717
 5344SOL    HW227492   1.526   1.744   3.823 -1.3258 -0.6491 -0.0608
 5345SOL     OW27493   1.104   0.705   4.362  0.0798  0.1141  0.5233
 5345SOL    HW127494   1.121   0.727   4.270 -0.7306 -3.4780 -0.4751
 5345SOL    HW227495   1.043   0.776   4.385 -1.3048 -1.1138  0.6782
 5346SOL     OW27496   4.369   2.244   7.721 -0.1615 -0.2205 -0.2531
 5346SOL    HW127497   4.279   2.274   7.709 -0.0954  0.3697  0.6957
 5346SOL    HW227498   4.353   2.152   7.742 -0.5950 -0.2261 -0.6191
 5347SOL     OW27499   0.132   3.622  17.050  0.0696 -0.0177 -0.0637
 5347SOL    HW127500   0.147   3.632  16.956 -0.5407  0.3910 -0.1146
 5347SOL    HW227501   0.074   3.695  17.071 -0.2075 -0.1087 -0.5040
 5348SOL     OW27502   0.380   2.303   9.317  0.4463  0.3330 -0.3022
 5348SOL    HW127503   0.367   2.308   9.412  0.9862  0.5608 -0.2386
 5348SOL    HW227504   0.310   2.359   9.285  0.7150 -0.5965 -2.5033
 5349SOL     OW27505   0.850   3.983  14.831  0.6267  0.1727 -0.7236
 5349SOL    HW127506   0.931   3.971  14.780  0.8146 -3.0255  0.2893
 5349SOL    HW227507   0.802   3.900  14.831  0.7498  0.0933 -1.9086
 5350SOL     OW27508   4.553   4.416   6.708 -0.2563  0.6064  0.0253
 5350SOL    HW127509   4.505   4.472   6.769 -0.4079 -1.2598  1.6334
 5350SOL    HW227510   4.509   4.425   6.624  0.4528 -0.6620 -0.4859
 5351SOL     OW27511   2.631   3.357  15.339  0.2655  0.9394  0.5797
 5351SOL    HW127512   2.706   3.303  15.313 -0.5317 -0.2311  0.7423
 5351SOL    HW227513   2.604   3.313  15.420  2.2729 -1.8674 -0.2705
 5352SOL     OW27514   3.122   2.995   3.699 -0.4012  0.4848  0.5088
 5352SOL    HW127515   3.090   2.931   3.763  0.2118 -2.1429 -1.7898
 5352SOL    HW227516   3.144   2.936   3.627 -2.5799  0.6203 -0.2820
 5353SOL     OW27517   3.443   2.569  14.585  0.4780 -0.0947 -0.0803
 5353SOL    HW127518   3.348   2.564  14.595  0.4611 -1.3405 -0.8164
 5353SOL    HW227519   3.460   2.527  14.500  2.8472  0.7626 -0.0221
 5354SOL     OW27520   0.167   2.890  13.859  1.2510 -0.2340 -0.3322
 5354SOL    HW127521   0.094   2.948  13.836  1.3108 -0.2248 -0.4988
 5354SOL    HW227522   0.190   2.870  13.769 -0.8526  0.2682 -1.0063
 5355SOL     OW27523   1.481   3.364  11.198 -0.1356  0.5136  0.1834
 5355SOL    HW127524   1.422   3.426  11.240 -0.1088  0.9293 -0.3860
 5355SOL    HW227525   1.493   3.413  11.116  0.2797 -1.0421 -0.6938
 5356SOL     OW27526   4.520   4.308   8.565 -0.0231  0.0434  0.7084
 5356SOL    HW127527   4.553   4.397   8.581  1.5561  0.2000 -3.4910
 5356SOL    HW227528   4.593   4.257   8.601  0.3555 -0.1193 -0.2911
 5357SOL     OW27529   3.654   3.237   2.517  0.2161 -0.1201  0.5602
 5357SOL    HW127530   3.654   3.328   2.487  0.7590  0.6280  2.8974
 5357SOL    HW227531   3.609   3.241   2.601  1.4588  1.5924  1.1379
 5358SOL     OW27532   4.106   4.291   1.007  0.2535  0.1604  0.2551
 5358SOL    HW127533   4.033   4.273   0.948 -0.2305 -0.1963  0.9751
 5358SOL    HW227534   4.150   4.208   1.024  0.6849  0.3690  0.1721
 5359SOL     OW27535   0.543   3.338   2.953 -0.3058  0.0170 -0.3279
 5359SOL    HW127536   0.622   3.368   2.909  0.8629 -0.5146  1.4308
 5359SOL    HW227537   0.487   3.347   2.876  0.0609 -2.5500 -0.9145
 5360SOL     OW27538   3.773   1.205   3.472  0.0777  0.2581 -0.1711
 5360SOL    HW127539   3.794   1.251   3.391 -0.8829  0.4693 -0.3003
 5360SOL    HW227540   3.777   1.114   3.441 -4.6639  0.0491 -0.0560
 5361SOL     OW27541   1.800   2.956   6.216 -0.2037 -0.2273 -0.0815
 5361SOL    HW127542   1.719   2.982   6.172 -1.4884 -1.2688  1.6912
 5361SOL    HW227543   1.780   2.863   6.228  0.3385 -0.3028  0.2346
 5362SOL     OW27544   0.694   2.972   3.696  0.5027 -0.9474 -0.4117
 5362SOL    HW127545   0.616   3.022   3.675  1.2475  1.2207  1.8919
 5362SOL    HW227546   0.748   3.049   3.714 -1.2732 -0.0118  0.8609
 5363SOL     OW27547   4.236   1.170  13.201 -0.5528 -0.0582  0.0786
 5363SOL    HW127548   4.280   1.115  13.266 -0.0447 -0.8915 -0.9620
 5363SOL    HW227549   4.297   1.154  13.128 -1.1451  0.2548 -0.4832
 5364SOL     OW27550   0.724   3.383  14.048  1.0489  0.0746 -0.5439
 5364SOL    HW127551   0.705   3.317  13.981  0.0415 -0.6597  0.4668
 5364SOL    HW227552   0.639   3.427  14.052  0.2925 -1.4256 -0.2221
 5365SOL     OW27553   4.659   2.510  17.032  0.3265  0.0892 -1.1569
 5365SOL    HW127554   4.567   2.536  17.036  0.1886 -0.7222  0.9584
 5365SOL    HW227555   4.678   2.495  17.125 -0.6397  1.7980 -0.6770
 5366SOL     OW27556   2.308   4.601   7.784  0.5317 -0.6314 -0.6815
 5366SOL    HW127557   2.264   4.521   7.813 -1.7088  1.0422  0.5665
 5366SOL    HW227558   2.398   4.572   7.774  0.4820 -1.0508  0.1629
 5367SOL     OW27559   1.452   0.863   0.178 -0.0228  0.1491 -0.3038
 5367SOL    HW127560   1.504   0.943   0.185  2.7636 -1.7114  0.2525
 5367SOL    HW227561   1.465   0.844   0.085 -0.1851  1.0743 -0.5180
 5368SOL     OW27562   1.694   0.061   1.670  0.3431  0.0162  0.0313
 5368SOL    HW127563   1.610   0.078   1.711  0.7527  1.1766  0.3991
 5368SOL    HW227564   1.701   4.688   1.665  0.1878  0.1376 -2.8359
 5369SOL     OW27565   3.965   3.355   2.939 -0.8303 -0.2034 -0.0331
 5369SOL    HW127566   4.001   3.396   3.017 -2.8253 -0.6434  1.1284
 5369SOL    HW227567   4.042   3.308   2.908  0.8523  1.1132  2.2098
 5370SOL     OW27568   1.982   4.253   9.316 -0.2113 -0.3516  0.2021
 5370SOL    HW127569   2.027   4.203   9.385 -0.9427 -3.1607 -1.3521
 5370SOL    HW227570   1.891   4.226   9.325  0.1595 -1.6567  0.0608
 5371SOL     OW27571   2.960   2.435  14.210  0.1563  0.1827  0.0085
 5371SOL    HW127572   2.886   2.403  14.262 -0.4608 -3.2450 -2.9780
 5371SOL    HW227573   2.931   2.447  14.119 -0.6392  2.1892  0.5075
 5372SOL     OW27574   0.718   4.030   2.676 -0.4838  0.8003  0.1879
 5372SOL    HW127575   0.768   3.959   2.637 -1.0357  1.4130 -1.6133
 5372SOL    HW227576   0.664   3.999   2.749 -1.4926  0.6241 -0.6348
 5373SOL     OW27577   0.511   0.289   0.144 -0.1720 -0.4922  0.1885
 5373SOL    HW127578   0.556   0.340   0.211 -0.6214 -0.4676  0.4719
 5373SOL    HW227579   0.442   0.244   0.193  1.0834 -0.6561  1.8004
 5374SOL     OW27580   3.079   4.585   3.177  0.3522  0.2772  0.8179
 5374SOL    HW127581   3.112   4.653   3.118 -0.3873 -1.3201 -1.4536
 5374SOL    HW227582   3.041   4.531   3.107  0.0269 -1.7559  2.5564
 5375SOL     OW27583   4.285   4.581   0.795 -0.1182  0.4340  0.0374
 5375SOL    HW127584   4.298   4.538   0.880  0.3373  0.9083  0.2086
 5375SOL    HW227585   4.362   4.549   0.749  1.1810  0.6750  2.0519
 5376SOL     OW27586   1.377   1.715  10.050 -0.4877  0.3402  0.0005
 5376SOL    HW127587   1.286   1.699  10.026 -0.5940  0.1408  0.5229
 5376SOL    HW227588   1.370   1.686  10.141  1.1600  1.5690  0.5291
 5377SOL     OW27589   2.315   1.136   5.748 -0.4142  0.0961 -0.4508
 5377SOL    HW127590   2.396   1.142   5.798 -0.7580 -1.4488  0.2696
 5377SOL    HW227591   2.285   1.226   5.765 -1.8961 -0.3569 -0.6836
 5378SOL     OW27592   3.436   0.637  15.934 -0.2601  0.5140 -0.7867
 5378SOL    HW127593   3.521   0.622  15.894  0.0398  0.8738 -0.2938
 5378SOL    HW227594   3.383   0.557  15.935  0.2956  0.1624  0.6329
 5379SOL     OW27595   3.567   1.382   4.408 -0.5336 -0.4932 -0.5208
 5379SOL    HW127596   3.654   1.346   4.423 -0.3800 -0.3290 -1.0061
 5379SOL    HW227597   3.546   1.422   4.492 -2.5455  0.7674 -1.6157
 5380SOL     OW27598   1.705   1.569   4.256  0.0534  0.4447  0.1900
 5380SOL    HW127599   1.679   1.625   4.329 -2.2131 -0.7332  0.2705
 5380SOL    HW227600   1.787   1.613   4.234  0.3993  0.5451  1.7185
 5381SOL     OW27601   2.815   3.349   6.799 -0.3710  0.6295 -0.2664
 5381SOL    HW127602   2.799   3.318   6.888 -0.7337  3.4522  0.6406
 5381SOL    HW227603   2.888   3.407   6.821 -0.5598  2.0249 -3.3564
 5382SOL     OW27604   0.150   1.583   8.234 -0.1614 -0.2593  0.5986
 5382SOL    HW127605   0.200   1.506   8.261 -1.6470 -1.0071  1.2397
 5382SOL    HW227606   0.160   1.644   8.307 -0.2350 -0.8931  1.1337
 5383SOL     OW27607   1.172   3.468   7.106 -0.3537 -0.2581 -0.1271
 5383SOL    HW127608   1.160   3.378   7.077 -0.6155 -0.5209  0.7941
 5383SOL    HW227609   1.111   3.478   7.179 -0.0136 -0.8785  0.2379
 5384SOL     OW27610   3.912   3.184   1.739  0.2510  0.1376 -0.5777
 5384SOL    HW127611   3.891   3.276   1.726 -0.8942 -0.0061  0.2659
 5384SOL    HW227612   4.008   3.193   1.740  0.5578 -3.4035  0.7484
 5385SOL     OW27613   1.267   2.207   4.587  0.0319  0.0216 -0.0844
 5385SOL    HW127614   1.255   2.185   4.494 -1.1188 -0.1777  0.1124
 5385SOL    HW227615   1.274   2.301   4.572 -1.5542  0.4482  1.9796
 5386SOL     OW27616   3.233   0.605   9.273 -0.1337  0.2553 -0.2605
 5386SOL    HW127617   3.260   0.693   9.298  1.4737  0.0281 -1.1409
 5386SOL    HW227618   3.208   0.628   9.183 -1.6804  2.1571  0.6561
 5387SOL     OW27619   3.916   3.578  11.651  0.4190 -0.2288  0.4877
 5387SOL    HW127620   3.853   3.635  11.695  0.2744 -1.1430  1.4397
 5387SOL    HW227621   3.898   3.494  11.693  0.9938 -1.3755 -1.5179
 5388SOL     OW27622   2.955   4.243   3.819 -0.5963 -0.2052  0.1954
 5388SOL    HW127623   2.913   4.191   3.750  0.3498 -0.5153 -0.1378
 5388SOL    HW227624   2.874   4.270   3.862  0.0692  0.5041  0.9998
 5389SOL     OW27625   2.772   0.000  16.386 -0.2738 -0.3125 -0.4467
 5389SOL    HW127626   2.738   4.646  16.433  1.6297  1.1191  3.3232
 5389SOL    HW227627   2.719   0.069  16.426  0.7350  0.7488 -0.9297
 5390SOL     OW27628   1.796   2.323   5.941 -0.2324  0.2975  0.2006
 5390SOL    HW127629   1.887   2.320   5.910 -0.6473 -2.3734 -0.7436
 5390SOL    HW227630   1.793   2.417   5.960  1.4641 -0.0988  2.5746
 5391SOL     OW27631   1.284   3.479  11.310  0.0657 -0.0990 -0.0346
 5391SOL    HW127632   1.194   3.449  11.299  0.2040 -0.6877  0.4137
 5391SOL    HW227633   1.296   3.448  11.400  2.9275 -1.8955 -1.0009
 5392SOL     OW27634   1.014   4.623   6.635  0.2130  0.1344  0.2892
 5392SOL    HW127635   1.051   4.552   6.582 -2.7227 -1.7348  0.7455
 5392SOL    HW227636   0.959   4.672   6.573 -0.3930  0.3778  1.0186
 5393SOL     OW27637   4.028   0.502   5.205 -0.3076  0.0617 -0.0804
 5393SOL    HW127638   4.089   0.478   5.135 -1.5892 -0.5587 -0.9631
 5393SOL    HW227639   4.025   0.598   5.198  0.0487  0.2281  1.7821
 5394SOL     OW27640   2.265   1.026   8.047  0.6496  0.8815  0.1333
 5394SOL    HW127641   2.352   1.063   8.036  1.2234  0.3246  2.6983
 5394SOL    HW227642   2.274   0.969   8.124  0.5517 -1.9399 -1.9618
 5395SOL     OW27643   0.857   4.342   3.652  0.5459  0.2387 -0.3843
 5395SOL    HW127644   0.931   4.337   3.592  0.2741  1.4256 -0.8110
 5395SOL    HW227645   0.804   4.411   3.612 -1.5425 -0.6832  0.7433
 5396SOL     OW27646   0.860   1.948   7.747 -1.2052  0.3287  0.1176
 5396SOL    HW127647   0.825   2.007   7.814  2.2969  0.6284  1.7113
 5396SOL    HW227648   0.948   1.931   7.782 -0.6570 -0.0456 -1.4591
 5397SOL     OW27649   3.821   0.017   3.516  0.2054 -0.2435  0.3878
 5397SOL    HW127650   3.735   4.697   3.521  0.3903 -0.6545  0.1666
 5397SOL    HW227651   3.829   0.004   3.421 -0.1560 -2.0552  0.6039
 5398SOL     OW27652   2.245   1.382  14.429 -0.3571 -0.0768 -0.3371
 5398SOL    HW127653   2.199   1.385  14.345  0.1660  2.1779 -0.5308
 5398SOL    HW227654   2.332   1.410  14.403 -0.2139 -0.2435 -0.0364
 5399SOL     OW27655   0.185   0.896   4.444 -0.6895  0.1463 -0.6207
 5399SOL    HW127656   0.179   0.808   4.482  0.2090  1.3254  2.2971
 5399SOL    HW227657   0.281   0.901   4.446 -0.6920 -0.0126 -0.1350
 5400SOL     OW27658   4.324   3.362   1.783  0.4961 -0.8501  0.0417
 5400SOL    HW127659   4.404   3.413   1.769  1.0628 -0.9992  2.6947
 5400SOL    HW227660   4.264   3.424   1.823  0.9440 -1.1195  1.1308
 5401SOL     OW27661   0.467   1.732   0.902 -0.1041  0.2388  0.4740
 5401SOL    HW127662   0.522   1.809   0.889 -0.4187  0.4703  0.5083
 5401SOL    HW227663   0.450   1.735   0.996  2.0650  1.7581  0.8286
 5402SOL     OW27664   0.460   2.215   6.220  0.2302 -0.2766  0.1779
 5402SOL    HW127665   0.485   2.202   6.129 -1.1245 -0.3201 -0.1909
 5402SOL    HW227666   0.531   2.273   6.246  0.1350 -0.1551  0.1645
 5403SOL     OW27667   4.465   4.640   3.928  0.2300 -0.3158 -0.8452
 5403SOL    HW127668   4.493   4.668   3.841  1.2931  1.2598  0.0100
 5403SOL    HW227669   4.384   4.594   3.904  0.6644 -1.2414 -0.5319
 5404SOL     OW27670   4.590   0.219  15.142 -0.2112 -0.1236  0.2715
 5404SOL    HW127671   4.556   0.143  15.094  2.5673 -1.0156 -0.2958
 5404SOL    HW227672   4.674   0.218  15.096  0.9440 -1.3500  2.3906
 5405SOL     OW27673   0.428   3.149   9.802  0.2321 -0.0757 -0.2375
 5405SOL    HW127674   0.349   3.152   9.856  0.6840 -0.8798  0.4893
 5405SOL    HW227675   0.461   3.239   9.803  0.6873 -0.2429  0.0754
 5406SOL     OW27676   1.129   4.106   9.039 -0.1371  0.4314  0.5096
 5406SOL    HW127677   1.206   4.155   9.068  1.1288 -0.2371 -1.6820
 5406SOL    HW227678   1.127   4.035   9.103 -1.7143 -0.6803 -0.7563
 5407SOL     OW27679   0.486   4.028   4.400  0.0720  0.1716  0.5495
 5407SOL    HW127680   0.581   4.020   4.397 -0.0135 -0.8751  0.8555
 5407SOL    HW227681   0.471   4.080   4.480 -1.2196  0.3437  0.1923
 5408SOL     OW27682   4.066   3.137   7.040  0.0754 -0.0468  0.0178
 5408SOL    HW127683   4.123   3.177   6.975  0.0082 -2.3264 -1.4611
 5408SOL    HW227684   4.044   3.048   7.013  0.6185 -0.4080  0.7783
 5409SOL     OW27685   2.700   0.280  11.012  0.4219  0.2800 -0.3945
 5409SOL    HW127686   2.633   0.348  11.011  0.3152  0.1940  2.4573
 5409SOL    HW227687   2.711   0.269  11.106 -0.4640  0.9569 -0.2060
 5410SOL     OW27688   1.819   1.640   0.820 -0.1016  0.5390  0.4810
 5410SOL    HW127689   1.778   1.623   0.735 -0.9083  1.1173  0.7519
 5410SOL    HW227690   1.776   1.584   0.885  0.2892  2.6371  2.5419
 5411SOL     OW27691   1.886   3.983   1.387 -0.4262  0.0727 -0.1456
 5411SOL    HW127692   1.871   4.063   1.336 -1.2212  0.2237  0.3287
 5411SOL    HW227693   1.826   3.925   1.339  0.9875 -2.1176  0.7916
 5412SOL     OW27694   0.380   4.311  13.695 -0.2258  0.1260 -0.5813
 5412SOL    HW127695   0.363   4.233  13.748  1.5360 -0.8256 -1.4093
 5412SOL    HW227696   0.392   4.380  13.761  0.5292 -2.0861  1.6005
 5413SOL     OW27697   0.653   2.229   3.862 -0.3781  0.4083 -0.2745
 5413SOL    HW127698   0.592   2.182   3.806 -0.0818 -0.6095  0.2490
 5413SOL    HW227699   0.654   2.318   3.827 -0.8566  0.4413 -0.1943
 5414SOL     OW27700   2.082   4.003   5.296 -0.0938 -0.3186 -0.2009
 5414SOL    HW127701   2.170   4.035   5.317 -0.6002  0.3401  0.9385
 5414SOL    HW227702   2.033   4.036   5.371 -0.2259  0.4634 -0.6291
 5415SOL     OW27703   3.146   1.999  15.129  0.0751  0.4144 -0.4300
 5415SOL    HW127704   3.214   1.953  15.178 -0.7900 -1.2751 -0.7893
 5415SOL    HW227705   3.065   1.952  15.151 -0.9510  2.4719  0.2201
 5416SOL     OW27706   1.277   1.569   2.183  0.2200 -0.2403  0.5128
 5416SOL    HW127707   1.209   1.636   2.191  0.6720  0.1744  0.9082
 5416SOL    HW227708   1.278   1.552   2.089 -1.1871  2.4878  0.0124
 5417SOL     OW27709   0.004   0.109   7.151  0.2764 -0.1233  0.5803
 5417SOL    HW127710   4.694   0.090   7.063  1.0519 -0.1640  0.2992
 5417SOL    HW227711   4.655   0.091   7.211 -0.7404 -0.6549 -0.7856
 5418SOL     OW27712   2.410   0.391  14.949 -0.0777  0.3703 -0.5764
 5418SOL    HW127713   2.330   0.347  14.917 -1.3314  0.7335  2.0523
 5418SOL    HW227714   2.475   0.325  14.925 -1.4210  0.2862 -4.0377
 5419SOL     OW27715   2.306   4.416   2.803 -0.2660  0.3643 -0.2718
 5419SOL    HW127716   2.288   4.340   2.747  1.3968 -0.9355  0.9582
 5419SOL    HW227717   2.339   4.481   2.742 -1.3715  1.4410  0.2863
 5420SOL     OW27718   0.246   1.243  16.192 -0.0417  0.4519  0.1792
 5420SOL    HW127719   0.243   1.248  16.096 -0.9672 -1.2274  0.1327
 5420SOL    HW227720   0.296   1.324  16.205  0.8501  0.4100 -2.8492
 5421SOL     OW27721   4.028   1.198  16.433  0.1391  0.3934  0.3206
 5421SOL    HW127722   3.935   1.220  16.441  0.2644  2.0865 -2.7380
 5421SOL    HW227723   4.044   1.209  16.339  1.4184  0.5109  0.5530
 5422SOL     OW27724   0.521   2.539  11.772 -0.6222 -0.1941 -0.1198
 5422SOL    HW127725   0.600   2.547  11.826 -0.1092  2.1125 -1.1955
 5422SOL    HW227726   0.537   2.469  11.709 -2.0027  2.6248 -3.5869
 5423SOL     OW27727   4.092   3.312   7.277 -0.2981  0.4366 -0.2203
 5423SOL    HW127728   4.167   3.358   7.239  0.0050 -1.7653 -2.3591
 5423SOL    HW227729   4.077   3.258   7.199 -0.3101  0.0602  0.0415
 5424SOL     OW27730   3.865   0.414   3.824  0.4975  0.3233  0.2487
 5424SOL    HW127731   3.878   0.450   3.736 -0.9701  0.4826  0.0954
 5424SOL    HW227732   3.869   0.488   3.884  2.3148 -0.2182  0.7973
 5425SOL     OW27733   0.548   3.790   8.033 -0.7110  0.6018  0.1752
 5425SOL    HW127734   0.553   3.741   8.115 -0.6016  0.2540 -0.0360
 5425SOL    HW227735   0.532   3.715   7.975 -0.3097  1.3981 -0.9572
 5426SOL     OW27736   3.426   3.402  12.927  0.4042  0.1959 -0.4634
 5426SOL    HW127737   3.359   3.403  12.996  0.3767 -0.1507 -0.4847
 5426SOL    HW227738   3.375   3.361  12.856  1.0479 -0.3969 -0.5757
 5427SOL     OW27739   4.123   4.370   5.699 -0.2645 -0.1259 -0.3924
 5427SOL    HW127740   4.197   4.325   5.741 -2.7662 -1.0369  3.0117
 5427SOL    HW227741   4.142   4.338   5.610 -1.1200 -0.7229 -0.3643
 5428SOL     OW27742   0.425   1.549   4.876 -1.1538  0.1965  0.1430
 5428SOL    HW127743   0.503   1.506   4.910 -0.7805  1.4959  0.9568
 5428SOL    HW227744   0.390   1.594   4.953 -1.1887  1.5353 -0.6581
 5429SOL     OW27745   1.651   1.550   2.562  0.1895 -0.2753  0.1658
 5429SOL    HW127746   1.730   1.497   2.550  0.4415  0.6725 -2.5043
 5429SOL    HW227747   1.577   1.491   2.547 -1.7640  1.9784  0.9532
 5430SOL     OW27748   0.718   0.217   1.677 -0.2956 -0.2174 -0.1604
 5430SOL    HW127749   0.747   0.202   1.767 -2.3181  2.3550  0.9068
 5430SOL    HW227750   0.758   0.300   1.651  0.9409 -0.8725 -0.3858
 5431SOL     OW27751   0.660   3.187   5.298  0.0553  0.1597  0.5035
 5431SOL    HW127752   0.565   3.198   5.297  0.0241 -0.1274  0.3978
 5431SOL    HW227753   0.664   3.102   5.341 -2.3089  0.4952  1.4139
 5432SOL     OW27754   3.284   0.994   2.489  0.2497  0.9157 -0.0952
 5432SOL    HW127755   3.205   1.007   2.542 -0.7144  1.1360 -1.5968
 5432SOL    HW227756   3.318   1.084   2.481 -1.0703  1.4568  0.4982
 5433SOL     OW27757   1.906   1.668   6.160  0.2685 -0.5893 -0.1857
 5433SOL    HW127758   1.904   1.706   6.248 -0.7653 -0.8853 -0.0845
 5433SOL    HW227759   1.925   1.743   6.102 -0.1304 -0.0373  0.3967
 5434SOL     OW27760   0.373   4.611   3.580  0.1213 -0.3476  0.5698
 5434SOL    HW127761   0.359   4.531   3.632  0.0606 -1.0494 -0.5339
 5434SOL    HW227762   0.438   4.656   3.633  0.4905  0.1665 -0.3286
 5435SOL     OW27763   2.685   2.957  16.364 -1.2561  0.3193 -0.1856
 5435SOL    HW127764   2.607   2.938  16.416  0.0884 -0.3832  1.5762
 5435SOL    HW227765   2.642   3.014  16.300 -2.4802 -1.3902 -0.8938
 5436SOL     OW27766   0.734   2.960   7.372  0.3030 -0.0441  0.0825
 5436SOL    HW127767   0.718   2.917   7.456  1.2004 -3.5313 -1.5217
 5436SOL    HW227768   0.817   2.917   7.352  1.3595  2.2845 -0.5284
 5437SOL     OW27769   4.028   2.139   8.145  0.5658  0.1069 -0.0475
 5437SOL    HW127770   4.006   2.050   8.116 -0.9083 -0.0750  1.6403
 5437SOL    HW227771   4.046   2.176   8.058 -0.8966 -2.7186 -1.5598
 5438SOL     OW27772   1.529   3.807  11.546 -0.0234  0.8681  0.7027
 5438SOL    HW127773   1.522   3.902  11.546 -1.8921  0.7403 -1.8728
 5438SOL    HW227774   1.480   3.783  11.625  0.1674 -1.8826 -0.0096
 5439SOL     OW27775   2.047   4.003   7.909  0.1639  0.2019  0.3128
 5439SOL    HW127776   2.133   4.003   7.952 -0.6354  0.4350  1.9169
 5439SOL    HW227777   1.996   3.955   7.975 -0.7278 -0.0533 -0.5559
 5440SOL     OW27778   0.393   1.078  16.336 -0.2666  0.1401  0.0759
 5440SOL    HW127779   0.480   1.072  16.297  0.1281 -0.0258  0.9599
 5440SOL    HW227780   0.352   1.143  16.280 -0.3897 -0.4873 -0.5543
 5441SOL     OW27781   3.077   4.139  14.601 -0.5374 -0.6166  0.1346
 5441SOL    HW127782   3.047   4.170  14.686  1.9186  2.7776 -0.2005
 5441SOL    HW227783   3.033   4.204  14.545  0.3945 -0.0931 -0.0012
 5442SOL     OW27784   3.525   2.763   3.431  0.1814 -0.1633 -0.0329
 5442SOL    HW127785   3.523   2.680   3.385 -1.7366 -1.2749  2.0390
 5442SOL    HW227786   3.618   2.782   3.442  0.5026 -0.3527 -2.4658
 5443SOL     OW27787   3.665   0.544  12.183  1.3071  0.1818  0.1824
 5443SOL    HW127788   3.635   0.574  12.269 -0.6694 -3.0300  0.6000
 5443SOL    HW227789   3.745   0.493  12.195  0.4732 -1.3278 -0.7606
 5444SOL     OW27790   3.492   0.771  17.157 -0.2614  0.8000 -0.2883
 5444SOL    HW127791   3.460   0.694  17.110  2.2088  0.1164 -0.8770
 5444SOL    HW227792   3.545   0.804  17.084  0.1584  3.3085  1.1649
 5445SOL     OW27793   1.228   0.136   8.473  0.0013  0.0460  0.4917
 5445SOL    HW127794   1.310   0.173   8.440  0.7482  0.5125  2.8693
 5445SOL    HW227795   1.214   0.204   8.539 -1.2118 -0.1355  0.4190
 5446SOL     OW27796   0.279   4.258   5.106 -0.0087 -0.2233 -0.1492
 5446SOL    HW127797   0.248   4.187   5.051 -0.1523 -0.7101  0.5558
 5446SOL    HW227798   0.330   4.203   5.166 -0.5316 -0.3891  0.1466
 5447SOL     OW27799   4.476   3.932   1.054  0.5765 -0.4274  0.0451
 5447SOL    HW127800   4.507   3.889   0.975  0.0149 -0.4536 -0.1612
 5447SOL    HW227801   4.558   3.946   1.102 -0.9027  0.0373  2.4050
 5448SOL     OW27802   2.445   0.733   8.513 -0.1485  0.5327  0.1121
 5448SOL    HW127803   2.510   0.666   8.537 -1.0227 -1.0185 -1.8674
 5448SOL    HW227804   2.479   0.758   8.427 -2.4637  2.1421 -0.3382
 5449SOL     OW27805   2.304   4.387   5.036  0.0218  0.2086 -0.6662
 5449SOL    HW127806   2.398   4.369   5.046 -0.3564 -1.1769  0.2947
 5449SOL    HW227807   2.301   4.463   4.978  2.6229  0.9519  0.1492
 5450SOL     OW27808   4.524   3.497   5.405 -0.0635 -0.1633  0.1813
 5450SOL    HW127809   4.472   3.535   5.334  1.6449  1.3446 -0.2486
 5450SOL    HW227810   4.519   3.563   5.474 -0.2607  0.9896 -0.9431
 5451SOL     OW27811   2.745   3.277   1.152 -0.6375  0.1244  0.0346
 5451SOL    HW127812   2.808   3.279   1.080  1.2525  1.7301  1.7479
 5451SOL    HW227813   2.665   3.293   1.101  0.0513  2.9124 -0.1692
 5452SOL     OW27814   3.157   2.168   2.005 -0.2031 -0.0035 -0.1524
 5452SOL    HW127815   3.247   2.198   1.994 -0.3036  0.4560  0.2810
 5452SOL    HW227816   3.169   2.089   2.057  1.3371 -0.1440 -0.7128
 5453SOL     OW27817   4.092   1.045   5.493 -0.4007  0.2642  0.6696
 5453SOL    HW127818   4.140   0.997   5.425  0.9010  2.5897 -0.0426
 5453SOL    HW227819   4.005   1.067   5.459  0.5452  1.1091 -1.2038
 5454SOL     OW27820   0.704   0.463   8.922  0.1791  0.1861  0.0535
 5454SOL    HW127821   0.622   0.414   8.919  0.8771 -1.3194  4.6156
 5454SOL    HW227822   0.753   0.428   8.997  0.3521  0.4908  0.0828
 5455SOL     OW27823   3.376   1.368   5.809  0.2698 -0.2950  0.0748
 5455SOL    HW127824   3.441   1.378   5.878  0.7990  2.5021 -0.8138
 5455SOL    HW227825   3.417   1.415   5.736 -1.1094 -1.3122 -1.3616
 5456SOL     OW27826   4.133   4.503   7.005 -0.3466 -0.1994 -0.3501
 5456SOL    HW127827   4.077   4.571   7.041 -0.5991  0.5561 -2.1552
 5456SOL    HW227828   4.149   4.456   7.087 -0.1234 -0.7757 -0.7228
 5457SOL     OW27829   2.109   4.455   6.287  0.4038 -0.0102  0.3112
 5457SOL    HW127830   2.015   4.471   6.293  0.7832  1.1999  3.0364
 5457SOL    HW227831   2.108   4.407   6.204 -1.1096  1.9910 -0.8083
 5458SOL     OW27832   2.200   0.587   2.628 -1.1466  0.0168  0.1659
 5458SOL    HW127833   2.141   0.651   2.589 -1.3551 -2.0209 -2.7853
 5458SOL    HW227834   2.142   0.516   2.655  1.3635 -1.9775  0.3600
 5459SOL     OW27835   1.244   4.154   6.399 -0.2675  0.0450  0.3272
 5459SOL    HW127836   1.180   4.179   6.332  1.3141  1.5928 -0.5923
 5459SOL    HW227837   1.208   4.077   6.444 -3.7374  0.8040 -1.1146
 5460SOL     OW27838   0.710   1.938   1.787 -0.2289  0.2676  0.5295
 5460SOL    HW127839   0.655   2.004   1.830  0.6173  2.1688 -1.3000
 5460SOL    HW227840   0.664   1.932   1.703  0.1060  1.2476  0.2809
 5461SOL     OW27841   4.185   1.293   3.581  0.5470 -0.5150 -0.2468
 5461SOL    HW127842   4.250   1.359   3.605  0.5132  0.7597 -3.6546
 5461SOL    HW227843   4.146   1.330   3.502 -0.6642 -1.7073 -0.1992
 5462SOL     OW27844   4.322   1.876   1.290  0.2225 -0.7350 -0.3274
 5462SOL    HW127845   4.299   1.955   1.339 -1.9475 -1.6633  0.1645
 5462SOL    HW227846   4.394   1.845   1.346  1.7916 -0.8381 -2.3904
 5463SOL     OW27847   2.490   3.322   1.152 -0.5405  0.5397 -0.0370
 5463SOL    HW127848   2.476   3.397   1.094  0.2375  1.1917  0.6086
 5463SOL    HW227849   2.418   3.262   1.135 -1.5260  1.5301  0.6386
 5464SOL     OW27850   4.633   2.808  13.638 -0.1587 -0.6382  0.7882
 5464SOL    HW127851   4.601   2.814  13.548  0.6135 -2.0773  0.4353
 5464SOL    HW227852   4.554   2.835  13.685 -0.9714  1.0290 -1.5115
 5465SOL     OW27853   0.809   2.576   9.720  0.6071 -0.4317 -0.4331
 5465SOL    HW127854   0.794   2.634   9.794  1.2159  0.8737 -1.3333
 5465SOL    HW227855   0.897   2.603   9.696  1.0403  0.8953  2.7006
 5466SOL     OW27856   4.133   1.726   0.382 -0.5424 -0.1003  0.5716
 5466SOL    HW127857   4.173   1.667   0.319  0.8944  0.8715  0.5597
 5466SOL    HW227858   4.202   1.792   0.394  0.6365 -1.3827  0.7775
 5467SOL     OW27859   3.799   0.731  13.065 -0.4005 -0.0361 -0.2094
 5467SOL    HW127860   3.827   0.640  13.059  0.9717  0.3593  0.2595
 5467SOL    HW227861   3.732   0.732  13.134 -1.5331 -0.4237 -1.3077
 5468SOL     OW27862   3.849   3.481   6.315 -0.3130 -0.4153 -0.1398
 5468SOL    HW127863   3.783   3.447   6.255 -0.0101  1.0364 -1.2984
 5468SOL    HW227864   3.922   3.422   6.299  0.7775  1.6390 -2.7420
 5469SOL     OW27865   2.028   0.688  15.897  0.4411  1.0568  0.0580
 5469SOL    HW127866   1.960   0.620  15.902  1.3045  0.1871 -0.0714
 5469SOL    HW227867   1.975   0.759  15.935 -0.3333  0.4199  0.1740
 5470SOL     OW27868   0.526   4.678   2.484  0.4571 -0.3496  0.0289
 5470SOL    HW127869   0.446   0.007   2.497 -0.2399 -2.0697  2.5156
 5470SOL    HW227870   0.568   4.714   2.406  0.3883  1.1425  0.6742
 5471SOL     OW27871   1.788   0.989   3.395 -0.1434  0.1669 -0.5188
 5471SOL    HW127872   1.838   1.067   3.419  2.7854 -1.6665 -0.6583
 5471SOL    HW227873   1.778   1.022   3.306  1.2963  1.3092 -0.2637
 5472SOL     OW27874   1.798   3.626   0.303  0.5057 -0.5870 -0.3853
 5472SOL    HW127875   1.861   3.695   0.322 -0.9953  0.7035 -0.1248
 5472SOL    HW227876   1.862   3.556   0.315  0.4792 -0.5684 -0.1275
 5473SOL     OW27877   3.026   1.899  10.874  0.0887  0.2559  0.2675
 5473SOL    HW127878   3.119   1.888  10.895  0.1268 -0.2982 -0.1804
 5473SOL    HW227879   3.016   1.990  10.900  2.3217  0.6408 -0.1674
 5474SOL     OW27880   2.636   3.981   2.522 -0.4618  0.0780  0.2226
 5474SOL    HW127881   2.727   3.968   2.550 -0.5268 -0.8702 -0.0054
 5474SOL    HW227882   2.632   3.949   2.432 -3.4651  2.4376 -0.4526
 5475SOL     OW27883   2.546   1.412   2.978 -0.3447  0.2798 -0.3700
 5475SOL    HW127884   2.597   1.331   2.973 -0.6943  0.1183 -1.3193
 5475SOL    HW227885   2.602   1.477   2.935  0.9320 -0.4576  0.1828
 5476SOL     OW27886   1.999   2.386  13.109  0.4216  0.7597 -0.6625
 5476SOL    HW127887   1.936   2.399  13.180 -1.1507  1.5348 -2.2159
 5476SOL    HW227888   1.965   2.418  13.026 -0.7084  0.1738 -0.4379
 5477SOL     OW27889   1.719   0.213  14.108  0.0525 -0.6968 -0.1123
 5477SOL    HW127890   1.665   0.235  14.031  0.9875  4.1904  0.6872
 5477SOL    HW227891   1.769   0.293  14.121  0.4672 -1.0599  0.5072
 5478SOL     OW27892   0.757   1.631   4.722  0.1541  0.3154  0.3310
 5478SOL    HW127893   0.762   1.727   4.719 -0.9275  0.4092  1.5782
 5478SOL    HW227894   0.784   1.610   4.812 -0.3318  0.6925  0.5684
 5479SOL     OW27895   4.518   1.279   4.133  0.2597 -0.4125  0.0907
 5479SOL    HW127896   4.535   1.194   4.175 -0.1288  0.1808  1.4703
 5479SOL    HW227897   4.582   1.334   4.178 -0.1639  0.4720 -0.3871
 5480SOL     OW27898   0.595   2.176   4.590  0.1311 -0.2098 -0.1662
 5480SOL    HW127899   0.556   2.114   4.651 -0.0309  1.2455  1.2368
 5480SOL    HW227900   0.533   2.249   4.592  2.1263  1.5247 -0.2264
 5481SOL     OW27901   4.255   0.363   5.404  0.1278  0.1197 -0.4296
 5481SOL    HW127902   4.164   0.335   5.395 -0.4056  1.6784  0.1540
 5481SOL    HW227903   4.261   0.449   5.362 -2.3378  1.1801  1.4146
 5482SOL     OW27904   2.748   0.885   5.027 -0.1087  0.1680 -0.1121
 5482SOL    HW127905   2.762   0.848   4.940 -0.9430 -1.7501  0.5676
 5482SOL    HW227906   2.664   0.853   5.062  0.0144  1.1185  1.0572
 5483SOL     OW27907   0.738   2.569   6.451 -0.0547 -0.3841  0.2950
 5483SOL    HW127908   0.750   2.651   6.403 -1.8713 -1.9151 -2.7836
 5483SOL    HW227909   0.809   2.576   6.514  1.6275 -0.5107 -1.5887
 5484SOL     OW27910   1.313   0.300   4.008 -0.1268  0.1676  0.5263
 5484SOL    HW127911   1.306   0.362   4.081  0.9098 -0.6965  1.3560
 5484SOL    HW227912   1.222   0.272   4.011 -0.3935  0.9940  0.1347
 5485SOL     OW27913   3.461   3.494   5.333  0.2476  0.3626  0.4350
 5485SOL    HW127914   3.523   3.428   5.364 -0.9865 -1.6336 -1.3343
 5485SOL    HW227915   3.522   3.567   5.321  1.2636 -0.4789  0.5337
 5486SOL     OW27916   3.998   1.800  15.217  0.1880 -0.3726  0.3376
 5486SOL    HW127917   3.943   1.874  15.245 -0.5251 -1.3404  1.4651
 5486SOL    HW227918   3.976   1.745  15.292  0.3233  0.3641  0.9166
 5487SOL     OW27919   2.854   2.508   2.354 -0.2487  0.0513 -0.0175
 5487SOL    HW127920   2.861   2.500   2.259 -0.7820  0.6873 -0.1108
 5487SOL    HW227921   2.906   2.588   2.366  2.4432 -1.9963  1.7758
 5488SOL     OW27922   3.597   3.684   1.794 -0.0930  0.4906  0.1513
 5488SOL    HW127923   3.672   3.740   1.774 -1.0895  1.2606 -1.4337
 5488SOL    HW227924   3.563   3.704   1.882  1.4694 -0.8408  1.0516
 5489SOL     OW27925   2.678   4.437  17.436  0.1521  0.2585 -0.2808
 5489SOL    HW127926   2.622   4.405  17.506  0.2255  0.7055 -0.0184
 5489SOL    HW227927   2.676   4.532  17.441  4.5724  0.4562 -2.0254
 5490SOL     OW27928   0.903   2.428   2.192  0.0210 -0.0254 -0.0754
 5490SOL    HW127929   0.907   2.447   2.286 -2.6450  0.8630 -0.1134
 5490SOL    HW227930   0.811   2.402   2.189  0.2443 -0.6145 -1.9588
 5491SOL     OW27931   1.100   0.273   7.873  0.1519 -0.4359  0.1054
 5491SOL    HW127932   1.117   0.260   7.967  0.2066  0.9930  0.3007
 5491SOL    HW227933   1.089   0.185   7.838 -0.6575 -0.6131  0.7858
 5492SOL     OW27934   2.588   4.421  13.556  0.0222 -0.0477 -0.0438
 5492SOL    HW127935   2.537   4.480  13.612 -0.6739 -1.8182  1.1577
 5492SOL    HW227936   2.555   4.455  13.473  0.1923 -1.6014 -0.7365
 5493SOL     OW27937   3.750   3.907   4.876 -0.0008 -0.3038 -0.1328
 5493SOL    HW127938   3.657   3.924   4.861 -0.0331 -1.4405 -1.1957
 5493SOL    HW227939   3.746   3.868   4.963 -0.8308 -0.5057 -0.2661
 5494SOL     OW27940   3.318   0.174   2.877 -0.5635  0.0077  0.5074
 5494SOL    HW127941   3.258   0.240   2.912 -0.5156  0.4500 -0.2624
 5494SOL    HW227942   3.365   0.223   2.810 -0.7070  2.1140  1.9703
 5495SOL     OW27943   1.975   1.843  15.417  0.4668  0.1851 -0.3806
 5495SOL    HW127944   2.034   1.804  15.353 -1.6337 -2.1502 -0.8911
 5495SOL    HW227945   1.947   1.761  15.457  0.5676  0.1631 -0.3557
 5496SOL     OW27946   2.684   2.581   8.246 -0.0192  0.1283 -0.0330
 5496SOL    HW127947   2.724   2.519   8.184  0.8248 -0.6039  1.2197
 5496SOL    HW227948   2.756   2.630   8.285  0.4349 -0.9577  0.4955
 5497SOL     OW27949   2.828   0.890  10.775  0.2947 -0.3011  0.0145
 5497SOL    HW127950   2.916   0.884  10.813 -0.1964 -0.4579  1.1211
 5497SOL    HW227951   2.811   0.984  10.773 -3.5162 -0.9924  0.6175
 5498SOL     OW27952   0.798   3.527   9.396  0.6286  0.6478  0.6819
 5498SOL    HW127953   0.717   3.490   9.432 -0.0173  0.9937 -0.4061
 5498SOL    HW227954   0.830   3.584   9.465  1.9414 -1.6090  1.9252
 5499SOL     OW27955   1.096   1.248   2.065 -0.0477  0.1565  0.3323
 5499SOL    HW127956   1.145   1.233   2.145  0.7408  0.7794 -0.0241
 5499SOL    HW227957   1.151   1.203   2.001 -0.4169 -0.9151  0.7838
 5500SOL     OW27958   1.219   4.637   7.410  0.4981 -0.6143 -0.3550
 5500SOL    HW127959   1.200   4.618   7.318  0.4890 -0.8080 -0.3121
 5500SOL    HW227960   1.160   4.710   7.431 -1.0948 -1.8599 -0.5631
 5501SOL     OW27961   2.039   3.138   1.971  0.5469 -0.4612  1.0023
 5501SOL    HW127962   1.985   3.137   1.892  1.9020  0.7862  0.0616
 5501SOL    HW227963   2.028   3.229   2.000 -1.4075  0.2629 -2.0010
 5502SOL     OW27964   0.780   0.663   4.243  0.2090 -0.6197 -0.1887
 5502SOL    HW127965   0.831   0.738   4.272 -0.0655 -0.9940  1.2271
 5502SOL    HW227966   0.702   0.702   4.203  0.5724  1.5264  1.1892
 5503SOL     OW27967   3.832   0.489  14.996 -0.7952 -0.6038  0.4950
 5503SOL    HW127968   3.841   0.458  14.906  0.2987  0.0393  0.3781
 5503SOL    HW227969   3.910   0.456  15.040 -0.5929 -0.0821  0.5274
 5504SOL     OW27970   0.754   0.328  13.323 -0.2301  0.7437 -0.4792
 5504SOL    HW127971   0.741   0.420  13.299  2.0207  1.0858 -0.4460
 5504SOL    HW227972   0.844   0.311  13.296 -0.1447  0.6456 -0.1294
 5505SOL     OW27973   4.254   4.496   4.242 -0.5554  0.3457 -0.0988
 5505SOL    HW127974   4.221   4.545   4.167 -0.2217  3.1609  1.5950
 5505SOL    HW227975   4.177   4.440   4.244 -0.7284  0.6339  0.8786
 5506SOL     OW27976   0.114   2.788   4.924  0.5853 -0.0648 -0.1411
 5506SOL    HW127977   0.172   2.831   4.987  1.8473 -0.9794 -0.6725
 5506SOL    HW227978   0.166   2.712   4.897 -1.1490 -0.4764 -2.2492
 5507SOL     OW27979   0.682   0.197   9.471  0.0459  0.0407  0.1155
 5507SOL    HW127980   0.653   0.105   9.468  0.2012 -0.0144  0.2815
 5507SOL    HW227981   0.774   0.185   9.494 -0.0177 -2.5235 -0.8907
 5508SOL     OW27982   3.662   3.422   6.083  0.1114 -0.8722  0.0914
 5508SOL    HW127983   3.662   3.474   6.003 -0.4896 -1.2988 -0.1912
 5508SOL    HW227984   3.584   3.451   6.130 -0.1848 -0.0308 -0.9115
 5509SOL     OW27985   3.849   1.143   0.848  0.3072 -0.2437 -0.0385
 5509SOL    HW127986   3.821   1.171   0.935  0.1159 -0.6561  0.0348
 5509SOL    HW227987   3.780   1.080   0.827  0.0188  0.1427 -0.2551
 5510SOL     OW27988   4.368   2.140   1.804 -0.0833  0.1184 -0.1645
 5510SOL    HW127989   4.381   2.207   1.737  0.6621  0.2812  0.1463
 5510SOL    HW227990   4.329   2.065   1.760  1.2289 -0.4869 -0.2998
 5511SOL     OW27991   3.712   0.794   5.013  0.3773  0.2798  0.4036
 5511SOL    HW127992   3.709   0.885   5.042 -0.0957  0.6103 -0.6908
 5511SOL    HW227993   3.641   0.785   4.949 -0.4693  0.5552  1.3151
 5512SOL     OW27994   1.864   2.508   6.798  0.1283 -0.2600  0.1307
 5512SOL    HW127995   1.777   2.471   6.813 -0.5178  1.2047 -0.0173
 5512SOL    HW227996   1.849   2.575   6.731 -1.1053 -0.1590  0.5234
 5513SOL     OW27997   2.739   2.093  10.939  0.2574 -0.4179  0.1729
 5513SOL    HW127998   2.659   2.144  10.938  0.2708 -0.4136 -0.8873
 5513SOL    HW227999   2.695   2.011  10.961 -1.3264  0.9077  1.8831
 5514SOL     OW28000   0.948   2.418  14.328 -0.1975  0.1404 -0.1173
 5514SOL    HW128001   1.040   2.420  14.303  0.0421  0.0737  0.7299
 5514SOL    HW228002   0.905   2.467  14.258  0.0423 -0.0236 -0.3773
 5515SOL     OW28003   1.387   1.614   9.220 -0.5699  0.0462 -0.3886
 5515SOL    HW128004   1.337   1.640   9.297  0.9674 -0.4319  0.7679
 5515SOL    HW228005   1.465   1.669   9.227  2.2381 -4.3629  3.3086
 5516SOL     OW28006   1.658   0.449   8.561 -0.5751  0.0960 -0.0368
 5516SOL    HW128007   1.717   0.374   8.569 -0.2734  0.1896 -1.3884
 5516SOL    HW228008   1.716   0.486   8.494  2.9685 -1.1830  2.3477
 5517SOL     OW28009   3.668   0.787   9.325  0.0850 -0.2025  0.0175
 5517SOL    HW128010   3.662   0.844   9.402 -3.3136  0.2580 -0.5953
 5517SOL    HW228011   3.574   0.789   9.304 -0.2937  0.4059  1.7793
 5518SOL     OW28012   2.424   0.067   5.391 -0.0946  0.0659 -0.1329
 5518SOL    HW128013   2.383   0.032   5.313 -0.9266 -0.4578  0.5382
 5518SOL    HW228014   2.501   0.120   5.369  0.0652 -0.5503 -1.0431
 5519SOL     OW28015   3.695   3.994  15.377 -1.1406 -0.8352 -0.0491
 5519SOL    HW128016   3.764   4.012  15.440 -1.2832 -0.7198  0.0723
 5519SOL    HW228017   3.737   3.953  15.301 -0.0191 -2.1779  1.3107
 5520SOL     OW28018   3.126   3.133   1.631  0.1083 -1.0234  0.5930
 5520SOL    HW128019   3.164   3.091   1.553 -0.3178  1.5722 -1.0327
 5520SOL    HW228020   3.046   3.158   1.584  1.9849 -0.0856 -2.1664
 5521SOL     OW28021   3.091   3.518   0.775  0.0530 -0.0591  0.0353
 5521SOL    HW128022   3.149   3.553   0.707 -0.0093 -0.3067 -0.1440
 5521SOL    HW228023   3.004   3.549   0.749 -0.4759 -1.1969  0.4301
 5522SOL     OW28024   4.631   1.197   1.719  0.0426 -0.0270 -0.6183
 5522SOL    HW128025   4.598   1.233   1.801  0.0794 -0.3648 -0.4576
 5522SOL    HW228026   4.670   1.118   1.755 -0.3223  0.9826  1.9956
 5523SOL     OW28027   0.688   2.901   2.194 -0.2878  0.1982  0.1861
 5523SOL    HW128028   0.700   2.996   2.196 -0.6460  0.2098  1.6734
 5523SOL    HW228029   0.611   2.902   2.136  0.2040  1.5371 -0.4387
 5524SOL     OW28030   0.410   1.203   8.447 -0.3030  0.1914 -0.4789
 5524SOL    HW128031   0.501   1.233   8.459  0.1713 -1.0821 -0.8784
 5524SOL    HW228032   0.422   1.109   8.461  0.4521  0.5413  1.3400
 5525SOL     OW28033   1.132   2.691   9.682  0.3168  0.4577  0.6748
 5525SOL    HW128034   1.124   2.704   9.777 -0.9692  4.7134 -0.0185
 5525SOL    HW228035   1.147   2.778   9.647  0.2076 -0.7355 -2.3213
 5526SOL     OW28036   2.206   1.910   4.939  0.1888 -0.1342 -0.2368
 5526SOL    HW128037   2.113   1.912   4.916  0.7808  1.2552 -2.4890
 5526SOL    HW228038   2.241   1.999   4.931 -0.6398  0.0578 -1.8056
 5527SOL     OW28039   2.863   1.156   8.863  0.3071 -0.9418 -0.7009
 5527SOL    HW128040   2.844   1.242   8.827  2.1589 -1.0879 -1.9832
 5527SOL    HW228041   2.932   1.125   8.805  0.0894 -1.1221 -0.8667
 5528SOL     OW28042   0.067   3.499  11.407  0.1244  0.6341 -0.6523
 5528SOL    HW128043   4.714   3.548  11.373 -0.7156  1.0357  1.8288
 5528SOL    HW228044   0.079   3.537  11.494 -0.7941 -1.2835  0.3113
 5529SOL     OW28045   3.645   3.061  16.789  0.1938  0.1344 -0.1007
 5529SOL    HW128046   3.661   3.137  16.734  2.2837 -1.9277 -2.3743
 5529SOL    HW228047   3.715   3.055  16.854 -1.4026 -1.2171  1.4827
 5530SOL     OW28048   2.787   1.807  11.238  0.0855 -0.5864  0.1982
 5530SOL    HW128049   2.739   1.838  11.162 -1.5386  1.5013  2.0670
 5530SOL    HW228050   2.859   1.869  11.247  0.2183 -0.7173  0.0471
 5531SOL     OW28051   4.212   1.479  16.227 -0.5972 -0.1897 -0.2138
 5531SOL    HW128052   4.126   1.493  16.266  0.4854 -1.5095  2.6547
 5531SOL    HW228053   4.210   1.384  16.221 -1.6403 -0.0469 -2.0707
 5532SOL     OW28054   2.893   1.522   6.487 -0.1718  0.1122 -0.1138
 5532SOL    HW128055   2.897   1.532   6.392 -0.5379  0.4412 -0.0943
 5532SOL    HW228056   2.898   1.427   6.496 -0.9050  0.0924  0.0054
 5533SOL     OW28057   4.123   2.295   2.814  0.6667  0.2642 -0.1433
 5533SOL    HW128058   4.155   2.360   2.876  0.6365  0.1067  0.0368
 5533SOL    HW228059   4.040   2.333   2.788  0.5548  0.5726  0.6719
 5534SOL     OW28060   0.297   2.023   7.440 -0.5687  0.1592 -0.6678
 5534SOL    HW128061   0.278   2.052   7.529  0.3298 -0.7997 -0.1746
 5534SOL    HW228062   0.391   2.005   7.438 -0.5291  0.0819  1.9618
 5535SOL     OW28063   1.633   2.615   3.081  0.1292  0.0519  0.6154
 5535SOL    HW128064   1.641   2.664   3.162 -0.1638  1.5829 -0.2832
 5535SOL    HW228065   1.582   2.667   3.019  2.5380  0.7688 -0.7387
 5536SOL     OW28066   3.492   3.922   9.193  1.1073  0.1816 -0.2879
 5536SOL    HW128067   3.404   3.959   9.200  0.3264 -2.0310  1.6021
 5536SOL    HW228068   3.467   3.831   9.212 -2.1093  1.4412  1.5833
 5537SOL     OW28069   3.085   2.215   3.400  0.7577 -0.6772 -0.1891
 5537SOL    HW128070   3.087   2.124   3.370  0.3750 -0.9171  0.5218
 5537SOL    HW228071   3.079   2.254   3.312  1.1544  1.4576  0.7415
 5538SOL     OW28072   1.294   0.114   6.420  0.7875 -0.5060  0.0589
 5538SOL    HW128073   1.365   0.164   6.460  0.5732  1.2633 -1.7851
 5538SOL    HW228074   1.310   0.105   6.326  0.6269 -0.5197  0.0335
 5539SOL     OW28075   2.497   4.121   9.736  0.6474  0.1616  0.4189
 5539SOL    HW128076   2.507   4.186   9.806 -0.5854  1.7792 -0.9387
 5539SOL    HW228077   2.490   4.186   9.666 -1.1318 -0.1244  0.3320
 5540SOL     OW28078   0.320   2.119   4.311  0.3736  0.0177 -0.6347
 5540SOL    HW128079   0.392   2.153   4.259  0.2227 -0.8235 -1.4029
 5540SOL    HW228080   0.299   2.205   4.347 -2.6869  0.5794 -3.7583
 5541SOL     OW28081   0.698   0.074  11.038 -0.7329  0.3660 -0.6311
 5541SOL    HW128082   0.664   4.716  10.999  0.4729 -0.2350 -0.4332
 5541SOL    HW228083   0.790   0.053  11.053 -0.5472  1.8882  0.4597
 5542SOL     OW28084   0.127   2.998   8.690  0.2941  0.4779  0.1809
 5542SOL    HW128085   0.038   3.007   8.658 -0.5460 -1.5930  1.9082
 5542SOL    HW228086   0.154   3.090   8.688  0.5045  0.4225  0.4228
 5543SOL     OW28087   4.163   1.409  12.979  0.0529 -0.0992 -0.3819
 5543SOL    HW128088   4.072   1.382  12.970  0.3982 -1.2536 -0.3954
 5543SOL    HW228089   4.210   1.346  12.924 -2.1568 -0.6414 -1.6342
 5544SOL     OW28090   0.640   1.181   1.768  0.1068  0.4353  0.2632
 5544SOL    HW128091   0.708   1.249   1.770  1.4818 -1.0253  2.6827
 5544SOL    HW228092   0.675   1.124   1.699  1.9043 -1.6696  2.8967
 5545SOL     OW28093   2.123   1.957   6.197  0.2708  0.2341  0.5948
 5545SOL    HW128094   2.210   1.917   6.193  1.5900  3.2548 -0.7695
 5545SOL    HW228095   2.109   1.924   6.286 -3.6479  1.5064  0.4568
 5546SOL     OW28096   3.506   2.196   8.102 -0.4752 -0.1355 -0.0869
 5546SOL    HW128097   3.520   2.169   8.011 -0.4580  0.4236 -0.2511
 5546SOL    HW228098   3.584   2.251   8.111 -0.8841  0.3573  0.4324
 5547SOL     OW28099   3.870   0.055   2.435  1.6979  0.0479 -0.0241
 5547SOL    HW128100   3.867   4.707   2.370 -1.6235 -1.0148  1.2602
 5547SOL    HW228101   3.827   0.003   2.504 -0.0941 -0.0391 -1.1895
 5548SOL     OW28102   4.504   4.227   0.379 -0.0792  0.2384 -0.3093
 5548SOL    HW128103   4.578   4.178   0.342  0.2512  0.0144  0.6653
 5548SOL    HW228104   4.559   4.295   0.416 -1.7761  2.3146 -1.6257
 5549SOL     OW28105   1.466   1.920  13.195  0.4711  0.4746 -0.3115
 5549SOL    HW128106   1.473   1.893  13.286  3.2931 -0.1670 -0.7133
 5549SOL    HW228107   1.452   1.837  13.149  0.9392  0.9468 -1.3084
 5550SOL     OW28108   2.750   3.286  14.724 -0.0872  0.2461  0.8850
 5550SOL    HW128109   2.797   3.273  14.806  2.1604  0.1052 -0.4240
 5550SOL    HW228110   2.686   3.355  14.741  1.0930  1.1757  1.5239
 5551SOL     OW28111   0.271   3.954   0.606  0.2494  0.1592  0.0690
 5551SOL    HW128112   0.341   3.922   0.549  1.7017  2.4806  0.5729
 5551SOL    HW228113   0.197   3.899   0.580 -0.3296  0.4443  1.1261
 5552SOL     OW28114   1.995   1.558  17.239 -0.1953 -0.7645  0.0852
 5552SOL    HW128115   1.914   1.601  17.266  0.8192 -0.0547  1.9457
 5552SOL    HW228116   1.954   1.503  17.172  0.2969  1.0390 -1.6870
 5553SOL     OW28117   1.196   3.235   6.709  0.2092  0.2204  0.2495
 5553SOL    HW128118   1.238   3.235   6.796  1.0860  0.1985 -0.1696
 5553SOL    HW228119   1.264   3.284   6.661  0.2186  1.3891  1.4480
 5554SOL     OW28120   4.054   1.426  13.860  0.0457  0.1949  0.4665
 5554SOL    HW128121   4.056   1.483  13.937 -1.1712 -0.5987  1.0947
 5554SOL    HW228122   4.144   1.427  13.828  0.2238 -0.6633  0.9487
 5555SOL     OW28123   2.040   1.954   1.366  0.0092 -0.1923  0.0173
 5555SOL    HW128124   1.974   1.890   1.395 -0.0717  0.2474  0.8074
 5555SOL    HW228125   2.088   1.903   1.301  0.0848  1.2155 -1.0180
 5556SOL     OW28126   2.706   3.513   4.247 -0.7805 -0.6882  0.5493
 5556SOL    HW128127   2.610   3.503   4.247 -1.0258  1.5126  3.0853
 5556SOL    HW228128   2.726   3.439   4.303  0.0001 -1.5588 -0.8737
 5557SOL     OW28129   3.460   3.670   5.941 -0.2621 -0.2233  0.3197
 5557SOL    HW128130   3.405   3.664   6.019  2.1306  0.3724  2.0263
 5557SOL    HW228131   3.477   3.764   5.945 -2.7393  0.1498  2.2862
 5558SOL     OW28132   0.146   3.379   4.717 -0.2797 -0.0374 -0.0927
 5558SOL    HW128133   0.167   3.289   4.691 -5.6516 -1.3360  0.1615
 5558SOL    HW228134   0.199   3.393   4.796  1.2516  0.3689 -1.1892
 5559SOL     OW28135   4.434   2.627  16.167  0.0457  0.2912 -0.2107
 5559SOL    HW128136   4.349   2.585  16.151  0.3853 -0.8798  1.0516
 5559SOL    HW228137   4.465   2.588  16.248  1.2972 -0.2090 -0.9322
 5560SOL     OW28138   3.417   0.891   7.986  0.8829 -0.1223  0.0931
 5560SOL    HW128139   3.420   0.825   8.055  1.7591 -2.3605 -2.1066
 5560SOL    HW228140   3.323   0.895   7.970  0.7461 -1.4658  0.5514
 5561SOL     OW28141   2.236   3.291   7.468  0.5299  0.6207  0.0919
 5561SOL    HW128142   2.185   3.238   7.530  0.7928  1.1732  0.7825
 5561SOL    HW228143   2.200   3.272   7.382  2.5198 -1.9953 -0.1619
 5562SOL     OW28144   1.048   3.380   7.622 -0.4481 -0.0824  0.1705
 5562SOL    HW128145   1.041   3.436   7.700  0.4169  0.9062 -0.4510
 5562SOL    HW228146   1.017   3.298   7.659 -0.0004 -0.5436 -0.4848
 5563SOL     OW28147   1.152   1.066  11.783  0.3715 -0.0457 -0.3032
 5563SOL    HW128148   1.212   1.141  11.787 -1.4447  1.4578 -1.4685
 5563SOL    HW228149   1.099   1.082  11.705 -1.2838  2.0142  1.2330
 5564SOL     OW28150   2.909   0.366   1.398  0.0246  0.5231 -0.2335
 5564SOL    HW128151   2.815   0.358   1.386 -0.3483  0.7868  2.6823
 5564SOL    HW228152   2.931   0.280   1.433 -0.9408  0.1200 -0.6328
 5565SOL     OW28153   3.399   1.138   9.656 -0.1203 -0.0686  1.3323
 5565SOL    HW128154   3.357   1.137   9.742  0.5705 -2.8327  1.6459
 5565SOL    HW228155   3.475   1.083   9.674 -0.2581  0.1281  2.4931
 5566SOL     OW28156   2.868   2.128   5.645 -0.4373 -0.6749 -0.5924
 5566SOL    HW128157   2.798   2.147   5.707  0.6096  0.1467  0.3287
 5566SOL    HW228158   2.898   2.217   5.627 -1.4658  0.4138  3.2271
 5567SOL     OW28159   3.325   3.690   4.492  0.2831 -0.4963  0.0197
 5567SOL    HW128160   3.239   3.724   4.519  1.5197  1.0028  2.0988
 5567SOL    HW228161   3.293   3.600   4.484 -1.8474  0.1989  0.6484
 5568SOL     OW28162   4.118   3.522   4.873  0.0669  0.3497 -0.2109
 5568SOL    HW128163   4.213   3.517   4.885  0.1447 -2.4234 -1.9374
 5568SOL    HW228164   4.100   3.455   4.807 -2.3475  0.2983  0.5172
 5569SOL     OW28165   3.891   0.356   4.750 -0.4164 -0.3664 -0.1702
 5569SOL    HW128166   3.968   0.381   4.698 -0.5172 -0.0503 -0.1628
 5569SOL    HW228167   3.834   0.432   4.742  0.0365 -0.0343 -0.2717
 5570SOL     OW28168   4.129   3.559  14.823  0.0935 -0.0446  0.5355
 5570SOL    HW128169   4.069   3.532  14.892  0.3871 -1.4173  0.2592
 5570SOL    HW228170   4.083   3.627  14.775 -1.5904 -1.6347 -0.1258
 5571SOL     OW28171   2.526   1.026   2.882 -0.1747  0.3315  0.3061
 5571SOL    HW128172   2.621   1.024   2.894 -0.3586 -0.0908  1.7162
 5571SOL    HW228173   2.517   0.981   2.798  0.1276 -0.4944  0.7212
 5572SOL     OW28174   1.112   3.128   7.437 -0.2068 -0.6998  0.9401
 5572SOL    HW128175   1.136   3.198   7.498  0.2417 -1.1169  1.2496
 5572SOL    HW228176   1.021   3.119   7.463 -0.0195  1.4772  2.3900
 5573SOL     OW28177   1.946   1.097   9.385 -0.3513  0.1470  0.0590
 5573SOL    HW128178   1.930   1.013   9.341  3.8107 -0.8844  0.5437
 5573SOL    HW228179   1.854   1.123   9.390 -0.5471 -0.6437  0.5534
 5574SOL     OW28180   0.038   4.389   5.503 -0.0610 -0.6858 -0.3698
 5574SOL    HW128181   0.060   4.328   5.433  1.3956  1.5392 -1.8814
 5574SOL    HW228182   0.124   4.400   5.544 -0.5248 -1.5867  0.8391
 5575SOL     OW28183   4.390   1.531   8.888 -0.1953  0.4105  0.1158
 5575SOL    HW128184   4.445   1.474   8.940 -1.9399  0.0492  1.5712
 5575SOL    HW228185   4.300   1.528   8.921 -0.3351 -0.7161 -0.3741
 5576SOL     OW28186   2.051   3.489   3.050 -0.0632  0.1668 -0.2666
 5576SOL    HW128187   1.987   3.553   3.080 -0.2018 -0.2914  0.4186
 5576SOL    HW228188   2.135   3.534   3.040 -0.0915 -0.3904 -2.9722
 5577SOL     OW28189   1.324   3.099  10.587  0.0914  0.1129 -0.0306
 5577SOL    HW128190   1.382   3.082  10.512 -0.5505  1.3632 -0.8165
 5577SOL    HW228191   1.384   3.101  10.661 -0.3243 -1.4440  0.3473
 5578SOL     OW28192   1.147   2.402  15.587  0.5731 -0.0009  0.8311
 5578SOL    HW128193   1.111   2.351  15.515  2.6719  0.0596 -0.2524
 5578SOL    HW228194   1.089   2.478  15.578  1.0510  0.0761 -1.4716
 5579SOL     OW28195   0.242   0.901   2.404 -0.5408 -0.4394 -0.6111
 5579SOL    HW128196   0.174   0.874   2.342 -2.9470  2.7472  0.5898
 5579SOL    HW228197   0.319   0.900   2.347  0.8912  0.7857  1.2964
 5580SOL     OW28198   4.037   1.525   5.666  0.0571  0.6602  0.2181
 5580SOL    HW128199   4.034   1.619   5.648 -0.3963  0.9616  1.8932
 5580SOL    HW228200   4.132   1.515   5.674  0.0503  0.8313  0.5134
 5581SOL     OW28201   2.348   2.369   8.955 -0.2205  0.3209 -0.2173
 5581SOL    HW128202   2.324   2.438   9.018  0.9098  2.1846 -1.8021
 5581SOL    HW228203   2.426   2.322   8.984 -0.3009 -0.2789 -0.9707
 5582SOL     OW28204   3.308   1.232   0.508  0.4822  0.3267  0.3284
 5582SOL    HW128205   3.269   1.295   0.569  0.7658 -0.5962  1.4549
 5582SOL    HW228206   3.318   1.157   0.566 -1.4520  0.1274  0.3971
 5583SOL     OW28207   3.813   4.168  16.439 -0.5066 -0.4542 -0.4520
 5583SOL    HW128208   3.889   4.226  16.440 -0.8560 -0.0221  2.3926
 5583SOL    HW228209   3.776   4.199  16.357 -0.1024 -1.9927 -1.2154
 5584SOL     OW28210   4.396   0.984  16.771 -0.3023 -0.1564  0.2450
 5584SOL    HW128211   4.359   1.071  16.753  0.7647  0.0597 -0.9462
 5584SOL    HW228212   4.487   1.008  16.753  0.0325 -1.1992  0.5401
 5585SOL     OW28213   4.460   1.128   3.858  0.1966  0.2101  0.1733
 5585SOL    HW128214   4.471   1.163   3.947  3.4679 -0.8486  0.1960
 5585SOL    HW228215   4.405   1.051   3.868  1.0129 -0.2922  0.7482
 5586SOL     OW28216   2.264   4.595   0.025  0.2492  0.1350 -0.3066
 5586SOL    HW128217   2.284   4.554  17.631  1.1563  0.2335 -0.1455
 5586SOL    HW228218   2.234   4.519   0.076  0.1272 -1.6613 -3.0472
 5587SOL     OW28219   2.230   0.382   4.819 -0.1288  0.3667  0.0441
 5587SOL    HW128220   2.250   0.292   4.792  0.5652  0.3458  0.6195
 5587SOL    HW228221   2.176   0.420   4.750  1.7410 -2.9759 -3.2185
 5588SOL     OW28222   4.567   2.852  16.057 -0.4607 -0.0232  0.0484
 5588SOL    HW128223   4.541   2.765  16.087  0.8490 -1.0085 -1.6695
 5588SOL    HW228224   4.517   2.910  16.114 -0.1124 -0.3802  0.7211
 5589SOL     OW28225   0.221   2.526   4.863 -0.5727  0.2878 -0.1965
 5589SOL    HW128226   0.279   2.463   4.908 -0.2591  1.0210  0.4178
 5589SOL    HW228227   0.144   2.470   4.871 -0.8015  0.5386 -0.7107
 5590SOL     OW28228   1.038   4.192   9.649 -0.3468 -0.0113  0.0614
 5590SOL    HW128229   1.051   4.162   9.559 -0.6698  0.9280 -0.3000
 5590SOL    HW228230   1.012   4.283   9.634 -0.2095 -0.2876 -1.9099
 5591SOL     OW28231   4.517   0.862   6.873 -0.0054 -0.4327 -0.0491
 5591SOL    HW128232   4.597   0.822   6.907 -0.4811 -2.3580 -1.2265
 5591SOL    HW228233   4.442   0.812   6.903  0.6931 -1.2548  0.3202
 5592SOL     OW28234   0.211   3.367   2.510  0.1699  0.0808  0.2623
 5592SOL    HW128235   0.291   3.342   2.463  0.7114 -0.5637  1.5242
 5592SOL    HW228236   0.210   3.462   2.496  1.7371  0.1572  0.6660
 5593SOL     OW28237   3.108   2.382   4.043  0.7789  0.3864 -0.0368
 5593SOL    HW128238   3.043   2.356   3.978 -1.6045  0.8762  2.1352
 5593SOL    HW228239   3.057   2.455   4.079  0.1047  0.1106 -0.4323
 5594SOL     OW28240   0.048   0.367  13.340 -0.5455 -0.4345  0.0160
 5594SOL    HW128241   0.058   0.356  13.435 -0.6584  2.0725  0.3191
 5594SOL    HW228242   0.036   0.461  13.327 -0.2297 -0.6396 -1.7472
 5595SOL     OW28243   0.361   2.535  11.106  0.1787  0.3358  0.0851
 5595SOL    HW128244   0.408   2.559  11.026  1.7587 -0.6904  0.7102
 5595SOL    HW228245   0.291   2.600  11.112 -0.2702  0.0149 -1.9131
 5596SOL     OW28246   3.559   3.159   6.722 -0.3270  0.4487 -0.1251
 5596SOL    HW128247   3.478   3.194   6.686  0.5373 -0.5315 -3.0501
 5596SOL    HW228248   3.604   3.242   6.705  1.7695 -0.8237 -0.8301
 5597SOL     OW28249   1.804   3.067   3.624  0.2491  0.2917  0.0258
 5597SOL    HW128250   1.797   3.145   3.679  2.6490 -0.6173  1.6543
 5597SOL    HW228251   1.837   3.099   3.540  0.2923  0.9447  0.2898
 5598SOL     OW28252   2.779   3.043  13.330 -0.4918 -0.6148  0.1216
 5598SOL    HW128253   2.710   3.066  13.268  0.0151  2.3278  0.6800
 5598SOL    HW228254   2.854   3.021  13.275 -1.4933 -0.0389 -1.4754
 5599SOL     OW28255   2.940   1.728   7.463 -0.3689 -0.1688  0.5037
 5599SOL    HW128256   2.906   1.641   7.485 -0.4863 -0.4427 -0.7582
 5599SOL    HW228257   2.869   1.744   7.401  1.4060 -1.5544 -1.9207
 5600SOL     OW28258   4.507   2.079  10.616 -0.1084 -0.5097 -0.0874
 5600SOL    HW128259   4.574   2.066  10.683 -0.8407  1.4574  1.0433
 5600SOL    HW228260   4.518   2.013  10.547 -0.4599 -0.4151 -0.2354
 5601SOL     OW28261   0.995   1.513   3.530 -0.2240  0.6232  0.3530
 5601SOL    HW128262   1.066   1.513   3.594 -1.2422  0.5238  1.4903
 5601SOL    HW228263   0.978   1.420   3.518  0.7536  0.4906  0.0591
 5602SOL     OW28264   3.156   2.549  14.325 -0.3639 -0.4253  0.7263
 5602SOL    HW128265   3.077   2.505  14.292 -0.8128  0.5100  0.5485
 5602SOL    HW228266   3.226   2.491  14.295 -1.5324 -0.1582 -2.5061
 5603SOL     OW28267   4.645   3.567   9.145  0.6333  0.7950  0.6386
 5603SOL    HW128268   4.702   3.617   9.087  0.7064  1.1362  1.0056
 5603SOL    HW228269   4.581   3.630   9.178 -3.1841 -3.5250  1.4732
 5604SOL     OW28270   4.253   2.540   8.280  0.2228 -0.3895  0.3744
 5604SOL    HW128271   4.325   2.521   8.340  1.5738 -0.5264 -1.2737
 5604SOL    HW228272   4.186   2.568   8.342 -1.3487 -0.2841 -1.3619
 5605SOL     OW28273   4.652   0.307  16.687 -0.6398 -0.0386  0.0753
 5605SOL    HW128274   4.664   0.257  16.768 -0.2516  1.0951  0.7068
 5605SOL    HW228275   4.615   0.389  16.719 -1.0667 -0.8385  1.6632
 5606SOL     OW28276   0.451   3.817   1.202  0.2190 -0.3897 -0.3378
 5606SOL    HW128277   0.404   3.801   1.121 -0.1302 -0.2202 -0.1659
 5606SOL    HW228278   0.395   3.772   1.266  0.0922  0.1520 -0.0745
 5607SOL     OW28279   1.963   3.645  17.483  0.3406 -0.7556  0.2309
 5607SOL    HW128280   1.957   3.555  17.515  1.5284 -0.0768  2.3172
 5607SOL    HW228281   1.931   3.691  17.560  0.5860  1.7440 -1.1702
 5608SOL     OW28282   0.863   3.652  12.800  0.2250  0.3567 -0.2123
 5608SOL    HW128283   0.929   3.585  12.819 -0.6848 -1.1783 -2.4429
 5608SOL    HW228284   0.893   3.673  12.711 -1.1953 -1.0156 -1.0092
 5609SOL     OW28285   1.275   0.588   2.656  0.5047 -0.8326  0.1944
 5609SOL    HW128286   1.252   0.505   2.614 -1.5560 -0.6192  0.8914
 5609SOL    HW228287   1.331   0.627   2.589  0.2478  1.5571  1.3516
 5610SOL     OW28288   1.350   2.658  17.159 -0.3412 -0.0183 -0.1708
 5610SOL    HW128289   1.334   2.637  17.251  3.1009 -0.4381  0.3062
 5610SOL    HW228290   1.317   2.580  17.112 -0.3863 -1.4502  2.2409
 5611SOL     OW28291   4.167   1.771   3.457 -0.0245  0.4015  0.1532
 5611SOL    HW128292   4.216   1.779   3.375 -1.3952 -0.7670 -0.7885
 5611SOL    HW228293   4.195   1.854   3.494 -1.2284  0.7104  0.3710
 5612SOL     OW28294   4.343   3.412   0.458 -0.4287 -0.1177 -0.5149
 5612SOL    HW128295   4.380   3.394   0.545 -4.9308 -0.3399  1.3611
 5612SOL    HW228296   4.352   3.324   0.421 -0.2961 -0.0289 -0.6870
 5613SOL     OW28297   3.716   2.833  13.542 -0.2835  0.0307 -0.0732
 5613SOL    HW128298   3.635   2.873  13.510 -0.3927 -1.1738 -1.2942
 5613SOL    HW228299   3.696   2.810  13.632  0.3884  0.9285  0.3015
 5614SOL     OW28300   3.175   3.921   7.533 -0.5545  0.2774 -0.2393
 5614SOL    HW128301   3.142   3.963   7.612  0.3922 -0.8035  0.7361
 5614SOL    HW228302   3.209   3.836   7.561 -1.2813  0.9424  2.6243
 5615SOL     OW28303   1.308   3.576   6.875  0.1182  0.2713  0.4014
 5615SOL    HW128304   1.383   3.520   6.860  2.2230  2.7034  1.8850
 5615SOL    HW228305   1.275   3.535   6.955  1.1215 -0.6452  0.3369
 5616SOL     OW28306   0.805   2.719   0.555 -0.0397 -0.2614  0.3540
 5616SOL    HW128307   0.802   2.752   0.645  2.3150 -0.2970  0.4423
 5616SOL    HW228308   0.860   2.641   0.549  0.1834 -0.1932  1.5375
 5617SOL     OW28309   1.735   2.791   0.270 -0.4070 -0.1067 -0.1119
 5617SOL    HW128310   1.675   2.783   0.196  0.3684 -1.1940 -0.6302
 5617SOL    HW228311   1.821   2.799   0.228 -0.2396  1.3223  0.5008
 5618SOL     OW28312   3.122   1.990   5.546 -0.0199  0.2146  0.1947
 5618SOL    HW128313   3.109   2.080   5.575 -2.1030  0.8561 -2.6991
 5618SOL    HW228314   3.118   1.943   5.629 -2.6116  0.5455  0.2727
 5619SOL     OW28315   1.709   4.243   9.111 -0.1578 -0.5436  0.0551
 5619SOL    HW128316   1.680   4.186   9.182 -0.0491  0.4488  0.8940
 5619SOL    HW228317   1.713   4.183   9.037 -0.8824 -0.4839 -0.0310
 5620SOL     OW28318   2.448   2.379   5.940  0.1301  0.6298 -0.2326
 5620SOL    HW128319   2.417   2.290   5.921  1.1491  0.4598 -1.0854
 5620SOL    HW228320   2.462   2.421   5.855 -0.2587  3.0808  0.9099
 5621SOL     OW28321   2.413   2.703   4.719  0.7968 -0.1532  0.0029
 5621SOL    HW128322   2.350   2.666   4.781 -0.8723 -0.4944 -1.8887
 5621SOL    HW228323   2.490   2.715   4.773  1.0693 -0.6034 -0.2797
 5622SOL     OW28324   3.699   4.215   7.008 -0.3403  0.6631  0.1245
 5622SOL    HW128325   3.666   4.229   6.919 -1.5989 -0.2255  0.4547
 5622SOL    HW228326   3.652   4.284   7.056 -2.7175 -0.8393 -0.0449
 5623SOL     OW28327   2.770   2.280   6.955 -0.3824 -0.1618  0.4320
 5623SOL    HW128328   2.755   2.189   6.932 -0.2678 -0.9402  3.4974
 5623SOL    HW228329   2.693   2.294   7.010 -1.0983 -1.6708 -0.1823
 5624SOL     OW28330   4.712   4.221   2.560  0.1634 -0.2317 -0.3227
 5624SOL    HW128331   4.675   4.135   2.537  0.3044 -0.3193 -0.2246
 5624SOL    HW228332   4.716   4.255   2.471 -1.2670 -0.7684 -0.5900
 5625SOL     OW28333   2.647   3.470   6.054  0.3103  0.0137 -0.4722
 5625SOL    HW128334   2.569   3.506   6.095 -0.3854 -1.5235 -0.4558
 5625SOL    HW228335   2.693   3.483   6.137 -0.1414 -2.9143  0.2237
 5626SOL     OW28336   0.714   1.646   3.834 -0.1383  0.1106 -0.6061
 5626SOL    HW128337   0.773   1.717   3.860  3.1796 -2.8428 -0.0200
 5626SOL    HW228338   0.776   1.574   3.822 -0.1691 -0.3039  1.8149
 5627SOL     OW28339   0.736   3.435  15.911 -0.1741  0.3642  0.8474
 5627SOL    HW128340   0.645   3.427  15.938 -0.4112  0.7040  0.1628
 5627SOL    HW228341   0.749   3.407  15.821  0.1281  2.4664  0.2227
 5628SOL     OW28342   4.395   3.478   6.669  0.2141 -0.0044  0.2931
 5628SOL    HW128343   4.454   3.516   6.603  0.2563  1.5703  1.2333
 5628SOL    HW228344   4.310   3.516   6.646 -0.1352 -2.6606 -2.8122
 5629SOL     OW28345   1.669   4.222  13.132  0.2555 -0.3215 -0.4769
 5629SOL    HW128346   1.752   4.177  13.115  2.0106  2.1779  1.6034
 5629SOL    HW228347   1.655   4.202  13.225  3.8039 -0.3277  0.0670
 5630SOL     OW28348   0.456   0.923   2.222  0.5192  0.3830  0.2889
 5630SOL    HW128349   0.492   0.835   2.221 -0.3372  0.0399 -1.0599
 5630SOL    HW228350   0.506   0.970   2.155 -0.4500  0.3049 -0.4952
 5631SOL     OW28351   1.532   0.504   2.055 -0.0789 -0.1665 -0.0983
 5631SOL    HW128352   1.592   0.468   2.120  2.1079  3.9778  0.1617
 5631SOL    HW228353   1.556   0.597   2.053  0.9040 -0.3996  1.2697
 5632SOL     OW28354   4.370   3.584   5.181  0.8589  0.0561  0.1841
 5632SOL    HW128355   4.333   3.511   5.130  2.7274  0.8033 -2.2629
 5632SOL    HW228356   4.414   3.633   5.112 -2.1084  0.5349 -1.3463
 5633SOL     OW28357   1.520   1.155   3.166 -0.1182 -0.2902 -0.1047
 5633SOL    HW128358   1.439   1.199   3.137 -1.1894 -1.9135  0.4633
 5633SOL    HW228359   1.494   1.073   3.125 -1.3335 -1.3293  2.7356
 5634SOL     OW28360   1.219   0.750   3.844 -0.1789 -0.0461  0.3359
 5634SOL    HW128361   1.233   0.724   3.752 -2.1264 -1.1540  0.3278
 5634SOL    HW228362   1.271   0.687   3.893  1.1307 -0.6486 -1.7964
 5635SOL     OW28363   2.999   2.742   3.977  0.3922  0.2042 -0.7107
 5635SOL    HW128364   3.008   2.693   3.895  0.3818  1.8901 -1.7183
 5635SOL    HW228365   2.965   2.674   4.036 -1.6850  0.2964 -1.7876
 5636SOL     OW28366   0.254   0.189   6.499  0.2832  0.3905 -0.4334
 5636SOL    HW128367   0.256   0.222   6.409  1.9991  3.1333  0.6060
 5636SOL    HW228368   0.347   0.198   6.519  0.6523 -0.6384 -1.7192
 5637SOL     OW28369   3.017   3.367   3.071 -0.1656 -1.1908  0.1535
 5637SOL    HW128370   2.957   3.345   3.143 -0.4692  0.7390  0.4916
 5637SOL    HW228371   2.991   3.294   3.015 -0.3435 -0.9832 -0.0366
 5638SOL     OW28372   4.489   2.166   8.196  0.2314 -0.6557  0.3511
 5638SOL    HW128373   4.416   2.115   8.230 -1.1101  0.8546 -0.2462
 5638SOL    HW228374   4.553   2.178   8.266 -1.1208 -1.2588  1.6794
 5639SOL     OW28375   0.269   0.365   8.992 -0.0362  0.0432 -0.0675
 5639SOL    HW128376   0.326   0.388   9.066  0.5288 -2.9308  0.4539
 5639SOL    HW228377   0.338   0.373   8.926 -1.1238 -1.2257 -1.3738
 5640SOL     OW28378   2.713   3.057   7.555  0.3926  0.2942 -0.4556
 5640SOL    HW128379   2.808   3.047   7.558  0.3239 -0.8468 -2.1130
 5640SOL    HW228380   2.684   2.974   7.594 -0.9492  0.9048 -0.1688
 5641SOL     OW28381   3.252   2.185   6.949  0.4492  0.0466 -0.0011
 5641SOL    HW128382   3.252   2.146   7.036  0.9010 -2.2992 -1.0654
 5641SOL    HW228383   3.166   2.227   6.951 -0.1676 -1.0494 -3.5823
 5642SOL     OW28384   0.498   1.889   1.134 -0.6320 -0.1299  0.7382
 5642SOL    HW128385   0.550   1.892   1.215  3.3041  0.6638 -1.8125
 5642SOL    HW228386   0.511   1.975   1.095  2.2019 -0.1370  1.6288
 5643SOL     OW28387   1.351   0.580  13.776 -0.0654  0.3455  0.3729
 5643SOL    HW128388   1.388   0.659  13.737 -0.5615  1.1830  1.5785
 5643SOL    HW228389   1.426   0.525  13.800 -1.1763 -1.2458  0.1513
 5644SOL     OW28390   3.626   0.245  10.583 -0.1318  0.2189  0.7390
 5644SOL    HW128391   3.607   0.163  10.628  0.7376  0.2665  1.2099
 5644SOL    HW228392   3.540   0.273  10.555 -0.3404 -1.5473 -0.3708
 5645SOL     OW28393   0.605   1.372   6.459  0.4707 -0.2859  1.2229
 5645SOL    HW128394   0.698   1.354   6.451  0.5553  0.2239  1.0813
 5645SOL    HW228395   0.566   1.309   6.398  0.3716  2.5027 -1.5510
 5646SOL     OW28396   2.737   3.968   3.070  0.1423 -0.2425  0.7791
 5646SOL    HW128397   2.822   3.927   3.085  0.3597 -0.0823 -0.0637
 5646SOL    HW228398   2.755   4.061   3.076  0.9181 -0.4788  2.2491
 5647SOL     OW28399   1.421   3.315   4.498  0.0483 -0.0999 -0.0030
 5647SOL    HW128400   1.384   3.340   4.583  0.8942 -0.1998  0.3900
 5647SOL    HW228401   1.496   3.263   4.525 -0.1844 -0.4731 -0.0837
 5648SOL     OW28402   4.631   2.311   8.923  0.3999  0.1725  0.6208
 5648SOL    HW128403   4.718   2.289   8.891  1.1325  0.1778  2.5682
 5648SOL    HW228404   4.645   2.322   9.017  1.3197  1.4208  0.3323
 5649SOL     OW28405   3.804   1.147  14.186 -0.6178  0.1007 -0.2570
 5649SOL    HW128406   3.749   1.213  14.227 -0.1858  0.5196 -0.3586
 5649SOL    HW228407   3.891   1.186  14.195 -0.4787 -0.5894  1.3977
 5650SOL     OW28408   2.133   4.659   6.773 -0.1608 -0.7901 -0.0674
 5650SOL    HW128409   2.150   4.669   6.680 -0.7720  1.3956  0.0538
 5650SOL    HW228410   2.038   4.656   6.780 -0.1476  1.1607  1.0288
 5651SOL     OW28411   0.852   0.679   8.862  0.0809  0.0468 -0.1008
 5651SOL    HW128412   0.797   0.600   8.866 -0.6775  0.5187 -1.0175
 5651SOL    HW228413   0.867   0.696   8.954  0.1038  0.9617 -0.2730
 5652SOL     OW28414   3.585   3.902  17.282  0.6440 -0.4344  0.1489
 5652SOL    HW128415   3.564   3.992  17.304 -3.2857 -1.0730 -0.9435
 5652SOL    HW228416   3.634   3.914  17.201 -0.2992  1.6050 -0.0985
 5653SOL     OW28417   3.182   3.982   5.504 -0.2571  0.0752 -0.5946
 5653SOL    HW128418   3.125   3.966   5.580  0.6973 -2.1268 -0.3386
 5653SOL    HW228419   3.138   4.050   5.454 -1.6751 -2.0409 -2.1885
 5654SOL     OW28420   2.170   0.604   6.712 -0.1247 -0.4089  0.2996
 5654SOL    HW128421   2.207   0.662   6.778 -1.3187  0.4537  0.2116
 5654SOL    HW228422   2.096   0.659   6.686  2.4454  1.7129 -2.4044
 5655SOL     OW28423   2.859   4.513  14.447 -0.0602 -0.4097 -0.4282
 5655SOL    HW128424   2.856   4.513  14.543  2.9866  1.0018 -0.3433
 5655SOL    HW228425   2.921   4.444  14.426 -0.9382 -0.7267 -1.9864
 5656SOL     OW28426   2.755   3.908   0.478  0.3966 -0.0818  0.0189
 5656SOL    HW128427   2.850   3.897   0.477  0.3971 -0.1000  0.2122
 5656SOL    HW228428   2.749   4.001   0.458  0.6984  0.1937  1.1895
 5657SOL     OW28429   1.753   2.133   1.652 -0.2595 -0.5249 -0.4112
 5657SOL    HW128430   1.714   2.047   1.666  0.0587 -0.6455 -0.2640
 5657SOL    HW228431   1.680   2.194   1.662  1.5046  1.5384 -0.2668
 5658SOL     OW28432   1.678   1.477   0.987 -0.4054 -0.2791 -0.6919
 5658SOL    HW128433   1.662   1.469   1.081  1.0892 -2.0705 -0.5859
 5658SOL    HW228434   1.597   1.440   0.951  1.1078 -3.0898 -1.2629
 5659SOL     OW28435   4.184   1.077   4.619 -0.5385  1.1045  0.0355
 5659SOL    HW128436   4.169   1.120   4.535 -1.3056 -1.8767 -1.3575
 5659SOL    HW228437   4.176   1.155   4.673  2.2229  0.2529  1.6686
 5660SOL     OW28438   2.565   2.322  16.602 -0.4693  0.4723 -0.2174
 5660SOL    HW128439   2.620   2.322  16.523 -1.8682 -0.3586 -1.1840
 5660SOL    HW228440   2.482   2.341  16.559 -0.3707  0.3280 -0.4684
 5661SOL     OW28441   3.956   4.452   7.978  0.6442  0.6760  0.3260
 5661SOL    HW128442   3.950   4.452   8.074 -0.0373 -2.8301  0.2898
 5661SOL    HW228443   3.865   4.439   7.952  1.2052 -1.3557 -0.5948
 5662SOL     OW28444   2.359   3.391   8.635 -0.8519 -0.8295  0.0465
 5662SOL    HW128445   2.371   3.300   8.659  0.0811 -0.3471  1.4428
 5662SOL    HW228446   2.305   3.387   8.557 -1.5533  1.4681  0.3951
 5663SOL     OW28447   3.469   3.545   3.513 -0.6293  0.0971 -0.4042
 5663SOL    HW128448   3.421   3.615   3.470 -2.0480  1.3987  3.2446
 5663SOL    HW228449   3.389   3.493   3.522 -1.1766  1.4571  2.7292
 5664SOL     OW28450   1.895   1.797  10.664 -0.1269 -0.0045  0.3837
 5664SOL    HW128451   1.866   1.849  10.589 -3.5626 -2.0705  0.2902
 5664SOL    HW228452   1.973   1.845  10.694  0.3246 -0.6624  0.2604
 5665SOL     OW28453   2.890   1.994  15.950  0.5983 -0.3880  0.3978
 5665SOL    HW128454   2.827   1.993  16.023  1.7270 -3.4596  1.3522
 5665SOL    HW228455   2.948   2.067  15.971 -1.3002  1.4298 -0.7173
 5666SOL     OW28456   0.504   3.954   8.599  0.6529  0.5065  0.2046
 5666SOL    HW128457   0.574   3.903   8.640  1.2286 -1.9116 -3.7335
 5666SOL    HW228458   0.432   3.925   8.655  0.0168  0.7528 -0.4832
 5667SOL     OW28459   3.722   0.045   6.429 -0.3935 -0.1138  0.4706
 5667SOL    HW128460   3.818   0.052   6.435 -0.2633  0.0104 -1.4772
 5667SOL    HW228461   3.714   4.672   6.433  1.5290 -0.2178  2.0665
 5668SOL     OW28462   2.458   3.132   3.604  0.4588 -0.1162 -0.4044
 5668SOL    HW128463   2.395   3.075   3.649  1.3926 -1.0042 -0.2221
 5668SOL    HW228464   2.450   3.217   3.648  1.7720  0.5205 -1.4035
 5669SOL     OW28465   1.604   0.502   4.918 -0.0912 -0.2768 -0.3383
 5669SOL    HW128466   1.561   0.421   4.889  2.6710 -1.0446 -2.2682
 5669SOL    HW228467   1.545   0.573   4.893 -0.1453 -0.3704 -0.4760
 5670SOL     OW28468   3.128   0.097  17.126  0.1601  0.0866 -0.1945
 5670SOL    HW128469   3.133   0.078  17.220 -1.0707 -0.4645 -0.2513
 5670SOL    HW228470   3.202   0.157  17.120  0.6182 -0.5053 -0.4295
 5671SOL     OW28471   0.523   1.881   3.314  0.4144 -0.2587 -0.6097
 5671SOL    HW128472   0.480   1.958   3.279 -0.6435 -0.2681  0.6520
 5671SOL    HW228473   0.496   1.902   3.404  1.0455 -1.4902 -0.1271
 5672SOL     OW28474   0.715   0.935   4.560  0.7039 -0.0526 -0.1068
 5672SOL    HW128475   0.738   1.022   4.593 -1.9623  0.3935  0.5913
 5672SOL    HW228476   0.646   0.906   4.619  1.0178 -1.8581 -0.6182
 5673SOL     OW28477   0.713   2.400   9.499 -0.2066 -0.2673  0.4166
 5673SOL    HW128478   0.787   2.430   9.552  0.9068 -1.8787 -0.2159
 5673SOL    HW228479   0.748   2.326   9.449 -2.3218 -1.4685  0.6801
 5674SOL     OW28480   0.146   4.215   7.905 -0.0140 -0.3817 -0.2434
 5674SOL    HW128481   0.084   4.190   7.973  1.1607 -1.4490  0.4518
 5674SOL    HW228482   0.214   4.147   7.902  0.3369 -0.1128  1.5578
 5675SOL     OW28483   3.828   2.010   4.984  0.2682  0.0455 -0.1842
 5675SOL    HW128484   3.884   2.076   5.025 -1.7493  1.6162  0.0339
 5675SOL    HW228485   3.748   2.062   4.975 -0.2297 -0.7499 -0.3320
 5676SOL     OW28486   2.731   0.128   9.199  0.5229  0.0501 -0.2384
 5676SOL    HW128487   2.783   0.201   9.234 -0.5735  0.9586 -0.4838
 5676SOL    HW228488   2.651   0.153   9.245  1.5734  1.2485  0.9240
 5677SOL     OW28489   1.859   3.341   5.957 -0.0407 -0.4138  0.2289
 5677SOL    HW128490   1.903   3.259   5.980 -0.8525  0.2252  4.1187
 5677SOL    HW228491   1.810   3.310   5.882 -0.7437  0.0029  0.5129
 5678SOL     OW28492   4.285   2.193   0.488 -0.4579  0.4503  0.0122
 5678SOL    HW128493   4.346   2.122   0.505 -2.2291 -1.4583 -1.6974
 5678SOL    HW228494   4.203   2.160   0.525  1.5730 -0.7164  3.5247
 5679SOL     OW28495   2.035   2.898   0.592  0.1996 -0.2210  0.6101
 5679SOL    HW128496   2.119   2.904   0.638 -0.5110  0.3919  1.8284
 5679SOL    HW228497   2.021   2.992   0.580  0.9508 -0.3972 -1.7050
 5680SOL     OW28498   4.347   0.332   5.663  0.4505  0.2294  0.6330
 5680SOL    HW128499   4.306   0.337   5.576 -1.6022  0.7049  1.6208
 5680SOL    HW228500   4.343   0.238   5.677 -2.5496  0.3905  0.8840
 5681SOL     OW28501   2.193   1.547   6.116  0.0580  0.1025 -0.3422
 5681SOL    HW128502   2.103   1.563   6.143  0.4201  0.7566  0.5091
 5681SOL    HW228503   2.193   1.472   6.056  3.0725 -0.8321  0.8100
 5682SOL     OW28504   0.132   3.393   3.440 -0.5716 -0.1687  0.2009
 5682SOL    HW128505   0.117   3.364   3.530 -1.6852 -1.6102 -0.4595
 5682SOL    HW228506   0.226   3.378   3.436 -0.2817  2.1008 -1.5647
 5683SOL     OW28507   0.487   0.423   4.123 -0.0789 -0.3733 -0.3189
 5683SOL    HW128508   0.520   0.392   4.207 -0.7398 -0.6667 -0.1717
 5683SOL    HW228509   0.409   0.373   4.100 -0.9761 -0.2493  2.5227
 5684SOL     OW28510   0.865   1.436   3.806 -0.1564  0.3777 -0.1867
 5684SOL    HW128511   0.907   1.460   3.724  0.8085  1.4473  0.6188
 5684SOL    HW228512   0.938   1.396   3.853 -1.5254  0.0704  1.6813
 5685SOL     OW28513   0.248   2.853  16.671 -0.1460  0.1847  0.1006
 5685SOL    HW128514   0.259   2.934  16.720  2.0675 -1.7496  2.8024
 5685SOL    HW228515   0.169   2.815  16.711 -0.4945  0.4284 -0.3604
 5686SOL     OW28516   1.092   0.836   3.072  0.7766  0.1058  0.4116
 5686SOL    HW128517   1.035   0.895   3.120 -0.2686 -0.6853  0.1230
 5686SOL    HW228518   1.034   0.762   3.056 -2.4939  2.6022  0.7385
 5687SOL     OW28519   1.339   3.317   3.717 -0.7309  0.2841 -0.3294
 5687SOL    HW128520   1.254   3.339   3.677  0.3034  3.5246 -0.7307
 5687SOL    HW228521   1.380   3.259   3.653 -0.7839 -0.1766  0.0571
 5688SOL     OW28522   0.948   2.780  17.197 -0.0735  0.2195 -0.1151
 5688SOL    HW128523   0.979   2.819  17.279 -1.5142 -0.0508  0.5696
 5688SOL    HW228524   0.980   2.847  17.137 -2.0508  1.8300  0.6083
 5689SOL     OW28525   0.007   3.031   7.743  0.1766 -0.5048 -0.0789
 5689SOL    HW128526   0.038   2.940   7.742  0.7026 -0.3052 -1.9790
 5689SOL    HW228527   0.033   3.058   7.655 -0.7228  4.1219  1.1053
 5690SOL     OW28528   3.856   4.107   4.719 -0.5435  0.6446  0.5687
 5690SOL    HW128529   3.821   4.039   4.776 -0.2253  0.2856  0.3341
 5690SOL    HW228530   3.804   4.096   4.639 -0.5189  1.3501  0.4588
 5691SOL     OW28531   1.650   4.219   4.424 -0.0109  0.0429  0.2592
 5691SOL    HW128532   1.653   4.225   4.328 -0.9317  2.0839  0.3643
 5691SOL    HW228533   1.619   4.128   4.430  2.6541 -0.8333  0.9778
 5692SOL     OW28534   4.565   0.663  12.123 -0.6158 -0.1248  0.0256
 5692SOL    HW128535   4.603   0.608  12.055 -0.9491  1.2606 -1.2805
 5692SOL    HW228536   4.470   0.664  12.110 -0.7836  0.6326  1.2349
 5693SOL     OW28537   3.117   2.112  10.272  0.0199 -0.8074 -0.0200
 5693SOL    HW128538   3.140   2.137  10.361  2.3617 -1.6856 -0.4009
 5693SOL    HW228539   3.176   2.173  10.228  1.4568 -1.2998  1.2290
 5694SOL     OW28540   0.323   2.668  12.933 -0.3289 -0.4135  0.1878
 5694SOL    HW128541   0.284   2.653  13.019  3.0130  1.9158  2.0924
 5694SOL    HW228542   0.408   2.629  12.953  0.6671  1.1227 -1.1341
 5695SOL     OW28543   1.248   2.509   3.365 -0.9308 -0.4433 -0.3741
 5695SOL    HW128544   1.199   2.561   3.428 -0.2306 -0.8709  0.5237
 5695SOL    HW228545   1.314   2.572   3.337 -0.4255 -0.7147  0.2081
 5696SOL     OW28546   4.674   1.285   6.923 -0.2252  0.0046 -0.5695
 5696SOL    HW128547   4.668   1.375   6.891  1.8241  0.9293  1.6918
 5696SOL    HW228548   4.669   1.298   7.017  2.5121 -0.3113 -0.3716
 5697SOL     OW28549   3.209   2.681  10.113  0.1286 -0.0414  0.4102
 5697SOL    HW128550   3.265   2.747  10.073  0.1827 -0.1264  0.3441
 5697SOL    HW228551   3.269   2.623  10.159 -0.0717  0.2202  0.9937
 5698SOL     OW28552   0.583   4.510   5.533  0.3473 -0.3420  0.5214
 5698SOL    HW128553   0.520   4.563   5.582  0.3538 -1.1006  1.3548
 5698SOL    HW228554   0.527   4.465   5.470 -0.6283  1.1009  0.3645
 5699SOL     OW28555   1.946   2.230  17.426 -0.2565 -0.3366 -0.3243
 5699SOL    HW128556   1.926   2.321  17.448 -2.7852 -0.5600 -1.6742
 5699SOL    HW228557   1.925   2.177  17.503  0.4189 -2.0510 -1.2983
 5700SOL     OW28558   0.145   1.552  10.337  0.5531  0.1706 -0.0713
 5700SOL    HW128559   0.112   1.521  10.253  3.3770 -1.7525 -0.4900
 5700SOL    HW228560   0.216   1.612  10.312  1.4961 -0.9724 -0.1412
 5701SOL     OW28561   2.572   2.063   6.573 -0.7334 -0.4616  0.0908
 5701SOL    HW128562   2.550   2.061   6.480 -0.1847 -2.7258  0.0150
 5701SOL    HW228563   2.667   2.057   6.582 -0.7516 -0.2892  0.4034
 5702SOL     OW28564   1.071   4.513   5.380 -0.0859 -0.1060 -0.6576
 5702SOL    HW128565   1.102   4.546   5.464  2.5667  2.2633 -2.5699
 5702SOL    HW228566   0.979   4.493   5.396 -0.2315  0.7292 -0.4333
 5703SOL     OW28567   2.759   1.839   8.019  0.5780  0.7204 -0.1942
 5703SOL    HW128568   2.696   1.832   8.091  0.6231  2.6198  0.0204
 5703SOL    HW228569   2.720   1.773   7.961 -1.1928  2.7561 -1.3027
 5704SOL     OW28570   0.441   0.613   5.530  0.6765  0.2060 -0.5497
 5704SOL    HW128571   0.497   0.540   5.556  0.5200  0.6835  1.1627
 5704SOL    HW228572   0.450   0.623   5.435  2.0441 -1.7699 -0.6254
 5705SOL     OW28573   2.809   0.263   2.002 -0.0231 -0.3863 -0.2516
 5705SOL    HW128574   2.882   0.309   2.045 -0.5968  0.3603 -0.0661
 5705SOL    HW228575   2.833   0.265   1.910  1.1838  3.0208  0.1401
 5706SOL     OW28576   1.178   4.594   4.533  0.1127  0.1759  0.5357
 5706SOL    HW128577   1.099   4.585   4.479  0.1809  1.8713  0.1277
 5706SOL    HW228578   1.150   4.676   4.573 -2.1501 -0.3610  0.0267
 5707SOL     OW28579   0.749   4.009  10.108  0.6850 -0.3684  0.4147
 5707SOL    HW128580   0.773   4.095  10.075  1.6108 -1.0619 -0.7131
 5707SOL    HW228581   0.660   4.006  10.074  0.8034  1.4994 -0.0620
 5708SOL     OW28582   1.942   2.333  15.738  0.1061  0.0341 -0.1983
 5708SOL    HW128583   1.927   2.379  15.656  1.5021 -0.7487 -0.8818
 5708SOL    HW228584   2.017   2.279  15.712  0.4921  0.2218  0.5044
 5709SOL     OW28585   0.263   0.421   4.848  0.0787  0.2295 -0.0690
 5709SOL    HW128586   0.198   0.355   4.826 -0.2344 -0.5460  3.2449
 5709SOL    HW228587   0.227   0.473   4.920 -1.0219 -0.5205 -0.0763
 5710SOL     OW28588   1.805   2.073   5.734 -0.1845 -0.3712 -0.0148
 5710SOL    HW128589   1.880   2.130   5.718 -1.6611  1.1608 -1.5702
 5710SOL    HW228590   1.852   1.994   5.704  2.0852  0.2274  1.9907
 5711SOL     OW28591   3.212   4.042  10.685  0.0869  0.5278  0.4045
 5711SOL    HW128592   3.133   4.029  10.737  0.2283  0.9768  0.7300
 5711SOL    HW228593   3.240   3.955  10.657 -1.2366  0.1444  0.3031
 5712SOL     OW28594   1.258   1.268  12.302  0.3992  0.0389  0.1815
 5712SOL    HW128595   1.209   1.205  12.355 -0.4323 -0.6996 -1.4534
 5712SOL    HW228596   1.293   1.311  12.380  0.3309  1.8669 -0.7938
 5713SOL     OW28597   2.088   2.364   7.825  0.3299  0.2734 -0.3766
 5713SOL    HW128598   1.997   2.379   7.798  0.4047 -1.7911 -1.7915
 5713SOL    HW228599   2.074   2.297   7.892 -1.8317 -0.4146 -1.4856
 5714SOL     OW28600   1.421   1.839   7.894  0.2409 -0.1689 -0.0875
 5714SOL    HW128601   1.488   1.806   7.954 -0.2789  1.9334  1.6241
 5714SOL    HW228602   1.470   1.918   7.871  0.0093  0.1895  0.6392
 5715SOL     OW28603   2.576   0.970  15.309  0.3842  0.5782 -0.1327
 5715SOL    HW128604   2.638   1.026  15.262  1.3342 -1.1564 -0.9526
 5715SOL    HW228605   2.586   1.007  15.396  1.0000  1.3901 -0.5501
 5716SOL     OW28606   1.455   2.636   9.435 -0.0722  0.2348 -0.3845
 5716SOL    HW128607   1.496   2.672   9.357 -0.6601 -0.2489 -0.9219
 5716SOL    HW228608   1.529   2.594   9.479  0.1265 -1.6713 -2.5200
 5717SOL     OW28609   0.286   0.494  13.930  0.0366  0.0820 -0.0373
 5717SOL    HW128610   0.340   0.446  13.866  1.0458  1.1184  0.0416
 5717SOL    HW228611   0.238   0.548  13.867  0.2143  0.3845  0.0889
 5718SOL     OW28612   2.230   3.709   8.559  0.3934 -0.1866  0.1830
 5718SOL    HW128613   2.171   3.636   8.540 -0.3895 -0.0204  1.9878
 5718SOL    HW228614   2.212   3.724   8.652  0.7392  0.7435  0.0998
 5719SOL     OW28615   4.431   4.410   4.664 -0.1527 -0.0854 -0.4420
 5719SOL    HW128616   4.392   4.363   4.737  0.0126  1.5243  0.6913
 5719SOL    HW228617   4.349   4.438   4.625  0.8324  1.5175 -1.3623
 5720SOL     OW28618   2.516   1.956   0.641  0.0649 -0.1894  0.2230
 5720SOL    HW128619   2.532   2.033   0.695 -0.4018  0.4038 -0.4858
 5720SOL    HW228620   2.569   1.971   0.563 -0.7477 -1.2364 -0.5419
 5721SOL     OW28621   3.936   0.677   8.492  1.0153 -0.5388  0.1044
 5721SOL    HW128622   3.969   0.723   8.414  0.1304  0.2114  0.1703
 5721SOL    HW228623   3.973   0.729   8.564  1.6266 -2.4297  1.1350
 5722SOL     OW28624   4.022   0.018   8.908 -0.2336 -0.3292  0.0571
 5722SOL    HW128625   4.096   4.680   8.918  1.5947  2.0141  0.5367
 5722SOL    HW228626   4.050   0.107   8.926 -1.1093 -0.3159  1.3571
 5723SOL     OW28627   2.933   3.110   6.198 -0.5066 -1.0499  0.1151
 5723SOL    HW128628   2.921   3.103   6.103 -2.8280 -1.3626  0.4201
 5723SOL    HW228629   2.943   3.205   6.205 -2.7580 -0.5688 -2.7933
 5724SOL     OW28630   3.695   0.284   5.607  0.1296 -0.2378 -0.6669
 5724SOL    HW128631   3.742   0.200   5.614  0.0409 -0.2290  0.0025
 5724SOL    HW228632   3.710   0.307   5.515  1.6963  0.3103 -0.2774
 5725SOL     OW28633   4.630   4.076   9.550 -0.1550 -0.0824  0.4393
 5725SOL    HW128634   4.565   4.117   9.607 -0.7006  1.7614 -1.5066
 5725SOL    HW228635   4.564   4.047   9.487 -0.1682 -1.0457  0.8913
 5726SOL     OW28636   1.742   1.919   2.623  0.3211  0.2504 -0.3340
 5726SOL    HW128637   1.655   1.885   2.647 -1.3087  4.4707 -0.1681
 5726SOL    HW228638   1.713   2.010   2.623 -0.2574  0.0671  0.2719
 5727SOL     OW28639   0.009   2.343   3.462  0.4558  0.4044 -0.6125
 5727SOL    HW128640   4.696   2.403   3.528 -0.2092  1.2054 -1.6858
 5727SOL    HW228641   0.007   2.269   3.522  2.1265 -0.8479 -2.0872
 5728SOL     OW28642   4.344   3.489   8.952  0.2574  0.0023  0.4250
 5728SOL    HW128643   4.318   3.399   8.931 -2.5193  0.0384  3.7614
 5728SOL    HW228644   4.394   3.473   9.032 -0.1227 -1.6640  0.3209
 5729SOL     OW28645   1.148   2.737   4.972 -0.0361 -0.6072 -0.2519
 5729SOL    HW128646   1.220   2.792   4.940 -0.0119  0.5706  1.8245
 5729SOL    HW228647   1.177   2.652   4.938  1.1998 -0.3852  0.2351
 5730SOL     OW28648   3.100   1.472  15.084  0.6698  0.4077 -0.3592
 5730SOL    HW128649   3.012   1.504  15.066  0.2117 -1.9488 -2.3384
 5730SOL    HW228650   3.133   1.557  15.113  3.3773 -1.3898  1.8090
 5731SOL     OW28651   4.613   0.352   5.642 -0.1757  0.1139  0.0659
 5731SOL    HW128652   4.520   0.372   5.652 -0.4192 -0.9054 -0.2346
 5731SOL    HW228653   4.638   0.407   5.568  0.2151  0.2405  0.2909
 5732SOL     OW28654   0.931   0.113   9.324  0.3138 -0.3411  0.3298
 5732SOL    HW128655   1.018   0.110   9.284 -1.3538 -0.0834 -3.3738
 5732SOL    HW228656   0.950   0.102   9.417  1.0962  0.6355  0.2950
 5733SOL     OW28657   0.247   3.520   6.912 -0.4946 -0.2400  0.0007
 5733SOL    HW128658   0.172   3.545   6.966 -2.2183 -5.0213 -0.1894
 5733SOL    HW228659   0.208   3.442   6.873 -2.6674 -0.1378  1.9627
 5734SOL     OW28660   4.073   0.280   8.991 -0.4780  0.2611 -0.1318
 5734SOL    HW128661   4.065   0.362   9.039  1.3303  0.0962  0.4708
 5734SOL    HW228662   4.061   0.308   8.900 -2.2830  0.4750  0.1794
 5735SOL     OW28663   0.407   0.033   4.437 -0.2840  0.6411  0.2215
 5735SOL    HW128664   0.497   0.044   4.468 -0.8908 -1.5491  2.7853
 5735SOL    HW228665   0.388   4.670   4.477  0.5942  1.0385  1.4814
 5736SOL     OW28666   4.421   0.730   2.126 -0.6660  0.1365 -0.0438
 5736SOL    HW128667   4.327   0.738   2.137 -0.5877 -0.2543  0.9430
 5736SOL    HW228668   4.429   0.692   2.039 -0.2664  1.7267 -0.7092
 5737SOL     OW28669   1.098   4.516   8.104  0.1650  0.1221  0.0558
 5737SOL    HW128670   1.119   4.605   8.132 -3.0917  1.4866 -1.7693
 5737SOL    HW228671   1.076   4.469   8.185  1.8672 -0.4297  0.1797
 5738SOL     OW28672   1.020   1.123   4.577  0.6764  0.3802  0.0697
 5738SOL    HW128673   1.110   1.094   4.560  0.7142  0.0723  0.8228
 5738SOL    HW228674   0.984   1.151   4.493  2.4026 -0.0262 -0.8106
 5739SOL     OW28675   3.443   3.578   5.595  0.2823 -0.3751 -0.2845
 5739SOL    HW128676   3.360   3.623   5.610 -0.2412 -2.1601  2.1942
 5739SOL    HW228677   3.449   3.554   5.503 -0.8956 -0.3354 -0.3681
 5740SOL     OW28678   2.848   4.399  13.452 -0.5065  0.0094  0.3984
 5740SOL    HW128679   2.839   4.483  13.497  0.1292 -0.3468  1.2051
 5740SOL    HW228680   2.771   4.360  13.492 -0.5181 -0.0564  0.3113
 5741SOL     OW28681   0.071   2.459  15.739  0.7596 -0.8751  0.4630
 5741SOL    HW128682   0.005   2.424  15.798  0.2454 -0.0140  0.4009
 5741SOL    HW228683   0.025   2.534  15.702  0.8620 -0.3370  1.4296
 5742SOL     OW28684   1.583   2.247   5.800 -0.9128 -0.3644 -0.3896
 5742SOL    HW128685   1.660   2.286   5.843 -1.0772 -1.0967  0.5869
 5742SOL    HW228686   1.626   2.172   5.760 -0.9633 -0.2728 -0.6130
 5743SOL     OW28687   3.035   1.185   6.573  0.4067  0.1912  0.7188
 5743SOL    HW128688   3.054   1.152   6.485  1.0848 -1.4815  1.5026
 5743SOL    HW228689   2.969   1.123   6.602  0.9791  0.0062  1.6375
 5744SOL     OW28690   3.064   2.503   7.219 -0.1029 -0.1599  0.4277
 5744SOL    HW128691   2.995   2.475   7.279  2.5620 -2.1140  2.5867
 5744SOL    HW228692   3.137   2.459   7.263  1.0312 -0.9008 -2.2503
 5745SOL     OW28693   2.063   4.382  13.162 -0.3598 -0.1104  0.2336
 5745SOL    HW128694   2.074   4.475  13.183 -1.9043  0.1542 -0.1357
 5745SOL    HW228695   2.002   4.375  13.089  0.0249  0.5715 -0.1591
 5746SOL     OW28696   0.121   2.442   9.841  0.9674 -0.2089  0.1125
 5746SOL    HW128697   0.208   2.475   9.820  0.4456  0.5181 -0.8897
 5746SOL    HW228698   0.137   2.417   9.932  0.2588 -1.8554 -0.2031
 5747SOL     OW28699   4.318   0.851   6.556 -0.3409 -0.3085 -0.1422
 5747SOL    HW128700   4.362   0.775   6.594  0.9183  0.1715 -0.6194
 5747SOL    HW228701   4.236   0.820   6.517 -0.4309 -0.5924  0.2705
 5748SOL     OW28702   1.404   1.319   1.040  0.8077 -0.5587  0.0826
 5748SOL    HW128703   1.456   1.372   1.101  0.8799  0.8523 -1.1904
 5748SOL    HW228704   1.363   1.391   0.992 -0.3427 -0.9343  0.5107
 5749SOL     OW28705   2.535   0.415   9.400 -0.1156 -0.3744  0.4762
 5749SOL    HW128706   2.526   0.414   9.305 -2.0328  0.0827  0.6392
 5749SOL    HW228707   2.621   0.454   9.414  0.2725 -0.8434 -0.7070
 5750SOL     OW28708   1.052   3.282   6.181 -0.0029  0.5607  0.1116
 5750SOL    HW128709   1.071   3.240   6.265 -0.2802  0.4854  0.1343
 5750SOL    HW228710   1.044   3.375   6.201  0.6395  1.1289 -2.3079
 5751SOL     OW28711   2.005   2.869   6.979  0.4481  0.1210 -0.1059
 5751SOL    HW128712   2.066   2.808   6.938  0.4618  1.0280 -1.4022
 5751SOL    HW228713   2.040   2.881   7.068  0.5007  1.4376 -0.3122
 5752SOL     OW28714   1.190   2.683   3.749 -0.1672  0.0609  0.0489
 5752SOL    HW128715   1.229   2.770   3.753  0.2153 -0.1909  1.8590
 5752SOL    HW228716   1.266   2.624   3.738  0.5309  1.1697 -1.1247
 5753SOL     OW28717   2.169   1.858   7.983  0.3913 -0.0172  0.0728
 5753SOL    HW128718   2.223   1.923   7.938  0.5146 -0.0915  0.1131
 5753SOL    HW228719   2.169   1.888   8.074  0.9263 -1.4760  0.5575
 5754SOL     OW28720   3.761   3.818   3.302  0.0631  0.2017  0.0432
 5754SOL    HW128721   3.715   3.789   3.223 -0.3272  0.1735  0.2823
 5754SOL    HW228722   3.798   3.902   3.272  0.6843 -0.2349 -0.4155
 5755SOL     OW28723   3.271   0.096  12.325 -0.5503 -0.2970 -0.2477
 5755SOL    HW128724   3.245   0.020  12.274 -1.2194 -1.3764  1.6991
 5755SOL    HW228725   3.215   0.092  12.403  2.1857  0.1813  1.7365
 5756SOL     OW28726   1.833   2.336   9.728  0.3846  0.2100 -0.1922
 5756SOL    HW128727   1.893   2.398   9.769 -1.8318  3.1577 -1.4185
 5756SOL    HW228728   1.799   2.294   9.806  1.7154 -1.5173 -0.5474
 5757SOL     OW28729   0.766   4.421   8.029  0.0336  0.4714 -1.0488
 5757SOL    HW128730   0.817   4.494   7.994  0.7833  0.8233  0.7649
 5757SOL    HW228731   0.703   4.416   7.957 -0.7961  2.1471 -0.4482
 5758SOL     OW28732   0.157   0.182  16.565  0.4318  0.0458  0.3376
 5758SOL    HW128733   0.241   0.226  16.555  0.8511 -0.5045  1.5631
 5758SOL    HW228734   0.109   0.235  16.628 -1.4413 -2.4528  1.0043
 5759SOL     OW28735   0.041   3.143   9.541  0.6693  0.0043 -0.0662
 5759SOL    HW128736   0.096   3.215   9.572  1.6351 -0.3780 -0.9282
 5759SOL    HW228737   0.031   3.089   9.620  0.9171 -0.4654 -0.3596
 5760SOL     OW28738   4.191   3.100   2.049 -0.2498 -0.0292 -0.3120
 5760SOL    HW128739   4.266   3.053   2.084  0.8438  1.4375 -0.6980
 5760SOL    HW228740   4.178   3.179   2.102  0.6831 -0.1813  0.1330
 5761SOL     OW28741   3.460   3.888   3.001  0.4979  0.6332 -0.0433
 5761SOL    HW128742   3.518   3.818   3.031  0.9124  0.3267 -1.5654
 5761SOL    HW228743   3.472   3.950   3.073 -1.3976 -1.1716  1.8322
 5762SOL     OW28744   3.399   3.580  14.825  0.0768  0.6148 -0.5870
 5762SOL    HW128745   3.328   3.605  14.884  0.9805  0.4171  0.6009
 5762SOL    HW228746   3.342   3.551  14.754 -2.6431  3.3843  0.4780
 5763SOL     OW28747   1.779   2.956  10.220  0.1086 -0.0007  0.2784
 5763SOL    HW128748   1.799   3.010  10.143  2.9928 -1.0183  0.2808
 5763SOL    HW228749   1.702   2.904  10.197  1.0729 -0.9093 -0.9196
 5764SOL     OW28750   0.386   4.114   8.384  0.5669  0.4503 -0.3099
 5764SOL    HW128751   0.435   4.052   8.438  0.7690  0.2641 -0.7046
 5764SOL    HW228752   0.300   4.080   8.408  1.0441 -0.3116  0.3510
 5765SOL     OW28753   1.146   0.780   7.440 -0.2823 -0.2521 -0.2725
 5765SOL    HW128754   1.134   0.695   7.399 -2.0788 -1.3325  2.4610
 5765SOL    HW228755   1.057   0.801   7.469  0.0462 -0.4970  0.9098
 5766SOL     OW28756   3.859   3.478  13.391  0.1160  0.3708 -0.0884
 5766SOL    HW128757   3.811   3.512  13.316 -0.5793 -0.2817  0.0589
 5766SOL    HW228758   3.815   3.527  13.460 -0.4894  1.7198 -1.4551
 5767SOL     OW28759   0.263   1.946   8.890 -0.1545  0.2598  0.5573
 5767SOL    HW128760   0.233   1.855   8.894  1.1326 -0.1947 -0.1960
 5767SOL    HW228761   0.314   1.947   8.971  0.9732  1.6722 -0.1708
 5768SOL     OW28762   3.355   3.742  17.217  0.0115 -0.0453 -0.1695
 5768SOL    HW128763   3.307   3.814  17.175 -1.0055 -0.4121  0.3707
 5768SOL    HW228764   3.441   3.784  17.228 -0.1746 -0.0216  1.1188
 5769SOL     OW28765   3.014   3.690   4.455  0.4678  0.1903 -0.0667
 5769SOL    HW128766   3.004   3.784   4.445 -2.8894 -0.1189  0.5340
 5769SOL    HW228767   2.996   3.654   4.368  0.5509  0.3284 -0.1415
 5770SOL     OW28768   0.424   2.366   8.091 -0.3146 -0.9192  0.1653
 5770SOL    HW128769   0.427   2.270   8.086 -2.1554 -0.9648 -0.2695
 5770SOL    HW228770   0.370   2.381   8.168 -0.6789  0.5894 -0.3920
 5771SOL     OW28771   2.431   2.538   3.364 -0.1381 -0.2951  0.1358
 5771SOL    HW128772   2.444   2.551   3.270  3.1362 -1.1717  0.4499
 5771SOL    HW228773   2.402   2.447   3.368  3.3436 -1.4780 -1.6303
 5772SOL     OW28774   2.604   0.414   2.348 -0.5971 -0.5721  0.0571
 5772SOL    HW128775   2.599   0.321   2.370  2.5297 -0.5532  0.8527
 5772SOL    HW228776   2.563   0.447   2.427  0.4865 -1.9264  1.1961
 5773SOL     OW28777   3.005   1.653   5.636  0.3030  0.2329  0.7452
 5773SOL    HW128778   2.944   1.709   5.589 -0.7763 -0.3408  1.4634
 5773SOL    HW228779   3.053   1.725   5.677 -0.8920 -0.4686  3.3781
 5774SOL     OW28780   1.500   1.373   9.114  0.3739 -0.2139 -1.1425
 5774SOL    HW128781   1.431   1.439   9.119  1.8025  1.2306 -0.4972
 5774SOL    HW228782   1.555   1.400   9.188 -0.0343 -2.9047  0.1265
 5775SOL     OW28783   2.285   3.878   4.370 -0.0520  0.1077 -0.0965
 5775SOL    HW128784   2.357   3.817   4.387 -0.3402 -0.0730  0.4642
 5775SOL    HW228785   2.235   3.869   4.451  0.8002  0.7884  0.5026
 5776SOL     OW28786   4.190   1.209   8.791  0.2531 -0.4672  0.0495
 5776SOL    HW128787   4.245   1.144   8.748  0.4731 -2.0911  2.7971
 5776SOL    HW228788   4.174   1.256   8.709 -1.3336  0.5516  0.9207
 5777SOL     OW28789   4.154   4.247   4.513  0.5049 -0.5100  0.5238
 5777SOL    HW128790   4.163   4.331   4.557  0.5397 -0.8755  1.2104
 5777SOL    HW228791   4.142   4.186   4.586 -0.6595 -1.4031 -0.4059
 5778SOL     OW28792   2.058   2.101   8.915  0.4248 -0.0919 -0.0511
 5778SOL    HW128793   2.037   2.014   8.883 -2.7905  0.7858 -0.3024
 5778SOL    HW228794   2.134   2.120   8.860  0.5533  1.6026  0.6884
 5779SOL     OW28795   4.545   2.956   0.438  0.0906 -0.1910  0.4014
 5779SOL    HW128796   4.519   2.982   0.526  0.7547 -0.4114  0.6625
 5779SOL    HW228797   4.562   3.041   0.396  0.6119 -0.3266  0.3395
 5780SOL     OW28798   1.525   2.276   7.687 -0.8043  0.1253 -0.1620
 5780SOL    HW128799   1.560   2.328   7.615  0.9447 -2.3892 -1.1499
 5780SOL    HW228800   1.518   2.333   7.764 -2.3038 -0.9154  0.4670
 5781SOL     OW28801   4.701   1.948  16.054 -0.2595  0.3220  0.1408
 5781SOL    HW128802   4.616   1.971  16.092  0.7866 -0.3281  2.8832
 5781SOL    HW228803   4.721   2.034  16.016  2.6590 -0.5348 -0.2938
 5782SOL     OW28804   4.403   4.381  14.877  0.0772  0.2557  0.0900
 5782SOL    HW128805   4.454   4.314  14.923  2.8794  0.3502 -2.8934
 5782SOL    HW228806   4.315   4.346  14.889  0.6181 -1.4351 -0.7564
 5783SOL     OW28807   2.569   2.385  12.282  0.3644 -0.3197  0.2331
 5783SOL    HW128808   2.517   2.465  12.288  0.0979 -0.4149 -0.9259
 5783SOL    HW228809   2.499   2.319  12.286  0.6536 -0.6621 -0.2955
 5784SOL     OW28810   1.762   4.435   2.238 -0.1192  0.2287  0.2729
 5784SOL    HW128811   1.770   4.358   2.181 -1.1969  0.9451 -0.8568
 5784SOL    HW228812   1.764   4.507   2.174  0.6546 -1.3029 -1.4499
 5785SOL     OW28813   3.038   2.258   7.364  0.2824  0.1869  0.6528
 5785SOL    HW128814   2.943   2.261   7.373  0.0051  0.8552 -2.4493
 5785SOL    HW228815   3.055   2.164   7.373  0.4559  0.2808  1.2664
 5786SOL     OW28816   3.849   3.836  17.596 -0.0984 -1.0119 -0.1713
 5786SOL    HW128817   3.903   3.757  17.599 -0.6186 -1.2735  1.9149
 5786SOL    HW228818   3.874   3.885  17.517  0.0447 -1.0822 -0.1694
 5787SOL     OW28819   1.151   0.020   3.251 -0.1151 -0.1957  0.2800
 5787SOL    HW128820   1.161   4.648   3.270  0.4879 -0.2470 -0.3075
 5787SOL    HW228821   1.115   0.020   3.162  1.1337  2.0732 -0.2148
 5788SOL     OW28822   1.366   2.794   6.337 -0.5255  0.1459  0.1662
 5788SOL    HW128823   1.425   2.859   6.374  1.0417 -0.7398 -0.7755
 5788SOL    HW228824   1.298   2.798   6.404 -0.1910  0.3606  0.4916
 5789SOL     OW28825   3.855   3.688   9.284 -0.0865  0.3708 -0.2131
 5789SOL    HW128826   3.859   3.746   9.208 -2.3956 -0.0215 -0.6247
 5789SOL    HW228827   3.924   3.624   9.263 -0.7998 -1.1032  1.8793
 5790SOL     OW28828   0.260   2.719   6.502  0.4902  0.0706  0.4548
 5790SOL    HW128829   0.238   2.766   6.582 -1.9191 -1.5545  0.7473
 5790SOL    HW228830   0.262   2.627   6.528  0.6708  0.5403  2.0618
 5791SOL     OW28831   2.078   1.292   2.098 -0.8314 -0.5462 -0.4231
 5791SOL    HW128832   2.025   1.363   2.062  2.4998  2.7548  1.1599
 5791SOL    HW228833   2.154   1.344   2.125 -0.2028 -1.2470 -0.8116
 5792SOL     OW28834   0.302   2.378  11.330 -0.5113  0.0174 -0.2947
 5792SOL    HW128835   0.324   2.439  11.259  2.0791  0.2493  0.7259
 5792SOL    HW228836   0.215   2.415  11.348  0.4288  0.5438  3.2081
 5793SOL     OW28837   2.923   0.829   6.457  0.2799  0.7448 -0.3197
 5793SOL    HW128838   2.916   0.867   6.545  3.9120  1.7009 -0.4372
 5793SOL    HW228839   3.000   0.866   6.414  1.5313 -0.6950  0.6935
 5794SOL     OW28840   3.333   1.975   9.336 -0.4573  0.4364 -0.6587
 5794SOL    HW128841   3.259   1.983   9.275  1.2463 -1.5932 -2.9782
 5794SOL    HW228842   3.343   1.880   9.339  0.2520  0.5286 -0.3312
 5795SOL     OW28843   2.862   4.267   7.978  0.8085 -0.3563  0.1760
 5795SOL    HW128844   2.769   4.283   7.991  1.5356  0.6584  4.2868
 5795SOL    HW228845   2.860   4.174   8.001  0.9522 -0.8691 -1.8602
 5796SOL     OW28846   1.129   1.013  16.610 -0.4254  0.1826 -0.4807
 5796SOL    HW128847   1.083   1.040  16.690 -1.6023  0.9900 -1.4241
 5796SOL    HW228848   1.057   0.989  16.553 -1.9585  1.3790  0.9442
 5797SOL     OW28849   3.264   4.427  14.721  0.1099  0.1598 -0.8828
 5797SOL    HW128850   3.221   4.414  14.636 -3.3605  3.0066  0.4354
 5797SOL    HW228851   3.338   4.478  14.688  1.6749 -2.2856 -1.1538
 5798SOL     OW28852   3.496   1.820   4.877 -0.2395  0.9478 -0.0961
 5798SOL    HW128853   3.529   1.731   4.887  0.0340  1.0769  0.1528
 5798SOL    HW228854   3.488   1.826   4.782 -1.2583 -1.3645 -0.1504
 5799SOL     OW28855   0.234   2.923   9.293 -0.5634  0.7293  0.4744
 5799SOL    HW128856   0.156   2.921   9.349  1.0042  1.1395  2.6471
 5799SOL    HW228857   0.248   3.016   9.280 -0.2186  0.5956 -0.1105
 5800SOL     OW28858   1.513   3.514   5.824  0.3480 -0.4512 -0.4796
 5800SOL    HW128859   1.511   3.445   5.757  2.6547  1.4299 -2.4903
 5800SOL    HW228860   1.479   3.588   5.775 -1.3308 -0.3693  0.7959
 5801SOL     OW28861   2.690   1.831  15.423 -0.1576  0.4294 -0.2148
 5801SOL    HW128862   2.680   1.899  15.489 -1.2233 -0.1255  0.1863
 5801SOL    HW228863   2.748   1.776  15.477 -0.5504 -2.2624 -2.4990
 5802SOL     OW28864   4.293   3.934   2.372 -0.0154  0.1866 -0.3790
 5802SOL    HW128865   4.378   3.900   2.400  0.4776  1.0577 -0.7913
 5802SOL    HW228866   4.246   3.852   2.379  0.6531 -0.3181 -1.7891
 5803SOL     OW28867   2.924   2.489   6.171 -0.4403 -0.1186 -0.3666
 5803SOL    HW128868   2.865   2.522   6.103 -2.6738 -2.8555  0.2856
 5803SOL    HW228869   2.887   2.524   6.252 -0.0479  0.2598 -0.3472
 5804SOL     OW28870   0.952   3.663  14.941 -0.1641  0.4296 -0.7509
 5804SOL    HW128871   1.009   3.622  15.006 -0.2331  1.5179 -0.0109
 5804SOL    HW228872   0.979   3.754  14.952  2.9139 -1.0419  4.0862
 5805SOL     OW28873   3.224   2.533   6.443 -0.3145  0.5240  0.2081
 5805SOL    HW128874   3.294   2.485   6.487 -0.8301  0.0685  0.5346
 5805SOL    HW228875   3.218   2.494   6.356 -2.8053  1.0563  0.1565
 5806SOL     OW28876   0.005   4.453   2.077 -0.1393  0.2245  0.5376
 5806SOL    HW128877   0.032   4.402   2.153  1.0093  0.8764  0.5668
 5806SOL    HW228878   0.063   4.418   2.009 -0.0968  0.1685  0.6027
 5807SOL     OW28879   2.352   2.123   2.467 -0.2026 -0.1697 -0.0970
 5807SOL    HW128880   2.342   2.212   2.433 -0.3718 -0.1548 -0.0101
 5807SOL    HW228881   2.356   2.068   2.389  0.7816 -1.8853  1.1519
 5808SOL     OW28882   0.307   1.306   7.999  0.1235 -0.2513 -0.4435
 5808SOL    HW128883   0.213   1.293   8.007  0.0988 -2.2669 -4.2835
 5808SOL    HW228884   0.320   1.316   8.094  1.8407 -3.0161 -0.3939
 5809SOL     OW28885   3.031   2.271  16.195 -0.0487  0.1590  0.8302
 5809SOL    HW128886   3.078   2.345  16.233  0.5089  0.1439  0.1725
 5809SOL    HW228887   3.040   2.200  16.259  0.9813 -0.9309 -0.5316
 5810SOL     OW28888   2.349   0.988   2.256  0.6444  0.1158  0.2507
 5810SOL    HW128889   2.393   0.903   2.253 -0.6295 -0.4810 -1.2177
 5810SOL    HW228890   2.392   1.031   2.183 -1.6704  2.4684  0.2747
 5811SOL     OW28891   3.452   1.239   8.620 -0.3668 -0.7662 -0.3709
 5811SOL    HW128892   3.415   1.155   8.649  1.3780 -0.8770  1.5590
 5811SOL    HW228893   3.547   1.231   8.621 -0.1344  1.9420 -1.7047
 5812SOL     OW28894   0.193   1.987  14.674 -0.1570  0.3314  0.3260
 5812SOL    HW128895   0.275   1.971  14.722 -0.0386  0.1114  0.0455
 5812SOL    HW228896   0.129   2.007  14.743  0.9036 -0.8297  1.6558
 5813SOL     OW28897   1.803   2.056   6.641  0.4348 -0.0068 -0.1465
 5813SOL    HW128898   1.870   2.115   6.676  1.9429 -1.6245 -0.3003
 5813SOL    HW228899   1.775   2.099   6.561 -2.0796  1.0243  1.2961
 5814SOL     OW28900   0.858   2.774  13.965 -0.3632  0.1185  0.3172
 5814SOL    HW128901   0.833   2.866  13.955  0.6911  0.6024  2.3500
 5814SOL    HW228902   0.868   2.752  13.872  2.3266 -2.7692  1.3026
 5815SOL     OW28903   3.430   3.046   8.093 -0.7619 -0.0766  0.0658
 5815SOL    HW128904   3.446   3.013   8.004 -0.3080 -2.2418  0.9465
 5815SOL    HW228905   3.521   3.039   8.120 -0.5111 -0.7642 -0.9479
 5816SOL     OW28906   0.106   1.011  16.337  0.0340  0.3413 -0.0492
 5816SOL    HW128907   0.192   1.053  16.343  0.0520  0.2127  0.5888
 5816SOL    HW228908   0.116   0.968  16.252  1.5195 -0.6750  0.6410
 5817SOL     OW28909   4.493   3.489  10.939 -0.0151  0.0939  0.0297
 5817SOL    HW128910   4.585   3.496  10.912 -0.2948 -2.5960 -1.6195
 5817SOL    HW228911   4.439   3.550  10.889 -0.6010 -0.0702  0.4702
 5818SOL     OW28912   4.501   1.664   8.116  0.0443 -0.3744  0.1668
 5818SOL    HW128913   4.421   1.690   8.161  1.0595  0.6376  1.4171
 5818SOL    HW228914   4.564   1.735   8.132 -0.8280  0.5318 -0.4547
 5819SOL     OW28915   3.504   0.244   4.186 -0.5343  0.3379 -0.5839
 5819SOL    HW128916   3.576   0.305   4.171  0.7850 -0.5549  1.9931
 5819SOL    HW228917   3.440   0.278   4.124 -2.0311 -0.1286  0.6968
 5820SOL     OW28918   2.827   1.742   2.558  0.3220 -0.1304 -0.1577
 5820SOL    HW128919   2.834   1.717   2.650 -0.4852 -0.5739 -0.2208
 5820SOL    HW228920   2.868   1.828   2.567  0.5602 -0.2753  0.1631
 5821SOL     OW28921   3.803   3.884   7.331 -0.6105 -0.0807  0.3542
 5821SOL    HW128922   3.778   3.912   7.243  3.0129  2.3558  0.1235
 5821SOL    HW228923   3.757   3.801   7.347  0.6548 -0.8045  0.1824
 5822SOL     OW28924   0.713   2.459   2.702  0.2418  0.0327  0.5244
 5822SOL    HW128925   0.766   2.391   2.744  1.1477  1.6016  1.9040
 5822SOL    HW228926   0.635   2.458   2.757 -1.4376  0.5313 -1.8383
 5823SOL     OW28927   3.872   2.072   8.657  0.2385 -0.1779 -0.1798
 5823SOL    HW128928   3.947   2.012   8.665 -1.3632 -2.0161  0.9109
 5823SOL    HW228929   3.922   2.120   8.590  1.1312 -0.1592  0.4969
 5824SOL     OW28930   2.019   4.290  11.404 -0.5023 -0.1623  0.5248
 5824SOL    HW128931   1.980   4.243  11.330  1.7326 -1.7255  0.3299
 5824SOL    HW228932   2.072   4.223  11.447 -0.4199  1.9339  3.7174
 5825SOL     OW28933   4.075   1.330  11.950  0.5262  0.3500  0.2095
 5825SOL    HW128934   4.080   1.235  11.941 -0.7995  0.1723  1.3106
 5825SOL    HW228935   4.070   1.341  12.045 -0.3350 -1.7980  0.4308
 5826SOL     OW28936   1.053   2.341   5.850  0.5878  0.3793 -0.9225
 5826SOL    HW128937   1.076   2.290   5.772 -0.4425  1.1439 -1.7388
 5826SOL    HW228938   0.961   2.361   5.831  0.0864  0.7185  1.9525
 5827SOL     OW28939   3.522   0.159  11.018 -0.5270  0.0294 -0.0856
 5827SOL    HW128940   3.470   0.092  11.062  1.5457 -0.8249  1.0682
 5827SOL    HW228941   3.526   0.123  10.930 -0.7023 -0.0626 -0.0571
 5828SOL     OW28942   4.497   2.845   9.267  0.2416  0.6355  0.0349
 5828SOL    HW128943   4.433   2.878   9.331  1.2117 -0.6465  1.6852
 5828SOL    HW228944   4.466   2.761   9.233 -0.6692  0.8492  0.3286
 5829SOL     OW28945   4.324   3.354   3.078 -0.0665 -0.2699 -0.5661
 5829SOL    HW128946   4.326   3.377   2.985  0.6670 -2.0249 -0.9770
 5829SOL    HW228947   4.402   3.400   3.110 -1.0226  0.8525  0.1633
 5830SOL     OW28948   2.356   1.488   7.570  0.0133 -0.0063 -0.3316
 5830SOL    HW128949   2.266   1.474   7.543 -0.3223  0.2726  0.6569
 5830SOL    HW228950   2.351   1.581   7.592  0.3583  0.5403 -2.5903
 5831SOL     OW28951   2.112   1.053  11.260 -0.1499 -0.1475  0.1148
 5831SOL    HW128952   2.122   1.006  11.177 -0.6856  0.1728 -0.1380
 5831SOL    HW228953   2.023   1.025  11.281 -0.9315  1.5155 -0.9448
 5832SOL     OW28954   2.982   4.169  12.300 -0.6580 -0.5970  0.4508
 5832SOL    HW128955   3.074   4.158  12.278 -0.8011  0.2689 -0.5326
 5832SOL    HW228956   2.947   4.115  12.229 -2.3660  0.7317  0.2964
 5833SOL     OW28957   3.265   3.032  15.320 -0.3377  0.7053  1.0308
 5833SOL    HW128958   3.350   3.065  15.291 -0.0719 -0.5557  0.3864
 5833SOL    HW228959   3.279   3.011  15.412  0.8130  1.3148  1.0015
 5834SOL     OW28960   1.971   0.229  10.361  0.6590  0.2159  0.0220
 5834SOL    HW128961   1.943   0.240  10.452  0.8704 -0.1120  0.1283
 5834SOL    HW228962   1.901   0.195  10.304  1.3036 -1.0224 -0.0327
 5835SOL     OW28963   1.411   4.279  16.524 -0.7754 -0.4701 -0.1542
 5835SOL    HW128964   1.326   4.307  16.557 -0.8935  1.7089 -2.3667
 5835SOL    HW228965   1.466   4.283  16.602  0.0688 -2.2733 -0.6561
 5836SOL     OW28966   3.647   2.526   4.806 -0.1262 -0.3093 -0.7197
 5836SOL    HW128967   3.613   2.437   4.811 -1.8374  0.3543 -0.3094
 5836SOL    HW228968   3.608   2.557   4.888  0.7066  3.9581 -1.9312
 5837SOL     OW28969   4.204   1.193  16.185 -0.5342  0.1744  0.2168
 5837SOL    HW128970   4.213   1.132  16.112 -1.9943  1.4490 -1.0316
 5837SOL    HW228971   4.296   1.210  16.204 -0.2258 -0.3789 -0.7947
 5838SOL     OW28972   4.102   4.427  11.085 -0.0704 -0.6607  0.0662
 5838SOL    HW128973   4.007   4.414  11.095 -0.3394 -0.1013 -1.6653
 5838SOL    HW228974   4.105   4.521  11.067  2.8884 -0.5325  1.3449
 5839SOL     OW28975   0.305   0.928   6.262 -0.2870 -0.4291 -0.3274
 5839SOL    HW128976   0.241   0.998   6.248  0.4449  0.3292  0.0735
 5839SOL    HW228977   0.248   0.853   6.277 -0.2683 -0.3281  0.2683
 5840SOL     OW28978   0.746   0.459   3.083  0.4067  0.2526  0.3129
 5840SOL    HW128979   0.690   0.424   3.152 -1.2934  1.3334 -0.4953
 5840SOL    HW228980   0.753   0.387   3.021  2.1412  2.1184 -1.6629
 5841SOL     OW28981   0.923   1.413   6.527 -0.5904 -0.3594  0.1836
 5841SOL    HW128982   0.886   1.496   6.497  0.2000 -0.2781 -0.5757
 5841SOL    HW228983   1.016   1.419   6.503 -0.2989 -2.3922  0.7871
 5842SOL     OW28984   0.973   4.151   2.795  0.3252 -0.0570 -0.0480
 5842SOL    HW128985   0.999   4.075   2.743 -0.5841  0.0535 -0.6529
 5842SOL    HW228986   0.883   4.133   2.821  0.6650  1.0763  1.9599
 5843SOL     OW28987   3.536   2.155   0.025 -0.1738 -0.0608 -0.2629
 5843SOL    HW128988   3.570   2.230   0.073 -0.6575  0.4237 -0.6758
 5843SOL    HW228989   3.449   2.183  17.687 -1.0158 -1.1454  1.2328
 5844SOL     OW28990   1.170   2.511   6.523  0.6509 -0.1815 -0.1436
 5844SOL    HW128991   1.133   2.600   6.518 -1.5025 -1.2711 -3.5383
 5844SOL    HW228992   1.203   2.493   6.435 -0.4796  0.5089 -0.7086
 5845SOL     OW28993   2.420   4.523   3.813  0.4663  0.6240 -0.2234
 5845SOL    HW128994   2.436   4.433   3.841  1.5407  0.7440 -0.4532
 5845SOL    HW228995   2.400   4.566   3.896  3.0413  2.3686 -0.5167
 5846SOL     OW28996   4.127   2.491   5.073 -0.1395  0.1276 -0.2812
 5846SOL    HW128997   4.196   2.454   5.128 -2.3250 -1.1909  1.5911
 5846SOL    HW228998   4.109   2.565   5.131 -0.9356 -0.1482 -0.1736
 5847SOL     OW28999   0.471   3.900   1.612  0.3894 -0.2101 -0.4463
 5847SOL    HW129000   0.426   3.818   1.593  1.5614 -1.3448  1.6488
 5847SOL    HW229001   0.534   3.916   1.542 -0.5222 -0.1946 -1.2484
 5848SOL     OW29002   0.383   2.647   3.973  1.1378 -0.6148 -0.1086
 5848SOL    HW129003   0.437   2.637   4.052 -1.5273 -4.3682  1.2230
 5848SOL    HW229004   0.441   2.708   3.927  0.5975 -0.3858 -0.4791
 5849SOL     OW29005   4.553   1.642   1.901  0.5775  0.1091 -0.1874
 5849SOL    HW129006   4.506   1.613   1.823  0.3018  0.3073 -0.0940
 5849SOL    HW229007   4.560   1.734   1.878 -3.0406  0.2351 -0.7825
 5850SOL     OW29008   4.709   0.649  13.284 -0.1854 -0.4689  0.0123
 5850SOL    HW129009   4.627   0.634  13.332 -1.3747 -0.5895 -2.0696
 5850SOL    HW229010   4.676   0.708  13.217  0.6087  0.0095  0.0391
 5851SOL     OW29011   2.326   0.368  12.326  0.1864  0.2433  0.2909
 5851SOL    HW129012   2.391   0.355  12.258 -1.0061  1.8034 -1.1528
 5851SOL    HW229013   2.270   0.435  12.287  0.6360  1.4682  1.6928
 5852SOL     OW29014   1.260   0.498  13.002  0.4891 -0.4328 -0.3591
 5852SOL    HW129015   1.167   0.484  12.983  0.8721 -1.6114 -1.3524
 5852SOL    HW229016   1.291   0.501  12.911 -2.5571  0.9026 -1.3662
 5853SOL     OW29017   0.243   0.713   9.039  0.4309 -0.3238 -0.4800
 5853SOL    HW129018   0.185   0.688   9.110 -0.5731  2.9440 -0.1105
 5853SOL    HW229019   0.325   0.704   9.087  1.0678  1.1990 -1.2590
 5854SOL     OW29020   0.535   2.124  14.983  0.5769  0.2943  0.0249
 5854SOL    HW129021   0.601   2.192  14.993  2.0199 -0.8636 -1.7094
 5854SOL    HW229022   0.563   2.064  15.052  1.1588  2.0259  1.3225
 5855SOL     OW29023   4.074   2.490  13.917  0.9408  0.2335 -0.2460
 5855SOL    HW129024   4.134   2.564  13.906  0.3557  0.5887 -0.9875
 5855SOL    HW229025   4.002   2.537  13.959  0.9918  0.1263 -0.0388
 5856SOL     OW29026   0.288   1.054   3.088  0.1507 -0.1557  0.0647
 5856SOL    HW129027   0.333   1.065   3.004  0.5360 -0.3501  0.2428
 5856SOL    HW229028   0.203   1.090   3.065  0.4412 -0.7178 -1.9130
 5857SOL     OW29029   2.141   3.493   4.194  0.0476 -0.3282  0.2560
 5857SOL    HW129030   2.116   3.549   4.267 -0.9438  0.4072 -0.6442
 5857SOL    HW229031   2.235   3.512   4.197 -0.2982  0.9774  2.6655
 5858SOL     OW29032   0.930   2.659   6.624 -0.4794  0.4688  0.0075
 5858SOL    HW129033   0.966   2.621   6.704 -0.4094  0.7869  0.1285
 5858SOL    HW229034   1.008   2.703   6.592  1.3095 -3.0076 -0.3886
 5859SOL     OW29035   1.185   3.186   8.509 -0.8461 -0.1574 -0.6873
 5859SOL    HW129036   1.146   3.204   8.594  0.1078  2.7670 -0.8536
 5859SOL    HW229037   1.194   3.092   8.526  1.5056  0.0258 -0.9307
 5860SOL     OW29038   0.126   1.584   7.923  0.0141  0.6295  0.2136
 5860SOL    HW129039   0.129   1.590   8.018  0.5917 -0.0225  0.2391
 5860SOL    HW229040   0.126   1.488   7.920 -2.1521  0.6359 -0.7485
 5861SOL     OW29041   0.285   4.018   9.729  0.3714  0.3333 -0.3476
 5861SOL    HW129042   0.213   3.957   9.744  0.1540  0.4290 -1.0044
 5861SOL    HW229043   0.243   4.073   9.662 -0.5910  2.4863  2.0373
 5862SOL     OW29044   4.254   2.578   6.915  0.9268 -0.2165  0.2088
 5862SOL    HW129045   4.186   2.519   6.948 -0.9245 -0.8532 -4.8117
 5862SOL    HW229046   4.332   2.563   6.968  0.2235  0.2219  1.3875
 5863SOL     OW29047   2.183   4.636   6.498  0.2372  0.1110 -0.0318
 5863SOL    HW129048   2.171   4.721   6.457  0.4561  0.2440  0.1815
 5863SOL    HW229049   2.141   4.577   6.435  1.8634 -1.2311  0.1340
 5864SOL     OW29050   2.838   1.664   6.947 -0.2375 -0.2514  0.1363
 5864SOL    HW129051   2.846   1.606   7.023 -1.8834  0.0975  0.5824
 5864SOL    HW229052   2.859   1.614   6.868 -0.7338 -1.2155  0.6141
 5865SOL     OW29053   4.643   0.506   9.119 -0.3587 -0.5407 -0.1793
 5865SOL    HW129054   4.611   0.465   9.039 -2.8962  1.4704 -0.2191
 5865SOL    HW229055   4.637   0.432   9.180 -0.2822  0.7275  1.3761
 5866SOL     OW29056   1.450   2.424   2.544  0.2268 -0.1499  0.2946
 5866SOL    HW129057   1.378   2.424   2.481 -0.0739 -2.4205  0.6515
 5866SOL    HW229058   1.492   2.506   2.517 -1.4632 -0.0897 -2.0460
 5867SOL     OW29059   1.745   0.629   8.228  0.4792 -0.2711  0.3110
 5867SOL    HW129060   1.712   0.718   8.235  0.1719 -0.3263 -0.3830
 5867SOL    HW229061   1.818   0.644   8.288  1.6900 -6.0161  0.2589
 5868SOL     OW29062   1.657   1.011   6.850 -0.3718 -0.0529  0.5759
 5868SOL    HW129063   1.645   0.916   6.841 -0.7006  0.1152 -0.7317
 5868SOL    HW229064   1.663   1.036   6.758 -1.4350 -1.1391  0.2074
 5869SOL     OW29065   4.191   0.082  12.649 -0.0732 -0.0567  0.1301
 5869SOL    HW129066   4.283   0.081  12.624 -0.3885 -2.2165 -0.9300
 5869SOL    HW229067   4.159   4.721  12.613 -0.3066  0.8444 -1.6993
 5870SOL     OW29068   3.895   2.751  12.359  0.6298 -0.1739 -0.0757
 5870SOL    HW129069   3.825   2.773  12.421 -1.4686  1.0644 -2.8817
 5870SOL    HW229070   3.957   2.713  12.420  0.5620  0.1194  0.1784
 5871SOL     OW29071   4.101   2.055   3.150 -0.0044  0.3396 -0.1840
 5871SOL    HW129072   4.170   2.081   3.211 -1.0511  0.2054  1.0489
 5871SOL    HW229073   4.162   2.046   3.077 -0.9540  1.5473 -1.1348
 5872SOL     OW29074   1.838   1.040   6.377 -0.5258 -0.6405 -0.1295
 5872SOL    HW129075   1.850   0.970   6.313 -1.7182 -2.4734  1.6298
 5872SOL    HW229076   1.928   1.052   6.408 -0.7938  0.5592  0.1832
 5873SOL     OW29077   0.360   2.310   1.825 -0.3437 -0.4015 -0.1441
 5873SOL    HW129078   0.328   2.284   1.739  0.0061 -0.0033 -0.3934
 5873SOL    HW229079   0.423   2.377   1.798 -0.3902 -0.2161  0.2016
 5874SOL     OW29080   0.503   4.077   1.302 -0.0116 -0.1263 -0.2193
 5874SOL    HW129081   0.503   3.987   1.269  0.5042  0.0864 -0.7939
 5874SOL    HW229082   0.512   4.128   1.221  3.0363  1.2184  0.9520
 5875SOL     OW29083   1.440   3.628   5.165  0.0644 -0.5402  0.1902
 5875SOL    HW129084   1.455   3.547   5.214 -1.8852 -1.4076 -0.6597
 5875SOL    HW229085   1.529   3.663   5.166 -0.5147  0.9694 -0.9312
 5876SOL     OW29086   3.511   3.507  12.411  0.0015 -0.5211  0.1878
 5876SOL    HW129087   3.484   3.424  12.450 -1.2888  0.3702  1.1929
 5876SOL    HW229088   3.453   3.507  12.336  2.6632  0.8000 -1.8735
 5877SOL     OW29089   0.599   4.377   9.436 -0.4403 -0.1977  0.4442
 5877SOL    HW129090   0.505   4.362   9.445 -0.5758 -0.8773 -2.1171
 5877SOL    HW229091   0.635   4.315   9.499  0.9376 -0.3034 -0.4532
 5878SOL     OW29092   0.910   1.745  14.352 -0.3407  0.8399  0.3931
 5878SOL    HW129093   0.849   1.728  14.280  0.2221 -2.7166  0.7599
 5878SOL    HW229094   1.000   1.731  14.324 -0.2706  2.2642 -0.0845
 5879SOL     OW29095   1.006   0.263  11.945 -0.3582 -0.4491 -0.1278
 5879SOL    HW129096   0.938   0.239  11.882 -0.1132 -0.0887 -0.5329
 5879SOL    HW229097   1.077   0.204  11.919  0.7742  0.4109  1.0001
 5880SOL     OW29098   3.769   0.592   2.637  0.6913 -0.1948 -0.0008
 5880SOL    HW129099   3.774   0.548   2.552  0.7967 -2.8538  1.4158
 5880SOL    HW229100   3.776   0.519   2.697 -0.3369 -1.0522 -0.9359
 5881SOL     OW29101   1.469   3.008   6.724 -0.2973 -0.5431 -0.0343
 5881SOL    HW129102   1.562   3.010   6.747 -0.6232 -2.0970  1.4548
 5881SOL    HW229103   1.431   3.080   6.773  2.2594  0.8336 -0.0567
 5882SOL     OW29104   2.023   2.706   4.514  0.1810 -0.5282 -0.6122
 5882SOL    HW129105   2.031   2.780   4.455  1.4436 -0.2195 -0.0493
 5882SOL    HW229106   2.023   2.744   4.602 -3.0677  0.3607 -1.0108
 5883SOL     OW29107   1.936   4.456  16.947 -0.5931 -0.0040 -0.1307
 5883SOL    HW129108   1.886   4.538  16.947 -2.5864 -1.2105  0.7051
 5883SOL    HW229109   1.872   4.386  16.960  0.5942 -0.9858  0.3627
 5884SOL     OW29110   1.036   3.171   6.936 -0.3879  0.3330 -0.4164
 5884SOL    HW129111   1.106   3.131   6.884  0.4903  1.5340 -0.1456
 5884SOL    HW229112   1.051   3.122   7.018 -0.0044  1.8830  0.4394
 5885SOL     OW29113   1.705   2.480  12.270  0.2075 -0.2449  0.1932
 5885SOL    HW129114   1.685   2.390  12.294  0.7641  0.0965  1.9917
 5885SOL    HW229115   1.789   2.496  12.314 -0.2062 -1.6881  1.5257
 5886SOL     OW29116   3.573   3.685   6.245 -0.0631  0.1406 -0.6254
 5886SOL    HW129117   3.478   3.691   6.239 -0.2937 -0.5827  1.9660
 5886SOL    HW229118   3.593   3.776   6.267 -0.2234 -0.6087  2.6899
 5887SOL     OW29119   2.631   1.133  15.798  0.3033  0.0660 -0.1310
 5887SOL    HW129120   2.581   1.071  15.744 -1.4729 -0.6306  2.2820
 5887SOL    HW229121   2.723   1.111  15.782  0.1373  0.9403 -2.3172
 5888SOL     OW29122   0.977   1.997   8.734 -0.6220 -0.4700 -0.0876
 5888SOL    HW129123   0.952   1.923   8.679  0.5111  0.7540 -2.2401
 5888SOL    HW229124   0.979   2.071   8.673  0.9897  1.1731  1.9266
 5889SOL     OW29125   2.666   3.801   2.293 -0.1353  0.0331  1.0699
 5889SOL    HW129126   2.605   3.733   2.266  1.3291 -1.2607  1.0017
 5889SOL    HW229127   2.715   3.804   2.210  1.5552 -2.1278  1.9854
 5890SOL     OW29128   3.142   0.756   4.532 -0.5230 -0.4913  0.9638
 5890SOL    HW129129   3.080   0.703   4.482  1.7236  0.8909 -3.2528
 5890SOL    HW229130   3.232   0.725   4.521 -0.0152  1.5062 -0.5004
 5891SOL     OW29131   4.344   1.505   8.578 -0.1088  0.9571  0.3241
 5891SOL    HW129132   4.434   1.479   8.559 -0.0360 -0.8147  3.1296
 5891SOL    HW229133   4.345   1.515   8.673  0.2605 -0.9523  0.5197
 5892SOL     OW29134   2.566   2.222   8.443 -0.3485  0.2522 -0.8825
 5892SOL    HW129135   2.546   2.135   8.477  0.6619  1.1369  2.0049
 5892SOL    HW229136   2.543   2.280   8.516 -1.4323 -0.3838 -0.7225
 5893SOL     OW29137   4.464   3.015  17.240  0.2004 -0.1107 -0.2870
 5893SOL    HW129138   4.495   3.082  17.179  0.1884 -0.1753 -0.3629
 5893SOL    HW229139   4.503   2.934  17.209  1.8808  0.9848 -0.9918
 5894SOL     OW29140   2.469   2.380   4.916  0.2574 -0.3054 -0.1093
 5894SOL    HW129141   2.553   2.414   4.885 -0.4445  2.5351  1.1065
 5894SOL    HW229142   2.500   2.340   4.998  2.1485  1.6020  0.1122
 5895SOL     OW29143   0.970   4.060   6.429  0.0205  0.2741 -0.0910
 5895SOL    HW129144   0.939   4.149   6.414  0.7204  0.4409 -0.5552
 5895SOL    HW229145   0.950   4.052   6.522  0.8107 -0.9282 -0.0284
 5896SOL     OW29146   3.526   0.453   4.656  0.0063  0.2362 -0.0280
 5896SOL    HW129147   3.540   0.379   4.597 -1.5969  0.1873 -0.3552
 5896SOL    HW229148   3.467   0.414   4.720  0.3081  0.6548  0.5057
 5897SOL     OW29149   2.078   3.600   2.541  0.7211  0.1776 -0.4244
 5897SOL    HW129150   2.041   3.533   2.598  1.8319  0.0018  0.0791
 5897SOL    HW229151   2.127   3.535   2.489  0.3896 -0.4594  0.0600
 5898SOL     OW29152   3.040   4.575   8.060 -0.0738 -0.5492 -0.8265
 5898SOL    HW129153   3.033   4.593   7.966 -1.3597 -0.7775 -0.7839
 5898SOL    HW229154   3.109   4.640   8.074 -2.4451  1.5409  1.1548
 5899SOL     OW29155   2.485   0.712  15.467  0.0831  0.4517 -0.1420
 5899SOL    HW129156   2.532   0.688  15.387  1.4830  0.6333  0.6302
 5899SOL    HW229157   2.402   0.738  15.426 -0.2762 -1.5803 -0.7059
 5900SOL     OW29158   4.367   2.475  10.242 -0.5816  0.0319  0.0817
 5900SOL    HW129159   4.298   2.533  10.273  0.4917  1.1759  0.3109
 5900SOL    HW229160   4.321   2.396  10.270 -0.0773  0.4074  1.9390
 5901SOL     OW29161   3.501   2.580  13.676  0.3291 -0.2521 -0.1971
 5901SOL    HW129162   3.491   2.657  13.733  1.5524 -0.2200 -0.0126
 5901SOL    HW229163   3.411   2.561  13.653  0.4624 -2.9321  1.5174
 5902SOL     OW29164   1.830   0.483  14.630 -0.0284  0.6666 -0.5984
 5902SOL    HW129165   1.852   0.495  14.538 -1.0676  0.4057 -0.8790
 5902SOL    HW229166   1.779   0.560  14.656 -0.8228 -0.2464  0.5392
 5903SOL     OW29167   1.954   1.208   4.535  0.0775 -0.0316  0.3732
 5903SOL    HW129168   1.891   1.276   4.512  1.3159  1.0952  0.2679
 5903SOL    HW229169   1.956   1.217   4.631  0.4935  2.5927  0.1024
 5904SOL     OW29170   4.110   1.646   8.848  0.1269 -0.1096  0.0779
 5904SOL    HW129171   4.056   1.717   8.881 -0.3058 -0.1278 -0.5909
 5904SOL    HW229172   4.059   1.581   8.896  2.7409 -0.2134  2.7165
 5905SOL     OW29173   3.935   0.851   6.584  0.2646 -0.2042  1.0317
 5905SOL    HW129174   3.932   0.925   6.523  0.4184 -1.4357 -0.4749
 5905SOL    HW229175   4.004   0.806   6.536 -0.7534 -0.0875 -0.5313
 5906SOL     OW29176   4.441   3.768  13.657 -0.1432 -0.3222 -0.2115
 5906SOL    HW129177   4.368   3.794  13.601  0.3877  1.9724  0.1707
 5906SOL    HW229178   4.514   3.825  13.632  1.3826 -1.0416  2.5883
 5907SOL     OW29179   0.763   3.729   4.076  0.7588 -0.1395  0.3604
 5907SOL    HW129180   0.700   3.658   4.088  0.6653  0.0251  0.8680
 5907SOL    HW229181   0.822   3.710   4.149  1.8148 -1.1593 -0.7764
 5908SOL     OW29182   4.494   1.559   9.603 -1.0513 -0.1108 -0.2737
 5908SOL    HW129183   4.587   1.581   9.603 -1.1370  0.2730  0.7843
 5908SOL    HW229184   4.496   1.464   9.594  1.5062  0.2006 -2.9415
 5909SOL     OW29185   4.349   0.223   7.839  0.2320  0.3217 -0.1047
 5909SOL    HW129186   4.377   0.198   7.928  2.1161 -0.6825 -0.9862
 5909SOL    HW229187   4.359   0.317   7.855  0.6461  0.0751  1.1458
 5910SOL     OW29188   2.795   2.842  14.250 -0.3371 -0.3917  0.0368
 5910SOL    HW129189   2.756   2.767  14.205 -0.9526 -1.8222  2.9789
 5910SOL    HW229190   2.741   2.867  14.325 -0.5555 -0.1719 -0.1901
 5911SOL     OW29191   2.240   3.797   6.881 -0.0063 -0.1503 -0.0692
 5911SOL    HW129192   2.186   3.759   6.950  0.8152  0.4911  0.9191
 5911SOL    HW229193   2.192   3.871   6.844  1.8007  0.8503 -0.4068
 5912SOL     OW29194   2.626   0.840  16.192  0.2518 -0.3234 -0.3020
 5912SOL    HW129195   2.707   0.890  16.178 -0.7215  0.8202 -1.8975
 5912SOL    HW229196   2.592   0.835  16.102 -0.6264 -3.1082  0.1975
 5913SOL     OW29197   3.414   4.252  11.315 -0.2922 -0.0193 -0.1872
 5913SOL    HW129198   3.385   4.283  11.401  0.0634 -0.1144 -0.0324
 5913SOL    HW229199   3.370   4.168  11.302 -0.4099 -0.2780  1.8857
 5914SOL     OW29200   3.121   3.614   2.711  0.0173  0.4958 -0.3588
 5914SOL    HW129201   3.113   3.522   2.733  1.1567  0.9022  1.7125
 5914SOL    HW229202   3.052   3.648   2.768 -0.9077 -1.4388 -0.3283
 5915SOL     OW29203   1.297   4.528   3.037  0.0424 -0.4667  0.0069
 5915SOL    HW129204   1.311   4.489   2.951  1.1202  0.4294 -0.2244
 5915SOL    HW229205   1.363   4.598   3.033  0.2024 -0.6221 -0.0887
 5916SOL     OW29206   1.657   1.070   8.744  0.3756  0.8851 -0.4722
 5916SOL    HW129207   1.700   1.116   8.816 -3.3164  0.8339  1.7755
 5916SOL    HW229208   1.739   1.050   8.699  0.0293 -3.1318  0.6800
 5917SOL     OW29209   0.641   0.457   8.303  0.1386  0.2831 -0.0185
 5917SOL    HW129210   0.590   0.377   8.315  0.6094 -0.1068 -0.6049
 5917SOL    HW229211   0.730   0.421   8.304  0.1911  0.4175  0.0911
 5918SOL     OW29212   0.247   0.217  13.982  0.3459  0.8394  0.4474
 5918SOL    HW129213   0.210   0.302  13.957 -0.8974  0.6047  1.4876
 5918SOL    HW229214   0.338   0.246  13.983  0.5251  0.2895  0.1238
 5919SOL     OW29215   0.558   2.096   1.959 -0.3451  0.3145 -0.2846
 5919SOL    HW129216   0.577   2.188   1.978 -0.1312 -0.1428  1.7225
 5919SOL    HW229217   0.570   2.053   2.044  1.7759 -1.6804 -1.5780
 5920SOL     OW29218   3.795   2.371   1.978 -0.0469  0.4380 -0.1177
 5920SOL    HW129219   3.774   2.447   1.924 -1.5171  1.9132  2.5432
 5920SOL    HW229220   3.890   2.386   1.972 -0.3827  2.1385 -1.3277
 5921SOL     OW29221   1.625   3.126   1.364 -0.5398 -0.2134  0.0837
 5921SOL    HW129222   1.655   3.129   1.274 -1.6263 -2.7911 -0.3727
 5921SOL    HW229223   1.697   3.173   1.405  0.3826 -0.9133 -0.7526
 5922SOL     OW29224   2.569   0.592   8.096 -0.0752  0.2795  0.6980
 5922SOL    HW129225   2.589   0.542   8.176  1.5674  0.0187  0.1110
 5922SOL    HW229226   2.497   0.537   8.064  0.7615 -1.1014  1.1886
 5923SOL     OW29227   1.101   3.558  15.138 -0.3890 -0.1547  0.6703
 5923SOL    HW129228   1.184   3.575  15.183  1.3460 -2.9529 -1.4692
 5923SOL    HW229229   1.066   3.489  15.193  1.9800 -1.4173  0.5820
 5924SOL     OW29230   2.625   3.822   8.727 -0.3189 -0.4550  0.6462
 5924SOL    HW129231   2.624   3.748   8.788 -0.8647 -0.4892  0.5985
 5924SOL    HW229232   2.589   3.788   8.645 -0.1184  0.3624  0.2145
 5925SOL     OW29233   2.727   3.398   4.765 -0.2057  0.0214 -0.3207
 5925SOL    HW129234   2.782   3.357   4.832  0.8326 -0.8210 -1.6958
 5925SOL    HW229235   2.656   3.334   4.753 -0.1139  0.0241 -0.8614
 5926SOL     OW29236   3.429   0.009   4.585 -0.0888 -0.0899  0.3153
 5926SOL    HW129237   3.452   0.100   4.564 -0.8724  0.0589  0.1018
 5926SOL    HW229238   3.342   0.012   4.624 -0.5241 -1.7756 -0.5418
 5927SOL     OW29239   2.889   3.064   2.058 -0.0100  0.4753 -0.0449
 5927SOL    HW129240   2.941   3.022   1.990 -0.0881 -1.1654  0.9140
 5927SOL    HW229241   2.920   3.152   2.035  1.5340  0.2625  1.2693
 5928SOL     OW29242   1.627   2.814   1.038  0.0114 -0.2000 -0.3905
 5928SOL    HW129243   1.601   2.725   1.064 -0.6867 -0.2255 -1.1565
 5928SOL    HW229244   1.576   2.858   1.107  0.8155 -0.6695  0.5058
 5929SOL     OW29245   2.298   0.695  15.902  0.1754  0.0655 -0.4215
 5929SOL    HW129246   2.203   0.690  15.912  0.1054  0.5439 -0.8732
 5929SOL    HW229247   2.322   0.636  15.831  1.4709  0.9615 -0.7352
 5930SOL     OW29248   2.591   1.035   3.575 -0.0644 -0.1062  0.0837
 5930SOL    HW129249   2.531   1.060   3.646 -1.1473  0.0635 -0.8981
 5930SOL    HW229250   2.605   0.946   3.607 -0.1280 -0.4334 -0.8213
 5931SOL     OW29251   4.338   4.229   5.816  0.3832  0.4718  0.0144
 5931SOL    HW129252   4.396   4.295   5.779 -0.8458  1.7003  0.3113
 5931SOL    HW229253   4.372   4.236   5.906 -2.8084 -1.1231  1.3374
 5932SOL     OW29254   2.478   3.924   6.500 -0.8161  0.3335  0.1020
 5932SOL    HW129255   2.515   3.982   6.434 -0.2205 -0.6486 -0.4243
 5932SOL    HW229256   2.411   3.982   6.537 -0.1142  1.7556 -0.8774
 5933SOL     OW29257   3.011   2.760  15.247 -0.0852 -0.2810  0.1700
 5933SOL    HW129258   2.916   2.760  15.236 -0.0496  0.9222 -0.1570
 5933SOL    HW229259   3.029   2.852  15.225  0.5237 -0.1916  1.0496
 5934SOL     OW29260   4.257   0.718   2.796 -0.1607 -0.8893 -0.6173
 5934SOL    HW129261   4.200   0.709   2.872  0.1313  0.6495 -0.2273
 5934SOL    HW229262   4.197   0.765   2.738  0.6629  1.8301  0.7346
 5935SOL     OW29263   1.100   3.695   3.503 -0.1851  0.1368  0.3521
 5935SOL    HW129264   1.098   3.741   3.419 -2.2374  2.1685  1.5290
 5935SOL    HW229265   1.193   3.691   3.525 -0.0532  1.2753  0.0182
 5936SOL     OW29266   3.543   0.617  10.074 -0.0544  0.3303 -0.1542
 5936SOL    HW129267   3.501   0.537  10.105 -1.4869  0.8506 -0.7451
 5936SOL    HW229268   3.481   0.687  10.094 -1.4991 -0.7828 -0.7144
 5937SOL     OW29269   3.829   3.696   5.679 -0.0766  0.3650  0.0367
 5937SOL    HW129270   3.901   3.748   5.644  0.7016 -2.4045 -2.5563
 5937SOL    HW229271   3.751   3.751   5.671  0.3535  0.8717 -0.7236
 5938SOL     OW29272   2.712   0.551   3.344  0.4001  0.1127  0.3620
 5938SOL    HW129273   2.804   0.530   3.357  0.3941  0.6523  1.2428
 5938SOL    HW229274   2.666   0.470   3.319 -0.5064  0.4851  0.8132
 5939SOL     OW29275   3.257   3.451   6.577 -0.2489 -0.4431 -0.0831
 5939SOL    HW129276   3.323   3.469   6.510  0.5345 -1.1016  0.5161
 5939SOL    HW229277   3.174   3.483   6.540 -0.0018 -1.0725 -1.1991
 5940SOL     OW29278   0.691   2.917   7.663 -0.3586 -0.0784  0.2605
 5940SOL    HW129279   0.691   2.991   7.723  0.8183  1.4870 -1.6765
 5940SOL    HW229280   0.611   2.870   7.687 -0.1723 -0.2796  0.4885
 5941SOL     OW29281   1.483   3.399   7.046 -0.5264 -0.1839 -0.2131
 5941SOL    HW129282   1.518   3.487   7.058 -2.6889  0.6991 -0.2628
 5941SOL    HW229283   1.431   3.391   7.125 -1.3666 -0.8190 -0.8297
 5942SOL     OW29284   1.416   1.209  17.205  0.5125 -0.5268  0.0689
 5942SOL    HW129285   1.487   1.248  17.154  1.8974 -2.5580  0.4387
 5942SOL    HW229286   1.355   1.189  17.133 -0.4123  1.2706  0.3510
 5943SOL     OW29287   2.943   3.681   1.869 -0.7752  0.1364  0.3761
 5943SOL    HW129288   2.915   3.614   1.807 -0.7009  0.3554  0.1107
 5943SOL    HW229289   3.030   3.649   1.895 -0.7377  0.2743  0.4246
 5944SOL     OW29290   2.059   1.810  13.381  0.2353 -0.2745 -0.1499
 5944SOL    HW129291   2.091   1.747  13.316 -1.0700  0.2897 -1.3318
 5944SOL    HW229292   2.012   1.870  13.322  0.6865 -0.0914 -0.3241
 5945SOL     OW29293   3.869   1.381   2.582 -0.2566 -0.0647  0.7765
 5945SOL    HW129294   3.867   1.369   2.676 -0.7571  2.2152  1.0656
 5945SOL    HW229295   3.941   1.444   2.582  1.1403 -1.6641 -2.6627
 5946SOL     OW29296   0.846   3.203   6.021  0.1295  0.1728 -0.0968
 5946SOL    HW129297   0.795   3.253   6.085 -2.4397 -2.8000  0.1467
 5946SOL    HW229298   0.931   3.203   6.066 -1.3541  3.0527  2.6996
 5947SOL     OW29299   2.378   1.277  13.876  0.7184  0.2618 -0.0099
 5947SOL    HW129300   2.303   1.263  13.818  0.2241  1.3449  0.3745
 5947SOL    HW229301   2.440   1.300  13.807 -0.3398 -0.2068 -1.1250
 5948SOL     OW29302   1.573   3.053   8.373  0.7476  0.1292 -0.5253
 5948SOL    HW129303   1.539   3.116   8.437  2.4121 -0.6993  1.1951
 5948SOL    HW229304   1.532   2.974   8.406  2.5644 -0.6575 -0.1572
 5949SOL     OW29305   4.603   3.857   0.820 -0.0530 -0.0054 -0.7564
 5949SOL    HW129306   4.614   3.915   0.745  0.1694  1.2129  0.2252
 5949SOL    HW229307   4.562   3.779   0.781 -0.5291 -0.9111  1.5234
 5950SOL     OW29308   1.037   3.080  14.482 -1.0076 -0.1907  0.1153
 5950SOL    HW129309   1.102   3.063  14.414 -3.0457  0.5956 -2.0465
 5950SOL    HW229310   0.983   3.001  14.478  0.1243 -0.8597 -1.9426
 5951SOL     OW29311   4.454   4.345   9.040  0.1160 -0.1537 -0.5398
 5951SOL    HW129312   4.504   4.408   8.988  0.9133 -0.0748  0.3203
 5951SOL    HW229313   4.500   4.262   9.028  0.4451 -0.1510  0.6828
 5952SOL     OW29314   3.837   3.879   8.367 -0.1013  0.6032  0.2101
 5952SOL    HW129315   3.837   3.798   8.315  1.9736  0.8534 -0.1890
 5952SOL    HW229316   3.842   3.831   8.449 -1.9940 -0.5741 -0.3646
 5953SOL     OW29317   0.173   3.340   8.230  0.5305 -0.2038  0.0216
 5953SOL    HW129318   0.201   3.352   8.321  0.8619 -1.7867  0.1354
 5953SOL    HW229319   0.234   3.401   8.189  1.2986 -0.8551  0.1958
 5954SOL     OW29320   2.372   4.657   9.098  0.1370  0.0995  0.3868
 5954SOL    HW129321   2.324   4.618   9.171  2.0206  0.3547  1.7848
 5954SOL    HW229322   2.440   4.704   9.148 -2.2538  0.8840  2.8846
 5955SOL     OW29323   1.162   2.516   1.585  0.0897  0.2286  0.9842
 5955SOL    HW129324   1.128   2.442   1.534  0.7929  0.7371 -0.2075
 5955SOL    HW229325   1.253   2.487   1.588 -0.5074 -1.8031 -0.4101
 5956SOL     OW29326   1.033   1.841   0.026 -0.2138 -0.4628  0.0620
 5956SOL    HW129327   0.998   1.754   0.008  2.2169 -1.7505  1.6581
 5956SOL    HW229328   1.069   1.865  17.631 -0.2014 -0.4559  0.0692
 5957SOL     OW29329   1.926   0.173   7.127 -0.1993 -0.4979 -0.7983
 5957SOL    HW129330   2.000   0.223   7.092 -0.5019  0.7175  0.2909
 5957SOL    HW229331   1.870   0.244   7.161  0.3252 -1.4827  2.0998
 5958SOL     OW29332   0.760   1.045   3.587 -0.0231  0.0238  0.3663
 5958SOL    HW129333   0.686   0.986   3.603  2.2829 -1.8810  3.8193
 5958SOL    HW229334   0.756   1.104   3.662 -0.4613  0.2550  0.1610
 5959SOL     OW29335   2.696   0.495   6.416  0.7867  0.3207 -0.8087
 5959SOL    HW129336   2.785   0.521   6.437  1.2229 -0.2405 -1.9289
 5959SOL    HW229337   2.703   0.464   6.325 -3.7314 -0.4399 -0.9155
 5960SOL     OW29338   0.380   2.232   6.478 -0.2194  0.1969  0.2278
 5960SOL    HW129339   0.395   2.227   6.384 -0.2524 -0.0438  0.2373
 5960SOL    HW229340   0.423   2.152   6.507 -0.1233 -0.5625 -2.0189
 5961SOL     OW29341   3.108   4.575  12.632 -0.3604 -0.6069 -0.3371
 5961SOL    HW129342   3.138   4.500  12.682  1.0613  0.4106  0.3486
 5961SOL    HW229343   3.185   4.631  12.631 -2.4212  2.2318 -1.8987
 5962SOL     OW29344   1.922   1.968   2.901  0.1595 -0.8726 -0.5321
 5962SOL    HW129345   1.982   2.041   2.908 -0.2380 -0.5857 -0.0872
 5962SOL    HW229346   1.872   1.987   2.822  1.1044  0.6352 -0.7554
 5963SOL     OW29347   4.300   3.396   9.284 -1.1172 -0.0725 -0.0851
 5963SOL    HW129348   4.308   3.328   9.217  3.6695 -0.5364  0.9662
 5963SOL    HW229349   4.317   3.339   9.359 -1.8385 -2.9482 -2.1301
 5964SOL     OW29350   4.363   3.032   5.061 -0.1089  0.3559 -0.2818
 5964SOL    HW129351   4.426   3.103   5.072 -0.7590  1.1340 -1.6857
 5964SOL    HW229352   4.395   2.971   4.995 -2.1039 -2.3229  1.2063
 5965SOL     OW29353   0.193   0.548   5.142  0.3324 -0.1132 -0.4840
 5965SOL    HW129354   0.267   0.601   5.175 -1.0826  2.4993 -1.5062
 5965SOL    HW229355   0.211   0.461   5.176 -1.9322  0.5927  2.5232
 5966SOL     OW29356   1.927   0.291   9.634  0.3228  0.0243  0.2675
 5966SOL    HW129357   1.839   0.323   9.651  0.4241  0.0836  0.6754
 5966SOL    HW229358   1.980   0.362   9.597  0.1945 -0.3251 -0.5783
 5967SOL     OW29359   0.220   0.111   8.887 -0.2346  0.2167 -0.2177
 5967SOL    HW129360   0.182   0.177   8.945  0.3543 -1.3282  1.9393
 5967SOL    HW229361   0.242   0.167   8.814 -0.9009  1.2275  0.3570
 5968SOL     OW29362   2.071   2.459  16.431  0.3010  0.1540  0.2859
 5968SOL    HW129363   2.045   2.507  16.352 -0.1197 -1.7237 -0.6988
 5968SOL    HW229364   2.013   2.498  16.497  0.4641  1.2870 -0.2273
 5969SOL     OW29365   1.669   1.525  11.305  0.2559  0.8410 -0.4501
 5969SOL    HW129366   1.723   1.603  11.309 -0.4639  1.2368  1.7071
 5969SOL    HW229367   1.738   1.467  11.272 -0.0556  0.7480 -0.9511
 5970SOL     OW29368   0.849   1.202   5.183 -0.3686 -0.0715  0.2106
 5970SOL    HW129369   0.910   1.152   5.236 -0.6558 -0.9518 -0.2866
 5970SOL    HW229370   0.903   1.242   5.115 -4.3428  2.2789 -1.6041
 5971SOL     OW29371   0.678   0.127   7.545  0.1806  0.2280  0.6536
 5971SOL    HW129372   0.661   0.130   7.639  0.7117 -2.0100  0.8378
 5971SOL    HW229373   0.694   0.033   7.538  1.1505  0.3185  1.7430
 5972SOL     OW29374   3.203   1.321  15.345  0.9344  0.2295 -0.0242
 5972SOL    HW129375   3.248   1.403  15.325 -1.0230  2.1246  3.3703
 5972SOL    HW229376   3.279   1.267  15.366 -0.1233 -2.0398 -2.0060
 5973SOL     OW29377   3.464   3.619   8.427  0.3511  0.2989  0.1447
 5973SOL    HW129378   3.400   3.550   8.446  0.4223 -0.0477 -0.8927
 5973SOL    HW229379   3.522   3.614   8.503  0.1274 -3.3508  0.1034
 5974SOL     OW29380   0.957   2.364  16.813 -0.5005 -0.1199 -0.5755
 5974SOL    HW129381   0.960   2.422  16.737 -0.5179 -0.6444 -0.9766
 5974SOL    HW229382   0.932   2.426  16.882 -1.0720 -1.6110  0.5728
 5975SOL     OW29383   2.621   1.294  17.284 -0.0891  0.2340 -0.3438
 5975SOL    HW129384   2.648   1.202  17.284 -0.6924  0.0516  0.3983
 5975SOL    HW229385   2.577   1.308  17.368  0.5496 -1.6956  0.3203
 5976SOL     OW29386   0.147   2.570   2.385  0.1795  0.2004  0.0702
 5976SOL    HW129387   0.184   2.649   2.346 -0.4271  0.1950 -0.5050
 5976SOL    HW229388   0.101   2.610   2.459  1.1407 -2.3148  2.0392
 5977SOL     OW29389   2.308   1.295  14.739  0.7590  0.3254 -0.4345
 5977SOL    HW129390   2.250   1.360  14.778  0.7118  0.3305 -0.5131
 5977SOL    HW229391   2.393   1.308  14.783  0.4529  1.7518 -0.2808
 5978SOL     OW29392   1.233   1.594  12.366 -0.1831 -0.2025 -0.0840
 5978SOL    HW129393   1.288   1.524  12.400  0.7333  1.2459  1.4280
 5978SOL    HW229394   1.166   1.613  12.432 -0.5908  1.3790 -0.9384
 5979SOL     OW29395   4.500   0.706   3.851  0.0684  0.2668  0.5001
 5979SOL    HW129396   4.514   0.645   3.778  0.7704 -0.2815  1.0944
 5979SOL    HW229397   4.579   0.692   3.904 -1.3626 -0.0358  2.5604
 5980SOL     OW29398   1.462   1.690   1.377  0.0265 -0.1174  0.0971
 5980SOL    HW129399   1.419   1.683   1.462 -0.8834  0.3375 -0.3257
 5980SOL    HW229400   1.392   1.741   1.335  0.2206  1.4631  1.7315
 5981SOL     OW29401   1.820   3.168   6.405  0.2596 -1.0168 -0.2405
 5981SOL    HW129402   1.838   3.248   6.355  0.0149  0.2113  1.6467
 5981SOL    HW229403   1.823   3.095   6.344  0.8750 -0.0628 -1.3543
 5982SOL     OW29404   2.429   0.456   5.589 -0.3330  0.1867 -0.1344
 5982SOL    HW129405   2.334   0.470   5.587 -0.0752  2.0999  0.6703
 5982SOL    HW229406   2.437   0.369   5.628  3.0384 -0.0895 -1.4655
 5983SOL     OW29407   0.533   0.529  13.302  0.7260 -0.1528  0.3737
 5983SOL    HW129408   0.526   0.442  13.341 -1.3225  0.0756  0.5160
 5983SOL    HW229409   0.446   0.561  13.325 -0.0120 -1.1592 -1.0120
 5984SOL     OW29410   0.260   4.343   9.948  0.3991  0.3661  0.3117
 5984SOL    HW129411   0.327   4.405   9.979  1.9963 -0.5024 -1.4516
 5984SOL    HW229412   0.301   4.262   9.979 -1.6055 -0.2838  1.2872
 5985SOL     OW29413   3.881   0.293   8.178  0.4183 -0.1503 -0.2996
 5985SOL    HW129414   3.829   0.331   8.250 -0.4247 -2.9907  0.6067
 5985SOL    HW229415   3.901   0.372   8.128  2.3466  2.5921  4.7897
 5986SOL     OW29416   0.684   0.216  12.870 -0.8644 -0.7711  0.5821
 5986SOL    HW129417   0.667   0.221  12.776 -0.6804 -0.4878  0.5636
 5986SOL    HW229418   0.740   0.293  12.879 -0.2044 -0.9381 -1.9952
 5987SOL     OW29419   0.559   0.219   7.163  0.1510 -0.4767  0.2189
 5987SOL    HW129420   0.612   0.141   7.179 -1.1896 -1.3235  0.5832
 5987SOL    HW229421   0.618   0.285   7.128 -0.7490  1.9843  3.3159
 5988SOL     OW29422   3.030   0.212   8.572  0.3558 -1.2120  0.2529
 5988SOL    HW129423   2.981   0.244   8.647 -3.6117 -0.4726 -2.6257
 5988SOL    HW229424   3.003   0.120   8.563  0.6649 -1.1164 -1.6776
 5989SOL     OW29425   3.220   1.432   0.339  0.7377 -0.0897 -0.3515
 5989SOL    HW129426   3.255   1.345   0.358  0.3396  0.6726  3.9108
 5989SOL    HW229427   3.144   1.417   0.283  2.2981 -4.1756 -1.3785
 5990SOL     OW29428   4.657   0.834   3.156 -0.0931  0.0622 -0.0584
 5990SOL    HW129429   4.607   0.832   3.075  0.2779  0.3800 -0.2930
 5990SOL    HW229430   4.640   0.926   3.176  0.2963 -0.0762  0.9523
 5991SOL     OW29431   0.411   3.790  13.996  0.7560  0.4311 -0.3648
 5991SOL    HW129432   0.422   3.849  14.070 -2.6303 -1.8867  2.0390
 5991SOL    HW229433   0.383   3.842  13.920 -0.8172  1.1564  0.7117
 5992SOL     OW29434   0.054   3.359   1.273 -0.6269 -0.3676  0.2139
 5992SOL    HW129435   4.712   3.411   1.225  2.3736  0.6044 -2.7572
 5992SOL    HW229436   0.079   3.298   1.204 -0.0961  0.3938 -0.2768
 5993SOL     OW29437   0.324   1.773   2.697 -0.3638 -0.2780 -0.2558
 5993SOL    HW129438   0.232   1.780   2.671 -0.1803 -1.9925 -1.3485
 5993SOL    HW229439   0.332   1.779   2.793 -0.3666 -0.7713 -0.2218
 5994SOL     OW29440   2.882   2.709   4.394 -0.2050  0.0979 -0.4327
 5994SOL    HW129441   2.851   2.799   4.400 -1.5138 -0.1768 -2.9181
 5994SOL    HW229442   2.917   2.705   4.483  1.1159  0.2616 -0.9414
 5995SOL     OW29443   1.866   3.407   6.205 -0.3889 -0.1403  0.1771
 5995SOL    HW129444   1.815   3.487   6.195  0.3271 -0.0963 -2.9943
 5995SOL    HW229445   1.872   3.372   6.117  1.0424  1.1858 -0.2490
 5996SOL     OW29446   3.288   3.242   6.234 -0.6751 -0.0267 -0.1516
 5996SOL    HW129447   3.368   3.256   6.285  0.1083  0.8200 -1.5722
 5996SOL    HW229448   3.247   3.179   6.292 -0.7082  2.8533  2.9936
 5997SOL     OW29449   2.377   0.894  11.305 -0.0769 -0.4063  0.1398
 5997SOL    HW129450   2.360   0.807  11.268 -0.0178 -0.5848  0.5296
 5997SOL    HW229451   2.436   0.880  11.379 -0.3212 -4.3272 -0.4020
 5998SOL     OW29452   1.503   2.445   7.927  0.1687  0.0078 -0.1639
 5998SOL    HW129453   1.464   2.390   7.995 -0.0679  1.2767  0.7317
 5998SOL    HW229454   1.457   2.529   7.936  0.6305  0.3463 -0.8951
 5999SOL     OW29455   3.701   3.821  10.784 -0.3152 -0.0217 -0.3659
 5999SOL    HW129456   3.703   3.887  10.853 -0.5082  0.6909 -1.0326
 5999SOL    HW229457   3.694   3.883  10.711  0.4172 -0.1689 -0.5594
 6000SOL     OW29458   3.371   3.862   4.231  0.4817  0.4672  0.0117
 6000SOL    HW129459   3.391   3.817   4.313 -0.6915 -1.3285 -0.6906
 6000SOL    HW229460   3.290   3.905   4.260 -0.0465 -1.0545  0.8134
 6001SOL     OW29461   0.589   2.737  16.120 -0.4288  0.2244  0.2878
 6001SOL    HW129462   0.646   2.673  16.078 -2.8601 -0.9519 -1.1913
 6001SOL    HW229463   0.511   2.682  16.127  0.1254 -0.8090 -1.7351
 6002SOL     OW29464   2.932   2.555   5.294  0.0797 -0.2137 -0.0826
 6002SOL    HW129465   2.939   2.470   5.338  1.8044  0.5640  1.1556
 6002SOL    HW229466   2.982   2.609   5.355  0.6831  0.1026 -0.8608
 6003SOL     OW29467   1.768   3.182   8.795 -0.4697 -0.3524 -0.9606
 6003SOL    HW129468   1.777   3.275   8.777  0.8061 -0.3539 -0.3199
 6003SOL    HW229469   1.857   3.155   8.819 -0.4770  0.1384 -0.3739
 6004SOL     OW29470   2.775   2.048  13.263  0.5130 -0.1015 -0.0757
 6004SOL    HW129471   2.697   1.993  13.272  0.8437 -0.4508  0.6399
 6004SOL    HW229472   2.738   2.127  13.303 -2.4239 -2.5258  2.0019
 6005SOL     OW29473   1.123   0.997  13.753  0.5129 -0.2580 -0.3773
 6005SOL    HW129474   1.085   0.997  13.841  2.4511  0.0234  0.4729
 6005SOL    HW229475   1.115   0.904  13.736  1.9105 -0.8052  1.9066
 6006SOL     OW29476   4.465   1.773   5.902 -0.5550 -0.0071 -0.0188
 6006SOL    HW129477   4.503   1.835   5.963 -0.4192  0.5994 -0.7150
 6006SOL    HW229478   4.392   1.732   5.949 -0.5525 -0.9556 -0.8275
 6007SOL     OW29479   3.502   4.133   6.525  0.0101  0.0200 -0.3637
 6007SOL    HW129480   3.467   4.186   6.597  2.4654  0.4449  0.5242
 6007SOL    HW229481   3.592   4.130   6.559 -0.4688  0.5069  0.9414
 6008SOL     OW29482   4.446   2.888   3.089 -0.2946  0.1874 -0.6409
 6008SOL    HW129483   4.394   2.958   3.128  2.2163  1.9518 -0.4699
 6008SOL    HW229484   4.536   2.922   3.090 -0.7195  1.2864 -0.0644
 6009SOL     OW29485   0.687   4.260   1.440  0.1710  0.4225  0.1907
 6009SOL    HW129486   0.628   4.198   1.398 -0.3501  0.0201  1.5181
 6009SOL    HW229487   0.625   4.326   1.470 -0.9265 -0.8501  0.6788
 6010SOL     OW29488   0.781   4.383  12.292 -0.5039  0.2750 -0.4080
 6010SOL    HW129489   0.782   4.321  12.220  0.0091 -1.4968  1.1227
 6010SOL    HW229490   0.770   4.468  12.251  5.3682  0.4588 -1.6023
 6011SOL     OW29491   4.580   2.777  17.138  0.0379 -0.2888  0.0105
 6011SOL    HW129492   4.626   2.747  17.060  0.6806  0.8372 -0.0422
 6011SOL    HW229493   4.516   2.708  17.156 -1.1674  0.7646 -0.3175
 6012SOL     OW29494   1.591   4.253   7.425  0.7747 -0.1342  0.2345
 6012SOL    HW129495   1.563   4.306   7.351 -0.9540  0.8370  1.5635
 6012SOL    HW229496   1.605   4.173   7.375  0.6930 -1.2084  1.9089
 6013SOL     OW29497   3.363   2.687   4.795  0.1845 -0.0803  0.2130
 6013SOL    HW129498   3.450   2.713   4.827  1.1210 -2.0119 -0.7217
 6013SOL    HW229499   3.334   2.630   4.867  1.9337 -1.3478 -0.0948
 6014SOL     OW29500   1.177   3.665  16.884 -0.3486  0.0757  0.2105
 6014SOL    HW129501   1.115   3.609  16.838  1.0442 -0.6438 -0.7985
 6014SOL    HW229502   1.258   3.641  16.838 -1.6469 -3.4787 -0.1739
 6015SOL     OW29503   4.614   1.951  10.374  0.1262 -0.0028  0.1742
 6015SOL    HW129504   4.701   1.989  10.367  0.2295  0.1572  2.1772
 6015SOL    HW229505   4.555   2.010  10.328 -0.5175 -0.5257  0.3165
 6016SOL     OW29506   2.508   0.039   4.557 -0.2218  0.3507 -0.3012
 6016SOL    HW129507   2.537   4.681   4.513 -0.5549  0.7019 -1.1586
 6016SOL    HW229508   2.592   0.059   4.599 -0.8428  2.1672  0.0990
 6017SOL     OW29509   3.737   4.129  15.837 -0.0586  0.4783  0.1224
 6017SOL    HW129510   3.769   4.144  15.926  0.3213  1.1810 -0.1300
 6017SOL    HW229511   3.806   4.075  15.798 -1.7125 -0.3922 -1.6064
 6018SOL     OW29512   3.360   1.738   5.836  0.1938 -0.3503  0.1695
 6018SOL    HW129513   3.281   1.782   5.804 -0.2547 -0.3360  1.3100
 6018SOL    HW229514   3.343   1.732   5.930  1.1628  2.0567  0.5130
 6019SOL     OW29515   3.277   1.669  15.146 -0.1756 -0.1330 -0.5016
 6019SOL    HW129516   3.344   1.737  15.154 -1.5062  1.1910 -0.5384
 6019SOL    HW229517   3.303   1.596  15.202 -2.0385 -0.4141 -0.0042
 6020SOL     OW29518   2.859   0.657   1.215  0.4824  0.1188 -0.6587
 6020SOL    HW129519   2.835   0.585   1.156  0.8756 -0.9594  0.4894
 6020SOL    HW229520   2.935   0.693   1.170 -0.6581  4.2213  0.7344
 6021SOL     OW29521   3.132   0.751   3.618 -0.3495 -0.1850  0.0332
 6021SOL    HW129522   3.141   0.759   3.713 -0.0910 -2.3928  0.1925
 6021SOL    HW229523   3.169   0.663   3.609 -1.0060 -0.0951 -3.5079
 6022SOL     OW29524   4.484   3.062   0.676 -0.5513 -0.4305  0.0118
 6022SOL    HW129525   4.540   3.050   0.753 -2.0412 -2.6680  0.7806
 6022SOL    HW229526   4.430   2.983   0.684 -1.6442  0.3304  0.2196
 6023SOL     OW29527   2.167   0.571   3.447 -0.5617  0.3262  0.5380
 6023SOL    HW129528   2.114   0.645   3.418 -0.4652 -0.0493 -0.6090
 6023SOL    HW229529   2.181   0.581   3.541 -0.6425 -0.5428  0.6453
 6024SOL     OW29530   2.672   0.179   4.994 -0.0431 -0.0083  0.9183
 6024SOL    HW129531   2.584   0.208   5.017 -0.3525  0.3094 -0.6354
 6024SOL    HW229532   2.710   0.168   5.081 -0.7683 -0.5270  1.1688
 6025SOL     OW29533   0.555   3.811  11.796 -0.4521 -0.1813  0.3348
 6025SOL    HW129534   0.598   3.893  11.820 -0.7109 -0.0118  0.2236
 6025SOL    HW229535   0.593   3.794  11.710  2.7416 -0.0875  1.7185
 6026SOL     OW29536   0.164   2.325   8.618 -0.5277 -0.1183  0.1948
 6026SOL    HW129537   0.193   2.278   8.697  0.3620  2.2341  1.2662
 6026SOL    HW229538   0.139   2.408   8.659 -0.5820  0.2452 -0.5820
 6027SOL     OW29539   4.133   2.112   4.782  0.3775  0.1558  0.0692
 6027SOL    HW129540   4.214   2.150   4.748 -1.0061  1.4697 -1.7873
 6027SOL    HW229541   4.137   2.137   4.874 -1.2810 -2.2163  0.7809
 6028SOL     OW29542   0.971   1.693   0.565  0.6952 -0.4805 -0.5598
 6028SOL    HW129543   0.974   1.610   0.518  1.5242  1.7327 -4.3775
 6028SOL    HW229544   0.974   1.748   0.487  0.9054  0.6579  0.2633
 6029SOL     OW29545   3.246   1.882   5.001 -0.2059 -0.2112 -0.0321
 6029SOL    HW129546   3.203   1.940   4.939 -0.6327 -1.2324 -0.6803
 6029SOL    HW229547   3.304   1.826   4.950  1.9050 -1.8717  4.1016
 6030SOL     OW29548   1.901   4.251   6.146  0.5390  0.2827 -0.2916
 6030SOL    HW129549   1.837   4.275   6.079  0.3674 -0.9319 -0.5549
 6030SOL    HW229550   1.980   4.267   6.095  0.0829 -1.1342 -1.4190
 6031SOL     OW29551   4.246   2.077   8.286 -0.6995  0.0293 -0.4134
 6031SOL    HW129552   4.193   2.018   8.340 -0.8499  0.4731 -0.0752
 6031SOL    HW229553   4.175   2.115   8.234 -0.2545  0.0555 -1.0060
 6032SOL     OW29554   2.676   3.226  14.155 -0.4189  0.3772 -0.4360
 6032SOL    HW129555   2.649   3.182  14.236 -0.7707 -0.8940 -1.2475
 6032SOL    HW229556   2.692   3.312  14.194  1.2116 -1.2926  2.6014
 6033SOL     OW29557   4.610   3.481   3.138  0.0867 -0.0681  0.5958
 6033SOL    HW129558   4.650   3.567   3.153 -0.8841  0.4074  0.4802
 6033SOL    HW229559   4.661   3.452   3.063  1.4240 -0.2426  1.5834
 6034SOL     OW29560   1.385   1.013   3.691 -0.2176 -0.4149 -0.2536
 6034SOL    HW129561   1.438   1.027   3.612 -0.7203  0.0604 -0.5023
 6034SOL    HW229562   1.443   0.953   3.739 -0.3989  0.9297  1.6426
 6035SOL     OW29563   2.917   1.648   8.768  0.2446  0.6732  0.3271
 6035SOL    HW129564   2.873   1.644   8.683  0.5296  1.2890  0.1567
 6035SOL    HW229565   2.864   1.592   8.825 -0.2486  1.4033  0.5759
 6036SOL     OW29566   4.211   3.931  16.349 -0.0743 -0.1212 -0.1132
 6036SOL    HW129567   4.196   4.009  16.403 -0.6500 -1.2025  1.2927
 6036SOL    HW229568   4.305   3.919  16.362  0.1924  1.6355 -0.2994
 6037SOL     OW29569   2.138   3.207   3.672 -0.0528 -0.0114 -0.1649
 6037SOL    HW129570   2.053   3.249   3.685  0.3508  0.6956  0.2471
 6037SOL    HW229571   2.193   3.285   3.678  1.5515 -1.3052  1.8967
 6038SOL     OW29572   1.579   3.035   4.806  0.3214 -0.6339  0.0490
 6038SOL    HW129573   1.595   3.045   4.712 -1.5393 -0.7388 -0.2740
 6038SOL    HW229574   1.662   3.001   4.838  1.4818  1.0274 -1.1834
 6039SOL     OW29575   0.891   2.720   2.260  0.4340 -0.1653  0.2403
 6039SOL    HW129576   0.831   2.782   2.218 -1.4121 -0.5101  2.4190
 6039SOL    HW229577   0.852   2.638   2.229 -0.4643 -0.6185  2.6063
 6040SOL     OW29578   0.545   0.568  12.320 -0.2924  0.0021  0.4481
 6040SOL    HW129579   0.549   0.591  12.227  1.1006  0.1168  0.5349
 6040SOL    HW229580   0.491   0.639  12.353 -0.7632 -0.0844 -0.1343
 6041SOL     OW29581   1.391   4.552   1.913 -0.1429 -0.3256  0.0908
 6041SOL    HW129582   1.416   4.460   1.904  0.1370 -0.5798  3.2556
 6041SOL    HW229583   1.296   4.540   1.920 -0.2415  0.9117  0.8717
 6042SOL     OW29584   4.456   3.825   7.399 -0.1831 -0.4007  0.4156
 6042SOL    HW129585   4.540   3.856   7.364 -0.2812 -0.3112  0.2564
 6042SOL    HW229586   4.442   3.755   7.335 -2.4993  1.2782 -0.9126
 6043SOL     OW29587   2.239   0.597  14.220  0.1275 -0.4029 -1.1562
 6043SOL    HW129588   2.166   0.552  14.264 -0.0094 -1.7689 -2.7456
 6043SOL    HW229589   2.297   0.522  14.204 -0.2768 -0.9252 -0.1986
 6044SOL     OW29590   4.254   1.724  12.339 -0.3033 -0.3807 -0.4689
 6044SOL    HW129591   4.216   1.736  12.426  0.5598 -0.7853 -0.0344
 6044SOL    HW229592   4.260   1.819  12.325  0.8103 -0.5440 -1.1166
 6045SOL     OW29593   1.061   3.333   8.725 -0.1841  0.5571  0.1798
 6045SOL    HW129594   1.137   3.302   8.774  1.0914 -0.7620 -2.6170
 6045SOL    HW229595   1.077   3.426   8.706 -2.3649  1.6957  3.8462
 6046SOL     OW29596   1.906   4.441   3.822 -0.2910 -0.6287  0.1016
 6046SOL    HW129597   1.855   4.509   3.868 -1.0315 -0.5164 -0.8804
 6046SOL    HW229598   1.948   4.397   3.896  2.1093 -1.4999 -1.7971
 6047SOL     OW29599   0.630   1.202   4.778  0.2762  0.4908  0.2047
 6047SOL    HW129600   0.654   1.277   4.833 -0.4933  1.0712 -0.2478
 6047SOL    HW229601   0.557   1.159   4.823  0.1175 -1.6244 -2.0554
 6048SOL     OW29602   2.015   2.239  15.326 -0.7630 -0.0515 -0.5002
 6048SOL    HW129603   2.001   2.160  15.273  1.7582 -0.3324 -0.7963
 6048SOL    HW229604   2.003   2.200  15.413 -0.8759  1.3608  0.1168
 6049SOL     OW29605   4.056   2.910   2.628 -0.2879  0.1773 -0.3429
 6049SOL    HW129606   4.144   2.947   2.623 -0.1456  0.0867  1.3894
 6049SOL    HW229607   4.017   2.996   2.642  1.1464  0.8462 -0.4859
 6050SOL     OW29608   4.309   3.202  13.702 -0.6805 -0.2944 -0.5167
 6050SOL    HW129609   4.284   3.273  13.762 -0.1723  1.2676 -2.1363
 6050SOL    HW229610   4.225   3.185  13.660 -1.3028  0.7993  0.2606
 6051SOL     OW29611   0.436   1.070   9.329 -0.1614 -1.2268 -0.3954
 6051SOL    HW129612   0.478   0.985   9.339 -0.3688 -1.8927 -5.1865
 6051SOL    HW229613   0.512   1.125   9.350 -1.3001  0.2699 -0.1311
 6052SOL     OW29614   2.073   3.819   5.602  0.5051  0.1114 -0.2250
 6052SOL    HW129615   2.050   3.730   5.574  0.1316 -0.6585  2.5610
 6052SOL    HW229616   2.165   3.822   5.574  0.3335 -0.6960 -0.9010
 6053SOL     OW29617   1.214   3.325   4.344  0.1167 -0.0580  0.1464
 6053SOL    HW129618   1.288   3.326   4.405  0.0482 -0.2143  0.2324
 6053SOL    HW229619   1.218   3.419   4.324 -1.5644  0.1901  0.9261
 6054SOL     OW29620   4.103   2.416   4.812  0.2672  0.1616 -0.0052
 6054SOL    HW129621   4.096   2.454   4.899  0.5524  0.1949  0.0029
 6054SOL    HW229622   4.197   2.416   4.796  0.1917  1.9162 -0.5058
 6055SOL     OW29623   1.588   3.579  17.639 -0.0846  0.5788  0.5305
 6055SOL    HW129624   1.557   3.517  17.574 -1.5429  0.6061  1.1993
 6055SOL    HW229625   1.667   3.534  17.669 -0.8077 -1.7420 -1.0172
 6056SOL     OW29626   4.131   3.822   4.959  0.7290 -0.3049 -0.0840
 6056SOL    HW129627   4.139   3.729   4.939  0.2390  0.1526 -2.3961
 6056SOL    HW229628   4.057   3.819   5.019  1.7489  2.1073  1.3088
 6057SOL     OW29629   1.455   3.730   5.655 -0.6988 -0.2815  0.4158
 6057SOL    HW129630   1.442   3.775   5.738  0.4510  2.4162 -0.8709
 6057SOL    HW229631   1.513   3.790   5.609 -1.1963 -0.8938 -1.0251
 6058SOL     OW29632   2.801   1.081   4.594  0.0109  0.3582 -0.2570
 6058SOL    HW129633   2.891   1.058   4.614 -0.1949 -0.4956 -0.3235
 6058SOL    HW229634   2.805   1.176   4.607 -2.5645  0.2761  1.0844
 6059SOL     OW29635   3.429   0.467   2.058  0.2560 -0.2622  0.2566
 6059SOL    HW129636   3.407   0.470   2.151  0.5806  0.5151  0.3079
 6059SOL    HW229637   3.397   0.380   2.036 -1.1646 -0.2233  2.2160
 6060SOL     OW29638   2.611   4.636   3.229 -0.4002  0.3212  0.0010
 6060SOL    HW129639   2.613   4.687   3.148 -2.5653  0.4872  0.0532
 6060SOL    HW229640   2.675   4.573   3.196  1.6012  1.8761  0.8468
 6061SOL     OW29641   2.694   0.013   1.817 -0.7082 -0.3598  0.0656
 6061SOL    HW129642   2.629   0.080   1.798  0.7600  1.4205  1.2525
 6061SOL    HW229643   2.696   4.689   1.733 -2.2565  2.1028 -1.3060
 6062SOL     OW29644   1.651   4.429  13.713  0.0816  0.5652 -0.1797
 6062SOL    HW129645   1.721   4.366  13.730 -0.0662  0.6808  0.8576
 6062SOL    HW229646   1.631   4.467  13.798  0.5507  1.0688 -0.2984
 6063SOL     OW29647   0.451   1.172  15.135 -0.1731 -0.5977  0.1167
 6063SOL    HW129648   0.401   1.185  15.054 -1.1200 -1.1773  0.6110
 6063SOL    HW229649   0.537   1.161  15.093 -0.5663 -2.8518 -0.1210
 6064SOL     OW29650   1.646   3.431   6.805 -0.1973 -0.2328 -0.2780
 6064SOL    HW129651   1.634   3.378   6.884 -1.8519 -1.4957 -1.3835
 6064SOL    HW229652   1.637   3.364   6.737 -1.7332  2.2940 -2.5451
 6065SOL     OW29653   1.123   1.911   5.423 -0.3444 -0.3691 -0.3376
 6065SOL    HW129654   1.181   1.980   5.389 -0.1433 -0.1926  0.3510
 6065SOL    HW229655   1.134   1.926   5.517  0.6858 -0.3680 -0.4588
 6066SOL     OW29656   3.259   3.640   2.435 -0.2333  0.4938 -0.1398
 6066SOL    HW129657   3.214   3.617   2.516 -1.8656  0.8341 -0.9454
 6066SOL    HW229658   3.295   3.556   2.407 -1.9116 -0.3519  0.2338
 6067SOL     OW29659   0.518   2.807   1.913  0.2051  0.0331  0.4178
 6067SOL    HW129660   0.481   2.855   1.987 -0.3775 -1.0083  0.8060
 6067SOL    HW229661   0.533   2.879   1.852  2.7495 -1.0339 -0.1885
 6068SOL     OW29662   2.957   0.818   7.189 -0.5847  0.1959 -0.0843
 6068SOL    HW129663   2.914   0.740   7.153 -0.8416 -0.6198  2.0234
 6068SOL    HW229664   2.952   0.802   7.283 -0.0589 -2.4036 -0.4828
 6069SOL     OW29665   0.318   4.092   5.988 -0.4816 -0.1157  0.3154
 6069SOL    HW129666   0.347   4.092   6.079  1.5854 -0.2255 -0.3511
 6069SOL    HW229667   0.387   4.043   5.943  0.7233  3.1901 -1.4305
 6070SOL     OW29668   4.146   2.141   6.427  0.5363 -0.5599  0.4160
 6070SOL    HW129669   4.205   2.066   6.432  1.7324  0.6240  4.0971
 6070SOL    HW229670   4.075   2.111   6.483 -0.1356 -0.4043 -0.3561
 6071SOL     OW29671   4.673   1.796  10.940 -0.8187  0.1194 -0.1136
 6071SOL    HW129672   4.586   1.796  10.981 -1.0298 -0.2051 -0.5525
 6071SOL    HW229673   4.719   1.758  11.015 -3.8307 -1.6885  0.8313
 6072SOL     OW29674   2.975   3.653   7.112  0.0473 -0.3617 -0.4423
 6072SOL    HW129675   3.060   3.608   7.110  0.4860  0.5079 -1.6423
 6072SOL    HW229676   2.963   3.637   7.205 -0.2487 -1.5273 -0.6782
 6073SOL     OW29677   1.711   3.872   7.432  0.3139 -0.0333  0.2615
 6073SOL    HW129678   1.765   3.866   7.510  1.2838 -0.1562 -0.4114
 6073SOL    HW229679   1.645   3.803   7.440  0.2902  0.0142  0.4734
 6074SOL     OW29680   2.523   4.424   1.703  0.0947 -0.1163 -0.2869
 6074SOL    HW129681   2.432   4.441   1.726 -0.0257  0.3665 -1.1219
 6074SOL    HW229682   2.558   4.512   1.688 -0.2998 -0.0699 -0.9092
 6075SOL     OW29683   3.998   3.067   5.747  0.3329  0.2490 -0.4097
 6075SOL    HW129684   4.071   3.028   5.795  1.7111  0.4799 -2.3135
 6075SOL    HW229685   4.040   3.146   5.712 -2.3161  1.6605 -0.3391
 6076SOL     OW29686   4.076   0.575   6.124  0.0400 -0.6008 -0.3286
 6076SOL    HW129687   4.074   0.645   6.059 -3.4545 -2.9480 -2.7019
 6076SOL    HW229688   4.093   0.496   6.072  2.6533 -0.2178 -0.0292
 6077SOL     OW29689   4.391   4.074   4.423 -0.5259  0.7973 -0.2241
 6077SOL    HW129690   4.454   4.070   4.495 -2.0079  0.8768  1.0547
 6077SOL    HW229691   4.333   4.005   4.454  0.9455 -1.0514 -1.4943
 6078SOL     OW29692   0.299   0.276   3.677  0.2907 -0.0994 -0.7538
 6078SOL    HW129693   0.305   0.266   3.582  1.4112 -1.1988 -0.5800
 6078SOL    HW229694   0.359   0.348   3.700  3.4931 -2.5398 -1.4136
 6079SOL     OW29695   4.198   2.374  13.586 -0.2194  0.5463  0.5022
 6079SOL    HW129696   4.154   2.341  13.665 -0.4788  0.7115  0.4274
 6079SOL    HW229697   4.147   2.453  13.571 -0.5050  0.5730  1.5802
 6080SOL     OW29698   0.659   0.264   3.584  0.2724 -0.7114 -0.4594
 6080SOL    HW129699   0.720   0.256   3.658  0.2441  0.2472 -0.3292
 6080SOL    HW229700   0.597   0.326   3.623  0.9703 -0.9483  1.0274
 6081SOL     OW29701   3.066   4.013   7.774 -0.6103 -0.1957 -0.2235
 6081SOL    HW129702   3.060   3.938   7.833 -0.9011  0.3573  0.4503
 6081SOL    HW229703   3.009   4.079   7.814 -2.5544 -0.8222 -1.9159
 6082SOL     OW29704   1.597   1.881   4.141 -0.2408  0.5196 -0.2786
 6082SOL    HW129705   1.641   1.957   4.104  2.6844 -0.4083  1.2834
 6082SOL    HW229706   1.528   1.912   4.200  0.4218  0.8378  0.3326
 6083SOL     OW29707   2.401   2.573   2.237 -0.5069 -0.1543 -0.1548
 6083SOL    HW129708   2.312   2.599   2.213 -0.6462 -0.4587  0.0274
 6083SOL    HW229709   2.455   2.612   2.168 -2.7719  3.1204 -0.0766
 6084SOL     OW29710   3.902   4.317   5.407 -0.0913  0.2820  0.4526
 6084SOL    HW129711   3.936   4.347   5.323  0.8931 -3.4722 -0.4812
 6084SOL    HW229712   3.863   4.234   5.382 -0.4582  0.2039  1.2936
 6085SOL     OW29713   0.306   1.608   4.412  0.1263  0.0431 -0.1574
 6085SOL    HW129714   0.329   1.699   4.428  1.7386  0.0549 -2.4890
 6085SOL    HW229715   0.350   1.587   4.329  0.5900  0.2541  0.0359
 6086SOL     OW29716   1.892   1.317   3.059 -0.3518 -0.2638  0.2104
 6086SOL    HW129717   1.911   1.299   2.967 -0.3909 -1.4268  0.4246
 6086SOL    HW229718   1.970   1.275   3.096  1.0643  0.2843 -2.1150
 6087SOL     OW29719   3.411   0.628   7.723  0.3649 -0.6380  0.8916
 6087SOL    HW129720   3.353   0.556   7.698  0.3638 -0.7303  1.1500
 6087SOL    HW229721   3.380   0.657   7.809  1.0340  0.9871  0.5844
 6088SOL     OW29722   1.898   1.391  10.466 -0.7926 -0.0663  0.1882
 6088SOL    HW129723   1.987   1.412  10.495 -1.4471  0.4128  1.8623
 6088SOL    HW229724   1.855   1.475  10.484 -0.5530  0.2486 -0.7259
 6089SOL     OW29725   3.002   3.902   3.185 -0.8563  0.0065  0.1853
 6089SOL    HW129726   3.051   3.834   3.140 -1.1909 -1.8933  2.6973
 6089SOL    HW229727   3.056   3.973   3.149 -1.4845  0.7825  0.7568
 6090SOL     OW29728   0.298   3.070  12.744 -0.3263  0.1549  0.2288
 6090SOL    HW129729   0.370   3.084  12.805 -0.7162  0.4562  0.6141
 6090SOL    HW229730   0.262   3.155  12.721 -0.4710 -0.3568 -1.4791
 6091SOL     OW29731   3.578   3.819   1.161 -0.0255 -0.3491 -0.0782
 6091SOL    HW129732   3.658   3.789   1.205 -0.6272  0.1034  1.3133
 6091SOL    HW229733   3.597   3.822   1.068  2.1680 -1.2571  0.3330
 6092SOL     OW29734   1.711   1.424   8.905 -0.9572 -0.2957  0.1801
 6092SOL    HW129735   1.674   1.349   8.952  0.3939 -0.7508  0.5277
 6092SOL    HW229736   1.657   1.501   8.924  0.7009  0.7779  0.4800
 6093SOL     OW29737   0.886   3.917   3.781  0.1652  0.4835  0.1050
 6093SOL    HW129738   0.923   3.836   3.815 -1.7550  0.4418  2.0542
 6093SOL    HW229739   0.929   3.918   3.696  4.4237  1.6943  2.2645
 6094SOL     OW29740   0.780   1.910   4.655 -0.3676 -0.0646  0.4633
 6094SOL    HW129741   0.790   1.990   4.706 -0.2266 -1.3645  2.4874
 6094SOL    HW229742   0.865   1.905   4.610 -0.8447 -2.0361 -0.2479
 6095SOL     OW29743   1.296   2.494   8.698  0.1507  0.1078 -0.0744
 6095SOL    HW129744   1.229   2.459   8.757  1.7270  1.3446  2.4396
 6095SOL    HW229745   1.373   2.491   8.754 -2.0632 -0.5275  2.9459
 6096SOL     OW29746   0.825   0.049  15.458 -0.3522 -0.9029  0.8637
 6096SOL    HW129747   0.898   4.720  15.494  2.6297  1.1103 -2.4176
 6096SOL    HW229748   0.754   0.024  15.518 -1.8515  0.0100 -0.5108
 6097SOL     OW29749   2.059   0.619  10.064  0.4217  0.0741  0.7060
 6097SOL    HW129750   1.972   0.622  10.104  1.1202 -1.3204  2.3716
 6097SOL    HW229751   2.096   0.567  10.135  1.7258 -0.9447 -0.7181
 6098SOL     OW29752   1.317   1.205   3.911  0.0524  1.1587 -0.3864
 6098SOL    HW129753   1.369   1.179   3.835  0.1585  0.4104 -0.0533
 6098SOL    HW229754   1.239   1.151   3.898  1.0352 -0.7457  1.6309
 6099SOL     OW29755   0.811   1.059   0.031  0.0538 -0.7558 -0.0479
 6099SOL    HW129756   0.761   0.986  17.686  0.1884 -0.6533 -0.4524
 6099SOL    HW229757   0.843   1.020   0.112  3.1686 -0.9607 -1.3715
 6100SOL     OW29758   2.703   2.549   0.698  0.2265 -0.4581  0.3083
 6100SOL    HW129759   2.781   2.602   0.682 -0.3364 -0.2100 -1.6502
 6100SOL    HW229760   2.632   2.614   0.700  2.0785  1.5883 -0.8742
 6101SOL     OW29761   0.734   1.096   3.865 -0.1010 -0.1110  0.3027
 6101SOL    HW129762   0.670   1.167   3.857 -0.2726 -0.2658  0.3106
 6101SOL    HW229763   0.686   1.017   3.890 -2.1375  1.0010 -0.0478
 6102SOL     OW29764   1.026   2.918   5.125 -0.4619  0.2590  0.2604
 6102SOL    HW129765   1.079   2.849   5.086 -1.1970  0.1432 -0.5345
 6102SOL    HW229766   0.941   2.900   5.085  0.1029  0.0316 -0.8571
 6103SOL     OW29767   3.747   0.371   2.205 -0.2736 -0.1137 -0.2427
 6103SOL    HW129768   3.678   0.331   2.152 -0.2132 -0.9189  0.2798
 6103SOL    HW229769   3.716   0.460   2.187 -1.4720 -0.4722  0.0343
 6104SOL     OW29770   2.849   1.948  14.955 -0.4662 -0.1224 -0.3982
 6104SOL    HW129771   2.782   2.015  14.939 -0.0212 -0.0730 -2.0431
 6104SOL    HW229772   2.813   1.894  15.025 -0.6124  0.8948  0.3179
 6105SOL     OW29773   2.675   3.090   4.974  0.1203 -0.6487 -0.0347
 6105SOL    HW129774   2.744   3.157   4.979  0.7563 -1.2544 -0.7152
 6105SOL    HW229775   2.720   3.006   4.968  0.4069 -0.3516 -1.9699
 6106SOL     OW29776   3.613   1.922  10.554 -0.4454 -0.8942  0.1716
 6106SOL    HW129777   3.634   1.892  10.642 -1.3227 -1.1636  0.2914
 6106SOL    HW229778   3.679   1.984  10.522  0.6970 -1.2931  1.7705
 6107SOL     OW29779   3.000   3.930   8.709 -0.3409  0.0896 -0.3972
 6107SOL    HW129780   3.053   3.940   8.629 -1.5745  2.8692 -0.8645
 6107SOL    HW229781   2.914   3.950   8.674  1.0016  1.2361 -3.0608
 6108SOL     OW29782   1.554   0.689  10.227 -0.5072 -0.1248 -0.5463
 6108SOL    HW129783   1.512   0.765  10.187 -2.3179 -0.4171  0.7765
 6108SOL    HW229784   1.633   0.688  10.173  1.4296 -1.5578  2.2809
 6109SOL     OW29785   2.304   3.562   3.853 -0.5980 -0.6493 -0.4332
 6109SOL    HW129786   2.213   3.591   3.853 -0.2232  0.5396 -2.0134
 6109SOL    HW229787   2.330   3.612   3.775  2.1064  1.2367  1.7091
 6110SOL     OW29788   2.137   2.576   2.165  0.2159  0.1807  0.1889
 6110SOL    HW129789   2.133   2.493   2.118  0.4567  0.1984  0.1395
 6110SOL    HW229790   2.053   2.617   2.142 -0.7725 -0.5573  2.4797
 6111SOL     OW29791   2.390   2.251  17.611 -0.0113  0.4370  0.4437
 6111SOL    HW129792   2.455   2.294  17.555  0.1808  0.4515  0.6727
 6111SOL    HW229793   2.360   2.329  17.658 -1.7177 -0.2452  0.4737
 6112SOL     OW29794   0.705   4.559   8.273 -0.2487 -0.1356  0.5801
 6112SOL    HW129795   0.704   4.529   8.182 -0.1878  0.5788  0.3426
 6112SOL    HW229796   0.714   4.477   8.321  2.2658 -0.6206 -0.7606
 6113SOL     OW29797   1.363   4.119   0.585  0.4219  0.3662  0.2054
 6113SOL    HW129798   1.400   4.035   0.558  0.7802  1.5011 -2.8282
 6113SOL    HW229799   1.399   4.140   0.671  0.1280 -0.6401  0.5746
 6114SOL     OW29800   2.519   3.246   0.887  0.4276  0.7141 -0.1368
 6114SOL    HW129801   2.596   3.297   0.914 -0.0260  0.8281  0.9603
 6114SOL    HW229802   2.453   3.267   0.953  1.6984 -0.5915  1.5643
 6115SOL     OW29803   4.601   4.681   3.677  0.0585 -0.2503 -0.0392
 6115SOL    HW129804   4.648   0.042   3.678  0.7553 -0.6557  0.3552
 6115SOL    HW229805   4.661   4.607   3.676 -0.4638 -0.6690 -0.6913
 6116SOL     OW29806   3.525   2.411   5.488  0.4092  0.2635  0.9359
 6116SOL    HW129807   3.555   2.428   5.399 -1.0333  1.2127  0.6401
 6116SOL    HW229808   3.605   2.441   5.532 -0.0533  3.0620 -0.1298
 6117SOL     OW29809   0.346   1.612   8.687  0.0830  0.3674  0.3363
 6117SOL    HW129810   0.318   1.523   8.711  0.8382 -0.0453 -0.3061
 6117SOL    HW229811   0.298   1.665   8.750 -1.0696 -0.8599  0.4815
 6118SOL     OW29812   4.029   2.764  16.949 -0.1912 -0.2004  0.8648
 6118SOL    HW129813   4.030   2.777  16.854  1.7068 -2.1661  0.6040
 6118SOL    HW229814   3.982   2.841  16.981  1.5254  1.3718 -0.3721
 6119SOL     OW29815   3.729   4.291   0.541  0.4019 -0.4949  0.3989
 6119SOL    HW129816   3.706   4.371   0.494 -2.3441 -1.0880  0.7278
 6119SOL    HW229817   3.644   4.249   0.552 -0.8459  1.7222 -0.8071
 6120SOL     OW29818   3.374   4.227   3.950 -0.1743 -0.7290  0.6414
 6120SOL    HW129819   3.412   4.290   4.012 -0.2802  0.2211 -0.2662
 6120SOL    HW229820   3.414   4.143   3.971 -3.5726 -2.2570  0.9856
 6121SOL     OW29821   4.714   0.860   2.271  0.0610 -0.0813  0.6560
 6121SOL    HW129822   4.663   0.906   2.204  0.6122 -0.0416  0.2649
 6121SOL    HW229823   4.639   0.820   2.315 -0.9634 -0.3987 -1.3833
 6122SOL     OW29824   4.543   1.890   6.657 -0.2265 -0.0251 -0.3904
 6122SOL    HW129825   4.573   1.877   6.567  0.3217 -0.7876 -0.0978
 6122SOL    HW229826   4.471   1.831   6.675  0.1142  0.9895  4.3257
 6123SOL     OW29827   2.507   3.477  16.237  0.2161  0.1583  0.0407
 6123SOL    HW129828   2.566   3.549  16.213 -0.5027  0.9017  0.4931
 6123SOL    HW229829   2.505   3.421  16.159  1.0084  1.3132 -0.8214
 6124SOL     OW29830   2.472   1.370   8.277 -0.1696  0.0354  0.5653
 6124SOL    HW129831   2.388   1.415   8.284 -0.7814 -0.7602 -1.3667
 6124SOL    HW229832   2.523   1.442   8.241  0.7558 -0.2617  1.2968
 6125SOL     OW29833   4.614   3.482  14.487  0.2969  0.4738  0.4144
 6125SOL    HW129834   4.532   3.493  14.439  1.5041 -0.3435 -1.8463
 6125SOL    HW229835   4.579   3.420  14.552 -1.1273  0.6191 -0.2026
 6126SOL     OW29836   3.087   1.903  15.735 -0.2227  0.4925  0.3173
 6126SOL    HW129837   3.066   1.965  15.805  0.2881 -2.4543  3.0642
 6126SOL    HW229838   3.176   1.874  15.753  0.5465  0.2319 -3.8431
 6127SOL     OW29839   0.176   3.226   4.017  0.1171 -0.0695  0.5502
 6127SOL    HW129840   0.206   3.234   4.108  1.0745  0.3813  0.1934
 6127SOL    HW229841   0.082   3.210   4.029 -0.3800  2.1907 -0.2826
 6128SOL     OW29842   0.096   3.634  14.580  0.2118 -0.1610  0.2726
 6128SOL    HW129843   0.053   3.566  14.528 -1.6771  0.8980  0.4663
 6128SOL    HW229844   0.036   3.635  14.655  0.0563  0.2049  0.1465
 6129SOL     OW29845   3.123   3.627   6.777 -0.1261  1.0199 -0.0588
 6129SOL    HW129846   3.192   3.667   6.829 -0.1801  2.0767 -0.7947
 6129SOL    HW229847   3.175   3.583   6.710  0.4801 -0.0996  1.1706
 6130SOL     OW29848   4.186   2.044  16.342  0.1172 -0.0201  0.1369
 6130SOL    HW129849   4.125   2.102  16.387 -0.6666 -0.0776 -0.8599
 6130SOL    HW229850   4.153   1.955  16.351  3.2141 -1.1917  0.0934
 6131SOL     OW29851   3.245   3.185   2.138  0.3570  0.2385  0.8904
 6131SOL    HW129852   3.217   3.211   2.051  0.2479 -1.5363  0.3866
 6131SOL    HW229853   3.224   3.091   2.143  1.1283 -0.0931 -2.2516
 6132SOL     OW29854   0.446   2.664   7.359 -0.0210 -0.0724  0.0023
 6132SOL    HW129855   0.429   2.642   7.451 -1.0064  0.3683 -0.0788
 6132SOL    HW229856   0.521   2.606   7.349 -0.4595 -0.2640 -2.2138
 6133SOL     OW29857   1.432   2.421   1.544  0.0552  0.0713  0.4201
 6133SOL    HW129858   1.468   2.333   1.545  0.3456  0.1741 -0.4760
 6133SOL    HW229859   1.483   2.459   1.472 -0.9116  0.1560 -0.2205
 6134SOL     OW29860   3.548   4.103   7.896 -0.0645 -0.2852  0.6866
 6134SOL    HW129861   3.614   4.139   7.955  1.2444  0.7565 -1.4169
 6134SOL    HW229862   3.553   4.009   7.914  0.3523 -0.3473  0.2501
 6135SOL     OW29863   0.102   2.720   8.168 -0.0992  0.1822  0.3295
 6135SOL    HW129864   0.165   2.747   8.236  0.0890  4.9088 -1.7584
 6135SOL    HW229865   0.043   2.660   8.214 -0.1063 -0.0797 -0.0285
 6136SOL     OW29866   2.476   0.262   6.400 -0.4096  0.2021 -0.4044
 6136SOL    HW129867   2.451   0.322   6.330  0.1146  0.4203 -0.4056
 6136SOL    HW229868   2.567   0.286   6.415 -0.1316 -1.8655  1.2725
 6137SOL     OW29869   3.924   2.380  12.392  0.1481 -0.2090  0.4861
 6137SOL    HW129870   3.935   2.445  12.323 -1.3234  0.9690  1.3712
 6137SOL    HW229871   3.986   2.412  12.458 -0.4115  0.6660  0.5863
 6138SOL     OW29872   0.221   2.502   5.213 -0.2423  0.1735 -0.3265
 6138SOL    HW129873   0.138   2.534   5.179 -0.1606  0.2534 -0.4492
 6138SOL    HW229874   0.207   2.413   5.180  2.1243  0.4645 -2.1366
 6139SOL     OW29875   0.658   2.207  10.653  0.1178  0.2142  0.5573
 6139SOL    HW129876   0.630   2.267  10.722 -1.9765  1.5093 -1.3863
 6139SOL    HW229877   0.592   2.230  10.587  1.6764  0.4174 -0.9115
 6140SOL     OW29878   0.985   2.849   1.508 -0.1189 -0.6921  0.0430
 6140SOL    HW129879   1.075   2.818   1.524 -0.4446 -2.2071 -1.0099
 6140SOL    HW229880   0.927   2.790   1.556 -0.2344 -0.1295  0.5964
 6141SOL     OW29881   0.535   1.966   4.772 -0.2767  0.7915  0.4353
 6141SOL    HW129882   0.555   1.918   4.853 -3.1896  1.4111  1.5159
 6141SOL    HW229883   0.609   1.958   4.711  0.1423  2.8899  0.6640
 6142SOL     OW29884   3.980   0.928  13.788  0.5089  0.2807  0.5237
 6142SOL    HW129885   3.952   0.982  13.862 -1.9177 -0.8803  0.4277
 6142SOL    HW229886   3.970   0.985  13.711 -0.0489  1.3917  1.4199
 6143SOL     OW29887   2.673   0.937   2.548 -0.1787 -0.4607 -0.1589
 6143SOL    HW129888   2.703   0.868   2.489 -0.4393  0.6368 -1.5459
 6143SOL    HW229889   2.591   0.896   2.578  0.3094 -0.8707  0.6334
 6144SOL     OW29890   3.664   3.328   5.375 -0.0624  0.3274 -0.4104
 6144SOL    HW129891   3.698   3.326   5.285  0.0669 -2.3277 -0.3216
 6144SOL    HW229892   3.735   3.286   5.424  0.8948  1.2901 -0.9824
 6145SOL     OW29893   0.736   3.085   9.531 -0.1767 -0.4362 -0.1940
 6145SOL    HW129894   0.741   3.177   9.505 -0.1202  0.2415  2.1659
 6145SOL    HW229895   0.693   3.048   9.455 -1.2335  0.8196 -0.1928
 6146SOL     OW29896   0.951   0.260  13.665 -0.8662  0.0780  0.0135
 6146SOL    HW129897   1.026   0.303  13.707 -0.3160  0.1712 -1.0711
 6146SOL    HW229898   0.990   0.266  13.578  1.9291  1.3704  1.3268
 6147SOL     OW29899   2.646   3.587   6.307 -0.3442 -0.7664 -0.1236
 6147SOL    HW129900   2.650   3.572   6.401  0.3153  1.4426  0.2022
 6147SOL    HW229901   2.551   3.586   6.292 -0.6443 -0.5614  1.8271
 6148SOL     OW29902   4.715   1.408   1.223  0.0044  0.2036 -0.8033
 6148SOL    HW129903   4.627   1.426   1.188 -0.1689  2.9951  1.0125
 6148SOL    HW229904   4.701   1.388   1.316  1.0968  0.2165 -0.6394
 6149SOL     OW29905   3.705   4.606   6.714 -0.2580  0.1795 -0.5031
 6149SOL    HW129906   3.799   4.592   6.729 -1.0075 -2.9654  1.2152
 6149SOL    HW229907   3.706   4.693   6.753  2.1048 -0.6373  1.2594
 6150SOL     OW29908   1.337   3.210   0.161  0.1230  0.3673  0.0721
 6150SOL    HW129909   1.411   3.150   0.173  0.3676  0.4404 -1.0497
 6150SOL    HW229910   1.346   3.271   0.233 -2.1086 -0.3943  0.9929
 6151SOL     OW29911   1.735   3.263  15.414 -0.0563 -0.3123 -0.0211
 6151SOL    HW129912   1.749   3.354  15.440  0.9919 -0.3594 -0.4056
 6151SOL    HW229913   1.683   3.284  15.337 -0.3606  2.7856  1.0497
 6152SOL     OW29914   3.174   0.009   6.599 -0.3726  0.3783  0.2244
 6152SOL    HW129915   3.088   0.047   6.584  1.3155  3.4213 -1.6648
 6152SOL    HW229916   3.193   4.689   6.515  0.7767  1.1302  0.1099
 6153SOL     OW29917   4.682   3.872   3.935  0.0756  0.0920 -0.0891
 6153SOL    HW129918   4.682   3.777   3.919 -0.5409 -0.1426  1.2881
 6153SOL    HW229919   0.008   3.878   4.017 -0.8448  1.6690  0.3289
 6154SOL     OW29920   2.007   2.189   5.105  0.3258 -0.4368  0.2972
 6154SOL    HW129921   1.996   2.161   5.014  0.1171  1.9022 -0.3793
 6154SOL    HW229922   2.090   2.236   5.101  0.6883 -1.3306 -2.5443
 6155SOL     OW29923   1.551   1.962   1.001  0.1022  0.1626 -0.0907
 6155SOL    HW129924   1.481   2.012   1.044  1.5658  0.3938  2.0114
 6155SOL    HW229925   1.615   2.027   0.971 -1.3327  1.6163 -0.0098
 6156SOL     OW29926   4.616   4.444   9.560  0.0673  0.4719 -0.5210
 6156SOL    HW129927   4.671   4.446   9.638 -0.9799  0.6521  0.2184
 6156SOL    HW229928   4.676   4.400   9.500 -0.1699 -1.7475  0.8561
 6157SOL     OW29929   3.267   3.311   1.789  0.2575 -0.2754 -1.0029
 6157SOL    HW129930   3.347   3.260   1.778 -0.0495 -0.6166 -1.6644
 6157SOL    HW229931   3.198   3.253   1.757  0.1799  0.5194 -2.2704
 6158SOL     OW29932   1.814   2.735  12.152 -0.3194  0.2763 -0.1152
 6158SOL    HW129933   1.804   2.651  12.108 -0.7583 -0.2802  1.0535
 6158SOL    HW229934   1.731   2.776  12.128  0.8233  1.4014 -2.1143
 6159SOL     OW29935   2.920   0.544  10.071 -0.1093 -0.4557  0.3362
 6159SOL    HW129936   2.968   0.551  10.154 -0.0786 -1.9700  0.4553
 6159SOL    HW229937   2.893   0.453  10.062 -1.0575 -0.1650  0.3316
 6160SOL     OW29938   0.075   3.876   8.189 -0.0041 -0.9083 -0.1503
 6160SOL    HW129939   0.107   3.833   8.110 -0.7224 -1.2238 -0.2745
 6160SOL    HW229940   0.008   3.810   8.208 -0.3377 -0.9517 -1.4660
 6161SOL     OW29941   3.892   1.188   5.156  0.5104  0.2292 -0.3982
 6161SOL    HW129942   3.882   1.165   5.248  1.1700 -1.0499 -0.6451
 6161SOL    HW229943   3.799   1.208   5.139  0.7166  2.5467  1.1706
 6162SOL     OW29944   2.817   2.294   4.944  0.1793  0.5030  0.1425
 6162SOL    HW129945   2.886   2.276   5.008  0.1784  0.9969  0.2812
 6162SOL    HW229946   2.821   2.212   4.894  1.0749  0.1859  0.7226
 6163SOL     OW29947   0.922   3.680  12.527 -0.0738 -0.5528  0.0750
 6163SOL    HW129948   0.880   3.685  12.441  0.3894  0.9339 -0.0708
 6163SOL    HW229949   1.002   3.630  12.506  0.2465 -0.5879  1.3642
 6164SOL     OW29950   1.559   0.829   6.662  0.1851 -0.2649 -0.1021
 6164SOL    HW129951   1.558   0.887   6.586  0.2682  0.3138  0.3340
 6164SOL    HW229952   1.482   0.775   6.648  0.4175 -0.4950 -0.4717
 6165SOL     OW29953   3.213   4.054   6.204  0.0478  0.1387  0.3579
 6165SOL    HW129954   3.153   3.979   6.207  1.3186 -0.8945 -0.1833
 6165SOL    HW229955   3.177   4.120   6.264 -0.0401  1.3617 -1.0287
 6166SOL     OW29956   2.273   2.819   3.278  0.0054 -0.3199 -0.5976
 6166SOL    HW129957   2.258   2.848   3.368  0.1297 -3.1953  0.3520
 6166SOL    HW229958   2.197   2.761   3.269  0.2143 -0.5501 -0.9345
 6167SOL     OW29959   1.949   1.628   3.184 -0.0536 -0.4160 -0.0130
 6167SOL    HW129960   1.902   1.601   3.106 -1.5020  0.1107  0.6861
 6167SOL    HW229961   2.019   1.685   3.152 -1.5236  1.0050 -0.6871
 6168SOL     OW29962   2.767   1.539   3.209 -0.1062  0.4618 -0.8121
 6168SOL    HW129963   2.846   1.502   3.171 -0.6483 -2.8068  1.2834
 6168SOL    HW229964   2.754   1.615   3.151 -0.7052 -0.3345 -1.7343
 6169SOL     OW29965   2.226   2.340   5.142 -0.3009  0.5343 -0.2919
 6169SOL    HW129966   2.298   2.341   5.080 -1.3969  1.4906 -1.5412
 6169SOL    HW229967   2.260   2.416   5.188  2.7303 -0.0635 -1.5438
 6170SOL     OW29968   3.207   0.852   0.646 -0.2094 -0.7171 -0.4052
 6170SOL    HW129969   3.135   0.837   0.708  0.8394  1.7568  1.4191
 6170SOL    HW229970   3.176   0.794   0.577  0.8606 -1.1931 -0.4872
 6171SOL     OW29971   2.140   0.576   5.009 -1.1184 -0.4198  0.7220
 6171SOL    HW129972   2.045   0.577   5.014 -1.1320 -1.6808  0.5169
 6171SOL    HW229973   2.152   0.482   4.996  3.3031  0.5339 -2.1792
 6172SOL     OW29974   3.397   2.778   6.524  0.1574 -0.8345  0.0324
 6172SOL    HW129975   3.326   2.723   6.490  0.1935 -2.1627  2.1300
 6172SOL    HW229976   3.363   2.819   6.604  1.4305 -0.8387  0.5719
 6173SOL     OW29977   0.398   0.473   6.626 -0.1089 -0.4063 -0.1926
 6173SOL    HW129978   0.338   0.529   6.577  0.7603  1.6770  1.1105
 6173SOL    HW229979   0.358   0.459   6.712  0.5600 -1.2910 -0.0255
 6174SOL     OW29980   2.875   2.723   8.364  0.7444 -0.2078 -0.0940
 6174SOL    HW129981   2.849   2.814   8.348  1.7299 -0.1075 -1.0973
 6174SOL    HW229982   2.970   2.732   8.361  0.6686  0.3480 -0.7227
 6175SOL     OW29983   2.190   0.634  13.330 -0.9244  0.0296  0.2407
 6175SOL    HW129984   2.216   0.588  13.410  0.3855 -1.0788 -0.8299
 6175SOL    HW229985   2.247   0.711  13.338  0.0351 -0.6600  0.1047
 6176SOL     OW29986   0.519   3.459   6.920  0.2057  0.3616 -0.3060
 6176SOL    HW129987   0.427   3.482   6.907  0.3668  0.7291 -0.7999
 6176SOL    HW229988   0.521   3.365   6.901  0.4330  0.6116 -1.5768
 6177SOL     OW29989   1.398   2.497   3.716  0.5584  0.0289 -0.3849
 6177SOL    HW129990   1.434   2.432   3.654 -0.5198  1.6814 -2.7415
 6177SOL    HW229991   1.478   2.535   3.752  0.3362 -0.0368  0.1751
 6178SOL     OW29992   4.623   2.035   7.356 -0.1812  0.0392  0.2328
 6178SOL    HW129993   4.684   1.963   7.337 -0.2801  0.0332 -0.0598
 6178SOL    HW229994   4.630   2.059   7.448  2.3727 -0.0807  0.0659
 6179SOL     OW29995   2.395   1.760   5.854 -0.5836 -0.1402  0.0495
 6179SOL    HW129996   2.391   1.827   5.786  2.6411  1.0691  1.0574
 6179SOL    HW229997   2.424   1.822   5.921 -0.6933  0.5103 -0.5113
 6180SOL     OW29998   4.117   2.999   8.821  0.3395  0.1069 -0.0363
 6180SOL    HW129999   4.076   2.913   8.835  2.5086 -0.8151  0.7515
 6180SOL    HW230000   4.148   2.980   8.733 -0.1771  0.3884 -0.2752
 6181SOL     OW30001   3.981   4.172   2.404 -0.0224  0.0774  0.4772
 6181SOL    HW130002   3.994   4.123   2.323 -1.7817 -1.9199  1.4171
 6181SOL    HW230003   3.889   4.199   2.403  0.3078  1.1828 -0.8750
 6182SOL     OW30004   0.090   0.990   1.874 -0.5105  0.2018 -0.3954
 6182SOL    HW130005   0.020   0.980   1.938  0.1965 -0.6755  0.2475
 6182SOL    HW230006   0.166   0.948   1.914 -0.3563  1.2052  0.3720
 6183SOL     OW30007   4.107   4.456  16.918  0.3687 -0.2678  0.1590
 6183SOL    HW130008   4.194   4.492  16.899  0.7554 -1.4872 -0.3893
 6183SOL    HW230009   4.072   4.526  16.973  0.1310  0.9344 -1.5267
 6184SOL     OW30010   1.513   0.923   8.977  0.4485  0.6415  0.0943
 6184SOL    HW130011   1.604   0.903   8.956  0.6361 -0.3420  1.8472
 6184SOL    HW230012   1.510   1.016   8.957  0.3158  0.8559  1.0860
 6185SOL     OW30013   4.676   2.062   5.579  0.7401  0.2363  0.1336
 6185SOL    HW130014   4.647   1.998   5.515  0.0125 -1.2439  1.9472
 6185SOL    HW230015   0.041   2.089   5.549 -0.2102  0.0423 -2.7780
 6186SOL     OW30016   1.654   0.226   9.495 -0.3770  0.2086 -0.5038
 6186SOL    HW130017   1.702   0.303   9.464 -0.7953 -0.3328 -2.4925
 6186SOL    HW230018   1.721   0.162   9.470 -0.7499 -0.5679  0.4674
 6187SOL     OW30019   1.149   0.824  16.368  0.1122  0.2341  0.4490
 6187SOL    HW130020   1.064   0.814  16.410 -0.4046 -1.8383 -1.0773
 6187SOL    HW230021   1.198   0.759  16.419  0.5130 -0.3777 -0.7106
 6188SOL     OW30022   3.379   0.212   0.648 -0.1963 -0.3566 -0.3694
 6188SOL    HW130023   3.360   0.231   0.556 -0.3403 -1.2615 -0.5286
 6188SOL    HW230024   3.319   0.140   0.669 -1.3253  0.9081  0.7195
 6189SOL     OW30025   4.322   3.138   8.531  0.0503  0.0069 -0.0525
 6189SOL    HW130026   4.238   3.184   8.526  1.0836  1.9633  0.6820
 6189SOL    HW230027   4.288   3.050   8.548 -0.8314  0.1400 -1.1235
 6190SOL     OW30028   2.781   1.573   3.722 -0.6307  0.4921  0.2926
 6190SOL    HW130029   2.749   1.549   3.635 -2.1810  0.6234  0.8276
 6190SOL    HW230030   2.874   1.567   3.702 -0.4335 -0.3918  1.4859
 6191SOL     OW30031   2.351   2.487   0.070 -0.5707  0.7276 -0.2856
 6191SOL    HW130032   2.384   2.576   0.057  2.8373 -0.4591  0.1129
 6191SOL    HW230033   2.289   2.501   0.142  0.1183  1.4497  0.1809
 6192SOL     OW30034   4.484   2.988   5.672 -0.3776  0.0059  0.2895
 6192SOL    HW130035   4.480   3.080   5.698  2.7910  0.6693 -1.5437
 6192SOL    HW230036   4.566   2.954   5.707  0.7964  1.5890 -0.8770
 6193SOL     OW30037   1.385   2.857   5.347  0.1535 -0.3377  0.2054
 6193SOL    HW130038   1.303   2.853   5.397  1.3663 -1.5606  2.0891
 6193SOL    HW230039   1.409   2.765   5.349 -1.6574 -0.8168  0.3020
 6194SOL     OW30040   1.158   0.877   8.349 -0.1516  0.4506 -0.2152
 6194SOL    HW130041   1.190   0.808   8.408  0.5812  0.1541 -0.9659
 6194SOL    HW230042   1.064   0.857   8.352 -0.4680  1.9484 -0.6325
 6195SOL     OW30043   1.498   1.670  10.922  0.1592  0.1988  0.6796
 6195SOL    HW130044   1.542   1.585  10.920 -1.3168 -0.4955 -2.1557
 6195SOL    HW230045   1.407   1.643  10.936  0.1815  0.2538  0.9256
 6196SOL     OW30046   0.257   3.692   3.904 -1.0005  0.0709 -0.0867
 6196SOL    HW130047   0.224   3.688   3.994  1.7440  1.2924  0.9528
 6196SOL    HW230048   0.287   3.601   3.892 -4.1649 -1.0776  0.5806
 6197SOL     OW30049   4.358   0.694  16.801  0.0853 -0.1596 -0.0382
 6197SOL    HW130050   4.283   0.719  16.855  1.4924  1.3746  1.2069
 6197SOL    HW230051   4.397   0.781  16.792 -1.7810  0.7182  0.2979
 6198SOL     OW30052   1.105   0.172  14.669 -0.1026 -0.6504  0.0939
 6198SOL    HW130053   1.027   0.224  14.688 -1.1446 -2.7133  1.4438
 6198SOL    HW230054   1.060   0.105  14.618 -2.8278 -0.4254  2.2339
 6199SOL     OW30055   4.392   1.602   7.790  0.4899  0.1419 -0.1135
 6199SOL    HW130056   4.357   1.647   7.866 -4.7410 -1.0542 -1.8367
 6199SOL    HW230057   4.461   1.663   7.763  2.0665 -0.6861  2.0345
 6200SOL     OW30058   1.505   3.606   9.935  0.8628  0.1719  0.1031
 6200SOL    HW130059   1.485   3.539   9.869 -2.3526  0.7617  0.4680
 6200SOL    HW230060   1.436   3.582   9.996  0.7068 -1.3512 -0.6717
 6201SOL     OW30061   3.582   1.563   4.912  0.7764 -0.7386 -0.4551
 6201SOL    HW130062   3.671   1.600   4.917  0.8196 -1.1582  1.8428
 6201SOL    HW230063   3.602   1.485   4.861  0.6534 -1.9969  1.4575
 6202SOL     OW30064   1.888   3.427   2.643  0.9932 -0.4814  0.5895
 6202SOL    HW130065   1.850   3.502   2.597  0.9163 -0.8045  0.1348
 6202SOL    HW230066   1.854   3.357   2.587  1.1742 -0.0120 -0.1186
 6203SOL     OW30067   4.654   1.200   3.693 -0.4231 -0.2713  0.3215
 6203SOL    HW130068   4.676   1.291   3.714  1.3846 -0.3922 -1.0174
 6203SOL    HW230069   4.571   1.192   3.740  0.2598  0.0415  1.5898
 6204SOL     OW30070   2.723   2.437   1.987  0.1990 -0.7015 -0.0664
 6204SOL    HW130071   2.661   2.503   2.019 -0.2393 -0.4261 -1.5055
 6204SOL    HW230072   2.677   2.355   2.007 -1.7705  0.6582  1.0710
 6205SOL     OW30073   3.994   2.987   3.271 -0.5029  0.2671 -0.1887
 6205SOL    HW130074   3.918   2.931   3.251  0.2046 -0.4895 -0.7601
 6205SOL    HW230075   4.058   2.951   3.209  0.4243 -0.2575  1.0657
 6206SOL     OW30076   0.460   0.268   4.965  0.9525  0.3098 -0.3637
 6206SOL    HW130077   0.473   0.199   4.900 -0.2938  0.3688 -0.6784
 6206SOL    HW230078   0.395   0.325   4.924  2.0629  0.5047 -1.8678
 6207SOL     OW30079   2.978   1.375   0.516  0.1133  0.3389 -0.0421
 6207SOL    HW130080   2.957   1.457   0.471 -0.0509  0.2536 -0.1196
 6207SOL    HW230081   2.913   1.316   0.477  1.9437 -0.9059 -1.1930
 6208SOL     OW30082   0.066   2.599   5.787  0.4445  0.0626  0.2305
 6208SOL    HW130083   0.070   2.512   5.826 -2.4127 -0.0848  0.2158
 6208SOL    HW230084   4.700   2.620   5.817 -0.3059 -1.5790 -0.8037
 6209SOL     OW30085   3.321   2.173  13.652  0.2960 -0.3119  0.3425
 6209SOL    HW130086   3.299   2.081  13.641  0.2068 -0.3421  0.7568
 6209SOL    HW230087   3.238   2.216  13.672 -0.4178 -1.3392 -0.4131
 6210SOL     OW30088   1.953   3.838  10.032 -0.0910  0.3898  0.1746
 6210SOL    HW130089   2.009   3.778   9.984 -0.4968  0.2294 -0.0971
 6210SOL    HW230090   1.870   3.792  10.046  0.4229 -0.0725  1.6977
 6211SOL     OW30091   1.496   3.793   9.310 -1.0223 -0.2639  0.3984
 6211SOL    HW130092   1.476   3.762   9.398  2.7514 -0.0674  1.3466
 6211SOL    HW230093   1.508   3.711   9.263 -1.1140  0.3884 -0.7473
 6212SOL     OW30094   1.506   2.353  12.937  0.3032  0.3853 -0.4007
 6212SOL    HW130095   1.584   2.353  12.882  0.8319  0.9360  0.3521
 6212SOL    HW230096   1.449   2.289  12.894  1.7294 -0.6225 -0.7694
 6213SOL     OW30097   2.993   0.678  10.530  0.5892 -0.2166 -0.1954
 6213SOL    HW130098   3.014   0.771  10.525  1.9946 -0.5727 -1.0561
 6213SOL    HW230099   3.039   0.651  10.610 -0.1917 -1.6743 -0.2399
 6214SOL     OW30100   2.647   3.449   5.491 -0.8687  0.2136  0.4680
 6214SOL    HW130101   2.643   3.390   5.566 -2.3811  1.4670  1.3572
 6214SOL    HW230102   2.575   3.425   5.434  0.1839 -0.4697 -0.5883
 6215SOL     OW30103   2.153   1.824   2.421  0.4053  0.1609 -0.4741
 6215SOL    HW130104   2.199   1.872   2.352 -0.4010  2.8371  0.8404
 6215SOL    HW230105   2.212   1.749   2.425  0.4994  0.3695  1.9943
 6216SOL     OW30106   3.962   3.473  15.031 -0.1106 -0.2378 -0.0704
 6216SOL    HW130107   3.896   3.431  14.975 -1.8829  1.6335  0.6156
 6216SOL    HW230108   3.997   3.394  15.072  0.7017 -0.3922 -1.0437
 6217SOL     OW30109   3.479   0.191   3.492  0.2018 -0.1750  0.4222
 6217SOL    HW130110   3.546   0.258   3.503  0.8872 -0.9515  1.0077
 6217SOL    HW230111   3.421   0.233   3.428 -1.6986  0.3914  2.5002
 6218SOL     OW30112   2.912   0.105   4.030 -1.1977 -0.5525 -0.7118
 6218SOL    HW130113   2.978   0.126   3.964 -2.0793  0.9281 -1.1217
 6218SOL    HW230114   2.913   0.194   4.065 -0.9102 -0.3264 -1.2965
 6219SOL     OW30115   3.728   2.558   4.533  0.2966  0.1522  0.0913
 6219SOL    HW130116   3.699   2.475   4.496  1.5209 -0.0861 -0.3470
 6219SOL    HW230117   3.689   2.557   4.620  1.5307 -0.9587  0.6187
 6220SOL     OW30118   2.121   0.624  16.801  0.0469 -0.1009 -0.2548
 6220SOL    HW130119   2.086   0.537  16.821 -1.5034  1.2927  3.1555
 6220SOL    HW230120   2.052   0.663  16.748  1.7495  0.3252 -2.1542
 6221SOL     OW30121   1.799   0.218   3.893  0.2389 -0.0043 -0.3834
 6221SOL    HW130122   1.797   0.264   3.809  0.3087 -1.1673 -1.0240
 6221SOL    HW230123   1.706   0.226   3.913  0.7060  2.1346  0.9759
 6222SOL     OW30124   1.404   4.014   7.889  0.7625  0.3811 -0.0199
 6222SOL    HW130125   1.454   4.029   7.809  0.7732  1.9574  0.2750
 6222SOL    HW230126   1.341   4.085   7.880 -0.6927 -0.4967  3.0960
 6223SOL     OW30127   2.266   1.129   2.463  0.4296 -0.5174 -0.0891
 6223SOL    HW130128   2.302   1.066   2.401 -0.0536  0.9057 -1.8259
 6223SOL    HW230129   2.200   1.167   2.404  1.0370  1.8065  0.7571
 6224SOL     OW30130   3.835   1.590   7.516  0.0189 -0.1837  0.1703
 6224SOL    HW130131   3.882   1.507   7.518 -1.3591 -0.9836 -0.5171
 6224SOL    HW230132   3.793   1.574   7.431  0.5320 -1.4942  0.1630
 6225SOL     OW30133   0.506   4.076  15.298  0.5158  0.4605 -0.4384
 6225SOL    HW130134   0.466   4.032  15.223 -0.0504  0.9481 -0.4219
 6225SOL    HW230135   0.591   4.105  15.266  0.9227  0.2129  0.4236
 6226SOL     OW30136   2.108   1.424   0.196 -0.0777 -0.4325  0.3531
 6226SOL    HW130137   2.138   1.514   0.179 -0.9161 -0.2902 -0.4091
 6226SOL    HW230138   2.026   1.440   0.243 -0.5186 -0.3506 -0.4310
 6227SOL     OW30139   3.685   2.311  12.608 -0.5988 -0.1869  0.0868
 6227SOL    HW130140   3.592   2.328  12.617 -0.6991 -0.5347 -0.2902
 6227SOL    HW230141   3.718   2.291  12.695 -2.0917 -1.0049  0.4529
 6228SOL     OW30142   0.184   2.556   6.953 -0.1244  0.4579  0.0636
 6228SOL    HW130143   0.243   2.595   6.888  1.5307 -0.8011  0.8099
 6228SOL    HW230144   0.130   2.628   6.986 -2.1274 -0.3203 -1.5304
 6229SOL     OW30145   4.383   4.536   5.961 -0.2669 -0.6630  0.4327
 6229SOL    HW130146   4.342   4.588   5.892 -2.8233 -1.0583  1.6506
 6229SOL    HW230147   4.466   4.585   5.967  0.7363 -2.1631 -1.1410
 6230SOL     OW30148   1.518   2.856   4.038 -0.6198  0.5043 -0.4412
 6230SOL    HW130149   1.609   2.841   4.010 -0.8114  0.3219 -0.9670
 6230SOL    HW230150   1.483   2.769   4.053  1.1010 -0.1715 -0.3888
 6231SOL     OW30151   2.784   0.228  11.285  0.2923  0.1185 -0.0662
 6231SOL    HW130152   2.723   0.154  11.288 -1.3797  1.4226 -1.4056
 6231SOL    HW230153   2.872   0.200  11.263  0.4255  1.4997 -1.3069
 6232SOL     OW30154   1.851   1.646   2.916  0.5313  0.5371  0.4710
 6232SOL    HW130155   1.764   1.607   2.914  0.5701  0.5085 -0.8603
 6232SOL    HW230156   1.824   1.732   2.883  3.1503  1.0482 -0.3858
 6233SOL     OW30157   0.036   3.836   5.249  0.8240  0.2066 -0.6432
 6233SOL    HW130158   0.106   3.838   5.314 -0.0962  0.1784  0.3525
 6233SOL    HW230159   0.092   3.810   5.175  0.0815 -0.3050 -1.0301
 6234SOL     OW30160   0.274   0.845   2.019  0.1512 -0.1851 -0.2327
 6234SOL    HW130161   0.227   0.763   2.038  0.0090 -0.2166 -0.7371
 6234SOL    HW230162   0.337   0.838   2.091 -1.3696 -1.1064  1.0141
 6235SOL     OW30163   2.602   2.911   7.137  0.4319  0.0755 -0.0593
 6235SOL    HW130164   2.521   2.861   7.127  1.4433 -0.8215 -3.7374
 6235SOL    HW230165   2.574   2.973   7.204  2.5070  0.8137  0.1249
 6236SOL     OW30166   0.261   3.470   3.081 -0.6875  0.5722  0.4651
 6236SOL    HW130167   0.339   3.465   3.027 -0.2985 -1.7216  1.2142
 6236SOL    HW230168   0.289   3.513   3.162  1.7029 -0.7346  0.3346
 6237SOL     OW30169   1.637   0.834   6.104  0.1110  0.1181 -0.7782
 6237SOL    HW130170   1.627   0.740   6.123  2.0753 -0.1748 -1.1650
 6237SOL    HW230171   1.565   0.875   6.152  0.9595  1.1752 -0.4157
 6238SOL     OW30172   1.505   3.493   3.352 -0.0246 -0.4169  0.6408
 6238SOL    HW130173   1.437   3.546   3.310  0.5158  0.7094  1.1737
 6238SOL    HW230174   1.456   3.412   3.363  0.5043 -0.8561 -0.3195
 6239SOL     OW30175   2.449   1.589   8.000 -0.7346 -0.0326  0.0885
 6239SOL    HW130176   2.483   1.636   8.076 -0.9894  1.1046 -0.5015
 6239SOL    HW230177   2.494   1.631   7.927 -1.3278  0.0150 -0.2498
 6240SOL     OW30178   3.576   0.846   0.553  0.6543 -0.1677  0.3272
 6240SOL    HW130179   3.485   0.874   0.555  0.7111  0.3294 -3.2000
 6240SOL    HW230180   3.603   0.870   0.642 -2.4800  2.2771  0.6096
 6241SOL     OW30181   2.835   2.846   2.984  0.0076 -0.6701 -0.0297
 6241SOL    HW130182   2.770   2.901   3.027  0.0614 -0.5576 -0.0913
 6241SOL    HW230183   2.795   2.764   3.012  4.0046 -3.1280 -1.4831
 6242SOL     OW30184   3.141   1.701   3.054  0.2992 -0.2186  0.0523
 6242SOL    HW130185   3.193   1.711   3.134  1.1197  0.4661 -0.5673
 6242SOL    HW230186   3.185   1.760   2.993 -0.8704 -1.9020 -2.4431
 6243SOL     OW30187   3.032   3.225  13.979  0.2744 -0.3839  0.1992
 6243SOL    HW130188   3.038   3.129  13.988 -0.3713 -0.4270  0.1376
 6243SOL    HW230189   2.965   3.225  13.911 -0.1919  0.6795  0.6649
 6244SOL     OW30190   2.641   0.949  10.504 -0.2350  0.2694 -0.0781
 6244SOL    HW130191   2.731   0.952  10.472 -0.6458  1.2491 -1.1507
 6244SOL    HW230192   2.637   0.856  10.528 -0.2165  0.7885  1.9303
 6245SOL     OW30193   4.189   3.665  11.603  0.0194  0.4773 -0.0660
 6245SOL    HW130194   4.227   3.680  11.689  0.1013 -1.6979  0.2821
 6245SOL    HW230195   4.099   3.636  11.619  0.7022 -1.4282  0.4104
 6246SOL     OW30196   4.650   1.027   5.873 -0.1819 -0.0219  0.1332
 6246SOL    HW130197   4.591   1.090   5.831 -0.1485 -1.4216 -2.0420
 6246SOL    HW230198   4.721   1.014   5.811 -0.8347  0.4671 -0.7232
 6247SOL     OW30199   0.057   1.316   1.979 -0.6438 -0.2826  0.2043
 6247SOL    HW130200   0.078   1.380   1.912 -1.2125 -0.2250  0.0768
 6247SOL    HW230201   4.689   1.304   1.949 -0.3716 -1.3171 -0.2162
 6248SOL     OW30202   4.251   1.419  17.469 -0.5756  0.6261  0.1709
 6248SOL    HW130203   4.308   1.487  17.504  0.0016  1.7171 -2.8603
 6248SOL    HW230204   4.296   1.401  17.386  1.9908  0.2990  1.6611
 6249SOL     OW30205   2.597   2.173   4.010 -0.4677  0.3986 -0.2004
 6249SOL    HW130206   2.502   2.175   4.011 -0.4910  0.1263 -1.6591
 6249SOL    HW230207   2.602   2.118   3.932  1.1751  0.9976 -0.5409
 6250SOL     OW30208   4.154   0.851  11.458 -0.2749 -0.3542  0.2692
 6250SOL    HW130209   4.235   0.838  11.507 -1.0842  0.9880  1.9724
 6250SOL    HW230210   4.199   0.890  11.384 -0.8447  1.5363  0.9158
 6251SOL     OW30211   3.811   0.300   9.537  0.4085  0.0103 -0.0950
 6251SOL    HW130212   3.833   0.377   9.484 -0.8777  0.1476 -0.4240
 6251SOL    HW230213   3.816   0.229   9.473  0.0114 -1.2913  1.3126
 6252SOL     OW30214   1.035   4.390   5.124  0.5911  0.1617  0.2979
 6252SOL    HW130215   1.061   4.435   5.205  1.9691  2.3558 -1.3704
 6252SOL    HW230216   0.942   4.412   5.117 -0.1233 -2.4233  1.5942
 6253SOL     OW30217   3.444   3.946   7.396 -0.2066 -0.2400 -0.3424
 6253SOL    HW130218   3.488   4.030   7.382 -0.2671 -0.0764  0.4449
 6253SOL    HW230219   3.359   3.971   7.434  1.7902  2.2758  2.4450
 6254SOL     OW30220   2.549   1.668   2.517 -0.4770  0.5565  0.1055
 6254SOL    HW130221   2.580   1.587   2.557  0.5001  0.2407 -1.2571
 6254SOL    HW230222   2.613   1.729   2.555 -1.5055  1.3282  0.5873
 6255SOL     OW30223   0.677   2.993   8.523 -0.7198  0.2983 -0.1356
 6255SOL    HW130224   0.718   2.918   8.479 -1.3852 -0.0001 -0.2425
 6255SOL    HW230225   0.745   3.058   8.543  0.0802 -0.2626 -1.0018
 6256SOL     OW30226   0.204   1.335   8.598  0.1891  0.1799  0.0862
 6256SOL    HW130227   0.279   1.351   8.540  0.9580 -1.4925  0.5996
 6256SOL    HW230228   0.232   1.247   8.624 -0.1992  0.3651  1.0969
 6257SOL     OW30229   0.041   3.166   2.412 -0.2257 -0.0607  0.5566
 6257SOL    HW130230   0.091   3.222   2.471  0.2664  0.8364 -0.6988
 6257SOL    HW230231   0.074   3.193   2.327 -2.0988  0.8734  0.1176
 6258SOL     OW30232   1.020   1.892  10.753 -0.1639 -0.5249  0.2207
 6258SOL    HW130233   1.088   1.861  10.693  0.3468  1.2188 -0.1049
 6258SOL    HW230234   0.948   1.877  10.691 -0.6746 -1.1804  0.9777
 6259SOL     OW30235   3.175   0.199   5.619 -0.3585  0.0537 -0.3329
 6259SOL    HW130236   3.150   0.106   5.624  0.6348 -0.2590 -1.0698
 6259SOL    HW230237   3.121   0.228   5.692 -0.6063  0.7326 -0.7900
 6260SOL     OW30238   3.452   1.946   8.440 -0.7407  0.1280  0.6278
 6260SOL    HW130239   3.488   1.999   8.511 -0.3587 -0.0645  0.5740
 6260SOL    HW230240   3.465   2.012   8.371  2.8918  0.3953  1.6074
 6261SOL     OW30241   3.195   2.760  14.525 -0.2904  0.0131 -0.0140
 6261SOL    HW130242   3.205   2.722  14.612 -0.8189 -1.4506 -0.5976
 6261SOL    HW230243   3.183   2.686  14.465 -2.1822  1.9650 -2.0738
 6262SOL     OW30244   1.721   3.769   3.839 -0.2888 -0.2669  0.0291
 6262SOL    HW130245   1.686   3.707   3.774 -0.7484 -1.5541  1.5079
 6262SOL    HW230246   1.734   3.717   3.918  0.4769 -2.0744 -1.2647
 6263SOL     OW30247   1.282   3.376  17.608  0.4408  0.1528 -0.0938
 6263SOL    HW130248   1.322   3.319  17.674 -0.7954 -1.1394 -0.4823
 6263SOL    HW230249   1.338   3.370  17.531  2.3253  1.8435  1.1303
 6264SOL     OW30250   0.717   2.120   5.712  0.0355  0.3421 -0.1269
 6264SOL    HW130251   0.694   2.078   5.795 -0.6939 -1.3569 -1.1819
 6264SOL    HW230252   0.657   2.078   5.650 -1.4519  0.5417  1.1698
 6265SOL     OW30253   3.553   3.840   2.047 -0.2896  0.2466  0.3893
 6265SOL    HW130254   3.491   3.910   2.067  0.2809  0.8678  0.0098
 6265SOL    HW230255   3.640   3.876   2.067 -1.3315  2.3023  1.2626
 6266SOL     OW30256   0.424   4.060   3.250 -0.2071  0.3735  0.1102
 6266SOL    HW130257   0.519   4.054   3.261  0.2947  1.9059 -3.2320
 6266SOL    HW230258   0.397   4.018   3.332 -0.5233  2.6797  1.1899
 6267SOL     OW30259   4.046   3.216  13.615 -0.0985 -0.2926 -0.9072
 6267SOL    HW130260   4.018   3.124  13.608 -1.7086  0.2868 -1.8017
 6267SOL    HW230261   3.974   3.263  13.657 -0.5257 -1.0757 -0.7479
 6268SOL     OW30262   3.419   3.174   5.173 -0.0802  1.0042 -0.4369
 6268SOL    HW130263   3.373   3.114   5.114 -0.6389 -0.0919  1.1354
 6268SOL    HW230264   3.497   3.197   5.123  0.2176 -0.4926 -0.6724
 6269SOL     OW30265   1.703   3.238  10.562 -0.1049  0.0575 -0.5032
 6269SOL    HW130266   1.732   3.255  10.472 -2.1323  0.9002 -1.0077
 6269SOL    HW230267   1.758   3.168  10.596  0.4970  1.2963  1.1129
 6270SOL     OW30268   1.417   3.751  16.231 -0.4060  0.1966  0.5448
 6270SOL    HW130269   1.419   3.846  16.218 -0.8654 -0.1011 -1.7244
 6270SOL    HW230270   1.428   3.759  16.326  1.0507  1.0524  0.3000
 6271SOL     OW30271   4.426   2.824   8.886  0.0395  0.5378 -0.1638
 6271SOL    HW130272   4.395   2.765   8.954  3.7525 -1.3456 -0.1113
 6271SOL    HW230273   4.409   2.906   8.933 -0.4316  0.7270 -0.6618
 6272SOL     OW30274   1.176   4.209   8.479 -0.3347 -0.0470 -0.1049
 6272SOL    HW130275   1.144   4.136   8.426  0.4648 -0.7800  0.4094
 6272SOL    HW230276   1.266   4.214   8.446 -0.5349 -1.0378 -0.7969
 6273SOL     OW30277   0.009   2.379  14.139 -0.5444  0.3566 -0.3669
 6273SOL    HW130278   4.660   2.361  14.201 -0.8861  0.3778 -0.7574
 6273SOL    HW230279   4.678   2.418  14.070 -1.5816 -1.5363 -0.6323
 6274SOL     OW30280   1.626   0.956  10.937 -0.0649 -0.3133 -0.3575
 6274SOL    HW130281   1.577   0.891  10.884 -4.2655  2.6853 -0.1591
 6274SOL    HW230282   1.615   1.033  10.882 -0.9036  0.8993  1.5249
 6275SOL     OW30283   0.770   4.442  17.412 -0.4251  0.0900  0.6601
 6275SOL    HW130284   0.829   4.509  17.448 -0.0799 -0.7228  1.6114
 6275SOL    HW230285   0.697   4.446  17.474 -0.4901 -0.5503  0.6250
 6276SOL     OW30286   3.381   3.943  16.689  0.1993 -0.3861 -0.6561
 6276SOL    HW130287   3.356   3.905  16.773 -1.9074 -0.0612 -1.1253
 6276SOL    HW230288   3.405   3.860  16.648 -2.4033 -0.7972 -1.4060
 6277SOL     OW30289   1.933   1.571   3.885 -0.4942 -0.0995 -0.4157
 6277SOL    HW130290   1.844   1.602   3.905 -0.3039 -0.7346  1.4356
 6277SOL    HW230291   1.956   1.635   3.817  2.1645 -1.1821 -0.4958
 6278SOL     OW30292   4.139   4.578   5.284  0.1710  0.1752  0.4834
 6278SOL    HW130293   4.101   4.517   5.220 -1.9954  3.0146 -0.8930
 6278SOL    HW230294   4.110   4.653   5.233 -2.0193 -0.4112  0.8486
 6279SOL     OW30295   0.171   2.338   7.537 -0.0596  0.1007 -0.1618
 6279SOL    HW130296   0.262   2.313   7.554 -0.4885 -2.4503 -1.5623
 6279SOL    HW230297   0.150   2.312   7.448 -0.6269 -2.3475  0.6867
 6280SOL     OW30298   2.272   1.458   2.198  0.1114 -0.2906 -0.2834
 6280SOL    HW130299   2.342   1.416   2.248 -0.8478 -2.3408 -0.6709
 6280SOL    HW230300   2.326   1.523   2.153 -0.7904  0.0017 -0.9414
 6281SOL     OW30301   0.050   1.641   7.657 -0.2146  0.6487  0.6069
 6281SOL    HW130302   0.145   1.641   7.640 -0.8450  0.9016 -2.9956
 6281SOL    HW230303   0.059   1.640   7.752 -0.4015 -1.0558  0.5974
 6282SOL     OW30304   2.957   0.802   0.766  0.5780 -0.0997 -0.2997
 6282SOL    HW130305   2.924   0.739   0.702  1.2940  0.4812 -1.2422
 6282SOL    HW230306   2.935   0.882   0.717  0.4002  1.0367  1.6459
 6283SOL     OW30307   0.474   2.463   4.207  0.5190  0.3451  0.0508
 6283SOL    HW130308   0.533   2.516   4.260  0.1245 -2.2110  3.0547
 6283SOL    HW230309   0.391   2.503   4.233 -0.0621 -0.6746 -0.2215
 6284SOL     OW30310   1.296   1.887   5.901 -0.3575 -0.3849  0.0206
 6284SOL    HW130311   1.258   1.973   5.917 -3.9986 -1.8538 -0.8714
 6284SOL    HW230312   1.321   1.859   5.990 -1.8619 -2.1739 -0.1288
 6285SOL     OW30313   3.516   3.251   5.667 -0.1955  0.8888  0.3490
 6285SOL    HW130314   3.569   3.173   5.680 -0.3834  0.6462 -0.3458
 6285SOL    HW230315   3.579   3.315   5.700  0.3153  1.2248 -1.2991
 6286SOL     OW30316   3.684   4.212  14.585 -0.0114 -0.1036  0.0176
 6286SOL    HW130317   3.607   4.257  14.552  1.5461  1.5846 -1.2699
 6286SOL    HW230318   3.747   4.250  14.524 -0.7979  0.3703 -0.4891
 6287SOL     OW30319   4.558   2.617   5.961 -0.2611  0.4995  0.2188
 6287SOL    HW130320   4.489   2.573   5.912  0.8804  0.6988 -1.5830
 6287SOL    HW230321   4.551   2.590   6.053  0.0591 -1.0788 -0.2164
 6288SOL     OW30322   4.123   2.945   3.797  0.4342 -0.2061  0.2018
 6288SOL    HW130323   4.131   2.962   3.703 -0.9838  0.1340  0.1367
 6288SOL    HW230324   4.028   2.957   3.802  0.1283 -0.8638 -3.8669
 6289SOL     OW30325   4.593   1.378   7.183  0.4409  0.1546 -0.1781
 6289SOL    HW130326   4.590   1.338   7.270  1.1520 -1.5201 -0.9204
 6289SOL    HW230327   4.663   1.442   7.192  1.0837 -0.7013  0.8378
 6290SOL     OW30328   3.769   1.633   5.538  0.1088 -0.8113  0.1232
 6290SOL    HW130329   3.721   1.585   5.471 -1.6187  4.8969 -2.8007
 6290SOL    HW230330   3.740   1.724   5.524  0.1486 -1.1065 -1.8071
 6291SOL     OW30331   1.109   2.611   6.822  0.3210  0.1444 -0.0182
 6291SOL    HW130332   1.164   2.535   6.802  0.0298  0.2690 -1.2774
 6291SOL    HW230333   1.174   2.680   6.826 -0.2657  0.8304 -2.7882
 6292SOL     OW30334   3.164   1.738   7.031 -0.4021 -0.3144  0.4041
 6292SOL    HW130335   3.148   1.814   7.087 -1.7868  1.6390 -2.6684
 6292SOL    HW230336   3.127   1.665   7.081  0.5128 -0.6923  0.5302
 6293SOL     OW30337   4.603   1.955   3.873 -0.2251 -0.1382  0.2553
 6293SOL    HW130338   4.527   1.957   3.931 -0.2356  2.8968  0.1263
 6293SOL    HW230339   4.673   1.943   3.939 -1.6247 -1.6601  1.4702
 6294SOL     OW30340   1.034   0.167  12.469 -0.3111  0.0689 -0.2669
 6294SOL    HW130341   0.991   0.158  12.384 -2.0297 -0.3689  0.6528
 6294SOL    HW230342   1.079   0.252  12.462  0.0931 -0.2625 -1.6888
 6295SOL     OW30343   3.082   3.237   5.565  0.3557  0.0682 -0.4449
 6295SOL    HW130344   3.083   3.331   5.585  1.7493 -0.1178  0.3753
 6295SOL    HW230345   3.171   3.240   5.530  0.8690  1.4504  0.9791
 6296SOL     OW30346   2.901   0.347   1.745  0.4952  0.0494 -0.0717
 6296SOL    HW130347   2.874   0.298   1.667 -2.2058 -0.4347  1.1940
 6296SOL    HW230348   2.996   0.343   1.734  0.9743  2.6966  3.1585
 6297SOL     OW30349   0.931   1.549   2.336 -0.0768 -0.1273  0.6358
 6297SOL    HW130350   0.977   1.534   2.253 -1.7109 -1.0222 -0.1208
 6297SOL    HW230351   0.855   1.593   2.297 -0.2792 -2.0178 -1.0825
 6298SOL     OW30352   1.793   3.590   5.838 -0.2384  0.3448 -0.3876
 6298SOL    HW130353   1.819   3.515   5.892 -0.6877  0.6325  0.2341
 6298SOL    HW230354   1.697   3.582   5.835 -0.0390 -1.7771 -1.1947
 6299SOL     OW30355   2.134   1.955  10.649  0.1418  0.5110  0.4315
 6299SOL    HW130356   2.211   1.918  10.691 -0.3997  0.6336  1.5571
 6299SOL    HW230357   2.151   2.044  10.618  1.7246  0.4251  1.0727
 6300SOL     OW30358   1.303   0.428   6.193  0.4139 -0.4035 -0.7390
 6300SOL    HW130359   1.335   0.337   6.189  0.1657 -0.5021 -0.4603
 6300SOL    HW230360   1.274   0.434   6.102  1.5905 -0.3098 -1.1146
 6301SOL     OW30361   1.477   0.386   2.762  0.0130  0.2508  0.6860
 6301SOL    HW130362   1.398   0.439   2.754 -0.6030 -0.8389 -0.3877
 6301SOL    HW230363   1.529   0.449   2.812  0.7193  0.1619  0.0585
 6302SOL     OW30364   1.307   1.476   2.873 -0.2212  0.3012  0.2860
 6302SOL    HW130365   1.397   1.481   2.906 -0.5667 -1.9304  1.5463
 6302SOL    HW230366   1.284   1.569   2.874  2.2077  0.9075 -0.5445
 6303SOL     OW30367   3.399   2.601  12.894  0.5222  0.7987  0.6123
 6303SOL    HW130368   3.357   2.598  12.980  0.1718 -2.7043  0.2897
 6303SOL    HW230369   3.337   2.645  12.835  0.7369 -2.9766 -2.3666
 6304SOL     OW30370   0.129   4.360   7.678 -0.3734  0.3946 -0.4029
 6304SOL    HW130371   0.146   4.321   7.764 -0.4513  0.2560 -0.4502
 6304SOL    HW230372   0.054   4.418   7.693 -0.5357  0.3061 -0.8570
 6305SOL     OW30373   3.815   0.079  17.216 -0.4977  0.4517 -0.4887
 6305SOL    HW130374   3.745   0.025  17.253  1.0872 -0.2981  1.4293
 6305SOL    HW230375   3.774   0.105  17.133  2.0484  1.4942 -1.4247
 6306SOL     OW30376   3.712   1.087   6.864 -0.1137 -0.4530 -0.3326
 6306SOL    HW130377   3.795   1.042   6.852  1.0162  1.3954  0.5897
 6306SOL    HW230378   3.640   1.028   6.838 -0.6257 -1.1866  2.7306
 6307SOL     OW30379   2.740   2.339  15.414 -0.3359  0.4444  0.2061
 6307SOL    HW130380   2.741   2.428  15.449  0.1042  0.5717 -0.1383
 6307SOL    HW230381   2.700   2.356  15.329 -2.4256 -0.1338  1.0620
 6308SOL     OW30382   4.689   2.715   5.537 -0.6799  0.2481 -0.1059
 6308SOL    HW130383   0.030   2.777   5.500 -1.0159  2.4340  3.0077
 6308SOL    HW230384   0.019   2.687   5.611 -1.4278  0.1759  0.3963
 6309SOL     OW30385   1.968   1.890   5.292  0.1664  0.7020  0.5650
 6309SOL    HW130386   1.928   1.806   5.272 -0.0714  0.8408  0.4491
 6309SOL    HW230387   1.896   1.952   5.282 -1.9851 -1.6661  1.3788
 6310SOL     OW30388   1.718   1.471  14.210 -0.7324 -0.3282  0.2455
 6310SOL    HW130389   1.687   1.516  14.289  0.7250 -1.2912  1.3533
 6310SOL    HW230390   1.781   1.409  14.247 -1.4394 -0.2893  1.5193
 6311SOL     OW30391   2.947   1.160  14.661  0.8239 -0.3457  0.0998
 6311SOL    HW130392   2.991   1.242  14.682  0.6061 -0.2461  0.1602
 6311SOL    HW230393   2.882   1.200  14.604 -2.2572 -2.7726  1.9055
 6312SOL     OW30394   0.658   0.382  14.578  0.2909  0.1720 -0.2153
 6312SOL    HW130395   0.657   0.413  14.487 -3.6136 -0.0477 -0.2740
 6312SOL    HW230396   0.563   0.378  14.594  0.8128 -0.5406  2.7221
 6313SOL     OW30397   3.419   4.160   4.395 -0.3945 -0.0526 -0.6647
 6313SOL    HW130398   3.463   4.240   4.366 -0.6360  1.3951  2.8999
 6313SOL    HW230399   3.363   4.147   4.318  0.0057  0.9535 -1.1253
 6314SOL     OW30400   0.748   2.147   3.529 -0.5072  0.2041 -0.2578
 6314SOL    HW130401   0.660   2.183   3.524  0.0943  1.6544 -0.3646
 6314SOL    HW230402   0.785   2.192   3.453  1.6534  1.3102  1.4206
 6315SOL     OW30403   3.807   3.978   2.110  0.0608  0.3643 -0.1805
 6315SOL    HW130404   3.895   3.947   2.132  0.0130  0.2882 -0.0963
 6315SOL    HW230405   3.816   4.074   2.108  1.7211  0.2436  1.4095
 6316SOL     OW30406   1.935   2.243   3.762  0.5837  0.0320 -0.6142
 6316SOL    HW130407   1.937   2.179   3.834 -2.0313  0.4742 -0.1474
 6316SOL    HW230408   1.949   2.183   3.688  0.7680  1.4356 -1.7277
 6317SOL     OW30409   3.631   0.085   6.939  0.1065 -0.4051 -0.5023
 6317SOL    HW130410   3.573   0.080   6.863 -1.5257  1.0049  0.6470
 6317SOL    HW230411   3.615   0.176   6.962 -1.2882 -1.0581  1.1503
 6318SOL     OW30412   3.744   1.566   5.896  0.2354 -0.6169 -0.0840
 6318SOL    HW130413   3.782   1.650   5.920 -1.4888 -0.2037  1.1692
 6318SOL    HW230414   3.725   1.581   5.803 -1.5574  0.0979  0.4035
 6319SOL     OW30415   0.686   4.006   3.206 -0.6350  0.6485 -0.0942
 6319SOL    HW130416   0.688   3.912   3.226  0.5867  0.4916 -0.9114
 6319SOL    HW230417   0.772   4.042   3.229  0.4596 -2.2121  0.3249
 6320SOL     OW30418   0.732   0.367  12.290 -0.6586  0.0495  0.2092
 6320SOL    HW130419   0.670   0.438  12.307  1.1509  1.5439  0.5333
 6320SOL    HW230420   0.680   0.327  12.220  1.5556  1.2346 -2.0979
 6321SOL     OW30421   3.397   3.162   3.683 -0.3495 -0.0206 -0.0839
 6321SOL    HW130422   3.346   3.190   3.759 -0.2011  0.2512 -0.0839
 6321SOL    HW230423   3.326   3.150   3.619 -1.6504 -0.7554  1.5034
 6322SOL     OW30424   4.029   0.834   7.926 -0.1759 -0.3895 -0.7244
 6322SOL    HW130425   4.031   0.929   7.930 -0.3017 -0.3316 -2.1824
 6322SOL    HW230426   4.029   0.809   7.834 -1.0402 -0.4172 -0.7173
 6323SOL     OW30427   3.029   1.824   3.508 -0.1308 -0.2516 -0.6816
 6323SOL    HW130428   3.073   1.879   3.443 -1.6344 -0.9220 -2.2640
 6323SOL    HW230429   3.062   1.849   3.594  0.8608 -1.2584 -0.7544
 6324SOL     OW30430   4.553   0.859   9.776  0.6189  0.0723 -0.3674
 6324SOL    HW130431   4.593   0.854   9.689  1.3422  0.9823 -0.0992
 6324SOL    HW230432   4.614   0.795   9.812  1.7667  1.3577 -0.0175
 6325SOL     OW30433   0.522   1.936   2.557  0.2474  0.4664  0.0019
 6325SOL    HW130434   0.597   1.877   2.558 -1.9008 -2.2838 -1.8063
 6325SOL    HW230435   0.457   1.881   2.601  0.9805  0.8247  1.5400
 6326SOL     OW30436   3.376   3.308  12.606 -0.3882 -0.0323  0.3497
 6326SOL    HW130437   3.302   3.252  12.628  0.1677 -0.8366  0.1392
 6326SOL    HW230438   3.449   3.247  12.613  1.6757  2.3885  0.0447
 6327SOL     OW30439   2.886   1.117  15.751  0.1391  0.0357  0.3509
 6327SOL    HW130440   2.934   1.141  15.830  1.3349  2.5714 -1.1379
 6327SOL    HW230441   2.947   1.160  15.691  1.2026 -1.7194  0.1751
 6328SOL     OW30442   3.790   1.817   6.119  0.0520  0.2428  0.0402
 6328SOL    HW130443   3.819   1.816   6.028  0.0594 -2.5432  0.0611
 6328SOL    HW230444   3.716   1.877   6.115 -0.2954 -0.2314 -0.7450
 6329SOL     OW30445   2.739   0.053  16.721  0.1005 -0.4765  0.1836
 6329SOL    HW130446   2.787   0.131  16.749  0.4407 -1.5380  2.5432
 6329SOL    HW230447   2.681   0.089  16.653 -1.5345 -0.6756  1.4769
 6330SOL     OW30448   4.381   3.812   4.202 -0.3182 -0.1967  0.0387
 6330SOL    HW130449   4.380   3.894   4.252  0.4128  0.0090 -0.2837
 6330SOL    HW230450   4.369   3.838   4.111 -1.5269 -3.5143 -0.7514
 6331SOL     OW30451   3.886   4.142   5.916 -0.0849 -0.0395  0.0429
 6331SOL    HW130452   3.970   4.098   5.899 -1.3520 -1.5750 -2.2415
 6331SOL    HW230453   3.900   4.233   5.940  0.2992  0.0314 -0.4636
 6332SOL     OW30454   2.840   1.840   5.099 -0.1283 -0.1105  0.3056
 6332SOL    HW130455   2.916   1.787   5.125 -0.5429 -0.1005  1.5274
 6332SOL    HW230456   2.802   1.863   5.184  0.2954 -1.9772  1.0175
 6333SOL     OW30457   3.495   4.681   2.854  0.1622  0.6847  0.0615
 6333SOL    HW130458   3.508   4.623   2.930 -0.6178  0.1888 -0.1734
 6333SOL    HW230459   3.434   0.020   2.896 -1.0125 -0.3626 -0.1144
 6334SOL     OW30460   2.194   4.243   2.501 -0.1758 -0.4932 -0.2820
 6334SOL    HW130461   2.287   4.223   2.490 -0.5731 -2.0381 -0.8403
 6334SOL    HW230462   2.173   4.300   2.427 -2.0651  0.2188  0.8032
 6335SOL     OW30463   2.437   4.140   8.450 -0.3763 -0.9052 -0.0741
 6335SOL    HW130464   2.472   4.148   8.361  0.1376  0.3792  0.2369
 6335SOL    HW230465   2.369   4.076   8.429 -0.3471 -1.6175  2.0349
 6336SOL     OW30466   3.635   4.395   6.087 -0.2198 -0.1204 -0.1366
 6336SOL    HW130467   3.584   4.391   6.168  0.2554  1.8064  0.2680
 6336SOL    HW230468   3.625   4.308   6.049 -0.0024  0.3744 -1.3352
 6337SOL     OW30469   1.719   2.703   6.235 -0.2616  0.1013  0.3669
 6337SOL    HW130470   1.633   2.700   6.194  0.0239  3.0837 -0.4271
 6337SOL    HW230471   1.717   2.629   6.296 -1.3871 -1.6109 -1.7702
 6338SOL     OW30472   1.358   0.671  10.412  0.2557  0.7360 -0.0956
 6338SOL    HW130473   1.295   0.722  10.361 -3.5913 -0.6444  3.3119
 6338SOL    HW230474   1.425   0.655  10.346 -0.1440 -0.4301 -0.2094
 6339SOL     OW30475   1.001   4.667   3.862  0.2015 -0.2722  0.2150
 6339SOL    HW130476   0.929   4.605   3.860 -0.2566  0.2175  1.5056
 6339SOL    HW230477   1.050   4.641   3.784  0.3839  0.4718  0.0773
 6340SOL     OW30478   0.514   4.199  17.406 -0.2498  0.1273  0.8843
 6340SOL    HW130479   0.538   4.274  17.459  1.2046  0.8460 -0.7885
 6340SOL    HW230480   0.542   4.125  17.460  1.5773  2.3875  2.9597
 6341SOL     OW30481   4.059   3.932  15.627  0.2031 -0.0939  0.2433
 6341SOL    HW130482   4.140   3.895  15.591  0.6617  1.4158 -0.2539
 6341SOL    HW230483   4.028   3.989  15.557 -1.5711 -1.4289 -0.0596
 6342SOL     OW30484   3.174   2.437  17.232  0.2398 -0.0041  0.0054
 6342SOL    HW130485   3.110   2.503  17.204 -2.3235 -2.2672  0.5424
 6342SOL    HW230486   3.120   2.358  17.228  0.4629 -0.1018 -1.2075
 6343SOL     OW30487   3.786   2.945  13.822  0.0030 -0.8559 -0.0875
 6343SOL    HW130488   3.814   2.996  13.898  0.2898  1.3326 -1.6471
 6343SOL    HW230489   3.765   3.026  13.776  0.1677 -0.7253  0.0688
 6344SOL     OW30490   4.213   1.340   6.067 -0.1631 -0.7716  0.0226
 6344SOL    HW130491   4.146   1.276   6.042  0.1885 -1.0274 -0.2693
 6344SOL    HW230492   4.188   1.350   6.159 -0.5161 -0.9048 -0.0549
 6345SOL     OW30493   1.501   1.073   5.412  0.1390 -0.0291 -0.5412
 6345SOL    HW130494   1.487   1.017   5.488  1.7615  2.3756  1.5056
 6345SOL    HW230495   1.501   1.160   5.453  0.5078 -0.0972 -0.4022
 6346SOL     OW30496   0.662   3.476  16.581 -0.7281  0.0850 -0.4756
 6346SOL    HW130497   0.723   3.479  16.507  1.8847 -1.8494  1.5944
 6346SOL    HW230498   0.656   3.570  16.592  1.5144 -0.0677  1.8370
 6347SOL     OW30499   1.963   3.125   2.712  0.1957  0.2498  0.4555
 6347SOL    HW130500   1.957   3.184   2.788 -1.5819 -1.0180  1.3056
 6347SOL    HW230501   1.942   3.042   2.755 -0.1236  0.1661  0.1372
 6348SOL     OW30502   4.132   3.213   7.795  0.0138  0.2873  0.6903
 6348SOL    HW130503   4.150   3.292   7.744  0.9552  0.4822  1.3218
 6348SOL    HW230504   4.207   3.163   7.761 -0.0376  1.0667 -0.5853
 6349SOL     OW30505   2.908   4.478   3.598 -0.4741 -0.3078 -0.1138
 6349SOL    HW130506   2.820   4.506   3.571 -0.5065 -0.9700 -0.7133
 6349SOL    HW230507   2.891   4.433   3.681 -1.0629  0.0221 -0.0514
 6350SOL     OW30508   2.436   3.753  15.267 -0.7092  0.1345 -0.1628
 6350SOL    HW130509   2.458   3.668  15.230 -0.5453 -0.1503  0.5821
 6350SOL    HW230510   2.499   3.809  15.221  0.2746  0.0256  1.0400
 6351SOL     OW30511   4.049   3.307   3.271 -0.1735  0.3368 -0.0532
 6351SOL    HW130512   4.047   3.214   3.248 -1.4145  0.6124 -1.0816
 6351SOL    HW230513   3.978   3.308   3.334  1.0393 -0.0928  1.3127
 6352SOL     OW30514   2.331   3.726   7.877  0.1565  0.0419 -0.1191
 6352SOL    HW130515   2.336   3.677   7.795 -2.8596 -0.3387 -0.0648
 6352SOL    HW230516   2.238   3.711   7.896 -0.0130 -2.2361 -2.6951
 6353SOL     OW30517   2.100   4.209   0.742  0.0319  0.1197 -0.4708
 6353SOL    HW130518   2.157   4.254   0.680  0.2032 -0.6100 -0.8349
 6353SOL    HW230519   2.150   4.133   0.770  3.2148  1.7512 -1.7507
 6354SOL     OW30520   2.648   3.667   1.567 -0.4917  0.4218 -0.2486
 6354SOL    HW130521   2.641   3.763   1.565  0.6113  0.5051 -0.2895
 6354SOL    HW230522   2.558   3.645   1.544 -0.1071 -0.2187 -1.1551
 6355SOL     OW30523   1.454   2.822  14.761 -0.3248  0.8122  0.1019
 6355SOL    HW130524   1.489   2.823  14.849 -0.6032 -0.3322  0.2192
 6355SOL    HW230525   1.359   2.817  14.777 -0.1419 -0.3611  0.7926
 6356SOL     OW30526   2.358   1.055   0.962 -0.1202  0.2064 -0.0124
 6356SOL    HW130527   2.275   1.074   0.919 -0.4424 -2.0195 -0.3825
 6356SOL    HW230528   2.404   1.136   0.940 -2.7234  1.9375  0.9598
 6357SOL     OW30529   2.600   3.270  16.857 -0.5591  0.0741  0.1610
 6357SOL    HW130530   2.629   3.263  16.766 -1.8433  0.6655 -0.3015
 6357SOL    HW230531   2.562   3.183  16.874 -2.8969  1.1819  0.6552
 6358SOL     OW30532   2.027   2.837   6.572 -0.3532 -0.1544 -0.4930
 6358SOL    HW130533   1.969   2.767   6.602  1.2241 -1.1604  0.2213
 6358SOL    HW230534   2.059   2.798   6.490 -1.8034  1.5695 -1.8732
 6359SOL     OW30535   3.688   0.942   5.662 -0.0357 -0.0542  0.2640
 6359SOL    HW130536   3.642   1.021   5.633  0.3593 -0.0599 -0.3574
 6359SOL    HW230537   3.652   0.872   5.607  0.5997  1.9524 -2.6747
 6360SOL     OW30538   2.663   1.626   7.535 -0.8405 -0.5092  0.0307
 6360SOL    HW130539   2.676   1.544   7.488  0.4255 -0.2928 -0.0042
 6360SOL    HW230540   2.568   1.636   7.525 -0.9762 -2.3785 -0.5987
 6361SOL     OW30541   3.252   1.282   9.457 -0.3984  0.3665  0.3717
 6361SOL    HW130542   3.298   1.238   9.529  0.1382 -0.9917 -0.7977
 6361SOL    HW230543   3.198   1.339   9.511 -1.0073 -0.3757  0.5387
 6362SOL     OW30544   2.477   1.764   3.551  0.1132  0.2534  1.2106
 6362SOL    HW130545   2.556   1.714   3.533  0.2671  0.9765 -0.1215
 6362SOL    HW230546   2.449   1.772   3.460 -3.6087  0.3609  2.3461
 6363SOL     OW30547   1.005   2.214   7.275 -0.7391 -0.4788  0.2231
 6363SOL    HW130548   0.955   2.154   7.330 -1.0411  1.8100  2.4204
 6363SOL    HW230549   0.956   2.207   7.193 -2.0103  2.8873  0.6970
 6364SOL     OW30550   4.142   1.432   3.002 -0.1377  0.2907 -0.5839
 6364SOL    HW130551   4.079   1.499   2.975 -0.9518 -1.0301 -1.9099
 6364SOL    HW230552   4.113   1.414   3.092  1.8473  2.6418  0.5374
 6365SOL     OW30553   3.870   3.672   1.932 -0.4975  0.2544  0.3268
 6365SOL    HW130554   3.823   3.745   1.892  1.3177  1.2451 -0.0140
 6365SOL    HW230555   3.837   3.675   2.022 -0.3161 -3.8206  0.5542
 6366SOL     OW30556   2.883   3.966   6.460  0.7782  0.8212 -0.4052
 6366SOL    HW130557   2.915   4.056   6.448 -1.6463  1.9147  1.3856
 6366SOL    HW230558   2.811   3.970   6.397 -0.3784 -2.1751  0.7190
 6367SOL     OW30559   1.460   0.710   4.820  0.1643 -0.3849  0.3757
 6367SOL    HW130560   1.509   0.675   4.745 -1.2488 -0.8432 -0.3349
 6367SOL    HW230561   1.373   0.720   4.781  0.8062  0.1499 -0.9192
 6368SOL     OW30562   0.520   0.309   2.589  0.6149  0.4396  0.4415
 6368SOL    HW130563   0.451   0.252   2.556 -0.2647  2.3243 -0.9715
 6368SOL    HW230564   0.565   0.339   2.510  1.8455  1.2176  1.4470
 6369SOL     OW30565   2.099   2.096   2.162  0.7269 -0.7262 -0.0257
 6369SOL    HW130566   2.025   2.043   2.192 -0.3395  0.3229 -0.8216
 6369SOL    HW230567   2.119   2.159   2.231  1.1029 -1.8547  0.8976
 6370SOL     OW30568   3.313   2.544   5.044 -0.2151  0.2790 -0.3072
 6370SOL    HW130569   3.324   2.616   5.106 -0.2018 -0.0630  0.0878
 6370SOL    HW230570   3.220   2.556   5.022 -0.7454  0.3685  2.0107
 6371SOL     OW30571   3.877   3.240   5.521  0.0278 -0.1691 -0.5591
 6371SOL    HW130572   3.873   3.149   5.552  1.2128  0.4849  1.4917
 6371SOL    HW230573   3.968   3.255   5.546  0.5074 -1.8981 -1.2399
 6372SOL     OW30574   0.215   2.948   2.655 -0.1158 -0.2861 -0.6776
 6372SOL    HW130575   0.136   2.936   2.602 -0.2455 -1.2292 -0.2655
 6372SOL    HW230576   0.280   2.954   2.585  1.1447  0.1672  0.5429
 6373SOL     OW30577   1.102   2.449   8.419 -0.1284  0.4638  0.5634
 6373SOL    HW130578   1.083   2.355   8.412  0.6200  0.4613 -1.4895
 6373SOL    HW230579   1.046   2.482   8.349  0.6824  1.2620  0.2925
 6374SOL     OW30580   3.570   4.614   2.001 -0.6347 -1.2428 -0.0074
 6374SOL    HW130581   3.475   4.614   1.992 -0.4111 -3.2557 -2.3119
 6374SOL    HW230582   3.581   4.528   1.961  1.1279 -1.5710  1.1695
 6375SOL     OW30583   0.348   4.609   6.991 -0.0070  0.5769  0.8014
 6375SOL    HW130584   0.341   4.688   6.938  1.3050  0.9837  1.2361
 6375SOL    HW230585   0.307   4.637   7.073 -0.6581  1.7983  0.0632
 6376SOL     OW30586   2.116   0.617   5.949 -0.3165 -0.3736 -0.4308
 6376SOL    HW130587   2.212   0.617   5.948 -0.3239 -0.0475 -0.9190
 6376SOL    HW230588   2.097   0.643   5.859  0.6895 -0.9560 -0.8090
 6377SOL     OW30589   4.587   2.937   3.947 -0.3984  0.7215 -0.5309
 6377SOL    HW130590   4.671   2.948   3.991 -1.1614  0.0283  1.1350
 6377SOL    HW230591   4.531   3.002   3.990  1.0271  1.4973  0.1494
 6378SOL     OW30592   0.283   1.855  14.976 -0.4674 -0.2989  0.2789
 6378SOL    HW130593   0.333   1.905  14.911 -0.0712 -0.5315  0.4005
 6378SOL    HW230594   0.218   1.918  15.005 -0.8743  0.2309 -1.8297
 6379SOL     OW30595   2.890   1.178   7.293  0.0534  0.1409 -0.4258
 6379SOL    HW130596   2.982   1.193   7.316  0.5906 -3.8195 -0.0242
 6379SOL    HW230597   2.872   1.091   7.328 -2.0696 -0.1151 -2.1039
 6380SOL     OW30598   2.251   3.695   3.056  0.1419  0.5410  0.7388
 6380SOL    HW130599   2.222   3.779   3.022 -0.3199  0.6913  1.5148
 6380SOL    HW230600   2.339   3.681   3.019 -0.3571  1.4130 -0.7645
 6381SOL     OW30601   2.669   0.839  11.213  0.0021  0.2435  0.7114
 6381SOL    HW130602   2.641   0.930  11.212  2.0170  0.8873  2.0633
 6381SOL    HW230603   2.721   0.843  11.293 -0.2764 -0.7171  0.9422
 6382SOL     OW30604   4.623   4.185   0.901  0.4112  0.2912  0.4036
 6382SOL    HW130605   4.639   4.101   0.945 -1.1526  0.1735  0.7310
 6382SOL    HW230606   4.552   4.218   0.955 -0.8460  1.7809 -2.1811
 6383SOL     OW30607   2.627   2.424  15.184  0.6827 -0.3571 -0.2711
 6383SOL    HW130608   2.544   2.378  15.176 -0.2580  1.5938 -1.6541
 6383SOL    HW230609   2.596   2.514  15.178  1.0447  0.0201  3.7243
 6384SOL     OW30610   3.673   1.131   4.180 -0.1898 -0.5979 -0.0042
 6384SOL    HW130611   3.580   1.116   4.166 -0.2887 -0.6802  0.7012
 6384SOL    HW230612   3.678   1.153   4.274  0.5200  0.2846 -0.2473
 6385SOL     OW30613   0.375   0.179   0.382  0.0097 -0.7528  0.3873
 6385SOL    HW130614   0.280   0.167   0.393 -0.2329  1.1849  0.4006
 6385SOL    HW230615   0.384   0.272   0.401  1.0732 -0.3978 -1.9986
 6386SOL     OW30616   2.977   2.492  14.881  0.3656 -0.3379  0.3012
 6386SOL    HW130617   2.936   2.441  14.951  1.9042 -1.3094  0.5054
 6386SOL    HW230618   3.026   2.421  14.838 -0.9584  0.0516 -1.8768
 6387SOL     OW30619   2.295   4.708  15.872  0.0966 -1.0045 -0.0134
 6387SOL    HW130620   2.327   4.645  15.937 -1.3416 -1.9380 -0.2038
 6387SOL    HW230621   2.213   4.671  15.838  1.2447 -0.8206 -2.9537
 6388SOL     OW30622   0.722   0.156   4.119 -0.4746 -0.1446 -0.4841
 6388SOL    HW130623   0.634   0.119   4.113 -1.2390  1.5854  0.2966
 6388SOL    HW230624   0.709   0.223   4.186  0.2397 -0.7747  0.2783
 6389SOL     OW30625   3.090   0.508   0.702  0.3611 -0.6711 -0.0332
 6389SOL    HW130626   3.077   0.438   0.638  0.4492  0.8963 -1.7777
 6389SOL    HW230627   3.017   0.569   0.691  0.4354 -0.4629  0.6249
 6390SOL     OW30628   0.800   1.162   7.889  0.2632  0.1149  0.3883
 6390SOL    HW130629   0.751   1.242   7.909 -0.0747  0.6094 -2.4535
 6390SOL    HW230630   0.726   1.121   7.843  0.2805  2.9688 -2.1720
 6391SOL     OW30631   3.639   1.391   2.443 -0.3920  0.0385 -0.0477
 6391SOL    HW130632   3.576   1.396   2.514 -0.5470  0.6832 -0.2347
 6391SOL    HW230633   3.724   1.405   2.485  0.4930 -0.2701 -1.7107
 6392SOL     OW30634   2.299   0.608   7.609  0.1308 -0.2532 -0.0493
 6392SOL    HW130635   2.211   0.583   7.635  0.7806 -2.6023 -0.0759
 6392SOL    HW230636   2.318   0.565   7.525  1.6895 -0.1873  0.2575
 6393SOL     OW30637   1.038   2.101   0.434 -0.3495 -0.3880 -0.6509
 6393SOL    HW130638   1.111   2.133   0.380 -0.7562  0.8141 -0.4671
 6393SOL    HW230639   0.962   2.153   0.410  0.4334  1.0626  0.0086
 6394SOL     OW30640   3.590   2.136   4.116  0.0334  0.1586 -0.4645
 6394SOL    HW130641   3.566   2.173   4.201 -1.6351 -0.8970 -0.4800
 6394SOL    HW230642   3.609   2.218   4.070  3.6457  0.2281  1.1863
 6395SOL     OW30643   0.678   2.351   6.283  0.6410  0.4582 -0.2200
 6395SOL    HW130644   0.702   2.422   6.342 -0.6863  1.5757 -1.0288
 6395SOL    HW230645   0.754   2.345   6.226  0.2674 -1.3835 -0.5444
 6396SOL     OW30646   4.259   4.641  16.513 -0.0316 -0.2821  0.1179
 6396SOL    HW130647   4.338   4.608  16.555 -0.2355  0.7528  1.3226
 6396SOL    HW230648   4.280   0.005  16.476 -2.7093 -0.5835 -2.0924
 6397SOL     OW30649   2.732   0.844   9.379  0.0750  0.2268  0.5442
 6397SOL    HW130650   2.637   0.851   9.366 -0.2058 -2.1599  1.2871
 6397SOL    HW230651   2.732   0.874   9.470 -0.5425  0.9854  0.2989
 6398SOL     OW30652   2.828   2.777  16.167  0.3174  0.2107  0.3549
 6398SOL    HW130653   2.768   2.829  16.221 -0.1123  1.0366 -0.9262
 6398SOL    HW230654   2.894   2.750  16.231  1.2958  1.5608 -0.0755
 6399SOL     OW30655   4.682   3.170   2.741  1.0964  0.4923 -0.2546
 6399SOL    HW130656   4.673   3.080   2.774  1.1272 -0.0537 -1.7266
 6399SOL    HW230657   0.008   3.216   2.810  0.8506 -0.1044  0.3086
 6400SOL     OW30658   2.950   3.831  17.378  0.2789  0.2217  0.3970
 6400SOL    HW130659   3.009   3.897  17.341 -0.0223 -1.2383 -2.6817
 6400SOL    HW230660   3.002   3.751  17.366  0.0637  0.3226 -1.1993
 6401SOL     OW30661   3.513   1.293  10.017  0.5932  1.0713  0.0229
 6401SOL    HW130662   3.480   1.265  10.103  0.4031 -1.8983 -1.0363
 6401SOL    HW230663   3.435   1.257   9.974  0.1034 -0.9884  2.6459
 6402SOL     OW30664   0.198   1.801   4.600  0.2393 -0.4469  0.0296
 6402SOL    HW130665   0.191   1.707   4.615  2.4798 -0.4854  0.8500
 6402SOL    HW230666   0.292   1.817   4.587  0.3703 -0.3407  1.0766
 6403SOL     OW30667   1.232   2.915   2.202  0.5468  0.0052 -0.4985
 6403SOL    HW130668   1.185   2.859   2.263 -0.0705 -0.0299 -1.0170
 6403SOL    HW230669   1.264   2.848   2.141 -0.3260 -0.3287 -0.5781
 6404SOL     OW30670   2.617   2.811   7.715  0.1439  0.0430  0.7020
 6404SOL    HW130671   2.527   2.809   7.747  0.1931 -0.2999  0.8238
 6404SOL    HW230672   2.609   2.778   7.626 -1.2367  2.1053  0.0642
 6405SOL     OW30673   2.925   2.592  15.896  0.1305  0.1089  0.3011
 6405SOL    HW130674   2.869   2.580  15.973 -0.1888 -1.0550 -0.1261
 6405SOL    HW230675   2.901   2.523  15.835  2.2353 -1.3488  1.1349
 6406SOL     OW30676   1.466   1.045   1.044  0.3374 -0.2273 -0.1349
 6406SOL    HW130677   1.532   1.093   0.995 -0.0688  0.4273 -0.0491
 6406SOL    HW230678   1.394   1.108   1.035  1.3535  0.9935  0.2752
 6407SOL     OW30679   3.670   4.342   6.735  0.3332  0.4275 -0.0361
 6407SOL    HW130680   3.691   4.435   6.731 -0.5784  0.6435  0.2815
 6407SOL    HW230681   3.585   4.346   6.691  0.2830  0.1964  0.0379
 6408SOL     OW30682   1.846   0.364   9.921  0.4592  0.5479 -0.0176
 6408SOL    HW130683   1.921   0.333   9.971  1.4723 -0.6721 -2.2811
 6408SOL    HW230684   1.784   0.392   9.989  0.1086  0.9000 -0.4751
 6409SOL     OW30685   4.310   3.097   3.188 -0.1579 -0.8452 -0.2087
 6409SOL    HW130686   4.342   3.182   3.158  1.4391 -0.7220  1.8535
 6409SOL    HW230687   4.220   3.111   3.158 -0.1902 -1.2685 -0.3070
 6410SOL     OW30688   1.488   0.973   6.446  0.2660 -0.4147 -0.3424
 6410SOL    HW130689   1.478   0.971   6.350 -0.7489 -0.8040 -0.2245
 6410SOL    HW230690   1.525   1.060   6.461 -0.4846  0.1708 -1.8834
 6411SOL     OW30691   1.672   4.460  16.076  0.5456 -0.3902 -0.1150
 6411SOL    HW130692   1.670   4.393  16.145 -0.1598  1.8744  2.0439
 6411SOL    HW230693   1.581   4.489  16.074  0.9516  1.0945  2.5840
 6412SOL     OW30694   1.340   0.579  15.395 -0.3365  0.2297  0.4833
 6412SOL    HW130695   1.299   0.585  15.481 -0.8578  4.4651 -0.0480
 6412SOL    HW230696   1.274   0.590  15.326  1.0979 -1.8837 -1.2468
 6413SOL     OW30697   4.317   3.256  13.076  0.2689 -0.3066 -0.3178
 6413SOL    HW130698   4.277   3.291  12.996  0.7416 -0.0634 -0.4475
 6413SOL    HW230699   4.397   3.210  13.051  0.3851  0.0753 -0.6569
 6414SOL     OW30700   3.135   0.012   2.967  0.1715  0.1048 -0.2808
 6414SOL    HW130701   3.219   0.058   2.962  1.1419 -1.7704 -1.6098
 6414SOL    HW230702   3.071   0.077   2.940  0.4925  0.8582  0.8127
 6415SOL     OW30703   2.349   1.316   4.661  0.8650  0.4125 -0.0703
 6415SOL    HW130704   2.331   1.226   4.636  1.0550  0.7279 -1.3727
 6415SOL    HW230705   2.371   1.358   4.577 -0.2317  1.1832  0.0234
 6416SOL     OW30706   2.354   2.265  12.542 -0.7382 -0.0852 -0.3053
 6416SOL    HW130707   2.268   2.274  12.582 -0.2687 -2.8332  1.3427
 6416SOL    HW230708   2.376   2.347  12.497  0.3222  0.8973  1.9778
 6417SOL     OW30709   3.972   2.505  17.444  0.4320  0.4634  0.4722
 6417SOL    HW130710   3.978   2.524  17.350 -1.0882  1.8575  0.6480
 6417SOL    HW230711   3.936   2.417  17.443  1.8359 -0.1313  2.1390
 6418SOL     OW30712   1.059   3.931   2.677  0.1680 -0.0670 -0.3356
 6418SOL    HW130713   1.038   3.844   2.644  1.4839 -1.0028  1.2877
 6418SOL    HW230714   1.131   3.956   2.620 -0.8569 -0.1241 -1.6674
 6419SOL     OW30715   0.227   3.729   1.325  0.5231 -0.4668  0.6106
 6419SOL    HW130716   0.236   3.823   1.343  0.3648 -0.5618  1.1676
 6419SOL    HW230717   0.197   3.689   1.406 -0.7357 -0.4809  0.1418
 6420SOL     OW30718   2.216   0.039   2.663 -0.5053  0.2938 -0.0511
 6420SOL    HW130719   2.131   4.719   2.667  0.2548 -1.3487 -1.1584
 6420SOL    HW230720   2.273   4.693   2.626  0.0218  0.9504 -0.4473
 6421SOL     OW30721   1.675   4.348   8.607 -0.6697  0.1273 -0.2136
 6421SOL    HW130722   1.697   4.279   8.669  0.4588 -0.6548 -1.5020
 6421SOL    HW230723   1.581   4.368   8.610 -0.8396 -0.8224  0.8409
 6422SOL     OW30724   1.764   3.630   2.425 -0.3227  0.4506  0.1838
 6422SOL    HW130725   1.814   3.708   2.402 -1.3283  1.3422  0.9884
 6422SOL    HW230726   1.805   3.576   2.358  0.3301 -0.3630  1.2457
 6423SOL     OW30727   2.822   0.866   3.289  0.0767 -0.6883 -0.7954
 6423SOL    HW130728   2.758   0.795   3.284 -0.0024 -0.5712 -1.4538
 6423SOL    HW230729   2.885   0.850   3.219  1.7110  0.7314  0.3490
 6424SOL     OW30730   3.004   0.080   7.782 -0.2532  0.0048  0.2457
 6424SOL    HW130731   2.964   0.148   7.836  0.2332 -0.8667  1.7224
 6424SOL    HW230732   3.089   0.123   7.778 -0.7484  1.1636  1.9742
 6425SOL     OW30733   1.971   2.556   9.180 -0.2665 -0.7111  0.0794
 6425SOL    HW130734   1.941   2.469   9.153 -0.1113 -0.5720 -0.5417
 6425SOL    HW230735   1.956   2.537   9.272  2.2580  1.1597  0.8717
 6426SOL     OW30736   3.926   2.278   5.017  0.7654  0.4005  0.0109
 6426SOL    HW130737   4.002   2.316   5.062  0.2507  0.8510  0.5054
 6426SOL    HW230738   3.940   2.307   4.927 -0.0309 -0.1335 -0.2841
 6427SOL     OW30739   2.458   2.386   1.625 -0.2991  1.1037 -0.5986
 6427SOL    HW130740   2.464   2.475   1.658  2.2196  0.1528  1.4480
 6427SOL    HW230741   2.512   2.393   1.546 -0.5599 -0.5853 -0.9377
 6428SOL     OW30742   4.039   1.129   4.009  0.7332 -0.4533  0.5804
 6428SOL    HW130743   3.995   1.105   3.928 -0.6617  0.2828  1.1134
 6428SOL    HW230744   4.086   1.209   3.984  0.4624 -0.8328 -1.1298
 6429SOL     OW30745   3.034   3.055   4.338 -0.0400 -0.4396 -0.1208
 6429SOL    HW130746   3.110   3.112   4.348 -1.0199  0.5010  1.9471
 6429SOL    HW230747   3.056   2.978   4.285 -0.5788 -0.2637 -0.5961
 6430SOL     OW30748   0.830   0.267   3.335  0.0076 -0.0929 -0.0868
 6430SOL    HW130749   0.916   0.258   3.377  0.3252 -0.2696 -0.7771
 6430SOL    HW230750   0.768   0.244   3.405 -0.0892  1.0155  0.1896
 6431SOL     OW30751   1.416   0.592   0.282  0.3908 -0.3130  0.4886
 6431SOL    HW130752   1.502   0.557   0.306 -0.6357 -1.6010  2.3122
 6431SOL    HW230753   1.437   0.607   0.190  1.8795 -1.4799  0.6335
 6432SOL     OW30754   2.967   4.158   8.379  0.4968 -0.1795 -0.0541
 6432SOL    HW130755   3.001   4.198   8.299 -1.2629  1.7214  0.1636
 6432SOL    HW230756   2.927   4.233   8.423 -1.1113 -0.6197 -0.7772
 6433SOL     OW30757   3.026   2.326   6.612  0.1496  0.7238  0.1560
 6433SOL    HW130758   3.038   2.371   6.696  0.8683  0.7547  0.0393
 6433SOL    HW230759   3.086   2.367   6.549  0.5593 -0.9331 -0.5381
 6434SOL     OW30760   0.260   4.189   5.602  0.2113  0.1948 -0.1432
 6434SOL    HW130761   0.346   4.148   5.596  0.4960  0.6618  0.6849
 6434SOL    HW230762   0.218   4.151   5.524  0.2420 -0.6632  0.2588
 6435SOL     OW30763   0.053   0.010   2.108 -0.1107  0.0750 -0.0201
 6435SOL    HW130764   0.019   4.643   2.100 -2.7492  1.2545 -1.8958
 6435SOL    HW230765   0.043   0.055   2.025  0.4175  1.7426  0.8235
 6436SOL     OW30766   0.502   0.117   6.188  0.4303  0.2732  0.5898
 6436SOL    HW130767   0.532   0.207   6.176 -1.3484  0.8664  0.5442
 6436SOL    HW230768   0.415   0.130   6.226  0.0068  0.3341 -0.4038
 6437SOL     OW30769   0.315   0.378   1.312 -0.4643 -0.8164 -0.2158
 6437SOL    HW130770   0.397   0.370   1.362  0.8664 -0.7349 -2.3838
 6437SOL    HW230771   0.252   0.339   1.373  0.3343 -0.7765  0.6449
 6438SOL     OW30772   1.531   3.057   3.659 -0.2742  0.0210 -0.5354
 6438SOL    HW130773   1.625   3.047   3.643 -0.1258  0.0764  0.3242
 6438SOL    HW230774   1.510   3.120   3.590 -0.6494 -0.3444 -0.7519
 6439SOL     OW30775   1.893   1.243  10.876 -0.1675 -0.0465  1.1537
 6439SOL    HW130776   1.902   1.313  10.941  0.3556  0.0988  0.9316
 6439SOL    HW230777   1.978   1.200  10.888  0.4660  0.2315 -2.1729
 6440SOL     OW30778   0.984   4.666  14.520  0.2742 -0.4595  0.4951
 6440SOL    HW130779   0.960   4.659  14.613 -0.9307 -0.1753  0.2062
 6440SOL    HW230780   0.912   4.718  14.484  2.5221  2.5007  0.2954
 6441SOL     OW30781   1.552   2.744   8.166  0.0567 -0.1325  0.2067
 6441SOL    HW130782   1.608   2.817   8.191 -0.1522  0.3724 -0.7904
 6441SOL    HW230783   1.612   2.671   8.177  0.3204 -0.1532 -1.4046
 6442SOL     OW30784   2.882   2.969   7.124 -0.2729 -0.3777 -0.0166
 6442SOL    HW130785   2.789   2.954   7.107 -0.7368  0.9868  1.3651
 6442SOL    HW230786   2.913   2.883   7.094  2.5946  0.2629  1.1729
 6443SOL     OW30787   3.973   1.124   6.494 -0.3155 -0.1540 -0.1641
 6443SOL    HW130788   3.917   1.101   6.420 -0.7729  0.5672 -0.0531
 6443SOL    HW230789   3.926   1.202   6.525  1.2163 -0.0570  1.9458
 6444SOL     OW30790   4.220   2.804   4.741 -0.2821  0.0641 -0.1676
 6444SOL    HW130791   4.151   2.841   4.796 -1.1302  0.7039 -1.6890
 6444SOL    HW230792   4.262   2.739   4.798 -1.1505 -1.1244 -0.8769
 6445SOL     OW30793   3.965   0.312   7.729  0.6559  0.2227 -0.0631
 6445SOL    HW130794   3.973   0.316   7.634  0.4094  0.1851 -0.0865
 6445SOL    HW230795   4.026   0.240   7.742 -0.1598 -0.5808 -0.6421
 6446SOL     OW30796   0.607   0.083   8.992  0.5562  0.0826 -0.1068
 6446SOL    HW130797   0.588   0.041   9.076  0.1776  2.1909  0.8714
 6446SOL    HW230798   0.529   0.130   8.963 -0.5655 -1.2294  0.7934
 6447SOL     OW30799   2.008   3.976  14.117  0.0722  0.0757 -0.6543
 6447SOL    HW130800   2.101   3.954  14.123  0.8388  3.3027 -0.4265
 6447SOL    HW230801   1.986   4.026  14.196  0.3649 -0.1885 -0.4043
 6448SOL     OW30802   0.305   3.115   7.047 -0.5913 -0.2992  0.2038
 6448SOL    HW130803   0.381   3.085   7.097 -0.3919 -1.0185 -0.5184
 6448SOL    HW230804   0.239   3.133   7.114 -0.5368  1.9125 -0.3309
 6449SOL     OW30805   0.894   3.415   8.425  0.3419 -0.1584 -0.5259
 6449SOL    HW130806   0.898   3.342   8.363 -0.7016 -1.5594  1.0784
 6449SOL    HW230807   0.921   3.384   8.511  1.0474  2.5897  0.2369
 6450SOL     OW30808   4.191   2.601   2.663 -0.3368  0.1885  0.1363
 6450SOL    HW130809   4.143   2.520   2.647  0.5276 -0.1734 -0.5988
 6450SOL    HW230810   4.122   2.661   2.691 -0.8487 -1.0212  1.4743
 6451SOL     OW30811   2.229   1.986  14.690  0.3152  0.0650 -0.0613
 6451SOL    HW130812   2.192   2.074  14.701 -1.5195 -0.5124 -1.6562
 6451SOL    HW230813   2.304   1.993  14.750  0.6986 -0.3974 -0.4921
 6452SOL     OW30814   1.827   1.529  16.243  0.8047  0.9575  0.0792
 6452SOL    HW130815   1.775   1.605  16.218  1.1301  1.2589  0.3160
 6452SOL    HW230816   1.898   1.574  16.289  2.0660  0.3205 -1.2493
 6453SOL     OW30817   2.653   0.390   1.335  0.0968 -0.1758 -0.4570
 6453SOL    HW130818   2.577   0.368   1.390 -0.0347  1.6603  0.0712
 6453SOL    HW230819   2.631   0.481   1.315 -0.1335 -0.4542 -1.4597
 6454SOL     OW30820   3.819   1.785   3.617  0.4308  0.0086  0.2180
 6454SOL    HW130821   3.758   1.856   3.600 -0.5009 -0.2769  2.3029
 6454SOL    HW230822   3.887   1.820   3.675  1.8568 -1.8148 -0.3461
 6455SOL     OW30823   1.218   4.713  17.671  0.5471  0.2040  0.2890
 6455SOL    HW130824   1.239   4.637  17.617 -0.0803  0.1663  0.1015
 6455SOL    HW230825   1.280   0.056  17.638 -0.6359  0.9338 -0.5013
 6456SOL     OW30826   2.145   1.126   0.784 -0.0231  0.0941 -0.3369
 6456SOL    HW130827   2.122   1.054   0.725 -0.0910 -1.0572  1.0900
 6456SOL    HW230828   2.101   1.196   0.736  0.4803  1.0284  0.5689
 6457SOL     OW30829   0.783   0.120   7.909  0.2061 -0.2993 -0.1623
 6457SOL    HW130830   0.850   0.061   7.875  2.0121  1.4897  0.2540
 6457SOL    HW230831   0.809   0.129   8.000  1.6423 -2.5004 -0.3543
 6458SOL     OW30832   3.552   0.626   8.417 -0.8109  0.1590 -0.0459
 6458SOL    HW130833   3.562   0.710   8.460 -0.5615 -0.8921  1.9692
 6458SOL    HW230834   3.478   0.645   8.360 -1.3333 -0.7224  0.3370
 6459SOL     OW30835   3.671   2.030   3.605  0.5145  0.0395 -0.4862
 6459SOL    HW130836   3.621   2.053   3.527 -0.5886 -1.4575 -0.2111
 6459SOL    HW230837   3.617   2.075   3.670  0.7342  2.9537 -2.2832
 6460SOL     OW30838   2.633   2.767   4.878 -0.2238  0.0257  0.5610
 6460SOL    HW130839   2.644   2.677   4.907 -1.7084  0.2939  1.9546
 6460SOL    HW230840   2.723   2.783   4.851 -1.8768  2.3689 -3.4852
 6461SOL     OW30841   3.596   3.168  12.088  0.3483  0.3785 -0.7085
 6461SOL    HW130842   3.643   3.187  12.007 -2.3479  0.5706 -2.2261
 6461SOL    HW230843   3.607   3.074  12.102 -0.5729  0.2607 -0.7742
 6462SOL     OW30844   1.974   2.506  15.522  0.1664 -0.1641 -0.1465
 6462SOL    HW130845   1.962   2.493  15.428  0.2144 -2.0205  0.1024
 6462SOL    HW230846   1.889   2.542  15.547  0.1464 -1.4995  1.6681
 6463SOL     OW30847   3.431   3.681  10.644  0.0423 -0.4765  0.1302
 6463SOL    HW130848   3.378   3.757  10.622 -1.4196 -1.5721 -0.0972
 6463SOL    HW230849   3.373   3.614  10.609  1.5375 -0.8276 -1.6976
 6464SOL     OW30850   1.686   3.448   6.501 -0.2252 -0.2138 -0.1727
 6464SOL    HW130851   1.730   3.409   6.577  0.2175 -1.4979 -1.1012
 6464SOL    HW230852   1.749   3.422   6.434  0.8861  2.2172 -0.0871
 6465SOL     OW30853   1.041   1.404   0.527  0.4916  0.6975 -0.4408
 6465SOL    HW130854   1.102   1.340   0.563  0.5288 -0.2526 -2.2364
 6465SOL    HW230855   1.009   1.354   0.453  1.0117  1.5634 -1.2490
 6466SOL     OW30856   4.134   1.819  11.972 -0.1175 -0.4967  0.0185
 6466SOL    HW130857   4.141   1.756  11.901  0.4927  2.0966 -2.1937
 6466SOL    HW230858   4.228   1.824  11.991  0.0029 -2.2551 -0.0702
 6467SOL     OW30859   1.848   0.248  14.796  0.2502 -0.1773 -0.2115
 6467SOL    HW130860   1.827   0.193  14.720  0.3822  0.3850 -0.6528
 6467SOL    HW230861   1.839   0.332  14.752 -0.9589 -0.8026 -1.1644
 6468SOL     OW30862   1.089   3.692   7.337  0.3050  0.4183  0.0463
 6468SOL    HW130863   1.126   3.708   7.424  3.0794 -0.1748 -1.0064
 6468SOL    HW230864   0.996   3.710   7.346 -0.0361 -0.9407 -0.6832
 6469SOL     OW30865   2.297   2.864   8.198  0.0476  0.5854  0.6934
 6469SOL    HW130866   2.352   2.825   8.130  1.7877  3.2958  0.5202
 6469SOL    HW230867   2.207   2.843   8.174 -0.1652  2.0102  0.1943
 6470SOL     OW30868   3.374   2.626   1.900  1.0859  0.5823 -0.3912
 6470SOL    HW130869   3.347   2.716   1.918 -0.5941 -0.3061  1.5576
 6470SOL    HW230870   3.289   2.588   1.874  0.7987  0.4318  0.7617
 6471SOL     OW30871   0.064   1.597  13.769  0.5616 -0.0704 -0.4632
 6471SOL    HW130872   0.069   1.681  13.722 -0.6182 -0.4842 -1.3368
 6471SOL    HW230873   0.153   1.601  13.804 -0.4557  0.9342  1.9620
 6472SOL     OW30874   3.586   1.592  15.314  0.3982  0.1630 -0.6239
 6472SOL    HW130875   3.501   1.592  15.360  0.8524  1.4720  0.2210
 6472SOL    HW230876   3.625   1.673  15.347  0.4558 -0.9333  1.9603
 6473SOL     OW30877   0.033   0.196   8.277 -0.1215 -0.3058 -0.3071
 6473SOL    HW130878   0.067   0.106   8.272  1.0172  0.2069 -2.1208
 6473SOL    HW230879   0.112   0.249   8.262 -0.6963  0.5684 -0.2431
 6474SOL     OW30880   4.414   1.003   4.765 -0.0198 -0.4846 -0.1843
 6474SOL    HW130881   4.336   1.035   4.718 -0.1900 -2.0556 -0.9840
 6474SOL    HW230882   4.463   1.085   4.770  0.2076 -0.5465 -1.3713
 6475SOL     OW30883   0.514   3.038   6.269 -0.0235  0.7745  0.2798
 6475SOL    HW130884   0.472   2.952   6.261 -2.2217  1.9528 -0.8211
 6475SOL    HW230885   0.574   3.027   6.343  0.4115  1.2087 -0.0108
 6476SOL     OW30886   4.286   4.132   4.174 -0.1283  0.7668 -0.5619
 6476SOL    HW130887   4.330   4.119   4.258  2.9409  1.4342 -2.0500
 6476SOL    HW230888   4.202   4.174   4.193  0.3273  0.4493  2.1636
 6477SOL     OW30889   0.809   3.206  10.156 -0.0244 -0.6063 -0.2752
 6477SOL    HW130890   0.751   3.171  10.224  1.8795  0.2175  1.7659
 6477SOL    HW230891   0.796   3.300  10.145 -1.5204 -0.5510  1.7982
 6478SOL     OW30892   3.070   1.964   9.270  0.1751 -0.2739  0.2297
 6478SOL    HW130893   3.060   1.870   9.257  0.9372 -0.2486 -0.5117
 6478SOL    HW230894   3.059   1.968   9.365  0.0461 -0.4372  0.2230
 6479SOL     OW30895   0.014   2.916   2.464  0.7806  0.7038 -0.0585
 6479SOL    HW130896   0.020   3.008   2.436 -0.6104 -0.0294 -2.7123
 6479SOL    HW230897   0.068   2.889   2.390 -0.4137  0.0368 -0.6780
 6480SOL     OW30898   2.143   0.334   5.745 -0.1424 -0.0686  0.0764
 6480SOL    HW130899   2.114   0.388   5.671 -1.0633 -0.3039  0.2595
 6480SOL    HW230900   2.189   0.271   5.690 -3.8269 -2.6681 -0.0367
 6481SOL     OW30901   4.563   2.623   4.559  0.5303 -0.1868  0.3067
 6481SOL    HW130902   4.468   2.633   4.551  0.3820 -1.6243  0.1872
 6481SOL    HW230903   4.600   2.683   4.623  0.0116 -0.7976  1.1678
 6482SOL     OW30904   3.036   3.646   8.444  0.7546 -0.5156  0.4286
 6482SOL    HW130905   3.041   3.740   8.464 -2.5877 -0.0794 -0.8533
 6482SOL    HW230906   2.941   3.636   8.447  0.7473 -0.6317 -0.4088
 6483SOL     OW30907   2.573   1.063   4.004 -0.0005 -0.0373  0.4800
 6483SOL    HW130908   2.480   1.053   4.025  0.3246 -1.4107  1.2781
 6483SOL    HW230909   2.591   1.096   4.092 -0.7469 -0.8035  0.9187
 6484SOL     OW30910   1.602   2.183   2.656  0.6608  0.0861  0.3884
 6484SOL    HW130911   1.582   2.166   2.563 -2.0950  0.9021  0.8220
 6484SOL    HW230912   1.532   2.234   2.696 -0.2666  1.5912 -3.1011
 6485SOL     OW30913   0.306   1.633  12.504  0.0441  0.5290  0.0090
 6485SOL    HW130914   0.241   1.686  12.459 -1.5151 -0.6525  0.8508
 6485SOL    HW230915   0.370   1.698  12.532 -0.8814  1.9935 -1.3232
 6486SOL     OW30916   2.382   1.109  13.061 -0.2187 -0.1585  0.4637
 6486SOL    HW130917   2.436   1.181  13.027 -0.8779  0.2880  0.3692
 6486SOL    HW230918   2.353   1.069  12.979  0.9626  1.0688 -0.5496
 6487SOL     OW30919   4.555   2.127   7.936  0.2827 -0.4293 -0.5141
 6487SOL    HW130920   4.538   2.132   8.030 -0.9953 -2.0385 -0.6575
 6487SOL    HW230921   4.533   2.035   7.929  0.8394 -0.6526  0.6389
 6488SOL     OW30922   0.493   3.724   5.015  0.3543 -0.5842  0.2020
 6488SOL    HW130923   0.535   3.706   4.931 -0.4361 -1.7217  0.0607
 6488SOL    HW230924   0.516   3.642   5.058 -0.6421 -0.7341  0.4610
 6489SOL     OW30925   4.580   0.482   2.271 -0.4885 -0.2340 -0.0079
 6489SOL    HW130926   4.496   0.437   2.263  0.3803 -2.0900  1.2345
 6489SOL    HW230927   4.556   0.553   2.330 -2.3643 -0.1078 -0.9286
 6490SOL     OW30928   0.471   1.162   7.490 -0.2262 -0.2325 -0.0967
 6490SOL    HW130929   0.523   1.210   7.426  1.4172 -3.2200 -0.9487
 6490SOL    HW230930   0.393   1.217   7.497 -1.3536 -1.8336 -0.1889
 6491SOL     OW30931   1.749   2.415   1.979 -0.1577 -0.0045  0.6061
 6491SOL    HW130932   1.801   2.335   1.981  2.6373  1.8420  2.1551
 6491SOL    HW230933   1.776   2.465   1.902 -3.0133  0.5864  0.0004
 6492SOL     OW30934   1.277   3.549   5.518 -0.2118 -0.6325 -0.3782
 6492SOL    HW130935   1.304   3.639   5.535 -1.6808 -0.1216 -0.7874
 6492SOL    HW230936   1.232   3.519   5.597 -3.8783 -0.8539 -2.5505
 6493SOL     OW30937   3.991   1.850   7.514 -0.2864 -0.1392  0.3428
 6493SOL    HW130938   3.962   1.759   7.521 -1.3758  0.2399  0.6626
 6493SOL    HW230939   4.033   1.868   7.429  1.1292 -2.1985  0.6114
 6494SOL     OW30940   4.134   2.698  11.390 -0.2159 -0.0533  0.5060
 6494SOL    HW130941   4.211   2.659  11.432 -0.2445  0.9243  1.4737
 6494SOL    HW230942   4.149   2.706  11.296 -3.6020 -0.9602 -0.1001
 6495SOL     OW30943   4.564   1.986   3.186 -0.5073  0.1165  0.4936
 6495SOL    HW130944   4.640   1.963   3.132  0.9496 -0.9256  2.9886
 6495SOL    HW230945   4.603   1.940   3.260 -1.4446 -1.0195  0.2731
 6496SOL     OW30946   3.370   1.484  11.232  0.4146 -0.5364  0.2890
 6496SOL    HW130947   3.406   1.398  11.213 -1.4999 -1.1447 -0.5699
 6496SOL    HW230948   3.278   1.468  11.254 -0.1038 -0.5348 -1.8507
 6497SOL     OW30949   1.020   0.661   5.461  0.3294  0.4061 -0.1881
 6497SOL    HW130950   1.037   0.744   5.417  0.4870  1.3052  1.5451
 6497SOL    HW230951   1.097   0.662   5.519  0.9504  1.8965 -1.0318
 6498SOL     OW30952   2.394   1.990  12.531 -0.2755  0.4308  0.0839
 6498SOL    HW130953   2.404   2.084  12.512 -1.7064  0.4627 -0.5578
 6498SOL    HW230954   2.472   1.969  12.582 -0.9813  2.3175  1.9537
 6499SOL     OW30955   3.292   2.070   4.661  0.3300 -0.0946 -0.5269
 6499SOL    HW130956   3.357   2.118   4.712 -0.8883  1.3441 -0.3398
 6499SOL    HW230957   3.225   2.134   4.637  0.7637 -0.0157 -1.5371
 6500SOL     OW30958   2.189   1.701  14.855  0.1378 -0.3557 -0.0317
 6500SOL    HW130959   2.183   1.637  14.783  1.4213 -0.4676 -0.0418
 6500SOL    HW230960   2.179   1.785  14.809 -2.0145 -0.7502 -0.2936
 6501SOL     OW30961   3.020   3.932   0.389  0.3222  0.3250  0.0751
 6501SOL    HW130962   3.093   3.871   0.380  0.3207  0.3773 -0.2808
 6501SOL    HW230963   3.063   4.017   0.393  0.3430  0.3305 -0.2564
 6502SOL     OW30964   2.683   0.585   2.137  0.3100  0.1401 -0.1439
 6502SOL    HW130965   2.672   0.538   2.219 -1.4998  0.2793 -0.2958
 6502SOL    HW230966   2.778   0.578   2.132  0.3112 -0.2919  0.5098
 6503SOL     OW30967   4.035   2.928  15.455 -0.9870 -0.8929 -0.4504
 6503SOL    HW130968   3.995   2.845  15.482  0.3149 -1.5729 -0.5872
 6503SOL    HW230969   4.089   2.948  15.531 -2.3301 -0.7039  0.4521
 6504SOL     OW30970   4.401   0.607   8.195 -0.5542  0.5448  0.3883
 6504SOL    HW130971   4.342   0.637   8.264 -0.5172  0.6904  0.3570
 6504SOL    HW230972   4.342   0.621   8.120 -0.7295 -2.1039  0.0398
 6505SOL     OW30973   2.022   2.284   3.216 -0.1659 -0.2103  0.1748
 6505SOL    HW130974   1.962   2.356   3.197  0.7111  1.0086  2.0202
 6505SOL    HW230975   2.030   2.292   3.311 -0.8761 -2.2243  0.4072
 6506SOL     OW30976   0.147   2.382   4.019  0.8423 -0.3269 -0.3068
 6506SOL    HW130977   0.093   2.455   3.988 -0.2084 -0.5283  1.0874
 6506SOL    HW230978   0.083   2.325   4.059  1.2137  0.3791  1.2870
 6507SOL     OW30979   2.810   1.094   6.025  0.2220 -0.3131  0.3165
 6507SOL    HW130980   2.826   1.000   6.035 -2.0718 -0.5842  1.5094
 6507SOL    HW230981   2.898   1.125   6.005  0.0200 -0.2330 -0.4553
 6508SOL     OW30982   3.437   1.401   6.271 -0.1607  0.0283  0.1775
 6508SOL    HW130983   3.493   1.437   6.340  1.2386 -0.3991 -0.7434
 6508SOL    HW230984   3.356   1.384   6.320 -2.6125  1.7226 -3.3329
 6509SOL     OW30985   0.161   3.370   9.645  0.2380 -0.2793 -0.1868
 6509SOL    HW130986   0.166   3.465   9.653 -1.4423 -0.1380 -0.9489
 6509SOL    HW230987   0.158   3.344   9.738  2.4146 -1.1583 -0.3468
 6510SOL     OW30988   1.041   1.891   3.050 -0.3659 -0.1822 -0.4103
 6510SOL    HW130989   0.986   1.969   3.051  0.3910  0.3886 -2.3717
 6510SOL    HW230990   0.991   1.843   3.116  0.5955  0.1814  0.5772
 6511SOL     OW30991   4.394   1.944  11.711 -0.0774 -0.3719 -0.0960
 6511SOL    HW130992   4.478   1.898  11.703 -0.1599 -0.9512  2.2650
 6511SOL    HW230993   4.376   1.938  11.805 -0.7477 -1.3055 -0.2875
 6512SOL     OW30994   3.280   4.111  14.352  0.2972 -0.3494 -0.2742
 6512SOL    HW130995   3.320   4.157  14.278 -0.8911 -0.7058 -1.1304
 6512SOL    HW230996   3.196   4.156  14.357  0.5846  0.0481  0.9834
 6513SOL     OW30997   4.594   3.555   7.787  0.1538 -0.2471  0.1265
 6513SOL    HW130998   4.506   3.587   7.771 -0.4289 -1.1166  1.5678
 6513SOL    HW230999   4.639   3.591   7.711  0.0397 -1.1185 -0.3583
 6514SOL     OW31000   0.803   1.584   7.550  0.0987 -0.1419 -0.1484
 6514SOL    HW131001   0.843   1.563   7.634  2.4980  0.1994 -1.2228
 6514SOL    HW231002   0.878   1.622   7.505 -1.0462  1.3360 -0.8208
 6515SOL     OW31003   1.460   1.349   5.475  0.1646  0.1064 -0.1091
 6515SOL    HW131004   1.420   1.398   5.547  1.5079  2.0342 -0.6529
 6515SOL    HW231005   1.453   1.418   5.409 -0.7137 -0.4542 -0.5906
 6516SOL     OW31006   0.144   2.577   8.752  0.2726 -0.3912  0.0354
 6516SOL    HW131007   0.218   2.619   8.795  1.4420  0.7502 -3.0942
 6516SOL    HW231008   0.070   2.600   8.808 -0.6555 -0.5580 -1.1055
 6517SOL     OW31009   3.815   3.885   0.857 -0.0400 -0.3746  0.2769
 6517SOL    HW131010   3.767   3.968   0.853  0.8851  0.2315  1.8029
 6517SOL    HW231011   3.748   3.820   0.834  0.7181 -0.3817 -1.9182
 6518SOL     OW31012   0.453   1.375  11.186  0.0880 -0.7512 -0.1233
 6518SOL    HW131013   0.530   1.323  11.165  2.2568  1.6752  1.7527
 6518SOL    HW231014   0.481   1.447  11.243 -1.3008 -0.5344  0.2970
 6519SOL     OW31015   3.157   2.494   2.127 -0.0650 -0.4736 -0.0605
 6519SOL    HW131016   3.240   2.493   2.175 -0.3103 -1.0974  0.3494
 6519SOL    HW231017   3.153   2.408   2.085 -0.9993 -1.0831  1.2822
 6520SOL     OW31018   4.611   2.486  15.373 -0.8645  0.7137  0.1557
 6520SOL    HW131019   4.672   2.536  15.319 -0.3376  0.7519  0.7947
 6520SOL    HW231020   4.524   2.508  15.339 -0.9696 -2.0666 -1.3472
 6521SOL     OW31021   0.209   2.781  10.761 -0.0481  0.3500  0.9590
 6521SOL    HW131022   0.286   2.728  10.777 -2.9675 -4.1308  0.0864
 6521SOL    HW231023   0.145   2.744  10.822 -1.1911  0.0054 -0.4306
 6522SOL     OW31024   3.481   1.006   6.363 -0.0623  0.3953  0.7224
 6522SOL    HW131025   3.404   0.949   6.357  1.4544 -1.6412  0.7284
 6522SOL    HW231026   3.554   0.956   6.400  1.4158  1.3024 -1.0003
 6523SOL     OW31027   2.456   3.729   1.837 -0.5424  0.8117  0.0086
 6523SOL    HW131028   2.456   3.800   1.772 -3.0509 -2.0247 -3.0454
 6523SOL    HW231029   2.438   3.657   1.777 -0.8983 -1.3271  2.6666
 6524SOL     OW31030   0.242   2.006  11.925  0.0269  0.1039  0.2131
 6524SOL    HW131031   0.243   2.099  11.902  0.0226  0.1067  0.2239
 6524SOL    HW231032   0.221   1.981  11.835  2.6849  2.1092 -0.9481
 6525SOL     OW31033   1.911   1.332  16.442  0.2882 -0.6687 -0.2405
 6525SOL    HW131034   1.863   1.391  16.384  0.4776 -0.9946 -0.7347
 6525SOL    HW231035   1.998   1.334  16.401  0.9471 -1.7745  1.0956
 6526SOL     OW31036   1.271   4.189   8.829  0.2307  0.3141 -0.3705
 6526SOL    HW131037   1.330   4.196   8.903  1.4064  0.0469 -1.2914
 6526SOL    HW231038   1.193   4.139   8.856 -0.8274 -0.0363 -3.9954
 6527SOL     OW31039   2.851   1.525   2.404  0.0094 -0.4187 -0.2341
 6527SOL    HW131040   2.833   1.611   2.442 -2.2526 -0.6424 -0.8050
 6527SOL    HW231041   2.762   1.494   2.384  1.2129 -3.2852 -1.1260
 6528SOL     OW31042   0.580   1.722   5.984  0.1419  0.7428  0.4215
 6528SOL    HW131043   0.592   1.696   6.076 -1.3726  0.5041  0.5465
 6528SOL    HW231044   0.656   1.690   5.936 -0.1324  1.7729 -0.6750
 6529SOL     OW31045   0.536   0.134   8.650 -0.3448  0.2666  0.6031
 6529SOL    HW131046   0.618   0.114   8.696 -1.7882 -0.1098  3.0659
 6529SOL    HW231047   0.565   0.171   8.567 -1.3735 -1.0141 -0.3338
 6530SOL     OW31048   2.303   4.109   0.504 -0.1581 -0.0157 -0.5547
 6530SOL    HW131049   2.303   4.068   0.591  2.3577  1.3847  0.1346
 6530SOL    HW231050   2.334   4.038   0.449 -1.1272 -1.0319  0.2122
 6531SOL     OW31051   2.127   3.170   3.001 -0.1687 -0.6040 -0.1305
 6531SOL    HW131052   2.107   3.166   3.095  2.8436  3.1845  0.6749
 6531SOL    HW231053   2.106   3.262   2.983 -1.9892 -1.4879 -2.4558
 6532SOL     OW31054   3.551   2.910   1.994 -0.0411 -0.2660  0.4121
 6532SOL    HW131055   3.590   2.932   1.910  3.8570 -1.7461  1.8169
 6532SOL    HW231056   3.457   2.920   1.983 -0.2673 -4.1366 -0.9789
 6533SOL     OW31057   2.797   0.630   5.581 -0.8254 -0.1163  0.1054
 6533SOL    HW131058   2.702   0.631   5.570 -0.6527  0.9817 -1.3740
 6533SOL    HW231059   2.820   0.675   5.499 -3.7464 -0.3334 -0.8377
 6534SOL     OW31060   1.606   2.727   9.211  0.2889 -0.1804 -0.6931
 6534SOL    HW131061   1.544   2.702   9.143 -1.8608 -2.8436  2.2056
 6534SOL    HW231062   1.677   2.755   9.153  0.1167  0.6334 -0.5035
 6535SOL     OW31063   2.017   1.195   3.824 -0.4275 -0.3307 -0.3808
 6535SOL    HW131064   2.042   1.103   3.814 -1.0076 -0.4588 -0.6252
 6535SOL    HW231065   1.922   1.191   3.822 -0.2336 -2.5602 -5.5214
 6536SOL     OW31066   2.469   0.226  17.276  1.0049 -0.3103 -0.0208
 6536SOL    HW131067   2.443   0.151  17.329  2.5561 -0.5885  0.3264
 6536SOL    HW231068   2.461   0.191  17.187  1.3093 -0.3006 -0.0500
 6537SOL     OW31069   4.634   3.225  11.343  0.4844 -0.1960  0.6811
 6537SOL    HW131070   4.715   3.275  11.337  2.7845 -3.8405  1.3743
 6537SOL    HW231071   4.592   3.263  11.420 -0.4598 -0.1250  0.1389
 6538SOL     OW31072   0.846   1.551   1.702  0.0918 -0.3163 -0.0236
 6538SOL    HW131073   0.880   1.516   1.784 -0.6014 -1.1152 -0.0755
 6538SOL    HW231074   0.843   1.474   1.645 -0.2533  1.8502 -2.9425
 6539SOL     OW31075   4.381   1.842   7.397 -0.2809  0.3450 -0.2086
 6539SOL    HW131076   4.391   1.762   7.447  3.0913  1.0016  0.1430
 6539SOL    HW231077   4.475   1.859   7.393 -0.3342  1.1795  2.5672
 6540SOL     OW31078   2.920   1.453   8.339 -0.1294  0.2599  0.2977
 6540SOL    HW131079   2.983   1.407   8.393  1.0244 -0.4383 -1.6418
 6540SOL    HW231080   2.954   1.542   8.332 -1.9647  1.2471  3.6925
 6541SOL     OW31081   1.121   0.421   2.501 -0.3055 -0.5794 -0.6970
 6541SOL    HW131082   1.140   0.425   2.408  3.4147  0.0019  0.0744
 6541SOL    HW231083   1.027   0.410   2.509 -0.0259 -2.2853  0.3907
 6542SOL     OW31084   0.594   1.289   3.739 -0.1467 -0.2527  0.1454
 6542SOL    HW131085   0.639   1.367   3.773  1.3542 -1.4957  1.0408
 6542SOL    HW231086   0.606   1.304   3.645 -2.0698  1.1339  0.1149
 6543SOL     OW31087   1.437   4.569   5.282  0.2084 -0.0372  0.0393
 6543SOL    HW131088   1.438   4.528   5.196 -1.1077 -0.4910  0.2350
 6543SOL    HW231089   1.353   4.614   5.276  1.1298  1.5043 -1.1725
 6544SOL     OW31090   3.339   4.589   7.732  0.3957  0.6308 -0.1028
 6544SOL    HW131091   3.352   4.498   7.759 -1.2756  0.0795 -1.1794
 6544SOL    HW231092   3.394   4.624   7.802 -1.5787 -0.1892  1.8799
 6545SOL     OW31093   3.321   1.792   6.633 -0.2563  0.6845  0.3396
 6545SOL    HW131094   3.347   1.790   6.725  3.4715 -1.0268 -0.7123
 6545SOL    HW231095   3.404   1.765   6.593 -0.6194  1.0778 -0.6758
 6546SOL     OW31096   3.897   3.506   1.649  0.1477  0.8157  0.1926
 6546SOL    HW131097   3.981   3.512   1.693 -0.2169 -0.5980  1.0577
 6546SOL    HW231098   3.916   3.572   1.582  1.1358  0.8397  0.5026
 6547SOL     OW31099   0.318   4.198   7.304  0.2758 -0.9176 -0.4486
 6547SOL    HW131100   0.237   4.158   7.272 -0.6971  2.1532 -1.7319
 6547SOL    HW231101   0.341   4.154   7.386  1.2125  0.1039 -0.1667
 6548SOL     OW31102   3.918   2.566  12.154 -0.5757  0.2754  0.5411
 6548SOL    HW131103   3.914   2.640  12.214 -2.0543 -0.4020  1.2932
 6548SOL    HW231104   3.982   2.600  12.092 -1.6966 -0.0780 -0.8097
 6549SOL     OW31105   0.144   4.320  16.823  0.2710 -0.4728  0.0313
 6549SOL    HW131106   0.195   4.390  16.782  1.4148 -0.6879  1.0783
 6549SOL    HW231107   0.156   4.245  16.765 -0.8259 -0.5558 -0.0856
 6550SOL     OW31108   3.486   0.691   9.067 -0.5140 -0.0537 -0.1018
 6550SOL    HW131109   3.413   0.629   9.072 -0.9174  0.6014  2.1476
 6550SOL    HW231110   3.460   0.759   9.128  0.4832 -0.2001  0.4917
 6551SOL     OW31111   3.843   1.003  10.060 -0.6895  0.5440 -0.3931
 6551SOL    HW131112   3.901   1.013  10.135 -0.9461 -1.2149  0.0457
 6551SOL    HW231113   3.828   0.908  10.063  0.8432  0.2851 -0.9091
 6552SOL     OW31114   0.192   2.792   6.743 -0.1431  0.1116  0.3100
 6552SOL    HW131115   0.100   2.765   6.754 -0.0457 -0.1878  0.3919
 6552SOL    HW231116   0.218   2.837   6.823 -0.7163 -0.1983  0.6738
 6553SOL     OW31117   3.602   0.215   1.152 -0.3075 -0.0626  0.4120
 6553SOL    HW131118   3.619   0.198   1.059 -1.6178 -0.5067  0.2477
 6553SOL    HW231119   3.506   0.207   1.148 -0.4274  0.9354  1.5331
 6554SOL     OW31120   3.319   2.463  14.907  0.1720  0.1292  0.7345
 6554SOL    HW131121   3.311   2.387  14.965  0.9729  0.0019  0.6765
 6554SOL    HW231122   3.268   2.426  14.834  1.1501 -1.6273  0.9564
 6555SOL     OW31123   1.960   3.178   4.151 -0.4726  0.7355  0.1266
 6555SOL    HW131124   2.051   3.157   4.133  0.3559  2.8062  1.9931
 6555SOL    HW231125   1.960   3.259   4.099  1.9167 -0.1324 -1.1980
 6556SOL     OW31126   1.399   4.532   6.196 -0.5106 -0.3148  0.0432
 6556SOL    HW131127   1.440   4.534   6.282 -0.1220 -0.9559 -0.1311
 6556SOL    HW231128   1.310   4.520   6.229  0.5500 -2.5596  2.0396
 6557SOL     OW31129   4.553   0.208   4.710 -0.2313 -0.0896  0.1907
 6557SOL    HW131130   4.580   0.123   4.746  1.8604  0.7051  0.5269
 6557SOL    HW231131   4.543   0.259   4.790 -0.9617  1.4808 -0.8929
 6558SOL     OW31132   3.246   0.714   1.172 -0.0144 -0.1409  0.0401
 6558SOL    HW131133   3.170   0.768   1.151  0.1132  0.0187 -0.0095
 6558SOL    HW231134   3.199   0.634   1.195 -3.3389  1.5114 -0.9269
 6559SOL     OW31135   0.588   3.601   9.679 -0.4222 -0.4023  0.1772
 6559SOL    HW131136   0.677   3.614   9.648  0.3600 -2.1476  1.6653
 6559SOL    HW231137   0.582   3.663   9.751  2.1005  0.1236 -0.0877
 6560SOL     OW31138   1.560   0.984  14.412 -0.0359  0.0826 -0.1691
 6560SOL    HW131139   1.595   1.004  14.499  0.0540 -1.7583  0.2231
 6560SOL    HW231140   1.559   1.074  14.379  1.4903  0.9607  2.1814
 6561SOL     OW31141   3.309   1.298   3.180  0.2367  0.4918  0.4106
 6561SOL    HW131142   3.369   1.224   3.171 -0.1006  0.3136 -0.4164
 6561SOL    HW231143   3.282   1.313   3.089  0.0751  1.8284  0.6842
 6562SOL     OW31144   3.507   4.601   3.134 -0.3687  0.1563 -0.0841
 6562SOL    HW131145   3.567   4.528   3.151  0.1429  0.3172 -1.2362
 6562SOL    HW231146   3.436   4.586   3.197 -0.3177  0.9882  0.1799
 6563SOL     OW31147   2.989   4.516   5.867 -0.1998  0.3665  0.1738
 6563SOL    HW131148   3.009   4.575   5.941  0.0384  0.5466 -0.0332
 6563SOL    HW231149   3.004   4.434   5.914  1.3977 -0.6716 -2.1604
 6564SOL     OW31150   0.247   3.666   4.177 -0.0436 -0.3589  0.5614
 6564SOL    HW131151   0.209   3.590   4.222 -1.9637 -0.0231 -0.5233
 6564SOL    HW231152   0.182   3.735   4.192 -0.2154 -0.5659  0.7669
 6565SOL     OW31153   0.848   0.043   1.504  0.5073  0.0990  0.1444
 6565SOL    HW131154   0.825   0.117   1.560 -2.6049 -1.0108  0.3084
 6565SOL    HW231155   0.831   4.687   1.556  2.1227 -0.7715 -0.6100
 6566SOL     OW31156   3.496   0.089   0.888  0.4468 -0.3324 -0.3040
 6566SOL    HW131157   3.488   0.133   0.803  0.4279 -0.8609 -0.5779
 6566SOL    HW231158   3.403   0.074   0.907  0.5684  0.0406  0.5509
 6567SOL     OW31159   1.366   0.117  10.170 -0.0962 -0.2974 -0.1292
 6567SOL    HW131160   1.368   0.041  10.112  0.3367 -0.1704 -0.2815
 6567SOL    HW231161   1.387   0.193  10.116 -1.0195 -0.4250 -0.6651
 6568SOL     OW31162   0.833   2.072   3.046 -0.0515 -0.1644  0.1361
 6568SOL    HW131163   0.763   2.006   3.046 -0.1639 -0.0453 -1.0585
 6568SOL    HW231164   0.781   2.151   3.059  0.7429  0.2456  0.7544
 6569SOL     OW31165   1.171   3.773   7.608  0.3905 -0.6562  0.2586
 6569SOL    HW131166   1.145   3.859   7.640 -0.0437 -0.1299 -1.4953
 6569SOL    HW231167   1.264   3.781   7.629  0.1082  1.5567  0.6226
 6570SOL     OW31168   2.888   1.774   0.360 -0.1094  0.0146 -0.0400
 6570SOL    HW131169   2.961   1.750   0.416 -1.3596  2.0559  2.4500
 6570SOL    HW231170   2.859   1.683   0.360  0.3604 -0.1356  0.1694
 6571SOL     OW31171   1.725   3.679   6.103  0.4784  0.0066  0.3348
 6571SOL    HW131172   1.770   3.761   6.121 -1.1118  0.8180  0.6107
 6571SOL    HW231173   1.754   3.667   6.013  1.5873 -2.1058  0.9702
 6572SOL     OW31174   0.494   2.464  12.555 -0.0730  0.0670 -0.1863
 6572SOL    HW131175   0.577   2.510  12.568  0.4586 -0.6650 -0.9189
 6572SOL    HW231176   0.508   2.423  12.469  1.8096  1.3672 -0.5314
 6573SOL     OW31177   0.472   0.230  16.449 -0.5350  0.1493 -0.1715
 6573SOL    HW131178   0.560   0.193  16.442 -0.9899 -1.0802  0.6203
 6573SOL    HW231179   0.467   0.255  16.541 -1.8474  0.1854 -0.2494
 6574SOL     OW31180   2.312   0.795   3.517 -0.4651 -0.1096 -0.7330
 6574SOL    HW131181   2.329   0.885   3.488 -3.1070  1.7540  3.4014
 6574SOL    HW231182   2.340   0.748   3.439  1.5521  0.0594 -0.0973
 6575SOL     OW31183   1.859   3.278   7.976  0.0237  0.3601  0.3334
 6575SOL    HW131184   1.766   3.299   7.984 -0.1210 -0.5422  1.0786
 6575SOL    HW231185   1.875   3.297   7.884 -2.3962 -0.7413 -0.3056
 6576SOL     OW31186   0.538   2.766   6.486 -0.4527  0.4510 -0.7526
 6576SOL    HW131187   0.563   2.676   6.466  2.1127  0.6422  1.6160
 6576SOL    HW231188   0.444   2.755   6.477 -0.2836 -0.2275 -1.6711
 6577SOL     OW31189   3.667   3.529  10.640  0.0731 -0.1726  0.0055
 6577SOL    HW131190   3.623   3.446  10.656 -0.0053 -0.0844  0.2576
 6577SOL    HW231191   3.602   3.587  10.600 -0.4936 -1.2238 -0.5931
 6578SOL     OW31192   3.535   3.914  13.354 -0.3469  0.1495 -0.2469
 6578SOL    HW131193   3.514   3.834  13.305  0.4261 -0.0968 -0.1942
 6578SOL    HW231194   3.484   3.898  13.433 -0.2451  2.9731  0.3978
 6579SOL     OW31195   1.084   2.569   2.947  0.2645 -0.1348  0.2067
 6579SOL    HW131196   1.086   2.568   2.851  0.3222 -0.4141  0.2105
 6579SOL    HW231197   1.176   2.586   2.966  0.8677 -1.8975 -1.1405
 6580SOL     OW31198   2.626   3.994   2.041  0.3405 -0.3994  0.1857
 6580SOL    HW131199   2.713   4.033   2.048  0.4101 -0.3113 -1.1175
 6580SOL    HW231200   2.643   3.962   1.952  2.2836 -3.1126  1.5413
 6581SOL     OW31201   1.889   4.633   6.097  0.3952  1.0361 -0.6758
 6581SOL    HW131202   1.908   4.674   6.182  1.4316 -2.0701  0.5902
 6581SOL    HW231203   1.961   4.668   6.044  0.0868  2.0454 -0.4452
 6582SOL     OW31204   3.316   0.541   5.655  0.1164  0.3904 -0.4787
 6582SOL    HW131205   3.254   0.546   5.728  2.1364  3.8810  1.0216
 6582SOL    HW231206   3.393   0.499   5.693  0.0056  0.3635 -0.2851
 6583SOL     OW31207   0.431   0.108   9.511  0.0389 -0.9027 -0.3300
 6583SOL    HW131208   0.366   0.140   9.449 -0.8046 -1.2644  0.3661
 6583SOL    HW231209   0.489   0.184   9.516 -0.2415 -0.7158  0.1108
 6584SOL     OW31210   0.651   1.013   5.185  0.3289  0.2039  0.2732
 6584SOL    HW131211   0.714   1.084   5.200 -1.2417  1.6752 -0.1600
 6584SOL    HW231212   0.690   0.983   5.103 -1.6986 -1.4712 -0.0877
 6585SOL     OW31213   1.791   1.564  13.289 -0.0779 -0.1542  0.8323
 6585SOL    HW131214   1.853   1.502  13.249 -0.3462  0.8950 -1.2571
 6585SOL    HW231215   1.801   1.551  13.383  2.4108 -1.0069  0.4412
 6586SOL     OW31216   0.754   3.192   6.422  0.7457  0.3398 -0.2762
 6586SOL    HW131217   0.737   3.230   6.508  0.9816  1.4784 -0.7252
 6586SOL    HW231218   0.729   3.102   6.442  1.5519  0.0154 -0.7622
 6587SOL     OW31219   4.244   1.740   7.968 -0.4211  0.7357  0.0032
 6587SOL    HW131220   4.153   1.710   7.971  0.0543 -0.6364  0.8303
 6587SOL    HW231221   4.272   1.722   8.058 -0.6129  0.2621 -0.0277
 6588SOL     OW31222   3.546   0.506   4.012 -0.3152 -0.2983  0.3458
 6588SOL    HW131223   3.624   0.505   4.068 -0.6997  0.8239  0.8914
 6588SOL    HW231224   3.585   0.479   3.929  0.9617 -1.8794  1.4663
 6589SOL     OW31225   2.081   1.870  17.388  0.3599  0.5525  0.1889
 6589SOL    HW131226   2.004   1.815  17.400  1.2147 -1.0303 -1.6699
 6589SOL    HW231227   2.127   1.874  17.472 -0.4524 -0.1038  0.6609
 6590SOL     OW31228   2.962   1.058   2.986 -0.2198 -0.0822 -0.1042
 6590SOL    HW131229   2.931   1.087   3.072 -1.6044  0.2153 -0.7035
 6590SOL    HW231230   2.955   1.142   2.941  1.6849  0.0982 -0.0816
 6591SOL     OW31231   4.032   2.752   8.824  0.1983 -0.1980 -0.1248
 6591SOL    HW131232   3.941   2.726   8.840 -0.2220  1.4100  0.1750
 6591SOL    HW231233   4.072   2.684   8.771 -3.1418 -2.5484  0.3805
 6592SOL     OW31234   0.820   3.313   4.539  0.3604 -0.2466 -0.1612
 6592SOL    HW131235   0.809   3.223   4.569  1.4531  0.0697  1.1932
 6592SOL    HW231236   0.896   3.328   4.595  0.4430 -0.6145 -0.1756
 6593SOL     OW31237   3.012   1.052   3.903 -0.5590 -0.2708  0.5359
 6593SOL    HW131238   3.016   1.036   3.997 -1.0574 -0.6770  0.4863
 6593SOL    HW231239   2.917   1.046   3.893 -0.2566 -0.5119 -2.2230
 6594SOL     OW31240   0.272   2.923   5.123  0.1147  0.0387  0.5716
 6594SOL    HW131241   0.282   2.860   5.194 -1.6770 -1.9613 -0.9576
 6594SOL    HW231242   0.363   2.951   5.116 -0.1579  0.7769 -0.0448
 6595SOL     OW31243   1.370   3.358   7.328 -0.2630  0.1353  0.0488
 6595SOL    HW131244   1.286   3.348   7.284 -1.6032  0.2361  2.5789
 6595SOL    HW231245   1.352   3.420   7.398 -2.5485 -2.0490  1.3637
 6596SOL     OW31246   1.273   3.263   9.776  0.0309  0.1833 -0.1112
 6596SOL    HW131247   1.360   3.269   9.816  0.0635  0.9617 -0.2813
 6596SOL    HW231248   1.252   3.171   9.790  0.8579  0.5679  3.4768
 6597SOL     OW31249   1.223   1.659   5.467  0.1687  0.2032 -0.0091
 6597SOL    HW131250   1.185   1.743   5.439  0.1109  0.0760 -0.3073
 6597SOL    HW231251   1.147   1.627   5.517  0.8065 -0.1434  0.7353
 6598SOL     OW31252   0.117   0.745   0.082 -0.4564  0.5367  0.2961
 6598SOL    HW131253   0.032   0.787   0.074 -1.0809 -0.8495 -0.2909
 6598SOL    HW231254   0.095   0.676   0.145  0.3307 -0.0366 -0.0526
 6599SOL     OW31255   4.512   2.849   2.547 -1.0074 -0.0002 -0.1838
 6599SOL    HW131256   4.600   2.873   2.517 -0.5027 -2.0234 -0.3147
 6599SOL    HW231257   4.511   2.753   2.550 -0.0673 -0.0195 -0.4226
 6600SOL     OW31258   4.500   3.317  11.580  0.6680 -0.1501 -0.3951
 6600SOL    HW131259   4.560   3.306  11.654 -1.2769 -2.6900  0.8169
 6600SOL    HW231260   4.480   3.411  11.580  0.6379 -0.1687  3.2383
 6601SOL     OW31261   1.052   2.776   4.244 -0.7736  0.4774  0.4029
 6601SOL    HW131262   0.988   2.824   4.296 -3.0444 -1.3283 -0.7631
 6601SOL    HW231263   1.017   2.807   4.160  3.0736  0.4081 -1.2845
 6602SOL     OW31264   2.815   2.820   3.625  0.4064  0.0960 -0.1826
 6602SOL    HW131265   2.867   2.813   3.545 -1.1118 -0.5943 -1.1093
 6602SOL    HW231266   2.777   2.908   3.621 -1.1929 -0.6053 -0.4815
 6603SOL     OW31267   4.421   3.429   4.845  0.3023  0.5806  0.1714
 6603SOL    HW131268   4.496   3.380   4.880 -1.1543 -0.4210  1.9199
 6603SOL    HW231269   4.474   3.492   4.796  0.3322  0.3397 -0.1066
 6604SOL     OW31270   3.514   0.286   7.803  0.3886  0.2979 -0.1947
 6604SOL    HW131271   3.596   0.257   7.843  0.2390 -0.2284 -0.2681
 6604SOL    HW231272   3.543   0.316   7.716  0.8160 -0.1869 -0.2146
 6605SOL     OW31273   0.679   1.216   0.864 -0.5845  0.2787  0.1792
 6605SOL    HW131274   0.678   1.165   0.945 -0.5791 -0.7570 -0.4803
 6605SOL    HW231275   0.769   1.210   0.832 -0.2235  1.6080  0.9511
 6606SOL     OW31276   1.271   3.400   7.966  0.4953  0.4790 -0.0473
 6606SOL    HW131277   1.292   3.311   7.940 -0.2365 -0.4195  2.3661
 6606SOL    HW231278   1.248   3.381   8.057  2.1066 -0.8696  0.0862
 6607SOL     OW31279   1.295   3.347  11.563 -0.0289  0.2857 -0.0556
 6607SOL    HW131280   1.228   3.288  11.529 -2.0284  2.4218  0.1547
 6607SOL    HW231281   1.366   3.286  11.542 -0.2054  0.9820 -2.7828
 6608SOL     OW31282   0.956   0.440   4.621  0.1424 -0.5965  0.3936
 6608SOL    HW131283   1.009   0.440   4.542  0.8304  1.2058  0.8591
 6608SOL    HW231284   0.870   0.478   4.603  0.3935  0.3341  1.1332
 6609SOL     OW31285   2.347   2.412   3.024  0.1760  0.2657 -0.3464
 6609SOL    HW131286   2.259   2.393   2.991  0.6769  0.2401 -1.6593
 6609SOL    HW231287   2.345   2.360   3.104 -0.0345 -1.2794 -1.3557
 6610SOL     OW31288   3.513   0.771  17.437 -0.7007 -0.1258  0.4950
 6610SOL    HW131289   3.537   0.862  17.457  0.5882 -0.3279 -0.1420
 6610SOL    HW231290   3.549   0.762  17.349  0.8277  0.4419  1.0501
 6611SOL     OW31291   3.125   2.790   8.301 -0.4139  0.8289 -0.5895
 6611SOL    HW131292   3.220   2.802   8.306 -0.0582 -2.7206  1.0910
 6611SOL    HW231293   3.097   2.882   8.294 -2.0467  0.3306 -0.6891
 6612SOL     OW31294   4.721   4.499   6.126  0.4802  0.0180 -0.4602
 6612SOL    HW131295   4.646   4.482   6.183  1.7112  0.7245  1.3480
 6612SOL    HW231296   4.698   4.450   6.047  2.1197 -1.1388 -0.2202
 6613SOL     OW31297   3.018   4.049   5.243  0.2366 -0.0799  0.3753
 6613SOL    HW131298   2.977   3.964   5.231 -0.0509  0.1556 -0.3044
 6613SOL    HW231299   2.933   4.093   5.238  1.3230  1.8189 -1.5933
 6614SOL     OW31300   4.194   3.640   4.146  0.2977 -0.0496 -0.0998
 6614SOL    HW131301   4.125   3.697   4.178  1.1019  0.6440  0.4062
 6614SOL    HW231302   4.259   3.672   4.209 -0.8040 -0.0709  1.0478
 6615SOL     OW31303   0.725   2.146   2.223  0.4487 -0.1120 -0.2561
 6615SOL    HW131304   0.686   2.228   2.255 -0.4467 -0.5412 -0.2660
 6615SOL    HW231305   0.654   2.088   2.252  0.5874  0.0599  0.4407
 6616SOL     OW31306   4.635   3.991   1.947  0.0897  0.0050  0.1612
 6616SOL    HW131307   4.581   4.068   1.930 -0.1733 -0.4250 -0.9638
 6616SOL    HW231308   4.707   3.991   1.883 -0.5240  2.9486 -0.5359
 6617SOL     OW31309   1.905   3.039  17.011  0.1508 -0.5125 -0.5026
 6617SOL    HW131310   1.848   2.997  17.074  0.5978  0.0061  0.2418
 6617SOL    HW231311   1.845   3.104  16.974 -0.0860 -0.1046  0.6208
 6618SOL     OW31312   1.913   3.368   4.514 -0.6470  0.1861  0.2627
 6618SOL    HW131313   1.925   3.374   4.609 -1.8236  1.5762  0.3284
 6618SOL    HW231314   1.989   3.312   4.499 -0.3749  0.2974  1.2133
 6619SOL     OW31315   0.571   3.272   9.310  0.8696 -0.1096 -0.1906
 6619SOL    HW131316   0.531   3.299   9.393 -0.7608  2.0670 -1.6769
 6619SOL    HW231317   0.515   3.318   9.247  1.0743  0.9703  0.4010
 6620SOL     OW31318   1.335   0.908   0.745 -0.4558  0.3434  0.4706
 6620SOL    HW131319   1.416   0.944   0.779 -1.3993  0.4614  2.6164
 6620SOL    HW231320   1.379   0.865   0.672 -3.1064  1.6200 -1.8673
 6621SOL     OW31321   0.503   2.818  16.383  0.0217 -0.8774  0.3351
 6621SOL    HW131322   0.412   2.822  16.352  0.0572 -2.3992  0.0723
 6621SOL    HW231323   0.552   2.813  16.301  1.4515 -0.1149  1.1571
 6622SOL     OW31324   3.793   2.315  16.995  0.0262  0.1919  0.2510
 6622SOL    HW131325   3.713   2.293  17.043  0.2309 -0.0022  0.4953
 6622SOL    HW231326   3.849   2.313  17.072 -0.9652  0.9263  0.9941
 6623SOL     OW31327   3.926   4.545  13.869 -0.1646  0.2466 -0.6335
 6623SOL    HW131328   3.878   4.615  13.913 -1.3693 -1.1957  0.3569
 6623SOL    HW231329   3.893   4.472  13.921 -0.1742  0.4680 -0.3309
 6624SOL     OW31330   4.636   2.633   8.890  0.0641 -0.3877  0.1340
 6624SOL    HW131331   4.587   2.710   8.919  1.1865  0.2166  0.4672
 6624SOL    HW231332   4.677   2.610   8.973  1.7330  0.8615 -0.3352
 6625SOL     OW31333   1.354   2.089  11.594  0.0199  0.3397  0.0273
 6625SOL    HW131334   1.316   2.035  11.525  0.4969  2.2296 -1.7221
 6625SOL    HW231335   1.347   2.029  11.668 -2.9059  0.3466 -0.2413
 6626SOL     OW31336   1.170   0.700   7.902 -0.5267  0.1102 -0.4894
 6626SOL    HW131337   1.172   0.660   7.815 -1.1525  0.4239 -0.6461
 6626SOL    HW231338   1.088   0.668   7.941  0.1829 -0.0715  0.8515
 6627SOL     OW31339   3.506   2.175   7.729 -0.1052  0.1913  0.4028
 6627SOL    HW131340   3.589   2.153   7.772 -0.2540 -0.3912  0.3865
 6627SOL    HW231341   3.514   2.114   7.656  2.4642  0.6967  0.2606
 6628SOL     OW31342   4.238   4.281  11.767  0.2462 -0.1681  0.0015
 6628SOL    HW131343   4.295   4.308  11.696  0.0472  0.9674  0.2755
 6628SOL    HW231344   4.280   4.330  11.837 -0.7370  1.8639 -0.8288
 6629SOL     OW31345   3.713   2.029  12.462 -0.0890 -0.1427  0.1351
 6629SOL    HW131346   3.790   1.977  12.440  1.9847  2.4961  1.1392
 6629SOL    HW231347   3.716   2.010  12.555  0.6678  2.5853  0.6434
 6630SOL     OW31348   0.791   0.659   3.270 -0.4409  0.0338  0.2555
 6630SOL    HW131349   0.885   0.670   3.288 -0.3480 -1.4338  0.6157
 6630SOL    HW231350   0.784   0.574   3.227  0.4852  0.3926 -0.6267
 6631SOL     OW31351   2.725   0.679  12.900  0.4360 -0.1334 -0.4306
 6631SOL    HW131352   2.685   0.703  12.983 -0.4282  0.3006 -0.9709
 6631SOL    HW231353   2.690   0.749  12.844  0.6281 -0.0579 -0.4571
 6632SOL     OW31354   0.136   0.637   7.204  0.4142 -0.1608 -0.5200
 6632SOL    HW131355   0.067   0.643   7.271  0.9086 -2.0647  0.1726
 6632SOL    HW231356   0.159   0.546   7.222  0.6490  0.4118  2.0851
 6633SOL     OW31357   4.160   3.292   1.554 -0.3641  0.7844  0.2634
 6633SOL    HW131358   4.099   3.365   1.556 -0.9344  0.3379 -0.8260
 6633SOL    HW231359   4.220   3.298   1.628 -0.0204  0.7522 -0.0098
 6634SOL     OW31360   0.210   3.945   4.500  0.0294  0.3220 -0.4754
 6634SOL    HW131361   0.138   3.975   4.444 -1.0500 -2.1959 -0.4544
 6634SOL    HW231362   0.288   3.976   4.453  0.4305 -1.4265 -0.9731
 6635SOL     OW31363   3.133   4.517   0.181 -1.0717  0.2426 -0.4644
 6635SOL    HW131364   3.193   4.478   0.117 -1.0159  0.0025 -0.2648
 6635SOL    HW231365   3.074   4.444   0.194  1.4920 -1.8131 -0.4309
 6636SOL     OW31366   0.983   1.993   4.142  0.0661 -0.1385  0.2977
 6636SOL    HW131367   1.021   1.983   4.055 -0.0819 -2.5256  0.4960
 6636SOL    HW231368   0.892   1.998   4.111  0.7382 -1.2372 -1.9027
 6637SOL     OW31369   4.366   3.813   6.017  0.8912  0.7752  0.1811
 6637SOL    HW131370   4.364   3.768   5.933 -1.5972  1.1855  0.0184
 6637SOL    HW231371   4.433   3.877   5.990  0.3688  1.8413  1.4246
 6638SOL     OW31372   3.234   2.048   7.190  0.3117  0.0693 -0.3332
 6638SOL    HW131373   3.153   2.066   7.237  0.6976  0.6742  0.0901
 6638SOL    HW231374   3.301   2.052   7.258  0.8205 -0.1161 -0.8279
 6639SOL     OW31375   2.232   3.972  10.249  0.4557 -0.0569 -0.1694
 6639SOL    HW131376   2.232   4.041  10.315 -2.9357  0.7789 -1.0178
 6639SOL    HW231377   2.230   4.014  10.163 -0.8184 -0.6743 -0.4414
 6640SOL     OW31378   2.698   2.417   0.458  0.2965  0.8495 -0.2646
 6640SOL    HW131379   2.664   2.328   0.472  0.4959  0.3584 -2.8184
 6640SOL    HW231380   2.648   2.462   0.525 -0.0564  0.2765 -0.1473
 6641SOL     OW31381   0.371   3.549   5.936 -0.3428  0.5461 -0.4043
 6641SOL    HW131382   0.429   3.474   5.942 -2.6937 -1.3333 -1.2771
 6641SOL    HW231383   0.402   3.597   6.014  0.5007 -1.8549  0.7270
 6642SOL     OW31384   2.242   0.793   2.853  0.0166  0.4616  0.2613
 6642SOL    HW131385   2.200   0.843   2.782 -1.9443 -0.3518  0.8588
 6642SOL    HW231386   2.200   0.819   2.935 -0.3252 -1.2870  0.6222
 6643SOL     OW31387   0.512   3.467   5.100 -0.8864 -0.6107 -0.1713
 6643SOL    HW131388   0.421   3.453   5.123 -1.7075  1.4525 -2.2113
 6643SOL    HW231389   0.556   3.428   5.176 -0.9925  0.7719  0.5843
 6644SOL     OW31390   1.186   0.065   5.861  0.0452  0.2974 -0.1382
 6644SOL    HW131391   1.097   0.036   5.878  1.1617 -1.7204  2.1650
 6644SOL    HW231392   1.249   0.025   5.920  2.2383  1.4507 -1.6560
 6645SOL     OW31393   1.605   4.358   6.186  0.0424 -0.6679  0.2794
 6645SOL    HW131394   1.533   4.412   6.154  0.5752 -0.1085  0.0189
 6645SOL    HW231395   1.650   4.421   6.243  0.4814 -1.2774  0.6044
 6646SOL     OW31396   0.135   1.308   3.213  0.0346 -0.0501 -0.3914
 6646SOL    HW131397   0.072   1.261   3.158 -0.0456  0.8362 -1.0528
 6646SOL    HW231398   0.144   1.390   3.164 -0.4361 -0.4445 -1.1428
 6647SOL     OW31399   0.532   0.696   4.985 -0.0124  0.3198  0.1045
 6647SOL    HW131400   0.546   0.672   4.894  0.6027  2.6104 -0.4182
 6647SOL    HW231401   0.440   0.715   4.965 -0.2039 -0.4188  0.3013
 6648SOL     OW31402   4.311   0.000   4.352  0.0959 -0.5785 -0.1343
 6648SOL    HW131403   4.225   0.034   4.329  0.2791  1.2680  1.8403
 6648SOL    HW231404   4.304   4.631   4.325  1.9157  0.0166 -2.6226
 6649SOL     OW31405   2.450   3.276   4.086  0.2735 -0.2775  0.3329
 6649SOL    HW131406   2.473   3.303   3.998 -1.4444 -1.6588 -0.5391
 6649SOL    HW231407   2.429   3.361   4.126 -0.4277 -0.0565 -0.5063
 6650SOL     OW31408   0.793   0.064   0.306 -0.2730  1.0541 -0.1552
 6650SOL    HW131409   0.839   0.020   0.235 -0.4794  0.7554 -0.1023
 6650SOL    HW231410   0.865   0.109   0.351 -0.4743  2.0122 -0.7861
 6651SOL     OW31411   2.601   2.238   5.112  0.5236  0.7379 -0.2571
 6651SOL    HW131412   2.610   2.209   5.202  1.5773  1.8491 -0.0097
 6651SOL    HW231413   2.687   2.276   5.093  1.0141  0.8359  2.2108
 6652SOL     OW31414   1.577   3.263   8.564  0.4774 -0.1020  0.1138
 6652SOL    HW131415   1.592   3.348   8.524 -1.1468  1.6570  3.2473
 6652SOL    HW231416   1.651   3.254   8.624  1.1571  2.1643 -0.3853
 6653SOL     OW31417   2.558   2.042   4.650  0.1047 -0.1495 -0.5036
 6653SOL    HW131418   2.542   2.051   4.744 -0.8788 -0.1871 -0.6714
 6653SOL    HW231419   2.546   2.132   4.621 -0.3030 -0.0114  0.0992
 6654SOL     OW31420   4.579   0.058   8.624 -0.2830 -0.1556  0.3728
 6654SOL    HW131421   4.619   0.061   8.711  1.5257  3.0376 -0.5603
 6654SOL    HW231422   4.582   0.150   8.598  1.3288  0.2646  1.9742
 6655SOL     OW31423   1.737   3.792  11.062  0.1984 -0.0187  0.3147
 6655SOL    HW131424   1.779   3.795  10.975 -0.8244 -0.9919 -0.2131
 6655SOL    HW231425   1.811   3.757  11.111 -0.6195  0.3226  1.7936
 6656SOL     OW31426   0.832   1.301   7.523  0.7549  0.2790  0.0093
 6656SOL    HW131427   0.810   1.393   7.536 -0.8667 -0.3918  2.1463
 6656SOL    HW231428   0.886   1.270   7.596 -0.8747  1.8235  1.8591
 6657SOL     OW31429   1.130   3.945   6.206 -0.0185 -0.0148 -0.2758
 6657SOL    HW131430   1.089   3.944   6.120 -1.8111  1.0417  0.5806
 6657SOL    HW231431   1.057   3.971   6.261 -1.1080 -4.1320  0.2026
 6658SOL     OW31432   0.780   3.227   7.070 -0.3457  0.2207 -0.5253
 6658SOL    HW131433   0.732   3.153   7.032  2.3300 -1.4153 -0.7630
 6658SOL    HW231434   0.853   3.234   7.008 -0.4097  2.0215 -0.3874
 6659SOL     OW31435   2.080   2.655   7.390  0.6022 -0.7847 -0.0152
 6659SOL    HW131436   2.028   2.734   7.389  0.3262 -0.9921 -3.9512
 6659SOL    HW231437   2.150   2.678   7.329  2.9186 -0.3370  2.8089
 6660SOL     OW31438   3.727   1.575  13.569  0.0515 -0.9650  0.0122
 6660SOL    HW131439   3.703   1.496  13.522  3.1935  0.0241 -3.2294
 6660SOL    HW231440   3.815   1.554  13.600 -0.0887 -0.4773  0.7463
 6661SOL     OW31441   2.024   2.690   3.578 -0.1101  0.0260 -0.0596
 6661SOL    HW131442   2.030   2.680   3.483 -0.0439  1.1003 -0.1656
 6661SOL    HW231443   2.119   2.683   3.586 -0.0656  1.7302  0.9605
 6662SOL     OW31444   0.459   0.539   9.154 -0.5534  0.2182 -0.2301
 6662SOL    HW131445   0.514   0.590   9.094  0.2263 -0.1741  0.1533
 6662SOL    HW231446   0.527   0.497   9.206 -1.3203  0.7736  1.1990
 6663SOL     OW31447   2.044   2.954   8.595  0.5601  0.4935 -0.3312
 6663SOL    HW131448   2.057   3.048   8.580 -0.4283  0.5169 -1.0239
 6663SOL    HW231449   2.137   2.929   8.594  0.9819  1.9806  1.3858
 6664SOL     OW31450   0.378   4.122  15.535 -0.1301 -0.5634 -0.0309
 6664SOL    HW131451   0.454   4.169  15.571 -0.4413  0.4051 -0.6416
 6664SOL    HW231452   0.412   4.097  15.449  0.5673  0.8755 -0.1813
 6665SOL     OW31453   0.426   0.031   4.161 -0.5256 -0.0240 -0.2313
 6665SOL    HW131454   0.385   0.031   4.247 -1.3995 -0.8855 -0.6404
 6665SOL    HW231455   0.382   0.109   4.125 -0.5722 -0.7548 -1.7898
 6666SOL     OW31456   0.151   3.921   0.907  0.2930  0.0161  0.8718
 6666SOL    HW131457   0.078   3.863   0.884  0.5108 -0.1037  0.4959
 6666SOL    HW231458   0.163   3.982   0.834 -1.4462  0.7826  1.2270
 6667SOL     OW31459   3.459   0.799   2.426  0.1977 -0.5519  0.6018
 6667SOL    HW131460   3.400   0.867   2.456  1.1454  0.3635  0.3989
 6667SOL    HW231461   3.512   0.846   2.361 -2.6466  0.9229 -0.6243
 6668SOL     OW31462   1.768   3.033   9.426 -0.4695  0.6024  0.1340
 6668SOL    HW131463   1.772   3.058   9.334  2.9433  1.6235  0.5408
 6668SOL    HW231464   1.810   3.102   9.478  0.6462  0.7522 -0.9686
 6669SOL     OW31465   3.009   2.443  10.146 -0.3706  0.2849  0.6438
 6669SOL    HW131466   2.947   2.453  10.219  1.4121  3.0218  1.7763
 6669SOL    HW231467   3.091   2.476  10.182 -0.2218  0.4337  0.1555
 6670SOL     OW31468   4.057   1.755  16.323  0.1464  0.2079 -0.6256
 6670SOL    HW131469   4.037   1.808  16.246 -1.9364  0.0022 -0.2154
 6670SOL    HW231470   4.005   1.678  16.301  2.4260 -2.0885  1.9261
 6671SOL     OW31471   1.123   0.218  16.657  0.0538  0.1733  0.0795
 6671SOL    HW131472   1.082   0.280  16.718  0.6934 -0.2278  0.9286
 6671SOL    HW231473   1.096   0.263  16.577 -1.5664 -1.0687 -0.0859
 6672SOL     OW31474   3.368   0.286   2.339 -0.1591 -0.2927  0.0184
 6672SOL    HW131475   3.440   0.233   2.374  0.9005  2.8779  2.6857
 6672SOL    HW231476   3.395   0.378   2.339 -0.3683 -0.2346  0.3830
 6673SOL     OW31477   4.085   3.668   9.042  0.0937  0.2574  0.2835
 6673SOL    HW131478   4.180   3.657   9.038 -0.1269 -1.1382 -1.2487
 6673SOL    HW231479   4.074   3.679   9.137 -1.1306 -1.2445  0.3192
 6674SOL     OW31480   4.549   4.685   7.348  0.4615 -0.3355 -0.0505
 6674SOL    HW131481   4.613   4.657   7.414 -0.5427 -2.6003 -0.0404
 6674SOL    HW231482   4.552   4.613   7.285  1.7237  0.0598 -0.4455
 6675SOL     OW31483   4.401   2.726   3.579  0.6209 -0.1578  0.3064
 6675SOL    HW131484   4.319   2.682   3.599  0.5640  0.1359  0.7197
 6675SOL    HW231485   4.410   2.693   3.490  1.1635 -0.0489  0.3209
 6676SOL     OW31486   1.876   3.343   2.882  0.1852 -0.7432 -0.0864
 6676SOL    HW131487   1.885   3.373   2.792  1.9726 -0.4001  0.2166
 6676SOL    HW231488   1.918   3.421   2.918  1.8377 -2.2390  1.2397
 6677SOL     OW31489   4.165   0.429   5.903  0.2727 -0.1558  0.0446
 6677SOL    HW131490   4.234   0.386   5.852  0.2097  1.1216 -1.1357
 6677SOL    HW231491   4.085   0.418   5.852  1.1047  1.2891 -1.6167
 6678SOL     OW31492   0.705   0.817  15.352 -0.0384 -0.0603  0.0304
 6678SOL    HW131493   0.781   0.788  15.302 -0.9863 -4.0522  0.9200
 6678SOL    HW231494   0.749   0.860  15.425 -1.2414  0.6288  0.3592
 6679SOL     OW31495   4.363   4.008   6.763 -0.3859 -0.1127  0.0723
 6679SOL    HW131496   4.410   4.088   6.787 -0.0429 -0.7550  1.5537
 6679SOL    HW231497   4.396   3.969   6.682  0.0387 -2.3541  1.3251
 6680SOL     OW31498   3.150   0.227  13.263 -0.2271  0.2694  0.4328
 6680SOL    HW131499   3.196   0.308  13.241 -2.8308  2.0646  1.6421
 6680SOL    HW231500   3.122   0.245  13.353 -2.1631  0.5976 -0.2473
 6681SOL     OW31501   2.693   4.689   0.610 -0.0594 -0.1106  0.3789
 6681SOL    HW131502   2.708   0.051   0.566 -1.0290  0.0229  0.3191
 6681SOL    HW231503   2.601   4.689   0.634  0.3011 -0.0035  1.7825
 6682SOL     OW31504   0.526   4.686   0.356 -0.3607  0.1336 -0.0687
 6682SOL    HW131505   0.455   0.014   0.394 -1.8895 -2.1302  0.0918
 6682SOL    HW231506   0.586   0.029   0.321 -1.0691  0.1879 -1.1984
 6683SOL     OW31507   0.565   0.088   3.033  0.3207 -0.1892  0.0049
 6683SOL    HW131508   0.532   0.023   2.971  0.3342  1.2189 -1.4978
 6683SOL    HW231509   0.553   0.035   3.111 -1.0461 -1.3664 -1.0117
 6684SOL     OW31510   0.864   0.925  13.248  0.1132  0.2404 -0.3196
 6684SOL    HW131511   0.898   0.988  13.311  0.3290 -1.2330  1.0262
 6684SOL    HW231512   0.772   0.933  13.273  0.5989  2.4395  0.7331
 6685SOL     OW31513   2.284   4.478   0.880  0.0380 -0.5228 -0.3471
 6685SOL    HW131514   2.244   4.391   0.886  0.0568 -0.5336 -0.3805
 6685SOL    HW231515   2.300   4.483   0.786  1.3027  0.0675 -0.0898
 6686SOL     OW31516   2.025   1.061  11.684 -0.4130  0.6763 -0.1301
 6686SOL    HW131517   2.078   0.988  11.651  1.1481  1.4480  0.6441
 6686SOL    HW231518   1.975   1.078  11.604  0.4974 -1.8133 -1.2396
 6687SOL     OW31519   1.761   3.688  12.770 -0.0298 -0.1293 -0.0390
 6687SOL    HW131520   1.743   3.782  12.768  0.0978 -0.0976  0.2678
 6687SOL    HW231521   1.675   3.651  12.792 -0.9478  2.5553  0.8668
 6688SOL     OW31522   1.470   2.948   7.808 -0.1489 -0.3893  0.2160
 6688SOL    HW131523   1.443   2.987   7.725  0.9169 -1.0225 -0.4223
 6688SOL    HW231524   1.498   3.033   7.843  0.9586 -0.1173 -1.3241
 6689SOL     OW31525   3.244   0.549   8.749 -0.3748 -1.0840  0.5538
 6689SOL    HW131526   3.286   0.483   8.804  0.3653 -2.1068 -1.2487
 6689SOL    HW231527   3.320   0.598   8.719 -1.7575 -0.8981 -2.6509
 6690SOL     OW31528   4.510   1.357   1.901 -0.2070  0.8313  0.1811
 6690SOL    HW131529   4.437   1.372   1.841 -0.5912 -0.8677  0.2257
 6690SOL    HW231530   4.514   1.448   1.930  0.0649  0.7849  0.2910
 6691SOL     OW31531   2.812   0.539   8.981 -0.4315  0.5076 -0.7104
 6691SOL    HW131532   2.903   0.516   8.999 -0.3974  1.3071  0.1112
 6691SOL    HW231533   2.813   0.617   9.036  0.9249  0.1343 -0.2029
 6692SOL     OW31534   4.132   4.673   5.602  0.1143 -0.2714 -0.5193
 6692SOL    HW131535   4.069   4.655   5.532 -1.3535 -1.6575  1.1436
 6692SOL    HW231536   4.152   4.584   5.629  1.1981 -0.1972 -1.0863
 6693SOL     OW31537   3.561   0.797   4.427  0.3912  0.3340 -0.2219
 6693SOL    HW131538   3.616   0.724   4.400  0.9989  0.2048  1.3687
 6693SOL    HW231539   3.612   0.836   4.499 -0.4755 -0.0692  0.6114
 6694SOL     OW31540   1.398   4.390   6.732 -0.1979 -0.0396 -0.2409
 6694SOL    HW131541   1.370   4.441   6.808 -0.6975  2.9809 -2.4286
 6694SOL    HW231542   1.311   4.381   6.692 -0.7802 -0.1215  1.0323
 6695SOL     OW31543   1.660   2.728  12.815  0.3906 -0.1143 -0.3706
 6695SOL    HW131544   1.642   2.676  12.893  0.8263  0.6060  0.2089
 6695SOL    HW231545   1.732   2.680  12.773  0.6891 -0.2375  0.2908
 6696SOL     OW31546   3.445   4.008   2.423 -0.5352  0.4415 -0.2497
 6696SOL    HW131547   3.442   3.958   2.341  2.3267  0.8809 -0.6321
 6696SOL    HW231548   3.390   4.085   2.410 -1.0732  0.2899  1.0994
 6697SOL     OW31549   1.573   3.667   7.137 -0.1696  0.6267  0.3054
 6697SOL    HW131550   1.541   3.682   7.226 -2.2708 -0.3736 -0.2929
 6697SOL    HW231551   1.538   3.740   7.086  0.8844  0.8224 -0.1460
 6698SOL     OW31552   0.852   0.686   9.124 -0.1812 -0.0064 -0.0254
 6698SOL    HW131553   0.897   0.619   9.174 -0.8678 -0.5807 -0.1755
 6698SOL    HW231554   0.855   0.747   9.198 -0.2916  1.0229 -0.8756
 6699SOL     OW31555   3.139   2.351  15.173 -0.0884  0.6080  0.1148
 6699SOL    HW131556   3.127   2.362  15.267 -1.3074  0.1880  0.0019
 6699SOL    HW231557   3.050   2.320  15.157 -0.1740  0.2172  1.3886
 6700SOL     OW31558   4.130   4.504   1.682 -0.6232  0.4921 -0.3518
 6700SOL    HW131559   4.057   4.561   1.705 -1.2576 -0.3285 -0.3106
 6700SOL    HW231560   4.093   4.449   1.613  0.2186  0.0060 -0.4091
 6701SOL     OW31561   2.820   0.856   2.315  0.0621  0.5931 -0.1936
 6701SOL    HW131562   2.869   0.804   2.379 -1.1297  0.9377  0.9897
 6701SOL    HW231563   2.825   0.806   2.234  1.3402  0.2071  0.1130
 6702SOL     OW31564   3.747   3.115  15.263 -0.0675 -0.5525 -0.2024
 6702SOL    HW131565   3.719   3.029  15.292 -0.7046 -0.7372 -1.3645
 6702SOL    HW231566   3.804   3.088  15.191  0.5598 -2.3744  0.9735
 6703SOL     OW31567   1.877   0.973   1.549 -0.0957  0.2666  0.2221
 6703SOL    HW131568   1.877   1.054   1.499 -0.1487 -0.8140 -1.5307
 6703SOL    HW231569   1.964   0.935   1.546 -0.1611  0.2449 -1.2995
 6704SOL     OW31570   1.543   3.045   0.245 -0.0371  0.3075  0.0836
 6704SOL    HW131571   1.580   2.958   0.235  1.8905  1.3173 -1.4814
 6704SOL    HW231572   1.486   3.013   0.315 -1.3760 -0.4852 -1.3487
 6705SOL     OW31573   0.533   0.757   3.272  0.1850  0.0749  0.6546
 6705SOL    HW131574   0.617   0.712   3.263  0.2625  0.0017  1.7179
 6705SOL    HW231575   0.563   0.847   3.282 -1.0471  0.2812  2.6300
 6706SOL     OW31576   0.473   2.363   2.825 -0.0500  0.0613  0.2145
 6706SOL    HW131577   0.463   2.268   2.831 -0.4087  0.2021  1.8299
 6706SOL    HW231578   0.398   2.391   2.773  0.1448  2.2264  1.0905
 6707SOL     OW31579   1.581   2.366   8.778 -0.5286 -0.0151  0.1605
 6707SOL    HW131580   1.525   2.320   8.716 -0.1750 -2.3809  1.5969
 6707SOL    HW231581   1.641   2.301   8.816 -1.7670  0.9640  3.7835
 6708SOL     OW31582   1.458   2.189   1.709  0.1713 -0.3787 -0.5694
 6708SOL    HW131583   1.441   2.218   1.799 -1.5894 -0.2392 -0.9513
 6708SOL    HW231584   1.421   2.101   1.714 -1.0424  0.2823  2.1603
 6709SOL     OW31585   4.156   0.900   3.177  0.1258  0.0212 -0.1724
 6709SOL    HW131586   4.179   0.972   3.236  0.0293 -0.6799  0.7317
 6709SOL    HW231587   4.096   0.949   3.122  0.2434  0.7595  0.3585
 6710SOL     OW31588   2.478   3.162   7.258  0.1181 -0.5844  0.9331
 6710SOL    HW131589   2.535   3.225   7.303  1.1825  0.8241 -2.3994
 6710SOL    HW231590   2.464   3.221   7.184 -0.9978 -1.9396  0.0741
 6711SOL     OW31591   4.509   1.617   5.195 -1.0195  0.4415  0.0104
 6711SOL    HW131592   4.474   1.640   5.109  1.6701  1.5834 -0.8010
 6711SOL    HW231593   4.438   1.629   5.258 -0.9739 -3.9050  0.8523
 6712SOL     OW31594   2.933   2.725   7.690 -0.1436 -0.0505  0.6016
 6712SOL    HW131595   2.838   2.726   7.675 -0.0597 -2.4496 -0.1250
 6712SOL    HW231596   2.936   2.773   7.773  0.8699 -0.2666  0.6886
 6713SOL     OW31597   1.926   2.686   2.046 -0.2094  0.3549  0.0538
 6713SOL    HW131598   1.907   2.773   2.082  0.5030  0.2101  0.8002
 6713SOL    HW231599   1.958   2.711   1.960  0.0776 -0.3722 -0.0577
 6714SOL     OW31600   0.381   3.120  13.453 -0.5781  0.4278  0.0401
 6714SOL    HW131601   0.342   3.198  13.412 -0.8772  0.2250 -0.0668
 6714SOL    HW231602   0.350   3.133  13.542  1.9230 -0.7914  1.0700
 6715SOL     OW31603   2.825   0.804   8.737  0.1760  0.0992 -0.5700
 6715SOL    HW131604   2.809   0.888   8.694  0.8363  0.4714 -0.0850
 6715SOL    HW231605   2.807   0.825   8.829  0.9906  2.2480 -0.9008
 6716SOL     OW31606   1.972   0.822  10.508  0.1399 -0.3339 -0.1004
 6716SOL    HW131607   2.042   0.885  10.489  0.0329 -0.1444  0.1242
 6716SOL    HW231608   1.932   0.856  10.588 -0.7586 -1.6715  0.0071
 6717SOL     OW31609   2.421   1.347  10.513 -0.0868 -0.3790  0.0724
 6717SOL    HW131610   2.383   1.383  10.433 -2.3848  2.4134  2.3964
 6717SOL    HW231611   2.474   1.418  10.551 -1.7813  0.7950  0.2282
 6718SOL     OW31612   4.230   2.158   3.368 -0.4268 -0.3116 -0.3524
 6718SOL    HW131613   4.321   2.188   3.373 -1.4436  2.2180  2.7165
 6718SOL    HW231614   4.229   2.091   3.436 -0.5747  0.8848  0.8430
 6719SOL     OW31615   3.666   2.179   6.644 -0.7210  0.4851  0.1031
 6719SOL    HW131616   3.686   2.243   6.713 -0.9411  0.3776  0.2636
 6719SOL    HW231617   3.584   2.149   6.681 -1.4810  2.4239  0.0219
 6720SOL     OW31618   3.421   1.542   2.953 -0.1085 -0.1795 -0.3202
 6720SOL    HW131619   3.347   1.481   2.944  0.9058 -1.6848  1.5233
 6720SOL    HW231620   3.439   1.572   2.864 -0.9744  1.1673 -0.0381
 6721SOL     OW31621   1.485   3.576   0.639 -0.1628  0.0060  0.0551
 6721SOL    HW131622   1.391   3.576   0.621 -0.1052 -2.1334 -0.2126
 6721SOL    HW231623   1.513   3.602   0.551  1.3403 -0.6332  0.3465
 6722SOL     OW31624   0.024   2.450  11.265  0.2452 -0.0704 -0.0456
 6722SOL    HW131625   0.006   2.523  11.207 -2.1422  0.7907  1.7511
 6722SOL    HW231626   4.705   2.380  11.214 -1.7594  1.6329 -0.7583
 6723SOL     OW31627   0.218   1.944   5.229  0.6499  0.1247  0.2575
 6723SOL    HW131628   0.160   1.953   5.154  1.0797  0.9426  0.0167
 6723SOL    HW231629   0.221   1.849   5.240  1.0409 -0.0476 -1.3903
 6724SOL     OW31630   0.561   1.912   6.473 -0.1310  0.1334  0.5082
 6724SOL    HW131631   0.467   1.902   6.488  0.0261 -1.9196  0.0383
 6724SOL    HW231632   0.593   1.832   6.515 -2.0210 -1.0322 -0.2822
 6725SOL     OW31633   3.466   1.290   5.375  0.1082 -0.2621 -0.2211
 6725SOL    HW131634   3.502   1.317   5.459 -1.2351 -0.8705  0.5382
 6725SOL    HW231635   3.391   1.349   5.372  0.1789 -0.1949 -0.7953
 6726SOL     OW31636   1.820   4.384   9.946  0.4771 -0.0243 -0.3006
 6726SOL    HW131637   1.808   4.327  10.022 -0.5760 -0.5750 -0.8841
 6726SOL    HW231638   1.745   4.441   9.959  0.5863 -0.0747  0.5592
 6727SOL     OW31639   1.398   3.325   6.562  0.3463 -0.3755 -0.0975
 6727SOL    HW131640   1.462   3.301   6.495 -0.4857 -3.5798  0.2729
 6727SOL    HW231641   1.408   3.420   6.553  0.0748 -0.2977  0.4013
 6728SOL     OW31642   1.609   4.156   2.551 -0.0508  0.3831  0.1752
 6728SOL    HW131643   1.679   4.091   2.545  1.0463  1.8537 -2.8287
 6728SOL    HW231644   1.572   4.144   2.464 -1.9557 -1.5655  1.2518
 6729SOL     OW31645   0.781   0.631   5.047 -0.4953  0.1831 -0.1471
 6729SOL    HW131646   0.694   0.667   5.028 -0.7218  0.9404  2.3518
 6729SOL    HW231647   0.784   0.620   5.142  1.6525  0.7289 -0.1599
 6730SOL     OW31648   0.042   4.492  16.165 -0.3024  0.0063  0.2360
 6730SOL    HW131649   4.705   4.480  16.090  0.9503 -0.7445 -0.6266
 6730SOL    HW231650   4.714   4.460  16.240  1.9156 -0.8355  1.3471
 6731SOL     OW31651   3.103   0.961   7.555  0.2215  0.5005 -0.3028
 6731SOL    HW131652   3.194   0.932   7.566 -0.1657  0.0508  1.8589
 6731SOL    HW231653   3.078   0.904   7.482 -2.1289 -1.4024  2.0011
 6732SOL     OW31654   3.852   4.465  15.277 -0.0185 -0.2006  0.1130
 6732SOL    HW131655   3.928   4.408  15.272  0.3402  0.2468  0.4130
 6732SOL    HW231656   3.792   4.400  15.313 -0.3530  0.3344  0.5426
 6733SOL     OW31657   2.954   1.005   4.171 -1.0928 -0.3144 -0.1484
 6733SOL    HW131658   2.885   0.955   4.214 -0.0539  0.5831  2.5402
 6733SOL    HW231659   2.925   1.095   4.185  1.1200  0.5157 -0.9773
 6734SOL     OW31660   0.814   0.399   4.276 -0.1137 -0.2044 -0.4319
 6734SOL    HW131661   0.781   0.380   4.363 -1.6370 -2.5343 -1.5208
 6734SOL    HW231662   0.785   0.490   4.265  0.3009 -0.1339 -0.9411
 6735SOL     OW31663   2.642   4.568   6.789 -0.6633  0.3817 -0.4507
 6735SOL    HW131664   2.559   4.541   6.750 -1.9904  1.6640  1.5198
 6735SOL    HW231665   2.660   4.507   6.861 -0.2019  1.1215  0.0571
 6736SOL     OW31666   2.963   0.895  14.812  0.0470  0.2068 -0.3773
 6736SOL    HW131667   2.872   0.869  14.828  0.0058  0.9398  0.6233
 6736SOL    HW231668   2.985   0.827  14.749  0.8966 -0.5699  0.7376
 6737SOL     OW31669   3.021   2.720  13.926  0.4139  0.0195 -0.0459
 6737SOL    HW131670   3.068   2.753  14.002  1.6096  1.0295 -1.2202
 6737SOL    HW231671   2.978   2.801  13.896  0.0277 -0.7786 -1.6536
 6738SOL     OW31672   4.166   2.523  14.270 -0.7270 -0.1246 -0.4043
 6738SOL    HW131673   4.201   2.602  14.230  0.6657  0.2010  1.4680
 6738SOL    HW231674   4.107   2.499  14.198 -1.8192 -0.8357  0.7309
 6739SOL     OW31675   2.766   2.961   3.974 -0.2170  0.0131 -0.7516
 6739SOL    HW131676   2.750   2.875   3.936  0.8337 -0.7700  0.5584
 6739SOL    HW231677   2.758   2.932   4.065  1.9404 -0.9388 -0.8691
 6740SOL     OW31678   3.767   0.643   5.986 -0.1217  0.2523 -0.0471
 6740SOL    HW131679   3.850   0.690   5.998  0.0266 -0.0185  0.0090
 6740SOL    HW231680   3.779   0.614   5.895  0.1801  0.2833 -0.0188
 6741SOL     OW31681   0.258   3.527   1.853  0.2480 -0.0821  0.0948
 6741SOL    HW131682   0.330   3.588   1.872 -0.7555  0.5923  1.8063
 6741SOL    HW231683   0.282   3.450   1.904 -0.2584 -0.8321 -0.8151
 6742SOL     OW31684   0.108   0.654  17.281  0.0057 -0.0086  0.1789
 6742SOL    HW131685   0.040   0.714  17.250 -0.7350 -0.7837  0.2997
 6742SOL    HW231686   0.066   0.614  17.358 -0.7534 -3.9627 -2.2965
 6743SOL     OW31687   0.823   3.050  13.897 -0.4359  0.1190 -0.5175
 6743SOL    HW131688   0.899   3.105  13.915 -0.7531  0.6371 -0.7713
 6743SOL    HW231689   0.765   3.118  13.864 -0.1169  0.1385 -1.0323
 6744SOL     OW31690   4.268   2.090   1.445  0.3192 -0.3779  0.0884
 6744SOL    HW131691   4.312   2.174   1.460  0.4485 -0.3457 -0.4470
 6744SOL    HW231692   4.210   2.085   1.521 -1.1726  1.0734 -0.9519
 6745SOL     OW31693   0.652   0.004   3.472  0.1395  0.4789 -0.5101
 6745SOL    HW131694   0.661   0.089   3.516 -1.2276  0.0116  0.6819
 6745SOL    HW231695   0.583   0.015   3.407 -0.4565 -1.6621 -0.2220
 6746SOL     OW31696   0.830   4.554   1.659 -0.4970 -0.0519  0.1259
 6746SOL    HW131697   0.842   4.459   1.654 -2.1575 -0.2024 -0.8260
 6746SOL    HW231698   0.879   4.583   1.736  1.1596 -0.9810 -0.5681
 6747SOL     OW31699   0.703   4.288   5.862 -0.1099 -0.2629  0.0734
 6747SOL    HW131700   0.740   4.277   5.774 -0.5502 -0.9101 -0.0361
 6747SOL    HW231701   0.622   4.332   5.834  1.3053  2.1456 -0.2179
 6748SOL     OW31702   0.732   2.569   7.329 -0.0802  0.1765 -0.2590
 6748SOL    HW131703   0.749   2.579   7.423 -0.9184  1.2224 -0.2088
 6748SOL    HW231704   0.800   2.624   7.291  0.1276 -0.2161 -0.4467
 6749SOL     OW31705   2.334   2.247   9.293  0.3103 -0.0416  0.4883
 6749SOL    HW131706   2.419   2.235   9.251 -0.8254  0.3539 -1.9421
 6749SOL    HW231707   2.288   2.180   9.242 -2.5065  0.2716  2.6284
 6750SOL     OW31708   1.777   0.639   3.217 -0.0275  0.3768 -0.4664
 6750SOL    HW131709   1.789   0.547   3.195  2.0973  0.6966 -0.6944
 6750SOL    HW231710   1.839   0.657   3.288 -0.8292 -0.8987  0.5537
 6751SOL     OW31711   2.779   0.459   5.160 -0.1845 -0.3550  0.1502
 6751SOL    HW131712   2.848   0.518   5.189  0.5100 -0.7442 -0.7047
 6751SOL    HW231713   2.803   0.438   5.070 -0.7978  0.5943 -0.2381
 6752SOL     OW31714   2.521   2.633   4.455 -0.0731  0.5601 -0.1574
 6752SOL    HW131715   2.476   2.674   4.381  0.1951 -1.1597 -1.2689
 6752SOL    HW231716   2.462   2.649   4.529  0.0249 -1.1451  0.2860
 6753SOL     OW31717   3.256   2.677  15.540 -0.2564 -0.2111 -0.2483
 6753SOL    HW131718   3.169   2.637  15.538  0.8063 -2.4085 -1.4127
 6753SOL    HW231719   3.234   2.764  15.573  2.8622  0.4497  0.0727
 6754SOL     OW31720   0.599   1.181  12.816  0.2525 -0.1449 -0.7002
 6754SOL    HW131721   0.639   1.096  12.838  0.1089  0.4812  1.9426
 6754SOL    HW231722   0.507   1.153  12.819  0.1028  0.4094 -0.1858
 6755SOL     OW31723   2.608   1.016   6.929  0.1573  0.4142  0.5990
 6755SOL    HW131724   2.683   0.958   6.920  0.4423  0.7692  0.6659
 6755SOL    HW231725   2.573   0.988   7.013 -1.2150  2.0498  0.5780
 6756SOL     OW31726   4.564   1.606  11.148 -0.0796 -0.7993  0.6190
 6756SOL    HW131727   4.535   1.590  11.238 -2.1003  0.2009  0.1533
 6756SOL    HW231728   4.644   1.553  11.149 -0.3339 -1.1298  2.8687
 6757SOL     OW31729   2.508   1.805  15.710 -0.3185 -0.3253 -0.5731
 6757SOL    HW131730   2.486   1.741  15.777  1.5513  0.2894  0.6330
 6757SOL    HW231731   2.595   1.842  15.725 -0.1729 -0.6923 -0.5147
 6758SOL     OW31732   1.807   2.085   6.366  0.1377 -0.2312 -0.4924
 6758SOL    HW131733   1.803   2.075   6.271 -0.8404  3.1687 -0.8139
 6758SOL    HW231734   1.858   2.166   6.364 -0.2339  0.0306  0.4947
 6759SOL     OW31735   4.157   3.566   6.875 -0.0312 -0.1436  0.0785
 6759SOL    HW131736   4.120   3.643   6.917 -2.5393 -0.9056 -0.7145
 6759SOL    HW231737   4.164   3.598   6.785 -2.3406  2.2235  0.7514
 6760SOL     OW31738   0.065   1.326   4.717 -0.7004  0.4664 -0.0836
 6760SOL    HW131739   0.142   1.335   4.773 -0.1223 -2.3148 -0.3958
 6760SOL    HW231740   0.092   1.381   4.643  0.0480 -1.4644 -1.2794
 6761SOL     OW31741   0.456   1.577   5.355  1.0782 -0.1154 -0.1421
 6761SOL    HW131742   0.519   1.648   5.345  1.0316 -0.0411  0.1051
 6761SOL    HW231743   0.511   1.500   5.343 -0.0780 -1.2006  1.4736
 6762SOL     OW31744   1.434   3.833   7.631  0.1504  0.2680 -0.0323
 6762SOL    HW131745   1.422   3.929   7.632  0.5083  0.3119 -2.1198
 6762SOL    HW231746   1.506   3.826   7.693 -0.5212  0.1940  0.7497
 6763SOL     OW31747   1.301   3.504  10.076 -0.3494 -0.4082 -0.7288
 6763SOL    HW131748   1.315   3.422  10.124  2.9078  0.9566  0.6722
 6763SOL    HW231749   1.228   3.544  10.122  0.5159 -1.0073  1.1852
 6764SOL     OW31750   4.015   0.280   2.196  0.2430  0.1332 -0.4055
 6764SOL    HW131751   3.924   0.307   2.205  0.7094  1.6726 -0.1298
 6764SOL    HW231752   4.014   0.185   2.206 -1.5032  0.1674 -0.3261
 6765SOL     OW31753   2.481   1.161   0.703 -0.0624 -0.4407 -0.1814
 6765SOL    HW131754   2.484   1.096   0.634  2.9097 -1.3417  0.7852
 6765SOL    HW231755   2.397   1.204   0.691 -0.0913 -0.4663 -0.0717
 6766SOL     OW31756   2.862   1.597  14.999  0.4977 -0.3983 -0.0520
 6766SOL    HW131757   2.824   1.566  14.917 -0.6723 -0.9073  0.6758
 6766SOL    HW231758   2.837   1.690  15.000  0.0180 -0.5290  0.3668
 6767SOL     OW31759   0.891   4.713  11.446  0.2583  0.2318 -0.0329
 6767SOL    HW131760   0.826   4.666  11.394 -0.3304  1.3838 -0.3541
 6767SOL    HW231761   0.963   4.710  11.383 -0.8183 -1.9448 -1.1461
 6768SOL     OW31762   3.776   0.635   4.399 -0.5573  0.6543  0.3982
 6768SOL    HW131763   3.793   0.621   4.492 -0.4414 -0.6771  0.1799
 6768SOL    HW231764   3.867   0.651   4.376 -0.1654 -1.7031  0.3529
 6769SOL     OW31765   3.110   0.992   4.942 -0.2228  0.1696  0.0287
 6769SOL    HW131766   3.100   1.057   4.873 -0.4660 -0.3828 -0.4568
 6769SOL    HW231767   3.143   0.915   4.896 -0.6750 -0.7069  1.1732
 6770SOL     OW31768   4.006   1.148  12.922  1.0042  0.1333 -0.1289
 6770SOL    HW131769   4.099   1.134  12.907  1.5004  0.7039  2.3290
 6770SOL    HW231770   4.005   1.093  13.000  1.3074 -1.2009 -1.0778
 6771SOL     OW31771   2.873   0.465   2.737 -0.0922 -0.1677 -0.2043
 6771SOL    HW131772   2.784   0.498   2.727 -0.1940 -0.2399  0.4464
 6771SOL    HW231773   2.915   0.497   2.657  1.0430 -2.2034 -0.4275
 6772SOL     OW31774   1.864   0.723  10.245  0.2255  0.2742 -0.1944
 6772SOL    HW131775   1.844   0.689  10.333  2.1815 -2.2073 -0.7313
 6772SOL    HW231776   1.877   0.816  10.264 -1.4901  0.0988  1.8980
 6773SOL     OW31777   0.436   0.774   7.642  0.0085 -0.4219  0.6139
 6773SOL    HW131778   0.494   0.814   7.706  0.4739 -1.7490  1.0251
 6773SOL    HW231779   0.411   0.705   7.704 -0.3303  1.2842  2.3376
 6774SOL     OW31780   3.648   2.982   4.743  0.4778  0.0152  0.2817
 6774SOL    HW131781   3.593   2.942   4.811  0.6217  0.5599  0.7190
 6774SOL    HW231782   3.637   2.927   4.666  0.1671 -1.5299  1.4292
 6775SOL     OW31783   0.713   0.225   2.823  0.3960 -0.1829  0.7748
 6775SOL    HW131784   0.641   0.250   2.766 -0.3221 -1.1729  1.2527
 6775SOL    HW231785   0.673   0.194   2.904  0.3189 -2.8736 -0.2699
 6776SOL     OW31786   3.087   4.602   8.908 -0.3517 -0.3679 -0.0716
 6776SOL    HW131787   3.135   4.560   8.837 -1.6047 -1.4993 -0.2467
 6776SOL    HW231788   3.057   4.524   8.955  1.0802 -0.5909  0.4544
 6777SOL     OW31789   4.004   1.928   5.414 -0.2011  0.2068  0.2797
 6777SOL    HW131790   3.993   2.016   5.378 -1.7806 -0.0437  0.1466
 6777SOL    HW231791   3.966   1.937   5.501 -0.4611 -0.1312  0.1994
 6778SOL     OW31792   3.611   0.641   5.508 -0.0845  0.5954 -0.0679
 6778SOL    HW131793   3.522   0.628   5.539  0.0047 -2.3063 -1.0165
 6778SOL    HW231794   3.595   0.687   5.425  1.2958  2.6924  0.8454
 6779SOL     OW31795   3.406   0.556   5.035  0.1161 -0.3526  0.6900
 6779SOL    HW131796   3.446   0.501   4.967 -1.9100  0.6738 -1.3494
 6779SOL    HW231797   3.330   0.499   5.052  0.5316 -1.3371 -0.7268
 6780SOL     OW31798   3.701   4.422   8.506  0.1467 -0.4415  0.3504
 6780SOL    HW131799   3.795   4.410   8.498  0.1423  0.0883 -0.4945
 6780SOL    HW231800   3.679   4.334   8.538  1.4319 -0.2371  1.7771
 6781SOL     OW31801   2.119   1.446  10.625 -0.2244  0.3527 -0.3901
 6781SOL    HW131802   2.155   1.533  10.643  0.2415  0.0888 -0.0671
 6781SOL    HW231803   2.178   1.394  10.678 -0.9135 -1.1978 -1.1326
 6782SOL     OW31804   2.023   4.233   5.711  0.2070  0.2608 -0.4245
 6782SOL    HW131805   1.949   4.273   5.757 -0.4134  0.9411 -2.0452
 6782SOL    HW231806   2.078   4.308   5.689  0.2997  0.7391  1.4265
 6783SOL     OW31807   0.638   3.561   3.551 -0.5694 -0.0456 -0.2004
 6783SOL    HW131808   0.618   3.647   3.590  2.0038  0.7016 -0.4858
 6783SOL    HW231809   0.733   3.562   3.537 -0.4885 -4.4197  0.2120
 6784SOL     OW31810   3.830   1.175   0.414  0.3414  0.3539 -0.4964
 6784SOL    HW131811   3.820   1.092   0.366  1.9909  0.5491 -1.1605
 6784SOL    HW231812   3.788   1.149   0.496  2.0425  1.5288  0.7231
 6785SOL     OW31813   0.719   0.330   4.939 -0.3206  0.1509  0.1668
 6785SOL    HW131814   0.629   0.297   4.937 -0.0157 -0.6223 -0.8013
 6785SOL    HW231815   0.712   0.394   5.009 -0.6321  4.2170 -3.5968
 6786SOL     OW31816   1.482   1.146   8.094 -0.4288 -0.3162  0.7052
 6786SOL    HW131817   1.446   1.057   8.098  0.7517 -0.8167  0.0312
 6786SOL    HW231818   1.532   1.132   8.014  0.8006  2.8552  0.9177
 6787SOL     OW31819   3.238   0.541   4.188 -0.1679 -0.1280  0.4196
 6787SOL    HW131820   3.172   0.609   4.173  1.3193  0.9292 -1.2576
 6787SOL    HW231821   3.296   0.576   4.255  0.0402  1.3098 -0.5249
 6788SOL     OW31822   4.539   3.634  16.197  0.5122 -0.3821 -0.5818
 6788SOL    HW131823   4.552   3.716  16.244 -0.7289  1.1249 -2.8863
 6788SOL    HW231824   4.585   3.660  16.117 -0.3311  0.5502 -0.7602
 6789SOL     OW31825   4.181   4.402   7.245 -0.1366 -0.6298  0.0355
 6789SOL    HW131826   4.188   4.443   7.331  0.3602 -1.8171  0.5484
 6789SOL    HW231827   4.126   4.327   7.267  0.1612 -0.9273 -0.2464
 6790SOL     OW31828   4.713   4.415   5.848  0.1383 -0.5440  0.8495
 6790SOL    HW131829   0.004   4.321   5.847  2.1833 -0.2338 -0.7349
 6790SOL    HW231830   4.650   4.431   5.778  1.2377  3.3278  0.7455
 6791SOL     OW31831   2.021   4.305   9.058 -0.6788  0.8331 -0.3438
 6791SOL    HW131832   1.988   4.395   9.060  2.1749  1.8613  0.0077
 6791SOL    HW231833   1.997   4.285   9.148 -1.0128 -0.7213 -0.7611
 6792SOL     OW31834   1.236   3.149   7.853 -0.2226  0.6332 -0.4445
 6792SOL    HW131835   1.190   3.132   7.770  0.4945  0.1031 -0.7290
 6792SOL    HW231836   1.202   3.085   7.915 -0.6680  1.6237  0.3414
 6793SOL     OW31837   2.552   0.259   8.525  0.3797 -0.3583 -0.1921
 6793SOL    HW131838   2.597   0.180   8.494  0.7574 -0.7405  1.3469
 6793SOL    HW231839   2.481   0.218   8.574 -0.8039  0.5245 -1.1646
 6794SOL     OW31840   2.721   3.001  15.970  0.0980  0.0135 -0.2878
 6794SOL    HW131841   2.788   2.934  15.975  0.0207  0.0303  1.1406
 6794SOL    HW231842   2.669   2.986  15.891 -0.7705 -2.6896  0.8065
 6795SOL     OW31843   3.685   2.638   1.799 -0.2041 -0.0180  0.2362
 6795SOL    HW131844   3.723   2.665   1.882  1.0808 -0.6969 -0.1351
 6795SOL    HW231845   3.591   2.631   1.820  0.5459  0.1735  3.6060
 6796SOL     OW31846   4.592   1.835   7.788 -0.2008 -0.0047  0.1274
 6796SOL    HW131847   4.620   1.835   7.696 -0.7290  0.7735 -0.0339
 6796SOL    HW231848   4.679   1.846   7.827  0.7079 -0.6001 -1.7429
 6797SOL     OW31849   2.767   3.445   2.214 -0.1956 -0.3247  0.3852
 6797SOL    HW131850   2.703   3.497   2.165 -0.3696 -1.5335 -0.6718
 6797SOL    HW231851   2.794   3.491   2.293 -2.4310  2.4205 -0.4662
 6798SOL     OW31852   3.380   1.037   0.718  0.5580 -0.4119 -0.1598
 6798SOL    HW131853   3.434   1.013   0.793  2.3208  1.0701 -0.9563
 6798SOL    HW231854   3.324   0.961   0.705 -0.8377  0.6310 -0.2603
 6799SOL     OW31855   1.798   1.256   1.779 -0.2690  0.4932 -0.2458
 6799SOL    HW131856   1.892   1.240   1.774 -0.3075  0.2450 -0.1767
 6799SOL    HW231857   1.760   1.168   1.778 -0.7907  0.6876  2.7053
 6800SOL     OW31858   2.363   0.484  17.320  0.1740  0.3200  0.0437
 6800SOL    HW131859   2.412   0.404  17.343 -0.8356 -0.3500 -0.1364
 6800SOL    HW231860   2.431   0.535  17.276  2.3250 -2.9558 -0.4977
 6801SOL     OW31861   4.486   2.215   3.349  0.2336 -0.3120  0.4325
 6801SOL    HW131862   4.546   2.267   3.402 -2.7285  1.7723  1.7729
 6801SOL    HW231863   4.545   2.163   3.294  2.2002 -0.3552  2.5813
 6802SOL     OW31864   2.421   3.698  13.155 -0.1978 -0.2068  0.2750
 6802SOL    HW131865   2.433   3.672  13.247  0.7796 -0.2758  0.1279
 6802SOL    HW231866   2.334   3.667  13.132 -0.3418 -0.2093  0.8095
 6803SOL     OW31867   3.295   3.876  10.477  0.8848 -0.1403 -0.0996
 6803SOL    HW131868   3.232   3.813  10.440 -0.0794  0.1822  1.0062
 6803SOL    HW231869   3.285   3.935  10.403 -2.1021 -2.6151 -1.6463
 6804SOL     OW31870   1.938   0.684   7.976  0.5155 -0.2731  0.4221
 6804SOL    HW131871   1.883   0.761   7.991  1.7113  1.0018 -1.7730
 6804SOL    HW231872   1.948   0.638   8.059 -0.9959 -0.3630  0.5499
 6805SOL     OW31873   0.414   2.406   4.560 -0.4071 -0.4839 -0.6596
 6805SOL    HW131874   0.389   2.413   4.468  0.0653 -2.1880 -0.9153
 6805SOL    HW231875   0.331   2.399   4.608  0.1087 -1.6349  0.0550
 6806SOL     OW31876   3.918   1.744   3.371 -0.0000  0.0452  0.3566
 6806SOL    HW131877   4.008   1.736   3.404  0.2592 -0.7562 -0.5476
 6806SOL    HW231878   3.874   1.740   3.455 -0.4992 -0.1236  0.0858
 6807SOL     OW31879   3.424   2.426   7.715  0.3977  0.4454 -0.0963
 6807SOL    HW131880   3.359   2.436   7.645 -0.8277  0.7357  1.0825
 6807SOL    HW231881   3.451   2.335   7.703 -0.9057  0.2756 -1.6933
 6808SOL     OW31882   0.391   2.292   7.723 -0.1070  0.7384  0.7551
 6808SOL    HW131883   0.472   2.283   7.773  0.4434  0.9511 -0.0818
 6808SOL    HW231884   0.360   2.203   7.743  0.6389  0.2932 -0.0510
 6809SOL     OW31885   0.612   3.648  12.623  0.1784  0.0514  0.1667
 6809SOL    HW131886   0.607   3.577  12.687 -2.5212 -0.2639 -0.4212
 6809SOL    HW231887   0.674   3.603  12.566 -0.3330 -0.0375 -0.3162
 6810SOL     OW31888   3.282   3.426  13.932  0.2628  0.3743  0.4236
 6810SOL    HW131889   3.274   3.467  13.846  2.7252 -0.8711 -0.3916
 6810SOL    HW231890   3.203   3.455  13.977  0.6977  1.8700  0.2079
 6811SOL     OW31891   1.334   3.660   3.683 -0.0412  0.1243  0.3198
 6811SOL    HW131892   1.425   3.634   3.671 -0.1386 -0.3753  0.6745
 6811SOL    HW231893   1.309   3.595   3.748 -1.2097  0.2224 -0.0235
 6812SOL     OW31894   2.882   2.017   6.348  0.0362 -0.4203  0.0593
 6812SOL    HW131895   2.884   2.105   6.309  0.7595  0.1729  1.4384
 6812SOL    HW231896   2.888   2.039   6.441 -0.5814  0.2874 -0.0683
 6813SOL     OW31897   0.652   3.618  13.815  0.1927 -0.0574  0.7965
 6813SOL    HW131898   0.707   3.693  13.791  1.3757 -0.8634  0.9900
 6813SOL    HW231899   0.708   3.553  13.772 -0.2939  1.8925 -2.8587
 6814SOL     OW31900   2.027   3.229   7.730  0.0915 -0.2435 -0.5712
 6814SOL    HW131901   2.001   3.153   7.678 -2.0946  2.7661 -3.8864
 6814SOL    HW231902   2.102   3.195   7.779 -0.8523 -0.6664  0.5820
 6815SOL     OW31903   4.300   2.861  15.374  0.5250  0.1272  0.4336
 6815SOL    HW131904   4.341   2.931  15.323  0.3603  0.3157  0.5603
 6815SOL    HW231905   4.209   2.892  15.372  0.5793  0.2238 -0.6871
 6816SOL     OW31906   3.980   3.642   1.436  0.4329  0.1838  0.2197
 6816SOL    HW131907   3.989   3.591   1.356  1.3288  0.3479  0.2145
 6816SOL    HW231908   4.068   3.680   1.443  0.5099  0.0619 -0.0718
 6817SOL     OW31909   4.262   2.358  16.555 -0.4795  0.2624  0.1356
 6817SOL    HW131910   4.226   2.443  16.579 -1.1180  0.7192 -2.4438
 6817SOL    HW231911   4.180   2.318  16.526 -2.1446  1.1320  3.6515
 6818SOL     OW31912   2.816   2.513   3.879 -0.2652 -0.2873 -0.4440
 6818SOL    HW131913   2.894   2.561   3.851 -1.7874  0.9648 -2.4842
 6818SOL    HW231914   2.835   2.427   3.841 -0.0119 -0.6794  0.5593
 6819SOL     OW31915   1.812   2.676   6.611 -0.2142 -0.1965  0.1171
 6819SOL    HW131916   1.824   2.622   6.533 -0.7113 -0.3873  0.1762
 6819SOL    HW231917   1.749   2.741   6.581 -0.8914 -0.7140  0.4346
 6820SOL     OW31918   3.406   1.941  11.480  0.1060  0.6621  0.2635
 6820SOL    HW131919   3.492   1.935  11.521  0.4636  1.4275 -0.3769
 6820SOL    HW231920   3.377   1.851  11.495  1.3656  0.0452 -0.9476
 6821SOL     OW31921   4.721   1.987   4.108  0.0070  0.0824 -0.3952
 6821SOL    HW131922   0.089   1.969   4.137 -0.8848  0.7595  2.7441
 6821SOL    HW231923   4.699   2.063   4.162  0.4985  0.7102 -1.0679
 6822SOL     OW31924   2.126   0.228   3.802 -0.2279 -0.4238 -0.4930
 6822SOL    HW131925   2.216   0.256   3.786 -0.6184  0.1484 -1.6996
 6822SOL    HW231926   2.139   0.136   3.777 -0.3157 -0.6622  0.3539
 6823SOL     OW31927   4.374   4.261   0.646 -0.1871 -0.4228  0.4976
 6823SOL    HW131928   4.354   4.309   0.566 -0.6083  1.0294  1.4719
 6823SOL    HW231929   4.340   4.176   0.620 -0.6043  0.0419 -0.4911
 6824SOL     OW31930   0.394   4.645   5.674  0.4470  0.7932 -0.6091
 6824SOL    HW131931   0.299   4.646   5.689  0.5780 -0.4706  0.4033
 6824SOL    HW231932   0.400   0.012   5.641 -1.6007  1.6716  1.3823
 6825SOL     OW31933   1.267   3.242   8.870  0.5956  0.4094  0.3045
 6825SOL    HW131934   1.253   3.295   8.949 -2.0656 -0.3128  0.3113
 6825SOL    HW231935   1.360   3.230   8.889  0.8938  0.2244 -1.2843
 6826SOL     OW31936   2.085   3.124   6.553 -0.3526 -0.3870 -0.5068
 6826SOL    HW131937   2.002   3.166   6.530 -0.2725  0.5386  0.8500
 6826SOL    HW231938   2.054   3.034   6.565 -0.4162 -0.3211 -0.1580
 6827SOL     OW31939   4.372   2.850   7.725 -0.3732  0.1031 -0.0576
 6827SOL    HW131940   4.363   2.818   7.815 -0.8124  0.9651  0.2039
 6827SOL    HW231941   4.361   2.944   7.737  1.7292  0.3183  0.2640
 6828SOL     OW31942   1.536   3.809   9.740  0.2594  0.1808  0.3308
 6828SOL    HW131943   1.597   3.784   9.671  1.7103 -2.9451  2.7214
 6828SOL    HW231944   1.549   3.733   9.798 -1.1357 -2.3471 -2.6856
 6829SOL     OW31945   3.668   2.573   7.637  0.4056  0.0165 -0.2086
 6829SOL    HW131946   3.628   2.660   7.648  1.0612  0.5593 -2.1363
 6829SOL    HW231947   3.597   2.514   7.662  3.3317 -3.3806  0.0400
 6830SOL     OW31948   1.121   3.021   6.432  0.4836 -0.0573  0.4503
 6830SOL    HW131949   1.076   3.100   6.463 -0.8516 -0.9453  0.7821
 6830SOL    HW231950   1.098   3.016   6.339 -0.1671  2.8426  0.4772
 6831SOL     OW31951   2.044   3.942   9.239  0.4924 -0.2448 -0.7405
 6831SOL    HW131952   2.056   3.971   9.330  1.4633  1.6771 -1.4796
 6831SOL    HW231953   1.995   3.861   9.250  1.1902 -0.1997  2.6980
 6832SOL     OW31954   3.047   0.981  15.172  0.4767  0.0873  0.2421
 6832SOL    HW131955   3.092   0.942  15.247 -0.5398 -0.8146  0.3944
 6832SOL    HW231956   2.959   0.942  15.175 -0.9418  3.1365 -2.0952
 6833SOL     OW31957   3.884   0.646   1.589  0.3074  0.4902 -0.2326
 6833SOL    HW131958   3.824   0.651   1.515  1.1889 -0.3100 -1.0127
 6833SOL    HW231959   3.844   0.585   1.650  0.7990 -0.2462 -0.6352
 6834SOL     OW31960   4.553   2.586   6.238 -0.0661 -0.1238  0.0927
 6834SOL    HW131961   4.569   2.671   6.279 -0.6014  0.3627 -0.6826
 6834SOL    HW231962   4.566   2.526   6.311  0.1005 -0.7142 -0.4141
 6835SOL     OW31963   2.958   4.589   2.712 -0.5339 -0.5049 -0.7518
 6835SOL    HW131964   2.865   4.601   2.727 -0.0779  0.4789  1.3145
 6835SOL    HW231965   2.959   4.527   2.639 -0.3437 -0.5234 -0.7339
 6836SOL     OW31966   1.712   4.125   6.890  0.6960  0.3731  0.8296
 6836SOL    HW131967   1.694   4.093   6.801  1.2455 -0.3262  0.9675
 6836SOL    HW231968   1.723   4.037   6.927  3.1227  1.1766  2.0055
 6837SOL     OW31969   0.009   0.712   5.228 -0.1035  0.5847 -0.5733
 6837SOL    HW131970   0.074   0.652   5.193 -2.9168 -1.9726 -1.3646
 6837SOL    HW231971   4.706   0.771   5.158 -0.1659  1.1553 -0.0755
 6838SOL     OW31972   2.129   1.431   5.418 -0.3672 -0.4911 -0.7367
 6838SOL    HW131973   2.084   1.382   5.350 -0.6725 -1.6697  0.2977
 6838SOL    HW231974   2.207   1.376   5.415 -1.2783 -1.7510 -1.5390
 6839SOL     OW31975   2.898   1.334   5.355 -0.4049 -0.5149 -0.1607
 6839SOL    HW131976   2.975   1.365   5.307  0.6719 -2.2124  0.4814
 6839SOL    HW231977   2.832   1.315   5.288 -1.7733  0.7568  0.8343
 6840SOL     OW31978   3.939   1.150   2.447 -0.2749  0.4483  0.3080
 6840SOL    HW131979   3.855   1.112   2.471 -0.6496 -0.2100 -2.0747
 6840SOL    HW231980   3.933   1.242   2.474  0.9990 -0.1986  2.7552
 6841SOL     OW31981   0.712   3.893  12.234 -0.0081 -0.2552  0.0390
 6841SOL    HW131982   0.648   3.856  12.173  2.0287 -1.3564 -1.4507
 6841SOL    HW231983   0.752   3.810  12.259  0.5722  0.6193  1.9410
 6842SOL     OW31984   1.409   1.558   5.631 -0.4301  0.4654  0.1538
 6842SOL    HW131985   1.430   1.639   5.678 -0.7708  0.4677  0.2988
 6842SOL    HW231986   1.330   1.588   5.586 -1.5790 -1.2538  1.0221
 6843SOL     OW31987   4.532   4.157   6.509 -0.3028  0.3189 -0.2487
 6843SOL    HW131988   4.572   4.180   6.593 -1.6724 -0.3645  0.6004
 6843SOL    HW231989   4.508   4.064   6.514  0.2698  0.1789 -0.0842
 6844SOL     OW31990   2.433   1.649  14.691 -0.4010  0.9045 -0.0236
 6844SOL    HW131991   2.459   1.693  14.610  0.2322  1.1767  0.3268
 6844SOL    HW231992   2.339   1.632  14.685 -0.5270  1.3664  0.6607
 6845SOL     OW31993   3.397   0.855   9.289  0.0690  0.1340 -0.2707
 6845SOL    HW131994   3.420   0.944   9.261 -0.5041  0.1621 -0.6432
 6845SOL    HW231995   3.421   0.861   9.381 -4.2411  2.5060  0.6743
 6846SOL     OW31996   3.071   3.884   7.280  0.1531 -0.1855  0.0216
 6846SOL    HW131997   2.996   3.827   7.300  0.0560  0.2649  0.9524
 6846SOL    HW231998   3.100   3.893   7.371  2.6781  1.5909 -0.9645
 6847SOL     OW31999   3.498   4.340   5.411  0.3179  0.0635  0.0906
 6847SOL    HW132000   3.403   4.339   5.400  0.4544 -2.4100 -0.8513
 6847SOL    HW232001   3.523   4.353   5.319  1.3297  0.2307  0.3818
 6848SOL     OW32002   0.100   2.001   3.338  0.5576 -0.0124 -0.0655
 6848SOL    HW132003   0.072   2.027   3.426 -1.2053 -0.3187 -0.5338
 6848SOL    HW232004   0.114   1.908   3.357  1.2127 -0.1644 -1.3262
 6849SOL     OW32005   2.247   4.528  11.659 -0.0408  0.4216  0.3353
 6849SOL    HW132006   2.257   4.436  11.685  0.7865  0.6041  0.6811
 6849SOL    HW232007   2.202   4.561  11.738  0.9028  2.9577 -0.1774
 6850SOL     OW32008   0.246   0.448   8.600 -0.6335  0.4276  0.1821
 6850SOL    HW132009   0.247   0.448   8.504 -1.9304 -0.6272  0.1626
 6850SOL    HW232010   0.253   0.357   8.628 -1.0848  0.6133  0.8954
 6851SOL     OW32011   0.081   1.709   3.357 -0.0432 -0.0579 -0.0772
 6851SOL    HW132012   0.062   1.633   3.301 -0.3409  0.9452 -1.3496
 6851SOL    HW232013   0.159   1.685   3.406  0.4716  0.8278 -0.4731
 6852SOL     OW32014   3.171   0.830   5.478  0.3628 -0.0397 -0.3929
 6852SOL    HW132015   3.146   0.773   5.551 -1.5356  0.6285 -0.5094
 6852SOL    HW232016   3.109   0.904   5.481  0.2444 -0.1934  0.9005
 6853SOL     OW32017   2.806   3.806   6.033  0.2802 -0.1259 -0.1951
 6853SOL    HW132018   2.764   3.832   6.115  0.1201 -0.8023 -0.0594
 6853SOL    HW232019   2.806   3.884   5.978  1.1326  1.7486  2.4591
 6854SOL     OW32020   2.137   3.590  13.023 -0.0040  0.0229 -0.0916
 6854SOL    HW132021   2.086   3.661  13.064  0.4126  0.5052 -0.4070
 6854SOL    HW232022   2.077   3.522  13.054 -0.9024  1.2135  0.8184
 6855SOL     OW32023   0.111   0.086  14.185 -0.0314  0.3320  0.0192
 6855SOL    HW132024   0.156   0.120  14.107 -2.5819  3.8130  0.1006
 6855SOL    HW232025   0.177   0.076  14.254 -0.3875 -0.1843  0.2825
 6856SOL     OW32026   0.132   0.733   1.518 -0.1491  0.5956  0.1985
 6856SOL    HW132027   0.105   0.674   1.589 -2.6836  0.8213 -0.5643
 6856SOL    HW232028   0.077   0.811   1.517 -0.2184  0.5377 -0.3911
 6857SOL     OW32029   1.371   1.426   7.326  0.0599 -0.1952  0.0860
 6857SOL    HW132030   1.366   1.477   7.245 -0.5228 -0.7266 -0.2113
 6857SOL    HW232031   1.463   1.402   7.315  0.4402  1.0578  0.5410
 6858SOL     OW32032   2.625   1.852  11.011  0.2131  0.0077 -0.1443
 6858SOL    HW132033   2.670   1.806  10.941 -1.1654 -2.3540  0.5421
 6858SOL    HW232034   2.533   1.826  11.007 -0.3130  1.7186  0.3951
 6859SOL     OW32035   1.015   4.151  16.217 -0.2736  0.6741 -0.6173
 6859SOL    HW132036   1.072   4.148  16.294 -1.2562  0.4279  0.1038
 6859SOL    HW232037   1.074   4.119  16.149 -1.9669  0.1788 -1.8371
 6860SOL     OW32038   0.571   3.497  10.647  0.3124  0.2337 -0.1286
 6860SOL    HW132039   0.591   3.529  10.735  1.5794  2.7975 -1.3474
 6860SOL    HW232040   0.645   3.515  10.590 -1.3500 -0.0482 -2.3805
 6861SOL     OW32041   0.170   4.095   7.041  0.2028 -0.2099 -0.1073
 6861SOL    HW132042   0.221   4.176   7.030 -3.1747  2.0561  1.0768
 6861SOL    HW232043   0.087   4.135   7.015  0.6974  1.5787  1.0751
 6862SOL     OW32044   3.205   4.254  15.425 -0.8024  0.0573 -0.6333
 6862SOL    HW132045   3.116   4.234  15.397 -0.9536 -1.0541  0.6105
 6862SOL    HW232046   3.248   4.219  15.347 -1.5876 -2.6916  0.1789
 6863SOL     OW32047   2.518   1.824   8.130  0.0455  0.1591  0.5919
 6863SOL    HW132048   2.444   1.841   8.189  2.0505 -2.6523  3.9240
 6863SOL    HW232049   2.491   1.851   8.042 -4.0183  0.3576  1.8810
 6864SOL     OW32050   2.574   2.737   3.456 -0.0149  0.1747 -0.5358
 6864SOL    HW132051   2.518   2.663   3.433  0.6559 -0.6546  0.5322
 6864SOL    HW232052   2.591   2.725   3.549 -0.2055 -1.3714 -0.6963
 6865SOL     OW32053   3.948   0.240   1.006 -0.0345  0.2228 -0.5785
 6865SOL    HW132054   3.887   0.207   0.939 -0.9183 -0.9863  0.8285
 6865SOL    HW232055   3.957   0.334   0.988 -1.4489  0.3841 -0.4544
 6866SOL     OW32056   3.956   1.526   5.142  0.1167  1.5127 -0.1998
 6866SOL    HW132057   4.018   1.552   5.210  0.4081  0.0358  0.0989
 6866SOL    HW232058   3.936   1.435   5.165  0.8263  1.3749 -0.1113
 6867SOL     OW32059   1.653   1.271   3.530  0.0625  0.0899 -0.2824
 6867SOL    HW132060   1.717   1.339   3.553  0.6228 -0.6200  0.2395
 6867SOL    HW232061   1.579   1.321   3.495  0.6197 -0.9713 -3.0158
 6868SOL     OW32062   2.105   0.039   7.861 -0.1652 -0.3225  0.6505
 6868SOL    HW132063   2.189   0.004   7.833 -1.5310 -0.7817 -2.9067
 6868SOL    HW232064   2.081   4.689   7.920 -0.5649 -1.4194 -0.8488
 6869SOL     OW32065   4.657   2.743  10.844 -0.2420 -0.4520  0.0331
 6869SOL    HW132066   4.565   2.770  10.839  0.1229  1.2300  2.4173
 6869SOL    HW232067   4.653   2.669  10.783  0.0312 -0.8960  0.5506
 6870SOL     OW32068   0.302   1.702   6.028 -0.0392 -0.1429 -0.3511
 6870SOL    HW132069   0.285   1.682   6.120  0.2022 -3.2690 -0.9775
 6870SOL    HW232070   0.397   1.697   6.026  0.0317  1.3283 -0.4788
 6871SOL     OW32071   2.082   0.429   9.827  0.7821 -0.3488 -0.7974
 6871SOL    HW132072   1.988   0.417   9.840  1.2769 -2.4905  0.6722
 6871SOL    HW232073   2.071   0.477   9.745 -0.4207  0.3057 -0.2576
 6872SOL     OW32074   0.575   3.534   4.127  0.0821 -0.0576  0.1114
 6872SOL    HW132075   0.492   3.546   4.174 -0.9951  1.8447 -2.2515
 6872SOL    HW232076   0.623   3.479   4.189  2.1870  0.7672 -0.7959
 6873SOL     OW32077   3.437   2.621  15.332 -0.6876  0.3171  0.1996
 6873SOL    HW132078   3.394   2.631  15.417  1.1473  1.3602  0.9937
 6873SOL    HW232079   3.352   2.634  15.290 -1.6254 -1.5289  1.5081
 6874SOL     OW32080   0.809   3.680   1.968  0.6367 -0.1862 -0.3853
 6874SOL    HW132081   0.873   3.682   1.898  0.0587  0.6613 -0.8937
 6874SOL    HW232082   0.729   3.711   1.925 -0.7228 -2.5769  0.4179
 6875SOL     OW32083   3.625   3.502  13.069  0.1478 -0.0699  0.2584
 6875SOL    HW132084   3.683   3.428  13.085  1.3911  0.8824  0.1555
 6875SOL    HW232085   3.569   3.468  12.999  0.1865 -4.1066  2.2375
 6876SOL     OW32086   1.768   2.815   5.292  0.3164 -0.2345 -0.0905
 6876SOL    HW132087   1.778   2.886   5.355 -0.8339 -2.1464  2.2860
 6876SOL    HW232088   1.673   2.809   5.279  0.5963  1.7637 -2.8656
 6877SOL     OW32089   0.623   1.816   7.729  0.1864  0.0732 -0.2687
 6877SOL    HW132090   0.638   1.737   7.781 -0.8638  0.3776  0.4928
 6877SOL    HW232091   0.708   1.832   7.688  1.7111 -0.8833  2.5367
 6878SOL     OW32092   4.093   2.121  11.840 -0.2630  0.0981  0.3574
 6878SOL    HW132093   4.020   2.157  11.888  1.5068  0.3916  2.8129
 6878SOL    HW232094   4.118   2.040  11.886 -0.6434 -0.7642 -0.9357
 6879SOL     OW32095   2.133   0.450  10.316 -0.0974  0.0291  0.3894
 6879SOL    HW132096   2.085   0.369  10.303 -1.9307  1.2593 -0.4875
 6879SOL    HW232097   2.093   0.489  10.393  0.0604 -0.2932  0.6338
 6880SOL     OW32098   3.770   3.673   4.739 -0.2464 -0.0167 -0.4184
 6880SOL    HW132099   3.755   3.759   4.777  1.5089 -0.6880  1.7823
 6880SOL    HW232100   3.802   3.612   4.805  0.1095 -1.6536 -2.0741
 6881SOL     OW32101   1.704   0.803   7.685 -0.0226 -0.0722  0.2964
 6881SOL    HW132102   1.684   0.878   7.742 -3.0608  1.0284 -2.2121
 6881SOL    HW232103   1.778   0.837   7.635 -1.2700 -0.0579 -1.5560
 6882SOL     OW32104   1.767   0.828   5.408  0.2820  0.4770 -0.2590
 6882SOL    HW132105   1.766   0.785   5.322  0.9433  1.6007 -0.8280
 6882SOL    HW232106   1.729   0.908   5.372 -1.3406  0.0945  0.5978
 6883SOL     OW32107   4.549   1.252   7.813  0.1649  0.8843  0.4284
 6883SOL    HW132108   4.537   1.226   7.721 -1.7126  2.4286  0.2550
 6883SOL    HW232109   4.478   1.316   7.815 -0.7292 -0.2049  2.7717
 6884SOL     OW32110   0.596   2.716   8.676 -0.0169 -0.3470 -0.5728
 6884SOL    HW132111   0.659   2.773   8.720 -2.2149  1.1351  0.6706
 6884SOL    HW232112   0.522   2.777   8.670 -0.0549 -0.4151 -0.7874
 6885SOL     OW32113   2.772   0.648  12.103  0.5292  0.0939  0.0959
 6885SOL    HW132114   2.832   0.630  12.176  0.7969  1.7495  0.2959
 6885SOL    HW232115   2.690   0.605  12.127  0.2140  0.0221 -1.1287
 6886SOL     OW32116   2.070   3.217   8.482 -0.8207 -0.0247  0.1069
 6886SOL    HW132117   2.030   3.292   8.526  0.4614  1.5187 -1.3570
 6886SOL    HW232118   2.023   3.207   8.399  2.1028 -0.7649 -1.4544
 6887SOL     OW32119   3.116   3.560  15.634  0.1507  0.3800  0.3837
 6887SOL    HW132120   3.068   3.595  15.559  0.6022  1.7849  0.7393
 6887SOL    HW232121   3.205   3.544  15.605 -0.0604  0.7595 -0.4753
 6888SOL     OW32122   1.726   0.129   4.566  0.5831  0.7583  0.0961
 6888SOL    HW132123   1.724   0.196   4.497  0.6595 -0.2223 -0.8433
 6888SOL    HW232124   1.636   0.130   4.598  0.8911 -0.7761  0.9820
 6889SOL     OW32125   3.315   4.384   8.171  0.5987  0.0274  0.1291
 6889SOL    HW132126   3.222   4.373   8.151  0.7742  0.3740 -0.9030
 6889SOL    HW232127   3.335   4.304   8.219  0.7689  1.2922  2.1897
 6890SOL     OW32128   3.775   1.502   6.767  0.1565 -0.4591  0.1994
 6890SOL    HW132129   3.869   1.520   6.757 -0.1138  0.8061 -0.1330
 6890SOL    HW232130   3.777   1.541   6.854 -1.0820  0.9545 -0.3921
 6891SOL     OW32131   1.608   4.543  12.943 -0.2235  0.0933  0.5465
 6891SOL    HW132132   1.654   4.547  12.859 -2.1867 -0.9867 -0.5671
 6891SOL    HW232133   1.524   4.512  12.910 -1.3758  2.4898  1.2350
 6892SOL     OW32134   2.369   3.907   3.643 -0.0962 -0.4053 -0.0204
 6892SOL    HW132135   2.445   3.951   3.682 -0.0500  1.1296 -1.8443
 6892SOL    HW232136   2.312   3.985   3.649 -0.4043 -0.6185 -0.1777
 6893SOL     OW32137   1.519   4.548   3.263 -0.5559  0.1101 -0.2011
 6893SOL    HW132138   1.533   4.596   3.181 -1.7269  1.1580  0.2173
 6893SOL    HW232139   1.453   4.482   3.243 -0.0049 -1.0140  1.7570
 6894SOL     OW32140   0.701   1.861   9.149  0.2773  0.1366  0.4712
 6894SOL    HW132141   0.754   1.846   9.071  0.0256 -0.8886  0.4948
 6894SOL    HW232142   0.617   1.856   9.103 -0.4261 -0.4802  1.8142
 6895SOL     OW32143   4.135   1.841   5.061 -0.2777 -0.6656  0.5707
 6895SOL    HW132144   4.193   1.810   4.992  0.6319  2.3865 -0.0139
 6895SOL    HW232145   4.051   1.825   5.019 -0.5194  0.8732  0.4633
 6896SOL     OW32146   0.709   3.308   3.651 -0.1558  0.3502 -0.4060
 6896SOL    HW132147   0.748   3.394   3.667  1.8035 -0.4510 -0.8163
 6896SOL    HW232148   0.780   3.273   3.597  0.4030  0.1726  0.4261
 6897SOL     OW32149   3.977   0.362   5.423  0.1534 -0.2486  0.4779
 6897SOL    HW132150   3.990   0.434   5.361 -1.1027 -0.1584  0.3140
 6897SOL    HW232151   3.955   0.292   5.361 -3.0148 -0.5842  1.9781
 6898SOL     OW32152   4.656   0.463  13.013 -0.1272  0.0999 -0.4748
 6898SOL    HW132153   4.678   0.446  12.921  1.1399  0.0616 -0.1615
 6898SOL    HW232154   0.017   0.481  13.057  0.1059 -1.7508 -0.1564
 6899SOL     OW32155   3.922   0.347  14.718 -0.5680  0.4401  0.2584
 6899SOL    HW132156   3.960   0.306  14.640 -0.9613 -1.5483  1.0958
 6899SOL    HW232157   3.975   0.307  14.787  1.1686  1.2693 -0.5924
 6900SOL     OW32158   4.273   2.616   6.186  0.1431  0.4371 -0.4347
 6900SOL    HW132159   4.368   2.604   6.192 -0.0630 -0.0340  1.6403
 6900SOL    HW232160   4.273   2.712   6.179 -0.8850  0.4393 -0.4746
 6901SOL     OW32161   0.419   4.072   7.540  0.4379 -0.0592 -0.0052
 6901SOL    HW132162   0.397   3.984   7.511 -2.9223  1.1125 -1.0652
 6901SOL    HW232163   0.498   4.055   7.592  0.3989  2.4059  0.8921
 6902SOL     OW32164   1.007   4.390   2.371  0.2054 -0.2882  0.2122
 6902SOL    HW132165   0.973   4.452   2.307  1.3531  0.8424  0.6947
 6902SOL    HW232166   0.981   4.300   2.351  0.5209  0.0744 -1.8076
 6903SOL     OW32167   2.351   2.261   3.250  0.5681  0.0051 -0.4596
 6903SOL    HW132168   2.306   2.178   3.232  0.3595  0.0143  0.0403
 6903SOL    HW232169   2.402   2.241   3.328 -1.9227  1.1040  1.4117
 6904SOL     OW32170   0.627   3.689   6.096 -0.9298 -0.5180  0.0587
 6904SOL    HW132171   0.576   3.770   6.100  0.5961  0.4591 -0.4672
 6904SOL    HW232172   0.622   3.655   6.185 -0.8080  2.1170  1.0804
 6905SOL     OW32173   1.950   2.928   2.150  0.0400 -0.4653 -0.4446
 6905SOL    HW132174   1.982   3.002   2.098  0.6923 -0.0915  0.4795
 6905SOL    HW232175   2.002   2.935   2.230  2.9830 -1.9391 -2.2304
 6906SOL     OW32176   4.162   0.314   6.804  0.2006 -0.3059 -0.3513
 6906SOL    HW132177   4.146   0.408   6.820  2.4697 -0.0439  0.3653
 6906SOL    HW232178   4.079   0.292   6.761 -0.2721 -0.6491  0.7229
 6907SOL     OW32179   0.080   2.960   8.978  0.0496 -0.0450 -0.0118
 6907SOL    HW132180   0.111   2.943   8.889  3.2146 -0.2423  1.1223
 6907SOL    HW232181   0.144   3.023   9.010  0.3015 -0.5106  0.3875
 6908SOL     OW32182   0.192   2.900   6.265  0.4928  0.5963  0.2551
 6908SOL    HW132183   0.148   2.870   6.345  0.5375  1.1630  0.4886
 6908SOL    HW232184   0.122   2.883   6.201  1.3689 -0.5876 -0.3804
 6909SOL     OW32185   4.551   1.517  13.626 -0.2838  0.1750 -0.0389
 6909SOL    HW132186   4.637   1.535  13.664 -0.6967  0.5634  0.7260
 6909SOL    HW232187   4.551   1.574  13.549  1.0705 -1.8835 -1.5465
 6910SOL     OW32188   3.622   4.300  15.672  0.2307  0.2850 -1.1816
 6910SOL    HW132189   3.660   4.381  15.706 -2.1041  0.5409  0.8231
 6910SOL    HW232190   3.662   4.243  15.737  1.5377 -0.2931 -2.5077
 6911SOL     OW32191   4.225   0.120   8.130 -0.1150 -0.2044  0.1429
 6911SOL    HW132192   4.162   0.079   8.070 -0.1326  0.6109 -0.3950
 6911SOL    HW232193   4.187   0.206   8.144 -0.2348 -0.0054 -1.4375
 6912SOL     OW32194   0.635   2.619   9.053  0.0609  0.0034 -0.0902
 6912SOL    HW132195   0.609   2.559   9.123  2.3218  1.3391  1.9133
 6912SOL    HW232196   0.637   2.555   8.982 -0.9129  0.5429 -0.6168
 6913SOL     OW32197   1.933   4.718   6.379  0.1470  0.3754  0.1981
 6913SOL    HW132198   1.907   4.637   6.423 -0.8679  0.6838  0.1696
 6913SOL    HW232199   1.853   0.049   6.383  0.7388  1.1803  1.3733
 6914SOL     OW32200   0.717   3.890   2.924  0.5164  0.1924  0.5171
 6914SOL    HW132201   0.666   3.945   2.983  0.0221  1.1512 -0.7978
 6914SOL    HW232202   0.684   3.801   2.934 -1.7669  0.7785 -1.8075
 6915SOL     OW32203   2.942   0.918   8.334 -0.6304 -0.5344  0.5764
 6915SOL    HW132204   2.970   0.827   8.343  0.0012 -0.3628  0.4254
 6915SOL    HW232205   2.908   0.942   8.420 -1.4082  1.8360 -0.3819
 6916SOL     OW32206   1.510   2.463   6.115  0.6738 -0.4655 -0.0502
 6916SOL    HW132207   1.520   2.369   6.128  2.1375 -0.1237  1.3661
 6916SOL    HW232208   1.434   2.458   6.058  1.6137 -3.5218 -1.0359
 6917SOL     OW32209   2.557   0.060  11.290 -0.1285 -0.3257 -0.4193
 6917SOL    HW132210   2.589   4.719  11.225 -0.2245  1.1739 -1.9210
 6917SOL    HW232211   2.461   0.058  11.292 -0.0972 -1.2171  0.0628
 6918SOL     OW32212   0.027   1.568   6.447  0.3384 -0.1483 -0.4289
 6918SOL    HW132213   0.085   1.493   6.459  0.1096 -0.3813 -0.7628
 6918SOL    HW232214   4.665   1.523   6.436 -0.8426  1.7589  0.8066
 6919SOL     OW32215   3.259   3.249   3.139 -0.1154  0.1519  0.2117
 6919SOL    HW132216   3.227   3.179   3.196 -0.4492  0.5276  0.4863
 6919SOL    HW232217   3.178   3.292   3.109  2.1279  2.1588 -2.9838
 6920SOL     OW32218   3.905   3.626  10.738  0.1952 -0.8054 -0.7601
 6920SOL    HW132219   3.832   3.584  10.693 -1.2415 -0.6137  1.3971
 6920SOL    HW232220   3.862   3.708  10.760  1.6317  0.5076 -2.8555
 6921SOL     OW32221   3.231   3.767   6.500 -0.1209 -0.2379  0.7151
 6921SOL    HW132222   3.195   3.839   6.553 -0.3885  0.6224 -0.6229
 6921SOL    HW232223   3.301   3.814   6.456 -0.0799 -1.3477 -0.3929
 6922SOL     OW32224   3.639   1.340   4.753 -0.4038 -0.7981 -0.0144
 6922SOL    HW132225   3.706   1.288   4.797  0.8720  1.5525  0.7686
 6922SOL    HW232226   3.587   1.277   4.702  0.0749  0.2784 -1.8281
 6923SOL     OW32227   4.322   0.807   9.085 -0.5264 -0.5391 -0.2152
 6923SOL    HW132228   4.237   0.849   9.101 -0.8431 -0.9317 -0.8779
 6923SOL    HW232229   4.364   0.870   9.026 -0.1038  0.7914  1.4953
 6924SOL     OW32230   1.053   1.855   4.575  0.1350 -0.5307 -0.0772
 6924SOL    HW132231   1.072   1.766   4.605  3.2905  0.5240  1.0737
 6924SOL    HW232232   1.096   1.921   4.630  1.8385  0.9387 -3.2109
 6925SOL     OW32233   3.259   1.811  14.150 -0.2120 -0.5911  0.5721
 6925SOL    HW132234   3.320   1.885  14.139  0.1808 -0.9516  0.3181
 6925SOL    HW232235   3.205   1.853  14.217 -1.9621 -0.2555 -1.0684
 6926SOL     OW32236   4.352   0.271   2.538  0.2455 -0.3525 -0.1641
 6926SOL    HW132237   4.315   0.337   2.478  2.0967  0.4855 -0.3878
 6926SOL    HW232238   4.328   0.301   2.625  0.3733  3.9510 -1.5947
 6927SOL     OW32239   1.655   3.547  11.348  0.5394  0.3626 -0.5905
 6927SOL    HW132240   1.626   3.481  11.284 -0.0499 -0.0000  0.0478
 6927SOL    HW232241   1.688   3.495  11.421  1.8286  1.4449 -0.4032
 6928SOL     OW32242   0.057   4.164   5.371  0.4099 -0.1729 -0.3488
 6928SOL    HW132243   0.022   4.171   5.282  0.4459  0.8990 -0.2819
 6928SOL    HW232244   4.713   4.108   5.412 -1.7447  1.6693 -1.2956
 6929SOL     OW32245   3.521   4.096  16.019 -0.2126 -0.4137 -0.7133
 6929SOL    HW132246   3.575   4.110  15.942  0.0907  0.4169 -0.3474
 6929SOL    HW232247   3.446   4.150  15.996  0.4168  1.0087  0.5893
 6930SOL     OW32248   3.379   0.918   4.274  0.1191 -0.4261  0.6043
 6930SOL    HW132249   3.450   0.884   4.328  0.3515 -1.4982 -0.3883
 6930SOL    HW232250   3.390   1.010   4.299 -1.3614 -0.7399  2.4237
 6931SOL     OW32251   2.274   1.946   0.382 -0.0033 -0.0223 -0.6861
 6931SOL    HW132252   2.338   1.921   0.315  0.3740 -0.4924 -0.1512
 6931SOL    HW232253   2.305   2.032   0.410 -1.5270 -0.7009  3.1291
 6932SOL     OW32254   3.468   2.780   6.014  0.4068  0.4263  0.6743
 6932SOL    HW132255   3.467   2.862   6.064  0.0194 -0.1686  1.6274
 6932SOL    HW232256   3.377   2.753   6.027  0.4954 -0.4978 -0.7350
 6933SOL     OW32257   4.242   3.871  13.520  0.5745 -0.1308  0.0932
 6933SOL    HW132258   4.155   3.835  13.498  0.5387 -1.3759  2.3194
 6933SOL    HW232259   4.245   3.931  13.445  2.0467  1.1097  1.1512
 6934SOL     OW32260   2.180   3.601   2.024 -0.5700  0.4041  0.0263
 6934SOL    HW132261   2.253   3.552   1.986 -0.1689  1.3948 -0.4823
 6934SOL    HW232262   2.217   3.688   2.040 -0.0849 -0.3028  2.7397
 6935SOL     OW32263   1.842   1.757   1.389  0.0357  0.3121 -0.0914
 6935SOL    HW132264   1.799   1.775   1.305  0.5254  1.7664 -0.0311
 6935SOL    HW232265   1.773   1.726   1.447 -0.8317 -1.0450 -1.8573
 6936SOL     OW32266   1.096   2.921  17.378 -0.4165 -0.1590  0.2810
 6936SOL    HW132267   1.025   2.949  17.436 -0.5318  0.1104  0.0130
 6936SOL    HW232268   1.099   3.006  17.333  2.2626  0.8424  2.3770
 6937SOL     OW32269   3.228   4.158   2.767  0.1823  0.1265 -0.9504
 6937SOL    HW132270   3.258   4.249   2.765  0.2203  0.0751 -2.2761
 6937SOL    HW232271   3.302   4.117   2.813 -0.5690 -0.0174  0.1389
 6938SOL     OW32272   0.903   3.123   9.926  0.9224 -0.1544  0.1374
 6938SOL    HW132273   0.832   3.074   9.883 -0.6722  3.7804 -1.8250
 6938SOL    HW232274   0.864   3.161  10.005  1.0144  1.6417 -0.6791
 6939SOL     OW32275   2.491   3.811   0.438 -0.3421 -0.8796  0.7715
 6939SOL    HW132276   2.470   3.867   0.363 -0.9468  0.9094  2.2573
 6939SOL    HW232277   2.580   3.844   0.456 -0.6709 -0.2807  1.3063
 6940SOL     OW32278   1.285   4.568   9.136  0.4924  0.6422 -0.0748
 6940SOL    HW132279   1.374   4.552   9.106 -0.0947 -1.7866 -0.4649
 6940SOL    HW232280   1.304   4.579   9.230  1.4535  1.5501 -0.3768
 6941SOL     OW32281   2.315   1.264   3.886 -0.2602  0.1096 -0.2074
 6941SOL    HW132282   2.253   1.334   3.908  1.5202  2.0039 -1.1942
 6941SOL    HW232283   2.308   1.192   3.948  0.9470  0.2909  0.1420
 6942SOL     OW32284   4.603   4.496  15.931  0.2931  0.3516  0.4151
 6942SOL    HW132285   4.643   4.496  15.843 -1.6985  0.0854 -0.4789
 6942SOL    HW232286   4.547   4.423  15.903  0.2042 -0.0939  1.7383
 6943SOL     OW32287   3.186   0.191   8.343  0.1455 -0.2259 -0.7714
 6943SOL    HW132288   3.269   0.144   8.350 -0.3224 -0.8306  0.6361
 6943SOL    HW232289   3.161   0.213   8.433  0.4825  3.5941 -1.5863
 6944SOL     OW32290   2.635   1.427   8.685 -0.0399  0.2650  0.1961
 6944SOL    HW132291   2.628   1.381   8.768  0.7287  2.8594  1.7142
 6944SOL    HW232292   2.600   1.356   8.631 -0.7684 -0.4457  1.6040
 6945SOL     OW32293   0.368   3.575   2.214  0.4633  0.2856  0.5563
 6945SOL    HW132294   0.420   3.503   2.250  0.3020  1.3090  2.8840
 6945SOL    HW232295   0.341   3.532   2.133 -1.2191  1.9157  0.2410
 6946SOL     OW32296   3.313   2.729   8.759 -0.1682 -0.3265 -0.2620
 6946SOL    HW132297   3.255   2.662   8.722 -1.0921  0.9872 -1.2208
 6946SOL    HW232298   3.384   2.719   8.695  0.1979  1.7195 -0.1705
 6947SOL     OW32299   1.757   0.150   2.905  0.1154 -0.1232  0.3128
 6947SOL    HW132300   1.825   0.089   2.931  0.0346  0.2071  1.2835
 6947SOL    HW232301   1.680   0.135   2.960 -0.0261  0.5729  0.3139
 6948SOL     OW32302   1.895   3.434   7.612 -0.5008 -0.3545 -0.1874
 6948SOL    HW132303   1.947   3.355   7.627  0.4938  0.3991  0.3443
 6948SOL    HW232304   1.896   3.439   7.516  1.6237 -0.1664 -0.1595
 6949SOL     OW32305   2.888   0.300   5.475  0.5232 -0.2806 -0.2987
 6949SOL    HW132306   2.966   0.294   5.531  0.6220  0.4235 -0.3676
 6949SOL    HW232307   2.851   0.382   5.507  0.4367 -1.3026  2.2327
 6950SOL     OW32308   0.459   1.044  10.163  0.0000  0.1646 -0.1530
 6950SOL    HW132309   0.508   1.067  10.241 -1.2462 -0.2145  0.7411
 6950SOL    HW232310   0.472   1.122  10.108 -2.2390  0.7973  0.1882
 6951SOL     OW32311   2.648   1.234  13.260  0.1248  0.4413 -0.2563
 6951SOL    HW132312   2.690   1.161  13.214 -0.5799 -0.5099  0.6286
 6951SOL    HW232313   2.578   1.264  13.202 -0.3443 -0.0457  0.0603
 6952SOL     OW32314   2.178   0.030   4.162  0.1734  0.5358 -0.1746
 6952SOL    HW132315   2.192   0.048   4.255 -0.6066  1.7915 -0.2982
 6952SOL    HW232316   2.132   0.107   4.128  1.4173  1.8827  1.2112
 6953SOL     OW32317   1.219   0.129  15.544 -0.4921  0.0804  0.5496
 6953SOL    HW132318   1.307   0.107  15.574  0.2168  4.0235  1.3452
 6953SOL    HW232319   1.236   0.199  15.481 -2.1420 -1.5136 -1.6925
 6954SOL     OW32320   2.980   4.276   5.981  0.4390  0.5168 -0.0078
 6954SOL    HW132321   2.921   4.200   5.988  2.8167 -1.2422  1.1454
 6954SOL    HW232322   3.049   4.232   5.931  1.4879  2.0891  0.0648
 6955SOL     OW32323   2.765   1.372   5.723  0.4070 -0.4388  0.2241
 6955SOL    HW132324   2.683   1.398   5.679  0.5968  1.9903  1.2834
 6955SOL    HW232325   2.764   1.277   5.716  0.6944 -0.3641 -0.8280
 6956SOL     OW32326   2.915   4.461   2.477  0.1057 -0.4256  0.0387
 6956SOL    HW132327   2.893   4.383   2.529 -1.7888 -1.4095 -2.1980
 6956SOL    HW232328   2.835   4.480   2.427  0.4401 -3.0097 -1.4916
 6957SOL     OW32329   1.371   3.424   9.330  0.0866 -0.3480  0.1263
 6957SOL    HW132330   1.296   3.406   9.387 -1.5153  0.6340 -1.6777
 6957SOL    HW232331   1.446   3.422   9.389 -1.3455  0.1420  2.0025
 6958SOL     OW32332   1.811   0.389  17.384 -0.2547 -0.2166  0.5200
 6958SOL    HW132333   1.782   0.301  17.359 -1.1007  0.3241 -0.3709
 6958SOL    HW232334   1.902   0.370  17.406 -0.0714 -0.4377 -0.4521
 6959SOL     OW32335   1.595   3.164  14.834 -0.3972  0.1533 -0.1582
 6959SOL    HW132336   1.603   3.093  14.770  1.3670  0.8398 -0.7061
 6959SOL    HW232337   1.649   3.238  14.804  0.7280 -0.0296  1.4200
 6960SOL     OW32338   3.467   4.111   2.057 -0.0153 -0.7139  0.7075
 6960SOL    HW132339   3.381   4.139   2.089 -0.6470 -2.3029  0.3684
 6960SOL    HW232340   3.502   4.196   2.031  0.0064 -0.6674  0.8844
 6961SOL     OW32341   0.260   0.299   2.826  0.2926 -0.5161  0.4300
 6961SOL    HW132342   0.334   0.338   2.778 -1.1555  1.0946 -0.5209
 6961SOL    HW232343   0.262   0.363   2.897  1.2710 -0.7103  0.5790
 6962SOL     OW32344   1.593   4.055   9.275 -0.2542  0.0393 -0.0402
 6962SOL    HW132345   1.538   3.977   9.281  2.2209 -1.8731 -2.3299
 6962SOL    HW232346   1.643   4.034   9.354  0.8383 -0.3508 -0.8397
 6963SOL     OW32347   4.361   0.262  13.319  0.7035 -0.1177 -0.1146
 6963SOL    HW132348   4.363   0.167  13.310  0.5618 -0.1838  0.5450
 6963SOL    HW232349   4.300   0.272  13.392  1.2209  1.6288  0.0729
 6964SOL     OW32350   2.977   2.161   3.637  0.0341  0.0950  0.0437
 6964SOL    HW132351   2.912   2.125   3.577  0.0671  1.3778 -0.7540
 6964SOL    HW232352   3.043   2.181   3.570  1.1080  3.1072  1.9953
 6965SOL     OW32353   4.616   0.128   2.325 -0.4246 -0.0355 -0.1516
 6965SOL    HW132354   4.691   0.183   2.301 -0.6168  0.1992 -0.2155
 6965SOL    HW232355   4.638   0.044   2.285 -1.3502 -1.2182  1.8410
 6966SOL     OW32356   0.090   0.197   4.914  0.1355  0.6714  0.0480
 6966SOL    HW132357   0.021   0.260   4.935  2.0544  2.5910  0.4927
 6966SOL    HW232358   0.114   0.172   5.003 -1.9443  0.0562  0.4310
 6967SOL     OW32359   3.286   4.302  10.743  0.6446 -0.2935  0.3797
 6967SOL    HW132360   3.230   4.332  10.815 -1.1522  4.1369 -2.8432
 6967SOL    HW232361   3.250   4.214  10.740 -0.1895  0.0290  0.7333
 6968SOL     OW32362   3.031   0.909  13.434 -0.2797 -0.0246  0.2260
 6968SOL    HW132363   3.118   0.928  13.469  0.8012 -3.1332 -0.7375
 6968SOL    HW232364   2.973   0.971  13.477 -0.5981  0.8400 -1.4629
 6969SOL     OW32365   3.515   2.333   6.203  0.1699 -0.0824  0.0898
 6969SOL    HW132366   3.436   2.382   6.182  0.4545  0.9634  1.4709
 6969SOL    HW232367   3.489   2.241   6.196  0.2105 -0.2418  1.8652
 6970SOL     OW32368   4.353   1.376  14.009 -0.1882 -0.1894  0.1622
 6970SOL    HW132369   4.419   1.439  13.979 -0.5291  0.4474  0.7257
 6970SOL    HW232370   4.304   1.362  13.929  2.7679 -0.8073 -1.5399
 6971SOL     OW32371   2.784   1.443  14.780  0.1433 -1.2578 -0.4281
 6971SOL    HW132372   2.873   1.421  14.751  0.0091 -1.2759 -0.8239
 6971SOL    HW232373   2.768   1.371  14.841 -0.2931 -0.5569  0.2818
 6972SOL     OW32374   3.876   2.433   6.575 -0.7891 -0.5707  0.2437
 6972SOL    HW132375   3.797   2.481   6.550  0.7670 -0.3726 -4.2259
 6972SOL    HW232376   3.945   2.475   6.524 -0.4239 -0.3205  0.9451
 6973SOL     OW32377   1.302   1.517   8.326  0.1751 -0.2334 -0.3002
 6973SOL    HW132378   1.360   1.539   8.254 -0.0113 -1.5874 -0.8480
 6973SOL    HW232379   1.276   1.430   8.297 -3.7398  1.2309 -1.2016
 6974SOL     OW32380   4.039   4.373   7.657 -0.1199 -0.1088  0.3042
 6974SOL    HW132381   3.961   4.340   7.612  0.3018  0.0286 -0.5184
 6974SOL    HW232382   4.064   4.306   7.721  2.0715 -1.6371 -2.1674
 6975SOL     OW32383   1.800   3.966   2.436  0.2712  0.4549  0.0914
 6975SOL    HW132384   1.870   3.981   2.499  0.4505  0.7870 -0.1916
 6975SOL    HW232385   1.814   3.875   2.409 -2.9697 -0.1196  0.2269
 6976SOL     OW32386   3.911   1.337  10.304  0.5770 -0.1937  0.1558
 6976SOL    HW132387   3.841   1.278  10.330 -0.2356  0.5607 -0.2810
 6976SOL    HW232388   3.883   1.344  10.212  0.5660  2.2802  0.3461
 6977SOL     OW32389   1.601   3.401   4.252  0.0121  0.2343 -0.0579
 6977SOL    HW132390   1.654   3.324   4.273  1.5148  1.6365  1.2440
 6977SOL    HW232391   1.526   3.391   4.311 -0.0307  0.5242 -0.0646
 6978SOL     OW32392   0.952   1.022   6.366  0.1211 -0.2301  0.3172
 6978SOL    HW132393   0.896   1.096   6.342  0.2579 -0.6210 -1.2347
 6978SOL    HW232394   0.909   0.997   6.447 -1.1244 -1.1315 -0.6382
 6979SOL     OW32395   2.203   1.972   3.864 -0.2253  0.1908 -0.0988
 6979SOL    HW132396   2.117   1.996   3.897  1.2341  1.3613  2.8826
 6979SOL    HW232397   2.216   1.882   3.894  0.9209 -0.1334 -1.5506
 6980SOL     OW32398   1.013   0.696   2.681 -0.3350  0.5643 -0.4894
 6980SOL    HW132399   0.983   0.663   2.766 -1.7297 -2.3284 -2.1256
 6980SOL    HW232400   1.098   0.653   2.685 -0.8167 -0.3076  0.5391
 6981SOL     OW32401   1.308   2.211   2.394  0.1154 -0.1148  0.5843
 6981SOL    HW132402   1.247   2.157   2.445  0.9313 -0.8085  0.8171
 6981SOL    HW232403   1.385   2.186   2.445  2.0513 -1.0952 -2.7972
 6982SOL     OW32404   3.105   1.793   5.313  0.0944  0.0921  0.5740
 6982SOL    HW132405   3.081   1.852   5.384 -1.6153  1.3417 -1.0438
 6982SOL    HW232406   3.188   1.827   5.281  0.1025 -0.7383 -0.2891
 6983SOL     OW32407   3.372   0.598   4.463  0.0768 -0.9552 -0.4358
 6983SOL    HW132408   3.428   0.553   4.526  0.1775  0.9102  0.8327
 6983SOL    HW232409   3.428   0.675   4.447 -0.1790 -0.9727 -1.4127
 6984SOL     OW32410   3.933   1.404   6.286 -0.4377  0.2998  0.3826
 6984SOL    HW132411   3.851   1.439   6.252  0.6271 -0.6913 -3.1720
 6984SOL    HW232412   3.902   1.380   6.373  0.6034  0.3071  0.7498
 6985SOL     OW32413   0.152   1.388   5.921  0.1168 -0.4426 -0.3272
 6985SOL    HW132414   0.093   1.366   5.992  0.4837 -0.5183 -0.0471
 6985SOL    HW232415   0.128   1.481   5.919  2.1591  0.0618 -2.1827
 6986SOL     OW32416   4.583   3.597  11.290 -0.3370  0.3846 -0.6214
 6986SOL    HW132417   4.573   3.587  11.196  3.9945 -0.9962 -0.9041
 6986SOL    HW232418   4.498   3.574  11.329 -0.1442 -1.0256 -1.0469
 6987SOL     OW32419   3.334   4.215  13.292 -0.2667  0.0242 -0.3692
 6987SOL    HW132420   3.319   4.121  13.286 -0.2519  0.1988 -2.9953
 6987SOL    HW232421   3.243   4.245  13.291 -0.7633 -1.4523 -0.0394
 6988SOL     OW32422   3.712   2.835   8.916  0.0416  0.0942  0.2333
 6988SOL    HW132423   3.765   2.817   8.993 -3.8290 -0.0854  2.8466
 6988SOL    HW232424   3.678   2.747   8.898  0.8693 -0.1263 -0.2200
 6989SOL     OW32425   2.598   1.735   4.970 -0.0008 -0.1635 -0.4972
 6989SOL    HW132426   2.620   1.646   4.997 -0.7894  0.0249  0.7269
 6989SOL    HW232427   2.678   1.781   4.996  1.1996 -1.2122 -2.2995
 6990SOL     OW32428   1.802   2.799   3.700  0.0177 -0.5128 -0.6748
 6990SOL    HW132429   1.781   2.892   3.702  1.4740 -0.1616 -1.7657
 6990SOL    HW232430   1.881   2.799   3.646 -0.2694  0.5119 -1.0807
 6991SOL     OW32431   0.990   4.122   3.942  0.0485 -1.1589 -0.1123
 6991SOL    HW132432   0.941   4.058   3.889 -0.4210  1.3419 -2.7031
 6991SOL    HW232433   0.921   4.162   3.995 -1.2150 -2.4101 -0.7852
 6992SOL     OW32434   4.047   0.541   9.108 -0.1043 -0.1630  0.0214
 6992SOL    HW132435   4.033   0.609   9.174 -0.1396 -0.2900  0.1473
 6992SOL    HW232436   4.107   0.576   9.043  1.0364 -0.2633  1.0150
 6993SOL     OW32437   0.443   1.823   6.879  0.1756  0.5680 -0.1476
 6993SOL    HW132438   0.399   1.908   6.876  2.0642  1.5252 -0.8954
 6993SOL    HW232439   0.401   1.763   6.818 -1.9997 -0.7134  2.6055
 6994SOL     OW32440   4.687   2.891   5.249  0.4310  0.3851  0.1152
 6994SOL    HW132441   4.701   2.932   5.164 -0.6911  2.7653  1.0824
 6994SOL    HW232442   4.712   2.966   5.303  0.2793  0.8937 -0.5285
 6995SOL     OW32443   2.201   4.341  17.235 -0.0037  0.2472 -0.1181
 6995SOL    HW132444   2.106   4.342  17.251  0.0257 -2.1487  0.1845
 6995SOL    HW232445   2.220   4.250  17.216  0.0372  0.8568 -2.9130
 6996SOL     OW32446   2.095   2.955   3.853 -0.1306 -0.1128 -0.4133
 6996SOL    HW132447   2.128   2.992   3.934  1.1223  0.1825 -1.0599
 6996SOL    HW232448   2.045   3.030   3.820 -0.0951 -0.3198 -0.9356
 6997SOL     OW32449   4.122   2.781  12.917 -0.2891 -0.3112  0.1005
 6997SOL    HW132450   4.173   2.856  12.887  0.2100 -0.9221 -0.5763
 6997SOL    HW232451   4.178   2.709  12.889  0.3775  0.4372 -0.4767
 6998SOL     OW32452   0.621   0.884   9.428 -0.5447  0.6669  0.7897
 6998SOL    HW132453   0.685   0.813   9.423 -1.0140  0.2936  0.1105
 6998SOL    HW232454   0.592   0.869   9.518 -0.2121  1.4531  1.0260
 6999SOL     OW32455   2.714   2.466   4.360 -0.2676 -0.2089  0.1458
 6999SOL    HW132456   2.648   2.530   4.388 -2.5423 -1.9414 -1.2043
 6999SOL    HW232457   2.687   2.453   4.269  1.1097 -1.2353 -0.1118
 7000SOL     OW32458   0.015   0.413   3.458  0.2472  0.5737  0.1437
 7000SOL    HW132459   0.089   0.465   3.426  0.6505  0.3643  0.7389
 7000SOL    HW232460   4.677   0.402   3.384 -0.3314  1.5128  0.4858
 7001SOL     OW32461   2.411   2.021  16.802  0.0168  0.2622 -0.1545
 7001SOL    HW132462   2.316   2.011  16.815  0.1495  0.0290  0.6077
 7001SOL    HW232463   2.423   2.095  16.741  2.9235 -2.3009 -2.6965
 7002SOL     OW32464   2.660   2.432   4.096 -0.1974  0.5699 -0.1489
 7002SOL    HW132465   2.652   2.348   4.052 -0.5953  0.7178 -0.3560
 7002SOL    HW232466   2.722   2.479   4.040 -0.8314  0.3517 -1.0282
 7003SOL     OW32467   4.684   4.700   6.341 -0.1861 -0.1540 -0.7613
 7003SOL    HW132468   4.717   4.696   6.430 -1.5095 -2.0394 -0.3426
 7003SOL    HW232469   0.014   4.627   6.307  0.2267  0.1824 -0.8448
 7004SOL     OW32470   0.527   3.256   2.661  0.9096  0.2019  0.1138
 7004SOL    HW132471   0.589   3.329   2.657 -0.5793  1.4213 -0.6850
 7004SOL    HW232472   0.566   3.196   2.597 -3.5019 -2.0643 -0.5081
 7005SOL     OW32473   3.887   0.579   7.320  0.0809  0.2182 -0.1498
 7005SOL    HW132474   3.944   0.625   7.258  1.9331 -0.8508  0.7537
 7005SOL    HW232475   3.817   0.644   7.329  0.4467  0.7190 -0.9157
 7006SOL     OW32476   2.601   4.187   2.233 -0.6778 -0.3764 -0.2220
 7006SOL    HW132477   2.687   4.224   2.211 -1.3351  0.6394 -1.0871
 7006SOL    HW232478   2.583   4.134   2.155 -0.3278 -0.6131 -0.1422
 7007SOL     OW32479   4.057   0.014  13.300 -0.1911  0.1568 -0.0777
 7007SOL    HW132480   3.962   0.026  13.300 -0.1849  0.1812 -1.0154
 7007SOL    HW232481   4.081   0.099  13.337  3.9171 -1.5462  1.2566
 7008SOL     OW32482   1.164   4.432   6.489 -0.5244  0.2403 -0.1012
 7008SOL    HW132483   1.216   4.352   6.501 -0.0813  0.6865  0.9196
 7008SOL    HW232484   1.146   4.430   6.395 -1.6442  3.7364  0.0528
 7009SOL     OW32485   2.800   3.256   5.342 -0.0921 -0.2942 -0.1896
 7009SOL    HW132486   2.742   3.329   5.363 -0.1067 -0.5504  0.6427
 7009SOL    HW232487   2.866   3.276   5.408  1.0085 -0.7537 -1.1506
 7010SOL     OW32488   0.870   4.046   5.242 -0.4088 -0.0395  0.7894
 7010SOL    HW132489   0.823   4.118   5.200 -0.4050  0.5711  1.8383
 7010SOL    HW232490   0.946   4.052   5.183 -1.3384  1.0853 -0.2889
 7011SOL     OW32491   4.163   4.485   4.637  0.2736  0.1355 -0.0488
 7011SOL    HW132492   4.091   4.538   4.604 -0.8081 -0.8742  0.6986
 7011SOL    HW232493   4.129   4.452   4.720 -1.5370  0.2237 -0.7721
 7012SOL     OW32494   2.278   2.396   6.853 -0.8707  0.0931 -0.4281
 7012SOL    HW132495   2.284   2.337   6.778  0.1088 -1.6791  1.0364
 7012SOL    HW232496   2.275   2.335   6.927  1.3545  0.3119 -0.1659
 7013SOL     OW32497   4.145   1.515  12.160 -0.4321  0.1428  0.6288
 7013SOL    HW132498   4.181   1.588  12.209  1.0699  1.0459 -1.8205
 7013SOL    HW232499   4.221   1.475  12.118 -1.1850 -0.0972 -0.5133
 7014SOL     OW32500   1.124   1.385  10.826 -0.4268  0.1321  0.2168
 7014SOL    HW132501   1.089   1.349  10.907  1.0800 -0.4045  0.6318
 7014SOL    HW232502   1.114   1.309  10.768  1.8539  0.4701 -0.6095
 7015SOL     OW32503   3.486   3.627  16.308  0.2501 -0.3947 -0.2609
 7015SOL    HW132504   3.547   3.701  16.304 -0.2336 -0.0513 -1.2131
 7015SOL    HW232505   3.466   3.605  16.218 -1.4746 -0.5067  0.1604
 7016SOL     OW32506   2.983   2.172  11.032  0.0119 -0.5411 -0.1530
 7016SOL    HW132507   2.907   2.134  10.988 -0.6852 -0.1480  0.7183
 7016SOL    HW232508   2.994   2.112  11.105  0.2388 -3.6852 -2.7651
 7017SOL     OW32509   1.211   1.779  14.654  0.1881 -0.2010 -0.5708
 7017SOL    HW132510   1.173   1.846  14.597 -0.6807  0.9567  1.3905
 7017SOL    HW232511   1.190   1.705  14.596  1.3721 -0.7410 -0.3034
 7018SOL     OW32512   3.847   2.138  17.509  0.0069  0.5239  0.2842
 7018SOL    HW132513   3.761   2.101  17.491  0.8056 -0.5520 -1.3161
 7018SOL    HW232514   3.864   2.106  17.598 -0.1090 -0.1260  0.0681
 7019SOL     OW32515   0.935   3.068   9.210 -0.0316  0.0817 -0.2665
 7019SOL    HW132516   0.909   2.998   9.269  0.7621 -0.3880 -0.4774
 7019SOL    HW232517   0.944   3.136   9.277  2.6471  0.6243 -1.1759
 7020SOL     OW32518   3.923   3.679  17.265 -0.1669  0.2618  0.3714
 7020SOL    HW132519   3.976   3.683  17.186 -3.5598 -0.3709 -1.9437
 7020SOL    HW232520   3.927   3.768  17.299 -0.5170  0.8631 -1.1606
 7021SOL     OW32521   1.234   3.985   8.268 -0.0208 -0.2773  0.4971
 7021SOL    HW132522   1.184   3.941   8.200  0.7541 -0.9548  0.3608
 7021SOL    HW232523   1.319   3.988   8.225 -0.7193  0.2662 -0.8365
 7022SOL     OW32524   3.864   1.267   7.032  0.1675 -0.0676  0.1421
 7022SOL    HW132525   3.828   1.185   6.997  2.0914  0.2087 -2.4308
 7022SOL    HW232526   3.951   1.261   6.993  0.2376 -0.9658  0.4387
 7023SOL     OW32527   1.740   4.208   5.122 -0.1853  0.7430  0.2893
 7023SOL    HW132528   1.829   4.187   5.093 -0.1710 -0.9020  1.5440
 7023SOL    HW232529   1.680   4.137   5.102  0.1204 -0.0640  2.2465
 7024SOL     OW32530   3.647   1.841  13.775 -0.3870 -0.5118 -0.0072
 7024SOL    HW132531   3.710   1.780  13.812  1.7241  1.1872 -0.8107
 7024SOL    HW232532   3.560   1.800  13.783 -0.7554  0.3468  0.4331
 7025SOL     OW32533   1.358   3.385   4.768  0.1838 -0.4646 -0.3290
 7025SOL    HW132534   1.380   3.331   4.844  1.8598 -0.5523 -0.8809
 7025SOL    HW232535   1.420   3.455   4.789  0.3183 -0.2691 -1.3800
 7026SOL     OW32536   2.805   2.071   7.804 -0.1331  0.2152  0.2393
 7026SOL    HW132537   2.752   2.053   7.727  1.9822 -2.7103 -0.5358
 7026SOL    HW232538   2.743   2.104   7.869  0.2793  0.5691  0.4573
 7027SOL     OW32539   2.224   4.013   6.616 -0.0005  0.3771 -0.2722
 7027SOL    HW132540   2.205   4.078   6.548  0.7559  1.6321  0.7476
 7027SOL    HW232541   2.217   4.055   6.701  1.2370 -0.7384  0.3768
 7028SOL     OW32542   1.794   4.073   9.467 -0.5215 -0.7176  0.5578
 7028SOL    HW132543   1.838   3.995   9.502  3.1597  1.2410  0.3924
 7028SOL    HW232544   1.836   4.136   9.526  1.1072  0.5051 -1.9077
 7029SOL     OW32545   3.722   0.680   3.075 -0.2128  0.1253  0.6805
 7029SOL    HW132546   3.692   0.685   3.166 -1.3484 -1.3879  0.3977
 7029SOL    HW232547   3.718   0.585   3.066  0.4227  0.1097  0.5438
 7030SOL     OW32548   3.598   0.730   3.559 -0.1824 -0.5383  0.2859
 7030SOL    HW132549   3.529   0.787   3.593  0.1701 -0.4054  0.7832
 7030SOL    HW232550   3.671   0.781   3.595  0.8330 -1.6170 -0.2141
 7031SOL     OW32551   2.041   3.146  10.744 -0.2300  0.2424 -0.3274
 7031SOL    HW132552   1.999   3.076  10.693  2.1378 -1.8149  0.5374
 7031SOL    HW232553   1.999   3.136  10.830 -0.3806  0.9812 -0.3215
 7032SOL     OW32554   4.245   1.474   6.589 -0.4197  0.3231 -0.2491
 7032SOL    HW132555   4.326   1.423   6.581 -1.3152 -1.4381  1.6723
 7032SOL    HW232556   4.207   1.461   6.503 -0.0059  1.4277 -0.5934
 7033SOL     OW32557   0.702   4.594   6.540 -0.2113  0.1310 -0.0369
 7033SOL    HW132558   0.724   4.537   6.615 -1.4111 -0.2517  0.0267
 7033SOL    HW232559   0.785   4.640   6.527 -0.4391  0.6930  0.5074
 7034SOL     OW32560   4.556   1.895   1.801 -0.1187  0.2840 -0.1991
 7034SOL    HW132561   4.623   1.964   1.807 -1.0850  1.3564 -1.9292
 7034SOL    HW232562   4.511   1.914   1.719  0.4042 -1.8877 -0.9666
 7035SOL     OW32563   2.570   2.748   6.658  0.1377  0.1045 -0.1675
 7035SOL    HW132564   2.489   2.779   6.699  0.6035 -0.0867  0.9008
 7035SOL    HW232565   2.544   2.731   6.568 -0.0741 -0.0087 -0.0877
 7036SOL     OW32566   0.643   3.601   6.723 -0.3369  0.0818  0.2945
 7036SOL    HW132567   0.616   3.542   6.792 -0.4450  1.9537  1.8484
 7036SOL    HW232568   0.593   3.679   6.745  0.2866  0.4405  0.4487
 7037SOL     OW32569   1.190   1.290   8.197 -0.2199 -0.1670 -0.4565
 7037SOL    HW132570   1.222   1.214   8.148 -0.4172  1.2798 -2.7916
 7037SOL    HW232571   1.113   1.248   8.236  0.7684  1.1798  2.9600
 7038SOL     OW32572   1.850   0.322   5.004 -0.6015  0.0961 -0.2077
 7038SOL    HW132573   1.769   0.368   4.984 -0.5481 -0.2653 -1.2664
 7038SOL    HW232574   1.904   0.309   4.926 -1.3781  4.1733 -1.4071
 7039SOL     OW32575   1.732   0.812   1.726 -0.0802 -0.4954  0.6387
 7039SOL    HW132576   1.765   0.856   1.648  1.1743  0.2300  1.5795
 7039SOL    HW232577   1.696   0.890   1.768 -1.1070 -0.3871 -0.4477
 7040SOL     OW32578   1.366   1.986   4.770  0.3301 -0.2588 -0.4002
 7040SOL    HW132579   1.291   1.998   4.828  0.3131  2.1655 -0.9385
 7040SOL    HW232580   1.345   2.040   4.694  1.0004  0.2370 -0.2375
 7041SOL     OW32581   0.912   1.617   5.265  0.1175 -0.1252  0.3784
 7041SOL    HW132582   0.897   1.688   5.328  2.4187  0.1218  0.6505
 7041SOL    HW232583   0.905   1.538   5.319 -3.9070 -0.4001 -0.5346
 7042SOL     OW32584   4.138   1.991   3.947  0.0358 -0.4174  0.0340
 7042SOL    HW132585   4.117   1.914   3.895  3.0647  0.4092 -2.3689
 7042SOL    HW232586   4.122   2.065   3.888  0.6212  0.4005  0.8853
 7043SOL     OW32587   0.844   0.843  15.036 -0.6038  0.3586 -0.0361
 7043SOL    HW132588   0.830   0.878  14.948 -0.9134  0.4479  0.0490
 7043SOL    HW232589   0.834   0.749  15.023  0.2508  0.1791  0.5998
 7044SOL     OW32590   1.935   3.815   5.164  0.6631  0.9310 -0.2594
 7044SOL    HW132591   1.982   3.893   5.194 -0.3673  2.2508 -2.1079
 7044SOL    HW232592   2.007   3.755   5.148  1.4268  1.3683  1.4148
 7045SOL     OW32593   1.889   2.447  15.207  0.0784  0.3736  0.2384
 7045SOL    HW132594   1.867   2.397  15.129 -0.1668 -0.5997  0.9396
 7045SOL    HW232595   1.915   2.373  15.261  0.9240 -0.2311 -1.0070
 7046SOL     OW32596   0.036   0.175   9.121  0.4831  1.1145 -0.1224
 7046SOL    HW132597   4.698   0.205   9.190  3.1605  0.0514  2.6470
 7046SOL    HW232598   0.113   0.202   9.171 -1.1003 -0.8531  3.4407
 7047SOL     OW32599   1.292   1.014  16.204  0.2216  0.1623  0.0872
 7047SOL    HW132600   1.225   0.966  16.254  1.8853 -1.2123  0.9988
 7047SOL    HW232601   1.341   1.044  16.280 -0.8663  2.0045  0.0563
 7048SOL     OW32602   1.455   3.634   4.879 -0.4202  0.6529 -0.0973
 7048SOL    HW132603   1.509   3.713   4.869 -1.2387  1.2610  0.2692
 7048SOL    HW232604   1.446   3.629   4.974  0.5933 -0.2125 -0.0446
 7049SOL     OW32605   4.068   3.325   5.294  0.3352 -0.3180 -0.1631
 7049SOL    HW132606   4.162   3.311   5.309  0.0246 -2.5276 -0.2666
 7049SOL    HW232607   4.046   3.415   5.314 -0.4532  0.2379 -3.6126
 7050SOL     OW32608   2.385   2.348   7.814  1.1909  0.0715  0.1854
 7050SOL    HW132609   2.295   2.378   7.826  1.0351  0.2985 -1.5195
 7050SOL    HW232610   2.436   2.425   7.790  1.7970  0.2636  2.0344
 7051SOL     OW32611   0.535   0.334   3.192  0.5338  0.1865  0.8335
 7051SOL    HW132612   0.451   0.316   3.235  1.0877 -0.3358  1.6996
 7051SOL    HW232613   0.541   0.256   3.136  0.9147  1.6147 -1.0938
 7052SOL     OW32614   1.907   4.444  12.932  0.6343 -0.2999 -0.5346
 7052SOL    HW132615   1.831   4.407  12.888  0.8383 -0.4081 -0.7930
 7052SOL    HW232616   1.906   4.539  12.944  0.2367 -0.1089 -2.1865
 7053SOL     OW32617   3.480   2.109   2.442 -0.3333  0.5182 -0.4278
 7053SOL    HW132618   3.531   2.146   2.370 -1.7580  1.8705 -0.7419
 7053SOL    HW232619   3.544   2.099   2.512 -1.7152 -0.0347  0.7613
 7054SOL     OW32620   3.276   0.480   5.954 -0.0973 -0.7698  0.1482
 7054SOL    HW132621   3.352   0.538   5.960 -1.8163  1.7650 -2.7345
 7054SOL    HW232622   3.313   0.403   5.910 -1.7280 -2.0149  0.9846
 7055SOL     OW32623   2.235   0.790   8.199  0.2141  0.5496 -0.1450
 7055SOL    HW132624   2.175   0.786   8.273  1.3910 -0.0379  0.7815
 7055SOL    HW232625   2.304   0.729   8.225  0.4402  0.9280  0.1490
 7056SOL     OW32626   2.284   1.688   6.876 -0.0116 -0.4368  0.5317
 7056SOL    HW132627   2.330   1.736   6.808 -1.7618 -0.3024 -0.5750
 7056SOL    HW232628   2.227   1.757   6.909  0.3491 -0.1218  0.4891
 7057SOL     OW32629   2.410   0.982   6.718 -0.2299  0.1551 -0.2046
 7057SOL    HW132630   2.482   1.007   6.776  0.6931  0.7124 -1.5770
 7057SOL    HW232631   2.337   0.982   6.779  1.6012  1.0402  1.9800
 7058SOL     OW32632   3.225   4.375  12.828 -0.7337  0.1390 -0.3266
 7058SOL    HW132633   3.195   4.409  12.912 -1.8291 -1.7495  0.0543
 7058SOL    HW232634   3.154   4.321  12.793  0.1584 -0.6663 -0.8967
 7059SOL     OW32635   4.714   2.658   2.604 -0.5435 -0.7597  0.3151
 7059SOL    HW132636   4.626   2.622   2.596 -1.8410  2.2475  0.9329
 7059SOL    HW232637   4.702   2.752   2.621  0.1857 -0.4721 -0.7042
 7060SOL     OW32638   0.301   1.393   8.907 -0.2280  0.0121 -0.0781
 7060SOL    HW132639   0.334   1.353   8.988 -0.2496 -0.9794 -0.5632
 7060SOL    HW232640   0.222   1.342   8.892 -0.3773 -0.8673  3.5363
 7061SOL     OW32641   3.659   3.635  13.549  0.3124  0.8227  0.2568
 7061SOL    HW132642   3.602   3.680  13.487 -0.2301  0.3416  0.4060
 7061SOL    HW232643   3.666   3.695  13.624 -1.8085  0.4352  0.7606
 7062SOL     OW32644   2.007   1.105  13.906 -0.4382 -0.2859 -0.0481
 7062SOL    HW132645   2.064   1.133  13.835 -0.0708  1.3912  0.9251
 7062SOL    HW232646   2.052   1.034  13.952 -2.3929  2.0906  5.6178
 7063SOL     OW32647   0.093   3.642  11.638  0.1332  0.1852  0.3087
 7063SOL    HW132648   0.001   3.617  11.645 -0.0900  0.0656 -2.8921
 7063SOL    HW232649   0.091   3.738  11.638 -0.9398  0.1544  1.3371
 7064SOL     OW32650   0.562   3.261   3.998 -0.2416  0.5172 -0.2982
 7064SOL    HW132651   0.530   3.348   4.019 -0.6636  0.5158 -0.9549
 7064SOL    HW232652   0.514   3.252   3.916 -0.7763  0.2029  0.0521
 7065SOL     OW32653   2.613   3.102   2.063  0.1804 -0.3592  0.2685
 7065SOL    HW132654   2.619   3.181   2.009  0.4539  0.4554  1.5120
 7065SOL    HW232655   2.701   3.064   2.057 -0.0414 -1.0600  1.5267
 7066SOL     OW32656   2.887   3.758   7.419  0.3489  0.5198 -0.1594
 7066SOL    HW132657   2.890   3.771   7.514 -1.4731  1.8798 -0.2945
 7066SOL    HW232658   2.907   3.665   7.412 -1.3520  0.0505  1.3069
 7067SOL     OW32659   4.640   1.301   7.455  0.1869  0.3678  0.4699
 7067SOL    HW132660   4.715   1.276   7.509 -0.0823 -0.9976  0.1985
 7067SOL    HW232661   4.568   1.254   7.496 -1.8406  2.0244 -1.2444
 7068SOL     OW32662   3.486   2.929   4.952 -0.1385  0.1962  0.6714
 7068SOL    HW132663   3.495   2.919   5.047 -1.9445 -2.5447  0.5604
 7068SOL    HW232664   3.532   3.012   4.941  0.7301 -0.4878 -0.8385
 7069SOL     OW32665   0.666   4.170  14.783  0.2349  0.2693 -0.3131
 7069SOL    HW132666   0.732   4.239  14.791  0.8335 -0.5596  1.6895
 7069SOL    HW232667   0.721   4.095  14.804  0.6172  0.5914 -0.1659
 7070SOL     OW32668   4.667   4.405   5.057  0.0474  0.8224  0.2878
 7070SOL    HW132669   4.701   4.321   5.089  2.1100  1.1347 -1.1285
 7070SOL    HW232670   4.573   4.390   5.061  0.3001 -1.2611 -1.5748
 7071SOL     OW32671   0.415   1.620   3.920 -0.0902 -0.3210 -0.4580
 7071SOL    HW132672   0.409   1.536   3.965 -2.7959  0.3048  0.3080
 7071SOL    HW232673   0.508   1.631   3.899  1.3191 -2.3158  4.7516
 7072SOL     OW32674   2.193   4.515   9.271  0.1289 -0.7051 -0.2413
 7072SOL    HW132675   2.112   4.482   9.232  0.0927 -0.2262 -0.5857
 7072SOL    HW232676   2.248   4.437   9.276  1.9362  0.5806  0.1958
 7073SOL     OW32677   1.350   2.966   7.473 -0.4412 -0.2670  0.3578
 7073SOL    HW132678   1.273   3.023   7.470  0.3837  0.8241 -0.0978
 7073SOL    HW232679   1.323   2.875   7.474  0.5113 -0.5651 -1.0676
 7074SOL     OW32680   3.257   1.353  16.257  0.2556 -0.3969 -0.0803
 7074SOL    HW132681   3.254   1.258  16.244  1.4653 -0.4292 -0.1355
 7074SOL    HW232682   3.233   1.395  16.174 -1.0874  0.1844  0.6095
 7075SOL     OW32683   0.953   0.898   7.577 -0.2166 -0.1538  0.0862
 7075SOL    HW132684   0.889   0.967   7.559 -0.6037 -0.1863  1.3770
 7075SOL    HW232685   1.033   0.950   7.585  0.5724 -1.2676 -0.6606
 7076SOL     OW32686   2.380   3.515   0.981 -0.4927 -0.2483  0.8579
 7076SOL    HW132687   2.324   3.535   0.906  1.5198 -1.0828 -0.8589
 7076SOL    HW232688   2.329   3.558   1.050 -1.0982  1.9840 -0.9862
 7077SOL     OW32689   2.741   0.082   5.790 -0.0744 -0.4084  0.5563
 7077SOL    HW132690   2.817   0.140   5.797 -1.3245  1.7177 -3.5139
 7077SOL    HW232691   2.730   0.068   5.884 -0.0716  0.3948  0.6761
 7078SOL     OW32692   0.430   0.579   7.853  0.3950  0.8783 -0.4618
 7078SOL    HW132693   0.458   0.585   7.944 -1.5646  1.3282  0.1004
 7078SOL    HW232694   0.336   0.580   7.869  0.2196  0.6704 -1.4913
 7079SOL     OW32695   2.523   4.160   7.487  0.2491  0.1576 -0.2227
 7079SOL    HW132696   2.480   4.143   7.403  1.8331  0.3296 -1.0774
 7079SOL    HW232697   2.473   4.098   7.539  0.0237  0.3983 -0.1570
 7080SOL     OW32698   3.403   4.704   6.746 -0.2774  0.0229  0.0303
 7080SOL    HW132699   3.341   0.025   6.688 -0.8138  0.9508  1.2968
 7080SOL    HW232700   3.445   4.650   6.679 -2.4842  0.9858 -2.1182
 7081SOL     OW32701   4.054   0.776  10.433 -0.0745  0.5483  0.1777
 7081SOL    HW132702   4.111   0.750  10.505 -0.9442 -2.7270 -0.3382
 7081SOL    HW232703   3.986   0.709  10.440  2.0132 -1.3024  2.6434
 7082SOL     OW32704   3.847   0.757  12.539 -0.3222  0.3411  0.0117
 7082SOL    HW132705   3.814   0.817  12.473  0.3701 -0.7628 -1.3269
 7082SOL    HW232706   3.803   0.782  12.621  1.9357 -2.0308  1.9539
 7083SOL     OW32707   3.888   1.656  15.447 -0.2424  0.9606 -1.1164
 7083SOL    HW132708   3.825   1.590  15.475 -0.2543  0.6307 -1.9098
 7083SOL    HW232709   3.825   1.711  15.400  0.4132  0.8829 -2.1007
 7084SOL     OW32710   3.440   4.708   4.156 -0.8254  0.4406 -0.7688
 7084SOL    HW132711   3.467   4.679   4.243 -0.2054 -2.9975 -2.1290
 7084SOL    HW232712   3.460   0.079   4.170 -1.1224  0.2128  1.1580
 7085SOL     OW32713   3.406   1.763   6.904 -0.3048 -0.3216 -0.5152
 7085SOL    HW132714   3.313   1.772   6.924 -0.0458  0.6196  0.2735
 7085SOL    HW232715   3.410   1.668   6.901 -0.9346 -0.3290 -0.9969
 7086SOL     OW32716   0.486   4.351   4.967 -0.2567  0.2319 -0.5191
 7086SOL    HW132717   0.468   4.442   4.945  0.5444  0.1856 -1.3343
 7086SOL    HW232718   0.406   4.324   5.012  0.9898 -0.9350  1.0087
 7087SOL     OW32719   3.974   0.369   4.301 -0.2070 -0.1243  0.1486
 7087SOL    HW132720   4.006   0.436   4.362  1.8605 -0.6776 -0.3022
 7087SOL    HW232721   3.993   0.400   4.213  0.7260 -0.7474  0.1226
 7088SOL     OW32722   2.680   4.229   1.570  0.6633 -0.4420 -0.1018
 7088SOL    HW132723   2.745   4.274   1.516 -0.1347 -0.0274 -0.7260
 7088SOL    HW232724   2.632   4.293   1.623  1.8737  0.6105 -0.2903
 7089SOL     OW32725   1.812   3.462  17.687  0.0549 -0.1127  0.2861
 7089SOL    HW132726   1.857   3.540   0.031  0.2109 -1.0244  2.1419
 7089SOL    HW232727   1.827   3.389   0.057 -0.3924 -1.8013 -1.6683
 7090SOL     OW32728   3.856   3.139   6.455 -0.1903  0.0277 -0.0560
 7090SOL    HW132729   3.904   3.064   6.421 -0.6913 -1.2976  2.2049
 7090SOL    HW232730   3.881   3.139   6.548 -1.2892  0.7371  0.2464
 7091SOL     OW32731   3.254   3.803   2.224 -0.3228  0.2168 -0.5211
 7091SOL    HW132732   3.258   3.758   2.308 -0.4111  1.4268  0.1391
 7091SOL    HW232733   3.319   3.742   2.190 -1.4966 -0.3685 -1.7009
 7092SOL     OW32734   1.133   0.833   5.273 -0.6006  0.4400 -0.3240
 7092SOL    HW132735   1.142   0.803   5.182  0.9826  0.3565 -0.1509
 7092SOL    HW232736   1.214   0.798   5.310 -1.3277 -0.2462  0.6202
 7093SOL     OW32737   1.615   2.696   2.695 -0.4298 -0.2797 -0.4498
 7093SOL    HW132738   1.636   2.607   2.724 -0.2239 -0.3095 -0.6902
 7093SOL    HW232739   1.523   2.698   2.721 -0.2704  1.2053 -0.0209
 7094SOL     OW32740   0.341   2.094   3.224  0.3874 -0.2053 -0.1360
 7094SOL    HW132741   0.329   2.155   3.151  1.5220 -0.4665 -0.5252
 7094SOL    HW232742   0.252   2.082   3.259  0.7844 -0.3598  0.8174
 7095SOL     OW32743   1.103   0.974  17.095 -0.0730 -0.4587 -0.4000
 7095SOL    HW132744   1.099   0.976  17.191 -1.2726 -0.1353 -0.4529
 7095SOL    HW232745   1.139   1.062  17.081 -3.2099  0.8375 -0.3006
 7096SOL     OW32746   2.455   0.863  16.838 -0.8385 -0.8716 -0.0550
 7096SOL    HW132747   2.460   0.917  16.918 -3.9926 -1.2026  0.3669
 7096SOL    HW232748   2.505   0.916  16.776  0.3059 -2.2573 -0.3071
 7097SOL     OW32749   0.329   3.638   4.752 -0.1828 -0.2014  0.3123
 7097SOL    HW132750   0.359   3.726   4.729  0.7955 -0.1072  1.9286
 7097SOL    HW232751   0.352   3.602   4.667 -1.2806  1.3205 -0.6258
 7098SOL     OW32752   1.802   0.537   3.945 -0.3235 -0.0678  0.0037
 7098SOL    HW132753   1.787   0.469   3.879 -0.6219  1.2270 -1.2530
 7098SOL    HW232754   1.784   0.614   3.891  0.1475  0.4403  0.5691
 7099SOL     OW32755   4.671   4.215   8.106  0.2579  0.0995  0.4619
 7099SOL    HW132756   4.598   4.154   8.093  0.6967 -0.7252  1.8468
 7099SOL    HW232757   4.635   4.299   8.135  4.7881  1.3390  2.5204
 7100SOL     OW32758   1.611   3.359   7.624  0.2093 -0.0839 -0.2991
 7100SOL    HW132759   1.696   3.403   7.617  1.1840 -1.7244  0.9941
 7100SOL    HW232760   1.565   3.402   7.696  0.9208 -0.6296  0.4890
 7101SOL     OW32761   1.558   1.598   0.539  0.7364 -0.4876 -0.5460
 7101SOL    HW132762   1.470   1.586   0.506 -0.3352  0.9068  1.8265
 7101SOL    HW232763   1.542   1.638   0.624 -1.4038 -1.4931 -0.4851
 7102SOL     OW32764   2.042   2.689   2.947 -0.1293  0.3186  0.5819
 7102SOL    HW132765   1.964   2.735   2.920 -0.3799  0.2173  1.1255
 7102SOL    HW232766   2.111   2.752   2.925  1.2743 -2.4606 -2.9622
 7103SOL     OW32767   3.644   4.125  13.195 -0.2384 -0.1544  0.0601
 7103SOL    HW132768   3.586   4.197  13.170  0.2875  0.0231 -0.6523
 7103SOL    HW232769   3.580   4.062  13.228 -1.8040  0.0393 -2.6265
 7104SOL     OW32770   2.082   1.768  14.174  0.5464  0.4844 -0.0733
 7104SOL    HW132771   2.138   1.721  14.235  1.6417  1.2956 -0.4508
 7104SOL    HW232772   2.067   1.847  14.225 -0.5737 -1.0556  1.9636
 7105SOL     OW32773   2.228   3.003  13.035  0.7295  0.1351 -0.7751
 7105SOL    HW132774   2.178   2.975  12.958 -0.5344 -1.6478  0.6875
 7105SOL    HW232775   2.173   2.967  13.104  1.0120  2.1453  0.5032
 7106SOL     OW32776   1.141   1.630   4.737 -0.4364 -0.6950 -0.2691
 7106SOL    HW132777   1.214   1.588   4.784 -0.9866 -1.2649  0.0653
 7106SOL    HW232778   1.122   1.710   4.787  1.0051 -0.2027 -0.5007
 7107SOL     OW32779   3.786   2.818   3.438  0.2873 -0.1988 -0.6602
 7107SOL    HW132780   3.858   2.766   3.402  0.5196 -0.0987 -0.3412
 7107SOL    HW232781   3.809   2.816   3.531  2.7516  0.8967 -1.2293
 7108SOL     OW32782   1.227   3.762   4.176 -0.4597  0.4154  0.1800
 7108SOL    HW132783   1.250   3.694   4.113  1.0369  1.0510  0.0609
 7108SOL    HW232784   1.234   3.705   4.253  2.1651 -0.1792 -0.5190
 7109SOL     OW32785   2.295   1.019   4.009 -0.0987  0.0211 -0.0121
 7109SOL    HW132786   2.201   1.018   4.025 -0.1244  0.6734 -0.1130
 7109SOL    HW232787   2.303   0.928   3.980 -3.7201 -0.1460 -0.5373
 7110SOL     OW32788   0.980   3.899   8.139  0.2273  0.3073  0.0307
 7110SOL    HW132789   0.956   3.888   8.231 -0.0387  0.7982  0.0172
 7110SOL    HW232790   0.893   3.906   8.101 -0.6472  2.5601  2.5190
 7111SOL     OW32791   2.965   1.337   4.848  0.0278  0.0450  0.2063
 7111SOL    HW132792   2.898   1.293   4.901 -0.6325  0.0285 -0.6529
 7111SOL    HW232793   2.951   1.289   4.767  1.8007  0.1781 -0.1640
 7112SOL     OW32794   4.231   1.303   3.906 -0.4457 -0.1133  0.2783
 7112SOL    HW132795   4.206   1.378   3.852 -0.2197 -2.0409 -2.5026
 7112SOL    HW232796   4.320   1.287   3.874 -1.0946 -1.7349 -0.7544
 7113SOL     OW32797   1.719   1.487   1.915  0.1463  0.3765  0.0097
 7113SOL    HW132798   1.748   1.408   1.870  1.3775  0.5657  0.4683
 7113SOL    HW232799   1.785   1.500   1.983  0.6907 -1.7631 -0.1247
 7114SOL     OW32800   0.965   2.864   4.006 -0.3188  0.1410 -0.2210
 7114SOL    HW132801   0.987   2.806   3.933 -0.0720 -0.9795  0.7551
 7114SOL    HW232802   0.871   2.869   3.986  0.0650 -0.1021 -2.1176
 7115SOL     OW32803   0.673   4.149   8.516  0.2086 -0.1392  0.5193
 7115SOL    HW132804   0.630   4.064   8.521 -1.2598  0.6217  0.7612
 7115SOL    HW232805   0.666   4.175   8.608  0.2872  1.9492 -0.0575
 7116SOL     OW32806   2.116   1.721  10.434  0.5285  0.2743  0.3410
 7116SOL    HW132807   2.108   1.774  10.513 -0.1257  0.0012  0.4563
 7116SOL    HW232808   2.124   1.785  10.363  0.5694  2.0659  1.9544
 7117SOL     OW32809   0.152   4.207   9.589 -0.7318 -0.1030 -0.2367
 7117SOL    HW132810   0.066   4.167   9.573 -0.4312 -0.8023 -0.0684
 7117SOL    HW232811   0.135   4.276   9.653 -0.3297  0.9137 -1.2249
 7118SOL     OW32812   0.453   4.374   3.293 -1.0617  0.0440  0.1610
 7118SOL    HW132813   0.363   4.369   3.326 -1.0825 -1.5044 -0.1331
 7118SOL    HW232814   0.464   4.336   3.206 -0.6319  0.2538  0.1208
 7119SOL     OW32815   1.166   0.086  12.710  0.5868  0.1987 -0.4487
 7119SOL    HW132816   1.131   0.156  12.654  2.2205  0.6677 -0.8809
 7119SOL    HW232817   1.136   0.018  12.651 -0.8613 -0.4008  0.9749
 7120SOL     OW32818   3.415   4.393   6.598  0.2281 -0.0857  0.1804
 7120SOL    HW132819   3.346   4.431   6.543 -0.4080 -2.2153 -0.4915
 7120SOL    HW232820   3.378   4.396   6.687  2.3200  0.9565  1.0036
 7121SOL     OW32821   3.182   4.540   5.171  0.2205  0.0164  0.1349
 7121SOL    HW132822   3.120   4.549   5.243  1.9652 -0.8418  1.7354
 7121SOL    HW232823   3.247   4.603   5.202 -0.0443  1.0185 -1.3193
 7122SOL     OW32824   4.527   0.628   8.851 -0.5875 -0.1848 -0.0680
 7122SOL    HW132825   4.530   0.546   8.901 -0.3170 -0.8200 -1.1270
 7122SOL    HW232826   4.614   0.635   8.812 -0.5559 -0.3801 -0.0328
 7123SOL     OW32827   1.454   2.354  12.049 -0.0105  0.1773 -0.2894
 7123SOL    HW132828   1.495   2.313  11.973  0.2246  0.1564 -0.1509
 7123SOL    HW232829   1.491   2.297  12.116 -0.2923  0.2260 -0.0906
 7124SOL     OW32830   1.736   0.547   7.424  0.3221 -0.1195  0.0218
 7124SOL    HW132831   1.797   0.570   7.494 -0.4107  1.8831  0.0162
 7124SOL    HW232832   1.783   0.480   7.374  1.5673 -0.9317  2.2810
 7125SOL     OW32833   0.180   2.520  13.700  0.1288  0.3046  0.5339
 7125SOL    HW132834   0.158   2.522  13.794 -0.1789  0.6004  0.4561
 7125SOL    HW232835   0.097   2.503  13.655  0.0540 -0.9992  1.1664
 7126SOL     OW32836   3.043   1.536   3.588 -0.4641  0.1180  0.3571
 7126SOL    HW132837   3.034   1.467   3.523 -1.7275 -0.6669  1.3585
 7126SOL    HW232838   3.029   1.612   3.532  0.2118 -0.6743 -0.8724
 7127SOL     OW32839   3.768   1.296  16.424 -0.2665  0.1284  0.4069
 7127SOL    HW132840   3.698   1.260  16.370  1.1424  0.2415 -1.5207
 7127SOL    HW232841   3.712   1.358  16.471  0.6870  1.9344 -0.8171
 7128SOL     OW32842   1.794   1.502  15.742  0.6069 -0.2364  0.3857
 7128SOL    HW132843   1.790   1.598  15.747 -0.2213 -0.3066  0.9896
 7128SOL    HW232844   1.813   1.479  15.833 -0.6276 -0.9507  0.4552
 7129SOL     OW32845   0.519   2.047  12.393  0.0340  0.1786  0.7666
 7129SOL    HW132846   0.553   2.137  12.397 -2.6534  1.1468  1.8429
 7129SOL    HW232847   0.426   2.068  12.381  0.0670 -1.5787 -2.4672
 7130SOL     OW32848   2.252   4.391   7.302  1.1571  0.3814  0.0616
 7130SOL    HW132849   2.269   4.300   7.326 -3.2790 -0.7518 -0.9636
 7130SOL    HW232850   2.162   4.396   7.337  1.5178 -0.0850  1.0650
 7131SOL     OW32851   4.048   4.027   6.418 -0.3123 -0.2028 -0.1320
 7131SOL    HW132852   3.968   4.030   6.366 -0.5773  0.8282  0.3389
 7131SOL    HW232853   4.110   4.066   6.355 -0.3257  2.6899  1.6466
 7132SOL     OW32854   0.765   1.556   5.874  0.3340 -0.6342  0.3373
 7132SOL    HW132855   0.728   1.475   5.838  2.2758 -2.4213  2.3835
 7132SOL    HW232856   0.835   1.522   5.931 -0.8182 -0.5048  1.8449
 7133SOL     OW32857   2.607   0.315   3.154 -0.1901 -0.3877  0.5520
 7133SOL    HW132858   2.571   0.362   3.079 -0.3029 -0.8926  0.2917
 7133SOL    HW232859   2.532   0.278   3.201  0.6965  0.6365  2.8011
 7134SOL     OW32860   1.506   2.972   9.362 -0.0551 -0.2439 -0.4929
 7134SOL    HW132861   1.599   2.951   9.358 -0.1620 -0.3392 -2.4568
 7134SOL    HW232862   1.469   2.910   9.425 -0.7728 -0.0095 -0.6738
 7135SOL     OW32863   0.177   3.049   7.469  0.0622  0.9278 -0.0156
 7135SOL    HW132864   0.243   3.056   7.539  2.8488 -0.6740 -2.4663
 7135SOL    HW232865   0.230   3.000   7.406  0.2574  0.1941  0.7111
 7136SOL     OW32866   2.037   3.492   6.588 -0.0318  0.3940 -0.2483
 7136SOL    HW132867   2.022   3.503   6.494  0.3707 -1.4780 -0.5415
 7136SOL    HW232868   2.045   3.584   6.613  1.3498 -0.0779  1.1298
 7137SOL     OW32869   4.035   0.893   4.133 -0.1604  0.1330 -0.2189
 7137SOL    HW132870   4.024   0.981   4.096  1.2883 -0.2835 -1.6537
 7137SOL    HW232871   4.123   0.872   4.102  0.2742  0.6129  0.7048
 7138SOL     OW32872   4.058   0.109   9.239  0.2642  0.0228 -0.2290
 7138SOL    HW132873   4.069   0.168   9.164 -1.5447 -0.2329 -0.7026
 7138SOL    HW232874   4.151   0.086   9.249  0.0322 -1.1417 -0.7277
 7139SOL     OW32875   0.770   1.723   5.039  0.4636  0.1887  0.3236
 7139SOL    HW132876   0.689   1.771   5.052  1.3212  1.6141  0.4315
 7139SOL    HW232877   0.761   1.648   5.098  1.0998  0.3110  0.5787
 7140SOL     OW32878   1.421   4.295   7.863 -0.3389 -0.3892 -0.3637
 7140SOL    HW132879   1.412   4.323   7.954  1.0892  1.2566 -0.7319
 7140SOL    HW232880   1.329   4.277   7.846 -0.4504  0.3211 -0.5074
 7141SOL     OW32881   4.085   1.989   5.956  0.0407 -0.2390 -0.1065
 7141SOL    HW132882   4.089   1.925   6.027 -2.3565  1.1308  1.2360
 7141SOL    HW232883   4.084   2.069   6.008  1.3399  0.7391 -1.5739
 7142SOL     OW32884   0.801   1.556  14.542 -0.0027  0.3737 -0.1327
 7142SOL    HW132885   0.804   1.638  14.592 -0.6178  1.0057 -1.1325
 7142SOL    HW232886   0.829   1.574  14.453 -2.0308 -1.4390 -1.1356
 7143SOL     OW32887   1.176   4.303   3.833  0.1804 -0.1799 -0.2077
 7143SOL    HW132888   1.126   4.240   3.885  1.2860 -0.9703 -0.1057
 7143SOL    HW232889   1.131   4.291   3.749  1.4792 -1.3283 -0.7489
 7144SOL     OW32890   3.394   2.198   5.574 -0.2386  0.0026 -0.1728
 7144SOL    HW132891   3.446   2.274   5.547 -1.6501  0.5367 -1.3847
 7144SOL    HW232892   3.316   2.247   5.598  0.9459  2.0428 -0.4915
 7145SOL     OW32893   0.082   0.167   4.421 -0.3540  0.3055  0.3288
 7145SOL    HW132894   0.007   0.111   4.442 -0.5518  0.5944  0.3873
 7145SOL    HW232895   0.106   0.128   4.337  0.5465  0.5720  0.4624
 7146SOL     OW32896   2.420   4.612   7.177  0.7347  0.4663 -0.2596
 7146SOL    HW132897   2.339   4.577   7.213  0.6951  1.9295  1.0783
 7146SOL    HW232898   2.385   4.665   7.105 -2.1420 -0.8602  0.1488
 7147SOL     OW32899   0.832   3.483   2.157  0.5204  0.0877 -0.1701
 7147SOL    HW132900   0.925   3.503   2.171  0.3815 -0.7223  1.9164
 7147SOL    HW232901   0.804   3.537   2.083  2.9322 -1.4086 -2.1679
 7148SOL     OW32902   4.454   0.568  13.353 -0.2472 -0.1871  0.2096
 7148SOL    HW132903   4.418   0.483  13.330 -1.4856  0.2400  0.5118
 7148SOL    HW232904   4.377   0.624  13.340 -1.3827 -1.3542  1.8887
 7149SOL     OW32905   2.755   1.192   3.724  0.1691 -0.5522 -0.1785
 7149SOL    HW132906   2.702   1.114   3.709 -0.4881  0.0811 -1.1183
 7149SOL    HW232907   2.685   1.258   3.727  2.6118  2.0737 -0.0554
 7150SOL     OW32908   2.169   1.743   3.481  0.2499 -0.2006  0.1300
 7150SOL    HW132909   2.220   1.710   3.555 -2.1302 -0.8426  1.4981
 7150SOL    HW232910   2.181   1.665   3.428  1.1191 -0.5748  0.8601
 7151SOL     OW32911   3.166   4.533  15.003 -0.3240 -0.1324 -0.0043
 7151SOL    HW132912   3.218   4.540  14.923 -1.4651  0.0413 -0.7307
 7151SOL    HW232913   3.228   4.543  15.075 -1.2105  2.2977  0.4280
 7152SOL     OW32914   1.111   1.432   9.617 -0.0068  0.7607  0.8852
 7152SOL    HW132915   1.126   1.501   9.682 -0.9103 -1.0430  2.9969
 7152SOL    HW232916   1.161   1.361   9.658  1.4597  0.8419 -0.7127
 7153SOL     OW32917   1.995   2.156   1.544 -0.6538 -0.0754  0.1803
 7153SOL    HW132918   1.910   2.168   1.586  1.4698  3.1303  3.4844
 7153SOL    HW232919   1.976   2.072   1.502 -2.4051  0.0392  0.7540
 7154SOL     OW32920   3.373   2.857   3.010  0.9299 -0.1194  0.7460
 7154SOL    HW132921   3.280   2.881   3.008  0.9655 -0.0452 -0.1112
 7154SOL    HW232922   3.412   2.944   3.006 -0.9186  0.6690 -0.2755
 7155SOL     OW32923   4.221   3.686   3.682  0.1547  0.2058 -0.0440
 7155SOL    HW132924   4.195   3.619   3.746  0.6484 -0.6078 -0.6967
 7155SOL    HW232925   4.256   3.632   3.611  2.0557  1.8280 -0.3390
 7156SOL     OW32926   2.514   1.344   7.317 -0.0986 -0.6101 -0.0441
 7156SOL    HW132927   2.447   1.279   7.341  0.1401 -0.4083  1.1886
 7156SOL    HW232928   2.504   1.342   7.222 -1.4198  0.6709  0.0647
 7157SOL     OW32929   4.009   4.097  15.843  0.0921  0.4298 -0.0739
 7157SOL    HW132930   4.079   4.145  15.800  1.6387  0.5384  2.5427
 7157SOL    HW232931   4.029   4.020  15.791 -2.5087 -0.7282  0.6185
 7158SOL     OW32932   4.192   3.340   2.189 -0.6546  0.1071  0.5038
 7158SOL    HW132933   4.108   3.384   2.199 -0.0362  1.7610 -1.5510
 7158SOL    HW232934   4.245   3.419   2.193 -0.2843 -0.1910  1.3855
 7159SOL     OW32935   3.974   4.049   8.037 -0.1005  0.3290  0.1766
 7159SOL    HW132936   3.890   4.093   8.050  0.7662  1.9950  0.0567
 7159SOL    HW232937   3.943   3.990   7.968  0.3708 -1.6014  1.5991
 7160SOL     OW32938   3.630   0.574   0.563  0.2236 -0.4584 -0.6465
 7160SOL    HW132939   3.550   0.549   0.610  0.1051  2.9294  1.0245
 7160SOL    HW232940   3.605   0.664   0.540 -0.7672 -1.0627 -1.8924
 7161SOL     OW32941   3.407   3.597   9.268 -0.2626  0.1433 -0.2859
 7161SOL    HW132942   3.465   3.563   9.336 -0.7471  1.6000  0.8679
 7161SOL    HW232943   3.331   3.541   9.281 -0.3548  0.1972 -0.5731
 7162SOL     OW32944   2.592   2.475   6.158 -0.6683 -0.3820 -0.0884
 7162SOL    HW132945   2.639   2.526   6.092  0.5485 -1.3931 -0.0097
 7162SOL    HW232946   2.532   2.436   6.095  2.0445 -1.7250 -1.8403
 7163SOL     OW32947   0.968   0.984   5.591  0.5706  0.2504 -0.0296
 7163SOL    HW132948   0.987   1.048   5.660  1.3191  0.5576 -0.5268
 7163SOL    HW232949   0.934   0.911   5.643  0.6073 -0.7037 -1.3624
 7164SOL     OW32950   1.265   1.591   4.377  0.2967  0.5671 -0.5547
 7164SOL    HW132951   1.241   1.503   4.346  1.9221 -0.5869  1.5010
 7164SOL    HW232952   1.198   1.641   4.331  0.5566  0.3603 -1.1630
 7165SOL     OW32953   4.385   2.467   5.180  0.0372 -0.3023 -0.3625
 7165SOL    HW132954   4.416   2.523   5.252  0.0013 -0.1134 -0.4924
 7165SOL    HW232955   4.381   2.388   5.233  0.0016  0.6683  1.1126
 7166SOL     OW32956   1.817   3.536  15.519 -0.0979  0.0411 -0.1318
 7166SOL    HW132957   1.884   3.517  15.584  0.9142 -4.1422 -2.4612
 7166SOL    HW232958   1.778   3.617  15.554 -1.5167 -1.1561  1.0578
 7167SOL     OW32959   1.408   0.446   5.790 -0.4733 -0.5662  0.4856
 7167SOL    HW132960   1.341   0.383   5.817 -0.3183 -0.8037  0.3166
 7167SOL    HW232961   1.480   0.384   5.779 -0.4438 -0.6928  1.4195
 7168SOL     OW32962   1.921   3.486   9.446 -0.1509 -0.1897  0.0730
 7168SOL    HW132963   1.966   3.467   9.529 -0.0729  0.1783  0.1158
 7168SOL    HW232964   1.940   3.404   9.399  0.0935 -0.0610 -0.0504
 7169SOL     OW32965   2.383   0.069   2.860 -0.0769 -0.1199  0.2765
 7169SOL    HW132966   2.324   0.071   2.936 -1.2412 -2.8520 -0.5414
 7169SOL    HW232967   2.318   0.082   2.791  0.1384 -0.6845 -0.0335
 7170SOL     OW32968   3.670   1.480  14.596 -0.2858 -0.4748 -0.1078
 7170SOL    HW132969   3.682   1.573  14.580 -0.0482 -0.0520  2.5643
 7170SOL    HW232970   3.618   1.479  14.677  1.5923  1.2511  1.1222
 7171SOL     OW32971   3.547   1.118   7.525  0.1621  0.5081 -0.3745
 7171SOL    HW132972   3.501   1.042   7.559  1.5616  0.3964  1.2393
 7171SOL    HW232973   3.488   1.193   7.515  0.1530  0.5998  0.3924
 7172SOL     OW32974   0.249   4.308  16.204  0.0691  0.1660 -0.0933
 7172SOL    HW132975   0.290   4.307  16.117 -0.0678 -1.4786 -0.1427
 7172SOL    HW232976   0.175   4.366  16.185 -0.1026  0.1475  0.5303
 7173SOL     OW32977   0.848   2.228   2.792 -0.0625  0.4194 -0.1482
 7173SOL    HW132978   0.830   2.187   2.877  0.0371  0.5383 -0.0693
 7173SOL    HW232979   0.943   2.226   2.786 -0.0752 -1.0280  0.2643
 7174SOL     OW32980   1.614   2.366   6.778  0.6959  0.5305 -0.5459
 7174SOL    HW132981   1.528   2.344   6.813 -0.1428 -1.2565 -3.7522
 7174SOL    HW232982   1.605   2.319   6.695  0.4618  0.2584 -0.3677
 7175SOL     OW32983   3.337   1.273  17.451 -0.3971 -0.4335  0.1581
 7175SOL    HW132984   3.315   1.346  17.393  1.3361 -0.4656 -0.5224
 7175SOL    HW232985   3.350   1.205  17.385  1.0523  1.4452 -1.4853
 7176SOL     OW32986   0.820   4.623  12.136  0.8082 -0.2374 -0.4898
 7176SOL    HW132987   0.861   4.684  12.075  2.4437  0.3835  1.2007
 7176SOL    HW232988   0.727   4.632  12.115  0.7413  0.7914  0.2669
 7177SOL     OW32989   0.564   2.316   8.504  0.3810  0.1952 -0.0190
 7177SOL    HW132990   0.612   2.243   8.544 -1.2018 -0.1697  1.1825
 7177SOL    HW232991   0.514   2.328   8.584  0.9363 -0.1178  0.3782
 7178SOL     OW32992   1.572   0.195   7.580  0.1369  0.0506  0.7180
 7178SOL    HW132993   1.643   0.147   7.537 -1.0417 -2.0885  1.1868
 7178SOL    HW232994   1.524   0.236   7.508  2.0849 -1.0670 -1.2154
 7179SOL     OW32995   2.678   2.745   1.538  0.7202 -0.3795 -0.8301
 7179SOL    HW132996   2.659   2.697   1.458  2.5438 -1.5381 -0.5787
 7179SOL    HW232997   2.764   2.787   1.534  1.3002 -1.3617  1.2209
 7180SOL     OW32998   2.937   3.182   2.324  0.2354 -0.0874  0.1317
 7180SOL    HW132999   3.000   3.249   2.352 -1.7204  1.6859  0.2592
 7180SOL    HW233000   2.896   3.218   2.245 -1.8828  2.9693  2.5993
 7181SOL     OW33001   4.248   2.782   2.458  0.6497 -0.2341 -0.5818
 7181SOL    HW133002   4.320   2.836   2.490 -1.0825  1.1425  0.9657
 7181SOL    HW233003   4.256   2.715   2.526 -1.2220  2.1013  1.9540
 7182SOL     OW33004   2.052   3.539   3.350 -0.2584 -0.1171  0.7733
 7182SOL    HW133005   2.111   3.614   3.340 -1.3830  0.6181 -0.4147
 7182SOL    HW233006   2.085   3.481   3.282 -0.7346 -0.9778  1.2685
 7183SOL     OW33007   1.198   4.055   0.382 -0.0638  0.7670  0.0843
 7183SOL    HW133008   1.282   4.037   0.424  0.9860  2.0566 -1.4520
 7183SOL    HW233009   1.142   4.087   0.453 -1.6103 -0.0385 -0.7597
 7184SOL     OW33010   0.515   3.778   2.312 -0.3188 -0.0167  0.0155
 7184SOL    HW133011   0.440   3.718   2.320 -0.8625  0.5615 -0.7304
 7184SOL    HW233012   0.585   3.713   2.321  0.5939  1.1697  1.2786
 7185SOL     OW33013   0.717   4.683   1.289 -0.0047  0.4766 -0.0629
 7185SOL    HW133014   0.694   0.049   1.261 -1.0200  0.1746 -0.2014
 7185SOL    HW233015   0.768   4.702   1.368 -1.1903  0.7873  0.6330
 7186SOL     OW33016   0.093   4.388   0.849 -0.0952 -0.4902  0.2784
 7186SOL    HW133017   0.183   4.361   0.830  0.4086  0.6176  1.1304
 7186SOL    HW233018   0.073   4.344   0.932  0.1068 -1.1755 -0.0294
 7187SOL     OW33019   1.412   3.879  12.571 -0.1568  0.1197  0.0150
 7187SOL    HW133020   1.339   3.851  12.627 -0.6003  0.2657 -0.4860
 7187SOL    HW233021   1.404   3.812  12.503  1.6417 -0.5317  0.4446
 7188SOL     OW33022   2.297   3.772  11.775  0.0887  0.1791  0.2679
 7188SOL    HW133023   2.315   3.705  11.709  0.0771  0.4428 -0.0097
 7188SOL    HW233024   2.226   3.815  11.725 -0.2073 -2.0877 -1.2541
 7189SOL     OW33025   1.821   2.073   3.211 -0.1337  0.0093  0.0285
 7189SOL    HW133026   1.881   2.146   3.225  0.3814 -0.0871 -1.7662
 7189SOL    HW233027   1.870   1.993   3.231 -1.4953 -0.2844  2.1930
 7190SOL     OW33028   2.368   4.501   6.720  0.1249 -0.2401  0.2325
 7190SOL    HW133029   2.299   4.567   6.711  1.0198  0.7850  0.8642
 7190SOL    HW233030   2.347   4.466   6.807 -2.1296 -2.1426 -1.0852
 7191SOL     OW33031   2.770   2.635   7.950 -0.1218  0.5248  0.0305
 7191SOL    HW133032   2.831   2.562   7.938  0.4163  0.8304  0.8771
 7191SOL    HW233033   2.815   2.719   7.958  0.1645  0.6953 -3.1417
 7192SOL     OW33034   1.289   1.707  10.651  0.2407  0.4938  0.0123
 7192SOL    HW133035   1.276   1.661  10.734  4.0632  0.8276  0.7888
 7192SOL    HW233036   1.370   1.666  10.623  1.6458  1.8230  2.1515
 7193SOL     OW33037   2.390   0.558  15.667  0.0967 -0.1066 -0.2036
 7193SOL    HW133038   2.418   0.627  15.607  1.8055  0.3370  1.1305
 7193SOL    HW233039   2.330   0.496  15.625 -0.1901  0.0113  0.0370
 7194SOL     OW33040   2.279   4.082   8.104  0.0529 -0.1687 -0.0820
 7194SOL    HW133041   2.367   4.050   8.120  0.0035 -0.1683  0.1829
 7194SOL    HW233042   2.232   4.052   8.181  1.2021  1.0614  1.0853
 7195SOL     OW33043   1.683   4.454   4.086  1.0037 -0.3411  0.0607
 7195SOL    HW133044   1.739   4.523   4.049  0.0370 -0.8714 -2.4013
 7195SOL    HW233045   1.748   4.384   4.084 -0.9152 -2.1437  0.2125
 7196SOL     OW33046   4.222   0.426   3.462  0.0641  0.4538  0.2973
 7196SOL    HW133047   4.259   0.466   3.540  2.6040 -1.2251 -0.0629
 7196SOL    HW233048   4.251   0.493   3.400  0.2938 -0.9425 -1.1210
 7197SOL     OW33049   3.967   4.407   5.148  0.1759  0.0546  0.4448
 7197SOL    HW133050   3.911   4.485   5.145 -0.7038 -0.6366 -1.5963
 7197SOL    HW233051   3.934   4.364   5.069 -2.0773  0.8979  0.9432
 7198SOL     OW33052   0.961   3.818   0.466 -0.3435 -0.0785 -0.0563
 7198SOL    HW133053   1.031   3.787   0.408  1.4686 -0.0705  2.0980
 7198SOL    HW233054   0.957   3.746   0.529 -0.0321 -1.6265 -1.8120
 7199SOL     OW33055   4.034   2.405   4.510  0.4885 -0.1024 -0.2803
 7199SOL    HW133056   3.947   2.367   4.521  0.6770  0.1913  2.3501
 7199SOL    HW233057   4.085   2.371   4.584 -1.2530 -0.7042  0.6438
 7200SOL     OW33058   0.785   3.441  13.623  0.3166 -0.3407  0.2034
 7200SOL    HW133059   0.785   3.407  13.534 -0.5748  0.5419 -0.1394
 7200SOL    HW233060   0.874   3.475  13.627  0.9513 -1.9703 -0.5592
 7201SOL     OW33061   0.910   4.451   8.614 -0.1858 -0.4350  0.3211
 7201SOL    HW133062   0.916   4.357   8.632  0.1204 -0.1325  1.7711
 7201SOL    HW233063   0.924   4.457   8.520 -1.7110  3.2745  0.3164
 7202SOL     OW33064   1.330   4.176   5.693 -0.0138 -0.1000  0.2057
 7202SOL    HW133065   1.418   4.140   5.679  0.5885  1.2544  0.4982
 7202SOL    HW233066   1.317   4.213   5.606 -0.6013  0.2354  0.4418
 7203SOL     OW33067   3.245   0.864  12.081 -0.3260  0.3665 -0.0999
 7203SOL    HW133068   3.318   0.858  12.019  1.4355 -1.3070  2.1840
 7203SOL    HW233069   3.235   0.772  12.104 -2.5418  0.7583  0.5444
 7204SOL     OW33070   0.793   2.888  13.517  0.5000 -0.4874 -0.2028
 7204SOL    HW133071   0.739   2.811  13.535 -0.6797  0.7155  1.3165
 7204SOL    HW233072   0.857   2.868  13.585  0.7437 -0.5368 -0.4440
 7205SOL     OW33073   4.508   1.495   2.335 -0.1198  0.2859  0.1636
 7205SOL    HW133074   4.542   1.408   2.354 -0.0980  0.1608 -0.4513
 7205SOL    HW233075   4.435   1.504   2.397  0.7454  2.3065  0.8831
 7206SOL     OW33076   0.439   1.634   5.636  0.0893 -0.3120 -0.4656
 7206SOL    HW133077   0.393   1.574   5.695  0.0979  0.0848 -0.0487
 7206SOL    HW233078   0.436   1.582   5.556 -1.6277 -0.9378  0.0069
 7207SOL     OW33079   2.361   3.979   4.916 -0.5627  0.2033  0.5399
 7207SOL    HW133080   2.403   4.025   4.843 -1.6912 -2.3098 -1.6797
 7207SOL    HW233081   2.332   4.044   4.981  0.2916 -0.5117  1.6225
 7208SOL     OW33082   2.127   3.252  17.002  0.4386 -0.1495  0.4354
 7208SOL    HW133083   2.086   3.337  16.989 -2.0099 -0.7695  4.0993
 7208SOL    HW233084   2.049   3.206  16.972 -0.0789  0.5475  0.7238
 7209SOL     OW33085   0.643   3.012   9.278 -0.3845 -0.6111  0.2715
 7209SOL    HW133086   0.622   2.934   9.225  0.2908 -0.0617 -0.8116
 7209SOL    HW233087   0.595   3.084   9.238 -0.2811 -1.4200 -1.3225
 7210SOL     OW33088   2.744   3.102  11.871 -0.2722 -0.3523 -0.2796
 7210SOL    HW133089   2.816   3.055  11.914 -0.0052 -0.8619 -1.2891
 7210SOL    HW233090   2.787   3.188  11.867 -0.3769 -0.3552 -1.2719
 7211SOL     OW33091   3.301   3.896   3.318 -0.4322  0.1487 -0.1306
 7211SOL    HW133092   3.276   3.980   3.278 -0.1471 -0.4146 -1.5186
 7211SOL    HW233093   3.387   3.910   3.358 -0.8384  0.3442  0.6652
 7212SOL     OW33094   4.387   3.204   9.768  0.2404  0.5759 -0.0412
 7212SOL    HW133095   4.313   3.235   9.821  1.6427 -2.0650  3.5084
 7212SOL    HW233096   4.461   3.248   9.809  0.9083 -0.9863  0.4370
 7213SOL     OW33097   3.691   3.965   7.099  0.2474  0.1228 -0.4157
 7213SOL    HW133098   3.596   3.975   7.108  0.2134 -0.6039  0.1228
 7213SOL    HW233099   3.704   4.048   7.054 -1.6622  0.2288 -0.8003
 7214SOL     OW33100   3.795   3.283   8.677 -0.3494  0.1813  0.0254
 7214SOL    HW133101   3.767   3.192   8.672  2.0939 -0.5616  0.2194
 7214SOL    HW233102   3.773   3.307   8.768 -1.2081  1.8661 -0.6296
 7215SOL     OW33103   3.664   3.937  16.489  0.3282 -0.0083  0.5430
 7215SOL    HW133104   3.618   3.925  16.406  0.7748 -1.6269  0.5190
 7215SOL    HW233105   3.726   4.006  16.467  1.2454 -0.7147  0.8899
 7216SOL     OW33106   2.494   3.316  10.537  0.9605 -0.1229 -0.2147
 7216SOL    HW133107   2.450   3.319  10.622 -2.3663  1.3218 -1.9744
 7216SOL    HW233108   2.443   3.251  10.488 -0.0216  1.7392 -1.6677
 7217SOL     OW33109   2.369   0.715   6.940  0.5713  0.2034  0.2584
 7217SOL    HW133110   2.337   0.745   7.026  1.4644  0.6252  0.4431
 7217SOL    HW233111   2.346   0.786   6.880 -0.7236 -2.0719 -1.8809
 7218SOL     OW33112   4.339   1.361   7.091 -0.0861 -0.0619 -0.0654
 7218SOL    HW133113   4.318   1.359   6.998  0.7713  1.2310 -0.2826
 7218SOL    HW233114   4.434   1.366   7.091 -0.1875  1.9985  1.4914
 7219SOL     OW33115   2.012   2.704  10.303 -0.2086  0.3232 -0.2173
 7219SOL    HW133116   1.965   2.633  10.259  0.7373  0.1636 -0.9690
 7219SOL    HW233117   2.001   2.682  10.396  2.0623  0.6353  0.1429
 7220SOL     OW33118   0.216   2.276  11.839  0.6149 -0.5377 -0.1093
 7220SOL    HW133119   0.137   2.270  11.893 -1.5857  1.3079 -3.0620
 7220SOL    HW233120   0.251   2.363  11.856 -2.9626  0.6315  1.2879
 7221SOL     OW33121   2.484   2.075   4.345 -0.0844 -0.1419  0.6175
 7221SOL    HW133122   2.390   2.080   4.364 -0.0270 -1.5152  1.2578
 7221SOL    HW233123   2.525   2.129   4.412  3.0979 -2.0118  0.1612
 7222SOL     OW33124   1.909   1.818   5.664 -0.1517 -0.4944  0.1646
 7222SOL    HW133125   1.924   1.728   5.635 -0.6568 -0.8366  0.9727
 7222SOL    HW233126   1.981   1.861   5.618 -1.9179 -0.1538 -2.3042
 7223SOL     OW33127   0.521   3.883   2.071  0.1036  0.3308 -0.0055
 7223SOL    HW133128   0.521   3.848   2.160  2.6146 -1.6661 -0.7669
 7223SOL    HW233129   0.478   3.965   2.093  2.5073  1.5043  0.3567
 7224SOL     OW33130   1.956   0.255   5.271 -0.4590 -0.3061 -0.1817
 7224SOL    HW133131   1.926   0.272   5.182  0.1919  0.3423 -0.2790
 7224SOL    HW233132   2.047   0.242   5.243 -0.6912 -0.7272 -0.7472
 7225SOL     OW33133   2.335   3.232   5.661  0.4191  0.1001  0.5569
 7225SOL    HW133134   2.382   3.312   5.686 -1.1995  0.6889  1.7204
 7225SOL    HW233135   2.282   3.272   5.591  0.9463 -0.3116 -0.0756
 7226SOL     OW33136   4.578   3.282   4.209  0.3730 -0.1833 -0.5226
 7226SOL    HW133137   4.517   3.301   4.281  1.1261  0.3762 -0.0345
 7226SOL    HW233138   4.515   3.246   4.146 -2.0852  1.4003  1.0163
 7227SOL     OW33139   2.357   1.977  10.864 -0.8419  0.2658  0.8282
 7227SOL    HW133140   2.335   1.902  10.919  0.9594 -0.2546  0.8418
 7227SOL    HW233141   2.438   1.939  10.831  0.4699  1.9090  2.1935
 7228SOL     OW33142   4.128   1.863  12.526 -0.5527  0.4811 -0.4892
 7228SOL    HW133143   4.109   1.838  12.617 -2.2990  1.4965 -0.5724
 7228SOL    HW233144   4.129   1.958  12.523  0.4961  0.4489 -1.0592
 7229SOL     OW33145   2.561   1.135   5.911 -0.2499  0.2205 -0.1656
 7229SOL    HW133146   2.553   1.230   5.925 -2.6745  0.0491 -0.4260
 7229SOL    HW233147   2.652   1.116   5.934 -0.3006  0.6486  0.4030
 7230SOL     OW33148   2.370   1.488   5.817 -0.5062 -0.2559 -0.3385
 7230SOL    HW133149   2.466   1.483   5.815 -0.5290 -0.9720  0.4368
 7230SOL    HW233150   2.354   1.578   5.845 -0.7441  0.1723 -1.8125
 7231SOL     OW33151   4.538   0.682   4.238 -0.1356  0.0948  0.0967
 7231SOL    HW133152   4.623   0.655   4.203 -0.0108 -1.6424  1.6995
 7231SOL    HW233153   4.492   0.598   4.242 -0.1297  0.0144 -1.8776
 7232SOL     OW33154   4.146   3.356  11.400  0.2248  0.7071 -0.3015
 7232SOL    HW133155   4.144   3.302  11.479 -0.8241  1.9620  0.5238
 7232SOL    HW233156   4.060   3.353  11.359  0.7579  1.7966 -1.5275
 7233SOL     OW33157   3.163   2.493   1.790  0.5027 -0.4901 -0.3938
 7233SOL    HW133158   3.083   2.445   1.810 -0.5266  1.8835  1.0615
 7233SOL    HW233159   3.193   2.430   1.724 -1.6239 -0.4413 -1.4093
 7234SOL     OW33160   3.355   3.458  17.234 -0.3732 -0.2908  0.5749
 7234SOL    HW133161   3.368   3.553  17.236 -3.5114  0.1615  0.7839
 7234SOL    HW233162   3.285   3.456  17.169 -0.2504 -1.7327  0.4858
 7235SOL     OW33163   1.868   4.708   6.874  0.8997  0.6086 -0.2684
 7235SOL    HW133164   1.777   4.717   6.902  0.5664  0.3766 -1.2793
 7235SOL    HW233165   1.918   4.671   6.947 -1.9062 -0.9269  0.8845
 7236SOL     OW33166   0.103   1.320  16.419 -0.1578 -0.4258  0.3265
 7236SOL    HW133167   0.130   1.264  16.493  0.8349  0.8762  0.9595
 7236SOL    HW233168   0.148   1.271  16.350  1.6427  0.4856  0.8465
 7237SOL     OW33169   2.033   2.968   4.434 -0.2072 -0.6151 -0.6227
 7237SOL    HW133170   1.970   3.018   4.487  1.5195 -0.6143  1.4023
 7237SOL    HW233171   2.110   2.958   4.489 -0.5362  1.0777  0.1445
 7238SOL     OW33172   1.797   2.377   2.503  0.1745  1.0975 -0.3997
 7238SOL    HW133173   1.748   2.296   2.506  1.1572  0.4374 -1.9040
 7238SOL    HW233174   1.791   2.397   2.409  1.0340  1.1352 -0.4524
 7239SOL     OW33175   2.659   4.718   6.347 -0.2945  0.1043  0.2143
 7239SOL    HW133176   2.675   0.005   6.441  2.2712  1.9031 -0.3822
 7239SOL    HW233177   2.570   4.685   6.346 -0.6966  1.2128 -0.5284
 7240SOL     OW33178   2.526   1.537  10.723  0.4138  0.3762  0.0997
 7240SOL    HW133179   2.493   1.497  10.804  1.8322  0.6420  0.8117
 7240SOL    HW233180   2.464   1.608  10.704  0.8758  0.9247  0.6641
 7241SOL     OW33181   2.452   3.297   8.102  0.1680 -0.3302 -0.0084
 7241SOL    HW133182   2.498   3.254   8.030  0.9629  0.7875 -0.1812
 7241SOL    HW233183   2.437   3.228   8.165 -2.9269  1.3714  1.1223
 7242SOL     OW33184   2.981   4.654   4.272 -0.0611 -0.1100 -0.2917
 7242SOL    HW133185   3.009   4.599   4.199 -3.3843 -3.1740  0.7459
 7242SOL    HW233186   2.997   0.016   4.228 -1.1906  0.1484 -0.2082
 7243SOL     OW33187   0.500   0.903   7.864 -0.0137  0.0878  0.4461
 7243SOL    HW133188   0.437   0.950   7.919  0.8310 -0.4132  1.8380
 7243SOL    HW233189   0.540   0.969   7.809 -1.7004  0.2029 -0.6537
 7244SOL     OW33190   2.290   3.655  15.622 -0.0105 -0.7268  0.2402
 7244SOL    HW133191   2.210   3.625  15.579  0.4268  0.3962 -1.3758
 7244SOL    HW233192   2.256   3.741  15.648 -1.9957 -0.9835 -1.5591
 7245SOL     OW33193   4.353   3.072  11.521 -0.3099  0.0881  0.0592
 7245SOL    HW133194   4.384   3.016  11.592  2.2019  3.3418  1.5399
 7245SOL    HW233195   4.422   3.139  11.517 -0.6049  0.6130  4.5415
 7246SOL     OW33196   0.570   1.551   4.521 -0.4439 -0.0429  0.3298
 7246SOL    HW133197   0.476   1.555   4.504  0.0150  0.1785 -2.1574
 7246SOL    HW233198   0.579   1.588   4.609 -2.1622  0.3356  0.3486
 7247SOL     OW33199   4.682   1.736   2.557  0.2082 -0.6600  0.4502
 7247SOL    HW133200   4.587   1.722   2.555  0.2444 -0.8299  0.0254
 7247SOL    HW233201   4.682   1.822   2.599 -0.9991  0.9867 -2.8991
 7248SOL     OW33202   2.561   0.018   7.369 -0.2430  0.1396 -0.6159
 7248SOL    HW133203   2.529   4.654   7.397 -2.8404  2.2093  2.7213
 7248SOL    HW233204   2.495   0.045   7.305 -1.1988  0.2240  0.4021
 7249SOL     OW33205   1.844   2.641   1.081  0.3736 -0.0577 -0.5025
 7249SOL    HW133206   1.846   2.654   1.176 -0.5622  0.4529 -0.5534
 7249SOL    HW233207   1.852   2.546   1.083  1.3426  0.0043 -2.1668
 7250SOL     OW33208   0.981   2.532   4.646 -0.2776 -0.5698 -0.3665
 7250SOL    HW133209   0.954   2.494   4.562  0.7865 -0.7511 -0.6372
 7250SOL    HW233210   0.986   2.624   4.623  2.8440 -0.6052  0.1687
 7251SOL     OW33211   3.229   4.453   7.529 -0.3886 -0.0428  0.0091
 7251SOL    HW133212   3.287   4.497   7.591  0.9183  0.0037 -1.2478
 7251SOL    HW233213   3.143   4.477   7.564  0.7927 -1.1147  3.5963
 7252SOL     OW33214   1.947   3.101   6.047 -0.3338  0.0052 -0.0377
 7252SOL    HW133215   2.015   3.108   6.114 -0.1964 -1.5031 -0.0112
 7252SOL    HW233216   1.885   3.046   6.095  0.7403  0.1070  1.4347
 7253SOL     OW33217   2.543   1.768  17.307  0.5008  0.1614  0.7662
 7253SOL    HW133218   2.590   1.707  17.364  0.7165 -0.2271  0.1702
 7253SOL    HW233219   2.459   1.724  17.310  0.8546 -0.4355  1.9697
 7254SOL     OW33220   1.099   4.166   6.011  0.1427 -0.1108  0.0816
 7254SOL    HW133221   1.193   4.183   6.020  0.3833 -0.2593 -2.4090
 7254SOL    HW233222   1.054   4.250   6.025  2.7658  1.0232  1.8079
 7255SOL     OW33223   0.830   3.279   1.282  0.1804 -0.2279  0.0357
 7255SOL    HW133224   0.915   3.303   1.317  1.4508 -1.0946 -2.4986
 7255SOL    HW233225   0.816   3.208   1.345  2.0335 -1.0782 -0.5362
 7256SOL     OW33226   1.119   1.096  12.415 -0.9565  0.0033  0.2475
 7256SOL    HW133227   1.049   1.126  12.473 -1.3092 -0.8770  0.2774
 7256SOL    HW233228   1.093   1.005  12.401 -0.1091 -0.3059  0.7005
 7257SOL     OW33229   0.541   4.018   5.843  0.1895  0.2855 -0.5918
 7257SOL    HW133230   0.582   4.098   5.876 -1.2396  0.9786 -0.5015
 7257SOL    HW233231   0.617   3.962   5.857 -0.9274 -0.8017  1.0673
 7258SOL     OW33232   0.457   1.539   2.585 -0.1141  0.7199 -1.0281
 7258SOL    HW133233   0.409   1.617   2.613  0.7498  0.9707 -0.2658
 7258SOL    HW233234   0.382   1.486   2.558 -1.6252  1.3140  1.9236
 7259SOL     OW33235   1.783   2.905   7.933 -0.3103 -0.2967  1.1175
 7259SOL    HW133236   1.795   2.922   8.027  0.5602 -0.7185  1.0846
 7259SOL    HW233237   1.692   2.928   7.912  0.6285  0.3664 -2.1297
 7260SOL     OW33238   3.689   4.067   4.480 -0.4988 -0.4319 -0.2124
 7260SOL    HW133239   3.735   4.055   4.397 -0.0566 -0.0694 -0.0261
 7260SOL    HW233240   3.602   4.094   4.450  0.7154  1.7418 -1.8493
 7261SOL     OW33241   2.090   4.349   9.912  0.3052  0.4687 -0.5724
 7261SOL    HW133242   2.000   4.352   9.946  0.8715 -3.3587  1.2766
 7261SOL    HW233243   2.091   4.408   9.837  1.0681 -0.4775 -1.3056
 7262SOL     OW33244   1.359   2.198  13.924  0.0717 -0.0158 -0.3981
 7262SOL    HW133245   1.266   2.188  13.942  0.1428  1.1917  0.6267
 7262SOL    HW233246   1.388   2.134  13.988  1.5052 -0.5623 -1.5897
 7263SOL     OW33247   3.445   2.060   6.768  0.0725  0.2027  0.2037
 7263SOL    HW133248   3.388   2.109   6.827 -1.5404  0.0176 -1.2129
 7263SOL    HW233249   3.452   1.979   6.819  0.7035 -0.6758 -1.2684
 7264SOL     OW33250   3.317   1.499   5.023  0.0874  0.1340  0.3642
 7264SOL    HW133251   3.259   1.572   5.002 -0.3717 -0.2247  0.3731
 7264SOL    HW233252   3.401   1.531   4.990 -0.0471  0.2600  0.1439
 7265SOL     OW33253   3.951   0.531  12.765  0.6659 -0.2725 -0.1407
 7265SOL    HW133254   4.035   0.489  12.750  0.9882 -0.0185  0.9456
 7265SOL    HW233255   3.911   0.523  12.678  0.8361  0.1814 -0.2628
 7266SOL     OW33256   2.527   4.698  14.580 -0.2719  0.3664 -0.5948
 7266SOL    HW133257   2.452   0.001  14.527 -1.3390 -2.6193 -0.5334
 7266SOL    HW233258   2.548   4.624  14.522 -2.3136 -0.2326 -0.5642
 7267SOL     OW33259   2.853   2.382   8.102  0.9877  0.1044  0.0552
 7267SOL    HW133260   2.828   2.303   8.151 -0.7023  1.2227  0.9491
 7267SOL    HW233261   2.949   2.379   8.104  1.0081 -1.6433 -2.7500
 7268SOL     OW33262   4.323   2.635  13.480 -0.1125 -0.0507 -0.3578
 7268SOL    HW133263   4.234   2.645  13.511 -0.0484  1.2982 -0.6283
 7268SOL    HW233264   4.353   2.610  13.567  1.4144  1.7097 -0.3869
 7269SOL     OW33265   2.303   0.763   3.937 -0.2213 -0.1825 -0.1559
 7269SOL    HW133266   2.223   0.721   3.969  0.7970 -2.0044 -0.0214
 7269SOL    HW233267   2.331   0.722   3.855 -0.9258  0.8380 -0.9077
 7270SOL     OW33268   3.848   2.053   0.369 -0.1781 -0.2010  0.2891
 7270SOL    HW133269   3.905   2.037   0.444  0.7850 -1.5825 -0.7473
 7270SOL    HW233270   3.785   2.109   0.415 -1.4295 -2.1122  0.9355
 7271SOL     OW33271   3.641   0.082  14.224  0.0165  0.5566 -0.1990
 7271SOL    HW133272   3.675   0.155  14.274 -1.4509  1.6326 -0.7716
 7271SOL    HW233273   3.628   0.013  14.289  1.0777  0.8298  0.2875
 7272SOL     OW33274   1.674   3.739   5.103 -0.1751 -0.0512 -0.6161
 7272SOL    HW133275   1.661   3.831   5.126  0.6774 -0.1288  0.1509
 7272SOL    HW233276   1.769   3.742   5.107 -0.1083 -0.3993 -1.8484
 7273SOL     OW33277   3.848   0.244  11.444 -0.5889 -0.5229  0.4691
 7273SOL    HW133278   3.825   0.192  11.367 -0.6964  0.0567  0.1107
 7273SOL    HW233279   3.761   0.279  11.463 -0.1829  1.0111 -0.5612
 7274SOL     OW33280   4.300   0.615   9.661  0.0968 -0.3039 -0.5341
 7274SOL    HW133281   4.395   0.620   9.668  0.2315 -0.1481 -2.6532
 7274SOL    HW233282   4.281   0.587   9.751  1.3323 -0.4731 -0.3261
 7275SOL     OW33283   4.484   2.716   6.615  0.1610 -0.4704  0.8874
 7275SOL    HW133284   4.397   2.682   6.593  1.3964 -1.7049 -2.1902
 7275SOL    HW233285   4.457   2.802   6.646 -2.0130 -0.6261 -0.5525
 7276SOL     OW33286   2.518   4.679  16.841 -0.5529  0.5298  0.5555
 7276SOL    HW133287   2.539   4.673  16.935  0.0557  0.1643  0.3992
 7276SOL    HW233288   2.592   0.005  16.803 -0.8636  1.2611  0.8749
 7277SOL     OW33289   1.303   3.257  11.819 -0.4488  0.4535  0.1308
 7277SOL    HW133290   1.290   3.315  11.743  0.8896  0.4449 -0.1132
 7277SOL    HW233291   1.370   3.200  11.782  0.1510  1.2280  0.0134
 7278SOL     OW33292   1.528   1.748   0.802  0.5109 -0.0844 -0.0450
 7278SOL    HW133293   1.524   1.809   0.876 -1.2756 -0.3810  0.1064
 7278SOL    HW233294   1.584   1.802   0.746  0.8460 -0.3706  0.0159
 7279SOL     OW33295   4.420   3.179   7.367  0.3906  0.6095  0.2233
 7279SOL    HW133296   4.343   3.207   7.418  0.4289  0.1440  0.5301
 7279SOL    HW233297   4.458   3.266   7.353 -0.5047  1.0750  0.6156
 7280SOL     OW33298   1.038   1.782   4.938 -0.2387 -0.5351  0.2435
 7280SOL    HW133299   1.058   1.868   4.975  0.2029  0.7708 -3.0758
 7280SOL    HW233300   0.946   1.791   4.962 -0.5252 -1.4898 -0.4814
 7281SOL     OW33301   4.185   2.255  10.211  0.0495  0.3266 -0.4825
 7281SOL    HW133302   4.209   2.202  10.287 -0.1864  0.2004 -0.4949
 7281SOL    HW233303   4.133   2.194  10.158 -0.3636 -0.8571  1.2703
 7282SOL     OW33304   0.631   4.383   1.888 -0.2251 -0.6243  0.2752
 7282SOL    HW133305   0.613   4.336   1.806 -1.4599  0.5507 -0.1314
 7282SOL    HW233306   0.628   4.309   1.949  1.0638  0.3038  1.4522
 7283SOL     OW33307   4.331   1.246  16.753  0.8044  0.6249 -0.6931
 7283SOL    HW133308   4.287   1.317  16.801  0.6944  0.6543 -0.8343
 7283SOL    HW233309   4.420   1.278  16.766  0.9790 -0.1567  0.0316
 7284SOL     OW33310   2.607   0.447   7.302 -0.1197 -0.6266 -0.6776
 7284SOL    HW133311   2.514   0.472   7.299  0.0085 -0.1562 -0.6053
 7284SOL    HW233312   2.635   0.486   7.219 -2.1945 -1.3091 -1.6996
 7285SOL     OW33313   2.241   1.521   3.335 -0.1484  0.8595  0.2651
 7285SOL    HW133314   2.249   1.463   3.411 -1.6684  0.6042  0.2429
 7285SOL    HW233315   2.240   1.457   3.264  0.7826 -0.1517  1.1645
 7286SOL     OW33316   4.401   1.104   6.225 -0.6244 -0.7309  0.2253
 7286SOL    HW133317   4.355   1.060   6.154 -1.3011  0.6342 -0.1638
 7286SOL    HW233318   4.336   1.157   6.271  1.3978  1.2853  0.7955
 7287SOL     OW33319   0.276   3.162   6.253 -0.0437  0.4455 -0.2817
 7287SOL    HW133320   0.257   3.068   6.252 -0.2315  0.4929 -0.8282
 7287SOL    HW233321   0.370   3.160   6.235  0.3022 -0.0927  1.5496
 7288SOL     OW33322   2.312   0.399   6.213  0.4495  0.4538 -0.1674
 7288SOL    HW133323   2.238   0.344   6.236 -2.6412  4.3024 -0.9902
 7288SOL    HW233324   2.293   0.485   6.249 -0.1148  0.5822 -0.7653
 7289SOL     OW33325   1.293   2.287  17.149  0.1902 -0.1384  0.3171
 7289SOL    HW133326   1.314   2.316  17.061  0.8759 -1.5591  0.0126
 7289SOL    HW233327   1.376   2.296  17.195  0.9361 -2.0169 -0.6535
 7290SOL     OW33328   3.938   1.361   5.867  0.5464 -0.0276  0.1314
 7290SOL    HW133329   3.977   1.429   5.812 -0.0607 -0.4347 -0.7951
 7290SOL    HW233330   3.873   1.424   5.901 -0.2202 -0.4494 -0.5441
 7291SOL     OW33331   0.161   0.314  10.015 -0.4372  0.0278 -0.3541
 7291SOL    HW133332   0.080   0.285   9.974 -1.7316  0.7130  1.7380
 7291SOL    HW233333   0.187   0.384   9.955 -1.5449  0.4436 -0.3411
 7292SOL     OW33334   0.170   2.097   5.952 -0.3569 -0.5401  0.4197
 7292SOL    HW133335   0.261   2.118   5.935 -0.3797  0.3972  1.4459
 7292SOL    HW233336   0.177   2.002   5.942 -0.6751 -0.3874 -1.2034
 7293SOL     OW33337   3.719   3.585   3.474  0.2793  0.3006  0.4234
 7293SOL    HW133338   3.640   3.532   3.488  0.3254 -0.2199 -1.2970
 7293SOL    HW233339   3.684   3.646   3.410 -0.1804 -0.4757 -0.0661
 7294SOL     OW33340   4.160   1.239   5.675  0.3085  0.0981  0.4914
 7294SOL    HW133341   4.081   1.269   5.721 -0.7142  0.2399 -1.3480
 7294SOL    HW233342   4.127   1.171   5.615 -0.0206 -0.9178  1.8196
 7295SOL     OW33343   4.093   0.435   3.018  0.4760 -0.9757 -0.4724
 7295SOL    HW133344   4.077   0.520   2.975  0.9600 -1.2726 -1.2422
 7295SOL    HW233345   4.045   0.440   3.101  2.5786  1.4092  0.6034
 7296SOL     OW33346   2.953   2.877   2.657  0.2799  0.3842 -0.0653
 7296SOL    HW133347   2.886   2.941   2.634 -1.4798 -2.0404 -1.5995
 7296SOL    HW233348   2.905   2.827   2.723 -0.4395 -1.2859 -1.8500
 7297SOL     OW33349   1.640   0.815   9.969  0.3990  0.8182 -0.5417
 7297SOL    HW133350   1.717   0.846   9.922  1.1596 -0.5578 -0.1893
 7297SOL    HW233351   1.617   0.739   9.916 -0.1851  0.7703 -0.2232
 7298SOL     OW33352   2.079   3.568   7.784  0.3217  0.4102 -0.1100
 7298SOL    HW133353   2.133   3.491   7.805 -1.6529 -1.3731 -1.5743
 7298SOL    HW233354   2.020   3.523   7.724  1.5613  0.8134 -1.6292
 7299SOL     OW33355   4.369   1.685  11.520 -0.3649 -0.1445  0.8563
 7299SOL    HW133356   4.294   1.642  11.561 -1.1157  1.8671  1.6249
 7299SOL    HW233357   4.363   1.766  11.571  0.4550 -0.2288  1.0765
 7300SOL     OW33358   1.091   0.409   5.311  0.8789  0.6967  0.3363
 7300SOL    HW133359   1.044   0.488   5.339 -0.5745  0.6104 -1.7977
 7300SOL    HW233360   1.138   0.381   5.389  1.3057 -1.9190 -0.8706
 7301SOL     OW33361   2.052   0.326   2.621 -0.0912  0.0179  0.8042
 7301SOL    HW133362   2.113   0.345   2.549 -1.1489  0.5714  0.0585
 7301SOL    HW233363   2.087   0.242   2.650  0.2457  0.6404  2.1828
 7302SOL     OW33364   3.922   3.878  16.303 -0.6880 -0.1090 -0.6732
 7302SOL    HW133365   4.012   3.897  16.329 -1.5057  2.2251  0.3848
 7302SOL    HW233366   3.924   3.925  16.220  1.3058 -0.4215 -0.8008
 7303SOL     OW33367   4.492   3.311   3.736 -0.1415 -0.2306  0.1871
 7303SOL    HW133368   4.436   3.290   3.661 -0.2579  0.8404 -0.0133
 7303SOL    HW233369   4.428   3.365   3.783 -1.9220 -1.8068 -0.4239
 7304SOL     OW33370   0.813   3.250   3.941 -0.4099  0.0662 -0.5148
 7304SOL    HW133371   0.738   3.275   3.888 -1.2124  3.6338  2.3289
 7304SOL    HW233372   0.764   3.210   4.013 -2.8528 -0.1187 -2.2920
 7305SOL     OW33373   3.304   3.084   0.074 -0.0436 -0.3412  0.0907
 7305SOL    HW133374   3.237   3.139   0.115 -0.4692  0.4802 -1.6827
 7305SOL    HW233375   3.369   3.150   0.049  1.2577 -0.9299  1.9837
 7306SOL     OW33376   3.876   2.234  14.500  0.1442  0.0983  0.2030
 7306SOL    HW133377   3.835   2.255  14.584 -2.1431 -2.1063 -0.3569
 7306SOL    HW233378   3.959   2.281  14.498 -1.4731  2.8631 -1.6977
 7307SOL     OW33379   0.641   1.629   3.284  0.2196  0.1939 -0.3527
 7307SOL    HW133380   0.574   1.561   3.277 -0.9177  1.1758  1.0619
 7307SOL    HW233381   0.571   1.694   3.289  0.7484  0.6619  0.9400
 7308SOL     OW33382   3.683   3.516   2.364 -0.0456  0.1105 -0.8347
 7308SOL    HW133383   3.588   3.505   2.355  0.1967 -1.7873 -1.2287
 7308SOL    HW233384   3.700   3.549   2.451 -0.5195  1.7884 -1.3787
 7309SOL     OW33385   0.431   3.609   9.173 -0.3586  0.2824 -0.1307
 7309SOL    HW133386   0.372   3.682   9.153  0.8361  0.3517 -3.4441
 7309SOL    HW233387   0.387   3.540   9.123 -1.3593  0.9820 -0.2185
 7310SOL     OW33388   0.658   1.898   8.330 -0.3942  0.3272  0.0417
 7310SOL    HW133389   0.679   1.991   8.344  1.9923 -0.3035  0.7009
 7310SOL    HW233390   0.701   1.879   8.247  0.6381  0.1985  0.5986
 7311SOL     OW33391   0.401   2.942   4.542  0.1886 -0.0809  0.2196
 7311SOL    HW133392   0.428   2.850   4.551 -1.5026 -0.7127 -1.3307
 7311SOL    HW233393   0.417   2.954   4.449 -1.6126 -0.2828 -0.1156
 7312SOL     OW33394   3.144   1.345   8.458  0.1107  0.2145  0.7092
 7312SOL    HW133395   3.229   1.310   8.429 -0.7007 -0.8513 -0.3521
 7312SOL    HW233396   3.164   1.338   8.552 -0.5026  1.9819  0.9638
 7313SOL     OW33397   1.900   0.583  11.253 -0.4628 -0.1181  0.1726
 7313SOL    HW133398   1.856   0.638  11.188  1.9645 -0.7342 -1.9531
 7313SOL    HW233399   1.888   0.636  11.332 -1.5974  0.0466 -0.1006
 7314SOL     OW33400   1.338   2.257   8.981 -0.3231  0.0911 -0.0130
 7314SOL    HW133401   1.337   2.262   9.076  1.9437 -1.2092  0.0841
 7314SOL    HW233402   1.261   2.311   8.967 -0.9603 -0.5378  1.0962
 7315SOL     OW33403   0.047   1.795  16.511 -0.2451  0.4918  0.6924
 7315SOL    HW133404   0.087   1.798  16.425 -0.5555 -0.4728  0.5236
 7315SOL    HW233405   4.680   1.813  16.481 -1.0044 -1.1417  1.9347
 7316SOL     OW33406   2.656   3.109  11.617 -0.1795  0.2878 -0.5210
 7316SOL    HW133407   2.703   3.077  11.695  1.1135 -1.6956 -2.1047
 7316SOL    HW233408   2.694   3.197  11.611 -0.8098  0.6470  0.7742
 7317SOL     OW33409   0.927   2.765   7.548  0.9455 -0.1158 -0.6437
 7317SOL    HW133410   0.892   2.687   7.590 -0.7004  0.0253 -1.7722
 7317SOL    HW233411   0.889   2.830   7.608 -0.8038  0.1165 -2.0115
 7318SOL     OW33412   4.361   2.589   4.878 -0.1167 -1.1103  0.9677
 7318SOL    HW133413   4.345   2.570   4.970  0.3985 -1.2996  1.0202
 7318SOL    HW233414   4.453   2.561   4.875 -0.2235 -1.2022 -2.2715
 7319SOL     OW33415   1.491   3.952  10.092  1.0091  0.1166 -0.6027
 7319SOL    HW133416   1.525   4.018  10.153 -1.0015 -0.0704  0.7254
 7319SOL    HW233417   1.434   4.008  10.039  1.5751  0.3676 -0.9504
 7320SOL     OW33418   3.968   3.173   4.061  0.2265 -0.5205  0.8822
 7320SOL    HW133419   3.880   3.201   4.084  0.6816  0.0898  1.8652
 7320SOL    HW233420   4.015   3.256   4.052  0.7669 -0.9883 -0.6518
 7321SOL     OW33421   0.489   4.627  13.512 -0.1184  0.6307 -0.1946
 7321SOL    HW133422   0.544   4.640  13.589 -1.8946  1.0442  1.0042
 7321SOL    HW233423   0.529   4.682  13.445 -0.3809  0.7457 -0.2565
 7322SOL     OW33424   0.813   4.127   9.201 -0.4823 -0.4318 -0.2972
 7322SOL    HW133425   0.890   4.131   9.144  0.7055  0.1828  1.3660
 7322SOL    HW233426   0.773   4.212   9.183  0.4310 -0.3851 -2.1494
 7323SOL     OW33427   2.671   3.849   6.270 -0.4183 -0.1867  0.0915
 7323SOL    HW133428   2.667   3.753   6.274 -2.8087 -0.0603  0.9555
 7323SOL    HW233429   2.602   3.880   6.329  0.5384  1.4545  0.3477
 7324SOL     OW33430   4.000   3.897   5.641 -0.1818 -0.4077  0.1003
 7324SOL    HW133431   4.082   3.881   5.595 -0.6431 -2.6882  0.0736
 7324SOL    HW233432   4.029   3.958   5.709 -1.0219 -0.6706  0.6928
 7325SOL     OW33433   0.124   1.135   5.247  0.1080 -0.3634 -0.4089
 7325SOL    HW133434   0.108   1.068   5.314 -1.6858 -1.1070 -1.5999
 7325SOL    HW233435   0.164   1.211   5.290  0.7062 -1.5773  1.2188
 7326SOL     OW33436   2.525   0.228  10.762  0.5379  0.2288 -0.3111
 7326SOL    HW133437   2.564   0.201  10.845 -1.2523  0.0852  0.4868
 7326SOL    HW233438   2.581   0.303  10.744  0.6706 -0.5078 -3.0282
 7327SOL     OW33439   1.013   4.683   0.170  0.3104 -0.3581 -0.1579
 7327SOL    HW133440   1.046   0.024   0.235  1.8798 -1.0570 -0.2785
 7327SOL    HW233441   1.085   4.681   0.107  0.4864 -0.2805  0.0378
 7328SOL     OW33442   2.055   3.527  11.569 -0.4133 -0.2742  0.4866
 7328SOL    HW133443   2.017   3.592  11.510  0.7188  0.0506  0.1113
 7328SOL    HW233444   2.009   3.451  11.534  0.1316  0.3824 -1.7255
 7329SOL     OW33445   3.540   1.152   7.118 -0.5352  0.1029 -0.0430
 7329SOL    HW133446   3.613   1.186   7.170 -1.4869 -0.0740  1.4021
 7329SOL    HW233447   3.580   1.118   7.038 -0.6154  0.4273 -0.2233
 7330SOL     OW33448   2.565   1.402   1.934 -0.6291  0.8958 -0.2452
 7330SOL    HW133449   2.602   1.423   1.848  1.7888 -1.1798  0.3036
 7330SOL    HW233450   2.564   1.488   1.977 -1.8197  1.2037 -0.8941
 7331SOL     OW33451   3.181   4.119   2.498 -0.5067 -0.1438 -0.1402
 7331SOL    HW133452   3.113   4.169   2.543  0.0021 -0.6141  1.1669
 7331SOL    HW233453   3.246   4.112   2.569 -0.8942  1.9403  0.4310
 7332SOL     OW33454   0.986   3.054   3.134  0.1457 -0.3592  0.0200
 7332SOL    HW133455   1.054   3.037   3.069  0.0391 -1.5787  0.2205
 7332SOL    HW233456   0.991   2.979   3.193 -1.6688  0.6736  1.5047
 7333SOL     OW33457   3.964   1.182  13.271  0.5132 -0.4435  0.3297
 7333SOL    HW133458   4.048   1.219  13.243  0.4271 -0.1387  0.4808
 7333SOL    HW233459   3.973   1.102  13.219  0.7978  0.6012 -1.2060
 7334SOL     OW33460   1.566   4.158   3.974 -0.2834 -0.0052  0.1724
 7334SOL    HW133461   1.649   4.193   4.008 -0.1224 -0.8091  0.6270
 7334SOL    HW233462   1.555   4.073   4.017  0.3813 -0.0809  0.2053
 7335SOL     OW33463   2.064   4.543   9.712 -0.0045  0.1984  0.4988
 7335SOL    HW133464   2.031   4.624   9.750 -0.4674  0.4656 -0.4589
 7335SOL    HW233465   2.152   4.564   9.683  0.6960 -1.0247  1.7343
 7336SOL     OW33466   0.994   0.538   4.877  0.0691 -0.1382 -0.1648
 7336SOL    HW133467   0.970   0.509   4.789 -0.1227 -1.8066  0.4426
 7336SOL    HW233468   0.907   0.544   4.915  0.2271  0.4940  0.1102
 7337SOL     OW33469   1.249   1.019   4.569 -0.1983  0.3403  0.3853
 7337SOL    HW133470   1.282   0.935   4.538  0.0567  1.7180 -3.2004
 7337SOL    HW233471   1.308   1.037   4.642 -0.0767 -0.7389  0.5467
 7338SOL     OW33472   1.276   4.260  16.117 -0.1549  0.4706 -0.4779
 7338SOL    HW133473   1.246   4.283  16.029  0.5844 -0.5748 -1.0017
 7338SOL    HW233474   1.247   4.339  16.164 -3.1525  0.3808 -2.1979
 7339SOL     OW33475   2.260   4.245   5.318  0.5681 -0.5398 -0.0291
 7339SOL    HW133476   2.242   4.325   5.366  0.3302  0.9568 -2.6357
 7339SOL    HW233477   2.331   4.267   5.258 -0.5129 -0.0491 -1.1225
 7340SOL     OW33478   1.506   2.972  13.623 -0.5022 -0.0681 -0.1026
 7340SOL    HW133479   1.511   2.920  13.543  0.6063 -0.6700  0.3481
 7340SOL    HW233480   1.590   3.019  13.623 -1.3713  1.4584 -0.7900
 7341SOL     OW33481   2.469   3.235  14.979 -0.5276  0.9234 -0.2203
 7341SOL    HW133482   2.530   3.290  14.930 -0.1907  0.0489 -0.7946
 7341SOL    HW233483   2.466   3.160  14.920 -0.7226  0.1167  0.8103
 7342SOL     OW33484   3.043   0.225   4.614  0.1533  0.0173 -0.1001
 7342SOL    HW133485   3.084   0.290   4.557  2.0564  0.1829  1.4360
 7342SOL    HW233486   3.008   0.290   4.675 -1.3353  0.6479 -1.6109
 7343SOL     OW33487   2.505   0.884  11.544  0.2109  0.1331 -0.0628
 7343SOL    HW133488   2.465   0.847  11.623  2.7558 -0.0486  1.1417
 7343SOL    HW233489   2.465   0.971  11.544 -0.5789 -0.2305 -1.1720
 7344SOL     OW33490   1.429   4.534  16.104  0.2141  0.4635  0.0113
 7344SOL    HW133491   1.376   4.546  16.025 -1.1662  1.5496  1.0953
 7344SOL    HW233492   1.366   4.521  16.175 -1.6073 -0.4200 -1.7846
 7345SOL     OW33493   2.718   3.487   1.751 -0.2790 -0.4522  0.2416
 7345SOL    HW133494   2.699   3.546   1.677 -2.8229 -0.3318  0.9945
 7345SOL    HW233495   2.810   3.474   1.728 -1.2822 -0.9649 -3.4759
 7346SOL     OW33496   3.045   4.340   8.162  0.9832 -0.9092  0.6028
 7346SOL    HW133497   3.036   4.432   8.135 -2.5435 -1.2335  0.7813
 7346SOL    HW233498   2.969   4.302   8.119  0.2537  1.0799  0.1092
 7347SOL     OW33499   0.139   3.384   6.567  0.0592  0.0991  0.0581
 7347SOL    HW133500   0.072   3.333   6.522  0.1970  0.7094 -0.8357
 7347SOL    HW233501   0.195   3.394   6.490 -0.7558  1.4649 -0.3668
 7348SOL     OW33502   3.927   4.224   7.141  0.1944 -0.3165 -0.6671
 7348SOL    HW133503   3.879   4.268   7.211  1.1713 -1.0588  0.4575
 7348SOL    HW233504   3.856   4.223   7.077  0.6506  1.4437 -1.2046
 7349SOL     OW33505   2.213   1.155   5.095 -0.0353 -0.5873 -0.5873
 7349SOL    HW133506   2.295   1.114   5.068 -0.9348 -3.0040  0.3750
 7349SOL    HW233507   2.232   1.246   5.071 -0.0706 -0.3691  0.2095
 7350SOL     OW33508   3.619   3.427   2.041 -0.5587 -0.0474  0.0307
 7350SOL    HW133509   3.592   3.351   1.990  2.3021  0.0636 -1.6595
 7350SOL    HW233510   3.703   3.397   2.078  1.1511  1.7558 -2.4016
 7351SOL     OW33511   0.836   4.415   5.480 -0.2788  0.3432  0.1114
 7351SOL    HW133512   0.747   4.445   5.497 -1.1221 -0.6183 -2.6491
 7351SOL    HW233513   0.873   4.416   5.568 -0.8819  0.1365  0.3676
 7352SOL     OW33514   3.160   1.957  12.601 -0.5144 -0.1274  0.6018
 7352SOL    HW133515   3.199   2.038  12.632  2.6215 -1.6500  0.6550
 7352SOL    HW233516   3.078   1.981  12.558  0.3544  0.2121 -0.8721
 7353SOL     OW33517   4.261   3.930   8.404 -0.3779  0.2387 -0.4796
 7353SOL    HW133518   4.319   4.006   8.390  0.8205 -0.4465  0.7310
 7353SOL    HW233519   4.312   3.857   8.371  0.6894  0.4989  0.5756
 7354SOL     OW33520   3.963   0.362  14.426  0.0073 -0.0794  0.2529
 7354SOL    HW133521   3.932   0.384  14.338 -0.5100  1.2714  0.7777
 7354SOL    HW233522   4.056   0.351  14.404 -0.0586 -2.7068  1.2548
 7355SOL     OW33523   0.398   2.623  10.844  0.1731  0.4302  0.5486
 7355SOL    HW133524   0.419   2.531  10.829 -0.2883  0.4051  0.0557
 7355SOL    HW233525   0.472   2.665  10.798 -2.1555  1.8741 -1.8974
 7356SOL     OW33526   2.679   3.224  16.584  0.2309  0.2195 -0.4729
 7356SOL    HW133527   2.694   3.317  16.603 -0.1662 -0.0378  1.0677
 7356SOL    HW233528   2.604   3.230  16.524 -0.4306 -0.6960  0.2787
 7357SOL     OW33529   2.167   4.166   1.651 -0.0512 -0.3099 -0.0586
 7357SOL    HW133530   2.195   4.256   1.664 -1.4070 -0.0681  1.2265
 7357SOL    HW233531   2.116   4.160   1.732  1.0925  2.2289  0.8312
 7358SOL     OW33532   3.199   2.643   5.970 -0.4680 -0.3673 -0.0119
 7358SOL    HW133533   3.190   2.577   6.039  1.1424 -2.0798 -1.4590
 7358SOL    HW233534   3.146   2.711   6.013  1.0939  0.7189  0.1889
 7359SOL     OW33535   1.657   2.442  10.308 -0.2175 -0.4884 -0.3770
 7359SOL    HW133536   1.576   2.400  10.280 -0.9518 -0.4175  1.6755
 7359SOL    HW233537   1.708   2.375  10.353 -0.0181  0.7136  1.1585
 7360SOL     OW33538   4.642   2.740  12.655  0.6401  0.3605  0.2702
 7360SOL    HW133539   4.714   2.737  12.592  2.2263 -1.9290  2.1871
 7360SOL    HW233540   4.685   2.749  12.740 -0.5157 -0.7767  0.9833
 7361SOL     OW33541   4.380   4.161   7.222 -0.0636  0.2431 -0.2258
 7361SOL    HW133542   4.344   4.214   7.294  1.8746 -1.6553  2.1448
 7361SOL    HW233543   4.293   4.147   7.185 -1.6895 -1.0042  4.0334
 7362SOL     OW33544   1.804   3.739   6.629 -0.4980 -0.2622 -0.1133
 7362SOL    HW133545   1.751   3.668   6.592 -1.0314  0.1995 -0.2389
 7362SOL    HW233546   1.816   3.809   6.564 -1.7860  1.0132  1.0106
 7363SOL     OW33547   2.986   2.573   9.892 -0.2837  0.0626  0.5888
 7363SOL    HW133548   3.023   2.551   9.977 -2.5997 -1.3020  1.2423
 7363SOL    HW233549   2.894   2.550   9.902 -0.2522  0.8617  2.6795
 7364SOL     OW33550   4.704   2.849   9.445  0.0037  0.0702  0.7546
 7364SOL    HW133551   4.642   2.895   9.388  2.7236 -0.2784 -2.4886
 7364SOL    HW233552   4.693   2.890   9.531 -1.1385  0.9313  0.1978
 7365SOL     OW33553   1.949   4.294  16.594 -0.0256 -0.0253 -0.1202
 7365SOL    HW133554   1.958   4.388  16.607  0.7750  0.1216 -1.8406
 7365SOL    HW233555   2.042   4.272  16.595  0.5929  2.6590 -0.0668
 7366SOL     OW33556   4.354   1.503   3.605  1.1592 -0.3683  0.2308
 7366SOL    HW133557   4.342   1.568   3.535  0.0508 -0.0752  0.7048
 7366SOL    HW233558   4.375   1.560   3.680 -1.7565  2.3475 -1.0152
 7367SOL     OW33559   3.495   4.488   1.039  0.1969 -0.5128  0.0918
 7367SOL    HW133560   3.400   4.477   1.047 -0.1735  0.4046 -3.0710
 7367SOL    HW233561   3.519   4.538   1.117 -2.4130  0.0824  0.4927
 7368SOL     OW33562   1.560   2.803  14.480 -0.4169 -0.6632  0.2403
 7368SOL    HW133563   1.626   2.733  14.479  2.5091  2.1297  0.0266
 7368SOL    HW233564   1.566   2.829  14.571  0.5297  2.8234 -0.8299
 7369SOL     OW33565   2.060   1.002   7.801 -0.5518 -0.3258  0.3643
 7369SOL    HW133566   2.142   0.982   7.846  0.8484 -0.0106 -2.0745
 7369SOL    HW233567   1.998   0.985   7.872  0.6435 -1.3378  1.1428
 7370SOL     OW33568   4.057   4.476  16.381  0.2402  0.2968  0.1203
 7370SOL    HW133569   4.122   4.445  16.318  0.6411 -0.4531  0.8994
 7370SOL    HW233570   4.110   4.537  16.433 -2.1319  0.7250  2.0417
 7371SOL     OW33571   1.546   2.054   7.828  0.9521  0.0588 -0.0747
 7371SOL    HW133572   1.529   2.141   7.793  0.2665 -0.0582 -0.0226
 7371SOL    HW233573   1.581   2.084   7.912 -0.2757  2.3911 -0.4216
 7372SOL     OW33574   0.270   0.379   8.332  0.8350  0.0711  0.4344
 7372SOL    HW133575   0.291   0.457   8.281 -0.0091 -0.9407 -1.4512
 7372SOL    HW233576   0.319   0.312   8.284  0.4367  0.3673 -0.3767
 7373SOL     OW33577   0.492   0.713   2.474 -0.2909  0.4723  0.2041
 7373SOL    HW133578   0.512   0.698   2.382 -2.1352  0.7884 -0.2453
 7373SOL    HW233579   0.559   0.777   2.500  0.6921 -0.7924  0.8081
 7374SOL     OW33580   0.488   0.754  15.039 -0.1075  0.4884 -0.3307
 7374SOL    HW133581   0.459   0.803  14.962  0.1401  1.1862  0.0201
 7374SOL    HW233582   0.548   0.690  15.001 -0.3242  0.6637 -0.9659
 7375SOL     OW33583   1.975   4.029   0.961  0.3452  0.1095  0.1954
 7375SOL    HW133584   1.953   3.954   1.015 -0.2649 -0.5354 -0.9419
 7375SOL    HW233585   2.040   3.981   0.909  0.8206  1.0071 -0.0546
 7376SOL     OW33586   0.507   0.941  16.547  0.3610  0.1887  0.4366
 7376SOL    HW133587   0.455   0.954  16.627 -1.7829 -1.6802 -0.6298
 7376SOL    HW233588   0.463   0.999  16.485 -0.1381  1.0342  1.5721
 7377SOL     OW33589   4.075   2.802   1.669 -0.1487  0.1824 -0.4165
 7377SOL    HW133590   4.166   2.775   1.656 -0.9694 -0.9474 -3.8325
 7377SOL    HW233591   4.070   2.833   1.759  1.0602  2.4398 -1.1014
 7378SOL     OW33592   2.897   2.787  10.646  0.0854 -0.3464 -0.1348
 7378SOL    HW133593   2.903   2.883  10.653 -0.6841 -0.1894 -1.5899
 7378SOL    HW233594   2.803   2.770  10.648  0.5574 -2.7035  1.1005
 7379SOL     OW33595   3.196   3.810   2.954  0.0283  0.2820  0.0629
 7379SOL    HW133596   3.207   3.773   2.866 -0.0259 -0.8279  0.5212
 7379SOL    HW233597   3.274   3.865   2.954  1.4027 -1.6679  0.1813
 7380SOL     OW33598   1.589   0.205   8.761  0.8375  0.9583  0.3952
 7380SOL    HW133599   1.628   0.277   8.810  0.7772 -0.3316  2.3667
 7380SOL    HW233600   1.654   0.134   8.769 -1.6713 -1.3841 -0.1206
 7381SOL     OW33601   3.305   0.249   3.288 -0.5394  0.0518 -0.1267
 7381SOL    HW133602   3.304   0.344   3.298  1.0259  0.0779 -0.3013
 7381SOL    HW233603   3.211   0.233   3.277 -0.3036 -0.5055 -1.2470
 7382SOL     OW33604   4.091   0.141   7.134 -0.8263 -0.0558 -0.2560
 7382SOL    HW133605   4.038   0.068   7.165  1.3741 -2.1277 -1.3202
 7382SOL    HW233606   4.029   0.213   7.128 -0.1117  0.5701 -0.1837
 7383SOL     OW33607   0.138   4.567   8.974 -0.6229 -0.2886  0.1048
 7383SOL    HW133608   0.157   4.654   8.939  1.9946 -1.0365 -0.3279
 7383SOL    HW233609   0.217   4.519   8.947  0.3553  2.4596 -1.9755
 7384SOL     OW33610   1.986   3.558   1.174  0.3351 -0.5405 -0.2842
 7384SOL    HW133611   1.977   3.496   1.246 -0.2477 -0.6457 -0.4449
 7384SOL    HW233612   1.904   3.541   1.127 -0.1801 -1.0184  0.7960
 7385SOL     OW33613   4.144   3.370  16.201 -0.0117  0.5169  0.0849
 7385SOL    HW133614   4.098   3.381  16.118  0.9077  0.0753 -0.4878
 7385SOL    HW233615   4.196   3.450  16.194 -0.4923  0.9361  1.4550
 7386SOL     OW33616   0.972   3.508  14.699 -0.2550  0.2186 -0.3858
 7386SOL    HW133617   0.938   3.550  14.778 -0.9610 -0.9689 -0.0655
 7386SOL    HW233618   0.942   3.418  14.691 -0.6911  0.3520 -0.2145
 7387SOL     OW33619   3.923   0.732   5.501 -0.3607 -0.2473 -0.4642
 7387SOL    HW133620   3.850   0.670   5.498 -0.7395  0.2549 -1.3666
 7387SOL    HW233621   3.923   0.756   5.409 -2.9328 -0.2420 -0.4847
 7388SOL     OW33622   1.602   4.049   6.667  0.9315 -0.1958  0.5660
 7388SOL    HW133623   1.616   4.095   6.584 -1.1766  1.5740  1.2048
 7388SOL    HW233624   1.582   3.962   6.634 -1.0377  0.7264 -0.6785
 7389SOL     OW33625   2.272   3.771   2.642  0.2028 -0.3523 -0.4175
 7389SOL    HW133626   2.338   3.701   2.637  1.5421  0.8570  0.3531
 7389SOL    HW233627   2.194   3.730   2.604  1.2730 -1.9213 -0.9625
 7390SOL     OW33628   4.048   2.210  13.397 -0.6119  0.1981  0.1887
 7390SOL    HW133629   3.970   2.251  13.435 -1.3265  0.2275 -1.3163
 7390SOL    HW233630   4.114   2.273  13.426  1.5921 -1.4456 -1.2727
 7391SOL     OW33631   0.839   0.297   2.595  0.4515  0.5627 -0.4135
 7391SOL    HW133632   0.763   0.320   2.541 -0.1847  0.8083  0.6015
 7391SOL    HW233633   0.798   0.279   2.679 -0.9550 -0.0903 -1.2406
 7392SOL     OW33634   4.518   4.289   2.007  0.2815 -0.1661 -0.1100
 7392SOL    HW133635   4.586   4.354   2.025  1.4873 -1.2844 -0.6022
 7392SOL    HW233636   4.451   4.350   1.975  0.8075  0.0245 -0.8535
 7393SOL     OW33637   2.800   0.298   7.161 -0.1430 -0.4036  0.2169
 7393SOL    HW133638   2.736   0.306   7.232  0.5973  0.4505  0.7952
 7393SOL    HW233639   2.775   0.214   7.123  0.5215 -0.7010  0.4415
 7394SOL     OW33640   1.188   4.590  14.359  0.8037  0.1299  0.7133
 7394SOL    HW133641   1.123   4.641  14.408  0.1078 -0.1971  0.1362
 7394SOL    HW233642   1.211   4.529  14.429  0.5076 -0.7714  0.0310
 7395SOL     OW33643   0.208   4.386   6.947  0.2723  0.1670  0.6514
 7395SOL    HW133644   0.124   4.423   6.977  1.4529  1.4888  2.3250
 7395SOL    HW233645   0.268   4.453   6.978 -0.3069  0.3342  1.3926
 7396SOL     OW33646   0.996   2.657  15.542 -0.4440 -0.3161  0.0218
 7396SOL    HW133647   1.071   2.701  15.503  0.4065 -2.7903 -1.2027
 7396SOL    HW233648   0.950   2.734  15.575 -0.1812 -0.8111  1.5412
 7397SOL     OW33649   0.905   3.563  13.916 -0.2078  0.5250  0.2519
 7397SOL    HW133650   0.847   3.510  13.970  0.2366 -0.1525  0.0652
 7397SOL    HW233651   0.932   3.493  13.856  1.6390  0.5767  1.0218
 7398SOL     OW33652   0.721   0.274  12.571  0.0405  0.1383  0.1008
 7398SOL    HW133653   0.809   0.307  12.589  0.4167 -1.2074  0.7795
 7398SOL    HW233654   0.694   0.335  12.503 -0.8227  2.8429  2.9017
 7399SOL     OW33655   1.474   2.523   8.346  0.1271  0.0251  0.1543
 7399SOL    HW133656   1.417   2.563   8.411  1.7656  2.3310  0.1968
 7399SOL    HW233657   1.505   2.600   8.297  0.9238  0.4733  1.3527
 7400SOL     OW33658   1.859   1.251  15.641 -0.6068  0.1820 -0.0738
 7400SOL    HW133659   1.819   1.232  15.725 -0.1640 -0.4232 -0.0038
 7400SOL    HW233660   1.851   1.346  15.654 -0.7354  0.1561  0.0268
 7401SOL     OW33661   0.331   2.226   7.258 -0.3761 -0.1765 -0.1300
 7401SOL    HW133662   0.303   2.164   7.326 -0.8471  1.0144  0.7477
 7401SOL    HW233663   0.394   2.180   7.203  1.7266  1.5700  0.8318
 7402SOL     OW33664   0.070   3.775  15.245  0.9893 -0.0755 -0.1195
 7402SOL    HW133665   0.128   3.830  15.193 -0.5065  0.5880 -1.0784
 7402SOL    HW233666   0.140   3.724  15.287  3.3872  2.1970 -1.2986
 7403SOL     OW33667   3.644   3.412   0.114 -0.3494  0.7025 -0.2327
 7403SOL    HW133668   3.680   3.501   0.113 -2.1393  1.4208 -0.5466
 7403SOL    HW233669   3.713   3.366   0.162 -0.0097  1.0193 -0.4127
 7404SOL     OW33670   0.174   0.032  11.749 -0.4284 -0.3091  0.2431
 7404SOL    HW133671   0.186   4.697  11.673 -0.7178  0.2107 -0.1938
 7404SOL    HW233672   0.140   0.116  11.719 -0.5323 -1.1387 -1.9689
 7405SOL     OW33673   0.500   0.925   3.578  0.4198 -0.3266 -0.6120
 7405SOL    HW133674   0.488   0.848   3.524  0.2135  0.7856 -2.1637
 7405SOL    HW233675   0.414   0.929   3.620  1.0524  3.3356  0.3780
 7406SOL     OW33676   0.528   1.823   5.068 -0.1424 -0.0163 -0.2214
 7406SOL    HW133677   0.544   1.817   5.162  1.4315  1.2376 -0.4100
 7406SOL    HW233678   0.448   1.771   5.064 -0.5558  0.5864  0.3365
 7407SOL     OW33679   3.496   3.785   6.727 -0.2491  0.0916  0.3011
 7407SOL    HW133680   3.432   3.783   6.797 -0.7199  0.2095 -0.1225
 7407SOL    HW233681   3.448   3.822   6.652 -0.6706  1.2220  1.1121
 7408SOL     OW33682   3.622   3.693   3.111 -0.5358  0.3818 -0.0518
 7408SOL    HW133683   3.598   3.628   3.045  1.6906 -1.2404  0.7144
 7408SOL    HW233684   3.549   3.677   3.171  0.0158 -1.4922  0.1078
 7409SOL     OW33685   0.158   2.637   8.450  0.2805 -0.1015 -0.5895
 7409SOL    HW133686   0.070   2.620   8.417  0.1683  0.9557 -0.8306
 7409SOL    HW233687   0.148   2.633   8.545 -1.9752 -1.7361 -0.8964
 7410SOL     OW33688   2.795   1.940   8.703  0.3663 -0.0940 -0.3495
 7410SOL    HW133689   2.874   1.915   8.752 -0.4826  0.1851  1.1586
 7410SOL    HW233690   2.800   2.033   8.726 -0.7620  0.0053 -0.4917
 7411SOL     OW33691   4.171   3.134  16.299  0.1122 -0.4018 -0.0773
 7411SOL    HW133692   4.136   3.206  16.247 -1.4468 -0.8505  0.3587
 7411SOL    HW233693   4.162   3.167  16.388  2.8033 -1.4584  0.5967
 7412SOL     OW33694   2.485   0.586   8.901 -0.1112  0.1955  0.3422
 7412SOL    HW133695   2.558   0.546   8.853 -2.0522  0.6397 -2.9785
 7412SOL    HW233696   2.518   0.672   8.926 -0.1587  0.3761 -0.2251
 7413SOL     OW33697   4.340   1.880   2.681  0.0683  0.2903 -0.3576
 7413SOL    HW133698   4.278   1.856   2.611  0.2019 -1.1888  0.0292
 7413SOL    HW233699   4.303   1.968   2.690  4.3911  2.6391 -5.4339
 7414SOL     OW33700   1.064   1.966  14.488  0.0439 -0.2233 -0.1329
 7414SOL    HW133701   0.992   1.946  14.428 -0.2921 -1.1877  0.5868
 7414SOL    HW233702   1.047   2.060  14.493  1.2434 -0.0513  0.7524
 7415SOL     OW33703   1.667   3.325   9.138  0.5183 -0.0297  0.1768
 7415SOL    HW133704   1.743   3.268   9.147  1.5899  1.2755 -0.7865
 7415SOL    HW233705   1.598   3.261   9.121  1.0176 -0.4110 -0.4174
 7416SOL     OW33706   1.957   1.452   7.198  0.6829  0.0742 -0.1990
 7416SOL    HW133707   2.039   1.456   7.247  0.1007  0.8593  0.6914
 7416SOL    HW233708   1.931   1.361   7.213 -1.4107  0.6347 -0.5245
 7417SOL     OW33709   3.465   3.162  15.160 -0.2751  0.1052  0.4425
 7417SOL    HW133710   3.453   3.254  15.134 -1.6910  0.0746  1.0395
 7417SOL    HW233711   3.559   3.156  15.179 -0.1097  0.0428 -0.3801
 7418SOL     OW33712   2.550   1.428   5.605  0.0561 -0.0208 -0.3244
 7418SOL    HW133713   2.479   1.492   5.602  0.4500  0.2960 -2.4665
 7418SOL    HW233714   2.508   1.360   5.551  1.0642 -1.2074  0.3884
 7419SOL     OW33715   3.299   2.718   7.580  0.2785 -0.0931  0.5467
 7419SOL    HW133716   3.386   2.757   7.574  0.0634  0.2271 -0.3707
 7419SOL    HW233717   3.306   2.678   7.667 -0.0257  3.0734  2.0472
 7420SOL     OW33718   3.253   2.624   6.826  0.1180 -0.7719 -0.3820
 7420SOL    HW133719   3.162   2.631   6.796  0.5486  1.0409 -1.2513
 7420SOL    HW233720   3.284   2.708   6.792  1.0602 -0.8789  0.2201
 7421SOL     OW33721   4.459   1.130   2.924 -0.0476  0.4790  0.0786
 7421SOL    HW133722   4.407   1.149   2.847  0.2585  0.0644 -0.2285
 7421SOL    HW233723   4.444   1.035   2.924 -1.2265  0.6546  1.7651
 7422SOL     OW33724   2.871   0.991   6.681  0.5171  0.5306 -0.3962
 7422SOL    HW133725   2.871   0.965   6.773 -1.4970 -1.4782 -0.9506
 7422SOL    HW233726   2.779   1.006   6.659  0.5014  0.9954 -0.0059
 7423SOL     OW33727   4.437   2.828   5.475  0.9293  0.4867 -0.7370
 7423SOL    HW133728   4.461   2.890   5.544  2.0453  0.6500 -1.2622
 7423SOL    HW233729   4.495   2.753   5.489 -0.3968 -0.3165  0.4487
 7424SOL     OW33730   3.156   0.963   7.899 -0.7157 -0.1289  0.0084
 7424SOL    HW133731   3.100   0.886   7.899  0.8858 -1.3576  4.3015
 7424SOL    HW233732   3.084   1.025   7.894  0.7643  1.6306  0.5272
 7425SOL     OW33733   4.392   0.064   6.615  0.3668 -0.0558 -0.1956
 7425SOL    HW133734   4.474   0.091   6.573 -0.5456  1.3236 -1.0829
 7425SOL    HW233735   4.378   4.703   6.570  2.0561  0.3064 -1.3678
 7426SOL     OW33736   3.328   1.651  12.065 -0.3219 -0.0088  0.5529
 7426SOL    HW133737   3.342   1.591  12.138  2.9206  0.1701  0.0535
 7426SOL    HW233738   3.237   1.677  12.083  0.5798  3.8123 -0.3068
 7427SOL     OW33739   4.081   0.155  14.877 -0.1845 -0.2151 -0.2721
 7427SOL    HW133740   3.999   0.112  14.901  0.9095 -2.5842 -0.7641
 7427SOL    HW233741   4.141   0.129  14.948  1.9118 -0.8384 -2.2745
 7428SOL     OW33742   3.077   3.458   4.900  0.5308  0.3630  0.2134
 7428SOL    HW133743   3.048   3.538   4.856  2.1546  0.8525  0.0194
 7428SOL    HW233744   3.171   3.456   4.884  0.1060  1.0012 -2.3984
 7429SOL     OW33745   1.528   2.605   8.892  0.1703  0.4368 -0.2180
 7429SOL    HW133746   1.550   2.517   8.864 -1.8998 -0.2790  0.3607
 7429SOL    HW233747   1.543   2.664   8.818  1.1664 -0.0517 -0.4049
 7430SOL     OW33748   3.780   4.463   1.722  0.3461  0.0304 -0.2272
 7430SOL    HW133749   3.728   4.538   1.693 -0.2681 -0.0184  0.7276
 7430SOL    HW233750   3.710   4.428   1.778 -0.2602 -0.7309 -1.4553
 7431SOL     OW33751   0.335   2.394   2.269 -0.0436  0.2459  0.5733
 7431SOL    HW133752   0.248   2.429   2.288  0.1149  0.5481  0.7416
 7431SOL    HW233753   0.359   2.433   2.185 -0.5574  0.2761  0.4435
 7432SOL     OW33754   4.285   0.332   3.192 -0.3584  0.1288  0.4491
 7432SOL    HW133755   4.206   0.353   3.243 -0.6137  1.2218 -0.3966
 7432SOL    HW233756   4.257   0.356   3.104  2.7838  0.3969 -0.4815
 7433SOL     OW33757   2.871   4.249   5.619  0.2114 -0.0453 -0.3957
 7433SOL    HW133758   2.919   4.232   5.700  0.1049  0.6644 -0.1875
 7433SOL    HW233759   2.811   4.316   5.651 -1.6043 -1.2594 -1.2336
 7434SOL     OW33760   1.726   1.733   8.673  0.1299 -0.1921  0.4171
 7434SOL    HW133761   1.650   1.692   8.633  0.2654  1.2541 -1.3085
 7434SOL    HW233762   1.699   1.716   8.763 -0.1907 -1.5479  0.0512
 7435SOL     OW33763   2.811   2.289  12.400  0.2268 -0.1700  0.3699
 7435SOL    HW133764   2.862   2.249  12.330 -1.2155  0.4998 -1.0715
 7435SOL    HW233765   2.724   2.293  12.360  0.9718 -1.1847 -1.3695
 7436SOL     OW33766   3.558   1.893   1.693 -0.9962 -0.3944  0.5486
 7436SOL    HW133767   3.527   1.803   1.683  1.9286 -1.4304  0.6967
 7436SOL    HW233768   3.537   1.931   1.608 -1.4493 -1.3500  0.2294
 7437SOL     OW33769   0.859   3.670   5.607  0.8718 -0.5448  0.7196
 7437SOL    HW133770   0.783   3.693   5.661 -0.8041  0.2649 -1.9927
 7437SOL    HW233771   0.849   3.727   5.531  0.8016 -3.0047 -1.0993
 7438SOL     OW33772   1.317   2.172   5.884 -0.3530 -0.5565 -0.0365
 7438SOL    HW133773   1.284   2.204   5.800 -1.4776 -1.3205  0.1108
 7438SOL    HW233774   1.412   2.175   5.872 -0.4534 -0.0009 -0.7038
 7439SOL     OW33775   3.020   3.432  17.498  0.1102  0.1545 -0.7425
 7439SOL    HW133776   3.097   3.383  17.468 -2.7203 -4.3535 -0.5669
 7439SOL    HW233777   3.024   3.508  17.440  0.1257 -0.6098 -1.7366
 7440SOL     OW33778   2.647   2.562   5.180 -0.8595 -0.4393  0.0870
 7440SOL    HW133779   2.641   2.512   5.261 -2.5158 -2.2237 -1.1415
 7440SOL    HW233780   2.741   2.571   5.162 -0.9638  0.3010 -0.0964
 7441SOL     OW33781   0.121   3.601   1.073  0.8520  0.1615  0.9504
 7441SOL    HW133782   0.026   3.587   1.071  1.1719 -2.1410  1.0049
 7441SOL    HW233783   0.129   3.645   1.157 -0.0693  1.1975  0.5044
 7442SOL     OW33784   0.086   2.756   3.670  0.2602  1.0202 -0.1787
 7442SOL    HW133785   0.148   2.783   3.738  1.7037 -3.0286  0.1253
 7442SOL    HW233786   0.030   2.834   3.670 -0.5123  0.4702  1.0904
 7443SOL     OW33787   4.509   2.116   3.663 -0.7407 -0.1115  0.3247
 7443SOL    HW133788   4.599   2.147   3.655 -0.3993 -2.2265 -3.7803
 7443SOL    HW233789   4.525   2.057   3.737  3.4385 -1.3852 -1.6090
 7444SOL     OW33790   1.162   2.280  12.899 -0.4909 -0.2186  0.3972
 7444SOL    HW133791   1.203   2.199  12.928  0.0284  0.1250  0.6449
 7444SOL    HW233792   1.203   2.337  12.964 -0.4410 -1.3535  1.3428
 7445SOL     OW33793   1.634   1.396  10.850  0.5533  0.2114 -0.1277
 7445SOL    HW133794   1.708   1.341  10.876  0.5537 -0.0788 -0.7338
 7445SOL    HW233795   1.676   1.467  10.803  0.5861  2.2969  3.0815
 7446SOL     OW33796   0.851   1.031   1.116 -0.2529 -0.1829 -0.0101
 7446SOL    HW133797   0.931   0.988   1.086  0.0160  1.3468 -1.4419
 7446SOL    HW233798   0.785   0.967   1.092 -1.9361  1.2574  0.7960
 7447SOL     OW33799   4.438   4.175   6.108 -0.0358 -0.2587  0.5643
 7447SOL    HW133800   4.487   4.229   6.169  1.0541  1.0889 -1.5047
 7447SOL    HW233801   4.365   4.145   6.162  1.1368 -2.9878  0.6045
 7448SOL     OW33802   0.329   4.023   7.876 -0.0603 -0.5355  0.2443
 7448SOL    HW133803   0.393   3.980   7.933  1.3018 -0.7504 -1.4568
 7448SOL    HW233804   0.324   3.948   7.816  1.9748 -0.6966  0.2824
 7449SOL     OW33805   2.729   0.008   4.793  0.1040 -0.1014  0.2476
 7449SOL    HW133806   2.718   0.067   4.868  1.7859  0.6488 -0.0945
 7449SOL    HW233807   2.749   0.060   4.715  0.5879 -2.0035 -0.9049
 7450SOL     OW33808   2.434   0.118  14.794  0.2754 -0.1876  0.3823
 7450SOL    HW133809   2.444   0.073  14.711 -1.5424  0.5271 -0.2353
 7450SOL    HW233810   2.507   0.072  14.835  0.4993  0.2636  0.4877
 7451SOL     OW33811   1.425   0.336   2.281  0.1105  0.4705  0.4217
 7451SOL    HW133812   1.420   0.318   2.375  0.6283  1.2768  0.5976
 7451SOL    HW233813   1.513   0.315   2.251  0.1497  0.2368  0.6971
 7452SOL     OW33814   2.832   0.755   9.132 -0.2796  0.0991  0.6131
 7452SOL    HW133815   2.801   0.759   9.223  2.1250  1.0427  1.4096
 7452SOL    HW233816   2.911   0.809   9.141 -0.2286  0.2305 -0.7078
 7453SOL     OW33817   1.862   0.401   2.013  0.1220  0.3179  0.2392
 7453SOL    HW133818   1.882   0.364   1.927 -0.2329  0.3822  0.1280
 7453SOL    HW233819   1.946   0.437   2.042  1.4554 -0.3575 -2.7973
 7454SOL     OW33820   4.664   3.942  16.856 -0.0936  0.0014 -0.5271
 7454SOL    HW133821   0.024   3.963  16.900  1.1066  2.0611 -3.6699
 7454SOL    HW233822   4.597   3.994  16.901  2.0360  2.1460  0.1700
 7455SOL     OW33823   4.099   3.609   7.466  0.5255 -0.0741  0.5345
 7455SOL    HW133824   4.057   3.536   7.512  0.9246 -1.0389 -0.6158
 7455SOL    HW233825   4.057   3.605   7.380 -0.3902  1.6888  0.9018
 7456SOL     OW33826   4.361   0.975  15.150 -0.6227 -0.3600 -0.6633
 7456SOL    HW133827   4.399   0.889  15.172  1.1606  0.7063  0.4730
 7456SOL    HW233828   4.337   0.971  15.058  1.1291 -1.5793 -1.0714
 7457SOL     OW33829   2.671   1.033  17.266  0.5214 -0.6108  0.2938
 7457SOL    HW133830   2.649   0.955  17.316 -3.7116  1.1052  1.0561
 7457SOL    HW233831   2.764   1.012  17.253  0.7363 -0.2105  1.1632
 7458SOL     OW33832   0.059   2.497  12.806 -0.8328 -0.2737  0.0287
 7458SOL    HW133833   0.083   2.518  12.716 -0.0626 -0.2891  0.2237
 7458SOL    HW233834   0.131   2.520  12.866 -2.4492  0.7301  1.5943
 7459SOL     OW33835   1.694   0.456  10.126 -0.3324  0.2157  0.4965
 7459SOL    HW133836   1.689   0.514  10.202  0.6447 -0.4966  1.1062
 7459SOL    HW233837   1.605   0.440  10.095  0.2558 -2.2305  0.0808
 7460SOL     OW33838   3.702   3.664   7.117  0.5641  0.0756  0.0669
 7460SOL    HW133839   3.643   3.659   7.193  1.5930 -1.2323  0.7718
 7460SOL    HW233840   3.731   3.755   7.122  0.9436 -0.1097  1.4129
 7461SOL     OW33841   1.871   2.497  13.354 -0.3880  0.0470  0.7999
 7461SOL    HW133842   1.941   2.479  13.416 -0.4318  0.2838  0.9202
 7461SOL    HW233843   1.807   2.433  13.385 -1.2310  1.1176  1.2792
 7462SOL     OW33844   3.021   3.950   3.441 -0.2072 -0.2058  0.0763
 7462SOL    HW133845   3.007   3.960   3.347  0.2612 -0.8345 -0.0569
 7462SOL    HW233846   3.107   3.907   3.437 -0.1659 -0.1537  0.4353
 7463SOL     OW33847   4.622   2.275   4.093 -0.4137  0.1121  0.3062
 7463SOL    HW133848   4.655   2.263   4.181 -0.8009 -1.2685  0.2550
 7463SOL    HW233849   4.564   2.199   4.089 -0.4059  0.2054 -1.6207
 7464SOL     OW33850   1.691   4.653   9.725 -0.2393  0.3455  0.8612
 7464SOL    HW133851   1.783   4.677   9.735  0.0963 -0.9423  0.8620
 7464SOL    HW233852   1.682   4.606   9.807 -2.7439  1.1494  1.0386
 7465SOL     OW33853   2.327   2.767   7.764 -0.0361 -0.1059  0.0222
 7465SOL    HW133854   2.263   2.798   7.827  0.4099  0.1873  0.3232
 7465SOL    HW233855   2.288   2.686   7.731  0.1904  0.1993 -1.0093
 7466SOL     OW33856   2.236   2.466   8.725 -0.0365  0.2883 -0.0128
 7466SOL    HW133857   2.281   2.438   8.805 -0.6018 -1.4576 -0.3111
 7466SOL    HW233858   2.168   2.400   8.713 -1.2984  0.9571  3.2953
 7467SOL     OW33859   4.253   3.228  13.383  0.4195 -0.1208  0.3839
 7467SOL    HW133860   4.313   3.272  13.443 -0.7814 -1.6819  2.7559
 7467SOL    HW233861   4.270   3.267  13.297  1.5638  0.5299  0.9128
 7468SOL     OW33862   0.298   2.411   8.334  0.1481 -0.5202  0.2350
 7468SOL    HW133863   0.238   2.469   8.381 -0.3531 -1.8113  1.1893
 7468SOL    HW233864   0.365   2.410   8.403  0.0760 -0.0081  0.3129
 7469SOL     OW33865   2.428   3.440   1.381 -0.1920  0.2168  0.4444
 7469SOL    HW133866   2.463   3.411   1.297 -2.2126  0.1696 -0.3877
 7469SOL    HW233867   2.388   3.522   1.351  0.6178 -0.2851 -1.9235
 7470SOL     OW33868   2.145   2.917   7.227 -0.4310  0.3575 -0.3044
 7470SOL    HW133869   2.222   2.905   7.283  0.6869  2.0460 -1.4842
 7470SOL    HW233870   2.071   2.920   7.288  0.2873  1.6833  0.4870
 7471SOL     OW33871   1.326   3.182   6.070 -0.1418 -0.4330  0.3363
 7471SOL    HW133872   1.325   3.278   6.071  1.3765 -0.3812 -2.2760
 7471SOL    HW233873   1.278   3.153   5.992  1.6349 -1.0024 -0.5422
 7472SOL     OW33874   4.560   0.884  14.810  0.5247  0.3061 -0.5383
 7472SOL    HW133875   4.544   0.822  14.740  2.2363  0.2151 -0.8488
 7472SOL    HW233876   4.468   0.890  14.837  0.6901  0.1566  0.0699
 7473SOL     OW33877   3.109   0.400   8.149  0.1699 -0.4235  0.1632
 7473SOL    HW133878   3.166   0.339   8.195  1.5580  1.2087  0.5758
 7473SOL    HW233879   3.033   0.397   8.207  1.1772  0.1511  1.4918
 7474SOL     OW33880   3.564   4.020  14.164  0.4369 -0.3159 -0.3088
 7474SOL    HW133881   3.496   4.079  14.131  0.9984  1.4186  1.6668
 7474SOL    HW233882   3.517   3.946  14.202  1.0418  0.1927  1.4139
 7475SOL     OW33883   3.772   1.245  10.675  0.4512  0.2988  0.7533
 7475SOL    HW133884   3.772   1.158  10.634 -3.4132  1.3514 -1.4522
 7475SOL    HW233885   3.865   1.252  10.698  0.2632  0.1144  1.5570
 7476SOL     OW33886   0.807   0.553   2.240 -0.2293 -0.3585  0.7743
 7476SOL    HW133887   0.828   0.594   2.324  1.4241 -0.8648  0.5909
 7476SOL    HW233888   0.893   0.567   2.200  0.7280 -0.9297  2.6909
 7477SOL     OW33889   0.616   3.975   7.756  0.4991  0.5591 -0.7824
 7477SOL    HW133890   0.676   3.961   7.829 -1.5581  0.4242  0.9035
 7477SOL    HW233891   0.663   4.038   7.702 -0.0091  1.3587 -0.2944
 7478SOL     OW33892   2.043   0.247   4.072  0.1248  0.2087 -0.5271
 7478SOL    HW133893   1.957   0.271   4.037  0.9832  1.2680 -1.9282
 7478SOL    HW233894   2.095   0.268   3.995 -0.0633 -2.0140 -1.2550
 7479SOL     OW33895   0.967   3.682   3.883 -0.0953  0.7235 -0.5640
 7479SOL    HW133896   1.035   3.630   3.926 -0.6496  1.0721  0.7146
 7479SOL    HW233897   0.908   3.704   3.955  1.7397  1.1646  0.8013
 7480SOL     OW33898   4.484   1.088  15.358 -0.2929  0.2225  0.6885
 7480SOL    HW133899   4.459   1.177  15.382 -0.8991  0.2497 -0.0575
 7480SOL    HW233900   4.448   1.074  15.271  0.4311 -1.0022  0.5890
 7481SOL     OW33901   1.335   2.632   2.125  0.5316 -0.4573  0.0772
 7481SOL    HW133902   1.265   2.571   2.151  2.1570 -2.4741 -0.2516
 7481SOL    HW233903   1.405   2.587   2.172  0.7315  1.3007  1.4434
 7482SOL     OW33904   2.136   3.830   4.614 -0.1990  0.1925  0.2465
 7482SOL    HW133905   2.084   3.775   4.673 -0.2899 -0.9862 -0.9268
 7482SOL    HW233906   2.078   3.907   4.619  1.8909  1.7767 -0.0334
 7483SOL     OW33907   3.897   3.017   7.347  0.4849  0.1097  0.4693
 7483SOL    HW133908   3.986   3.040   7.319  0.7139 -1.1653  0.1708
 7483SOL    HW233909   3.909   2.969   7.429 -1.1787 -1.4152 -0.1857
 7484SOL     OW33910   0.065   3.081   5.037  0.3605 -0.0553  0.1862
 7484SOL    HW133911   0.137   3.037   5.083  3.8499  0.0511 -5.2178
 7484SOL    HW233912   0.105   3.112   4.956 -0.0566 -1.2873 -0.4836
 7485SOL     OW33913   0.149   0.021  15.224 -0.5420  0.4335  0.3707
 7485SOL    HW133914   0.236   0.058  15.215 -0.1396 -0.5011  0.4401
 7485SOL    HW233915   0.103   0.050  15.145 -0.2325  0.1985  0.1069
 7486SOL     OW33916   0.084   2.499  10.538  0.3777 -0.1312 -0.2291
 7486SOL    HW133917   0.020   2.478  10.471 -2.1916 -0.1955  2.2582
 7486SOL    HW233918   0.017   2.501  10.606  0.8640 -3.9117  0.3767
 7487SOL     OW33919   3.067   0.087   9.092  0.1649  1.1314  0.1771
 7487SOL    HW133920   3.157   0.102   9.122  0.3261 -0.1261  0.2952
 7487SOL    HW233921   3.068   0.003   9.046 -0.8488  0.2710  1.7303
 7488SOL     OW33922   0.874   1.662   6.438 -0.0777 -0.1194 -0.0769
 7488SOL    HW133923   0.887   1.722   6.364 -1.5524 -2.9027 -2.6017
 7488SOL    HW233924   0.878   1.730   6.505 -1.5049  0.2498 -0.3732
 7489SOL     OW33925   4.234   3.490   7.132  0.2270  0.3585 -0.1243
 7489SOL    HW133926   4.159   3.548   7.144 -1.0205 -1.1348 -0.7776
 7489SOL    HW233927   4.258   3.513   7.042 -1.5596 -2.4195 -1.2999
 7490SOL     OW33928   2.255   0.179   9.330  0.0774 -0.6381 -0.2722
 7490SOL    HW133929   2.162   0.166   9.310 -0.4596  0.1481  1.8088
 7490SOL    HW233930   2.261   0.269   9.360  0.1769 -0.8537  0.3420
 7491SOL     OW33931   0.453   0.885  14.803  0.4055 -0.4162 -0.0328
 7491SOL    HW133932   0.506   0.871  14.724  1.0451 -1.7013  0.6098
 7491SOL    HW233933   0.437   0.977  14.781  1.4551 -0.2167  0.0455
 7492SOL     OW33934   0.710   2.253   6.584  0.0270  0.0341 -0.2592
 7492SOL    HW133935   0.683   2.315   6.517 -0.4961  3.3511  3.0281
 7492SOL    HW233936   0.804   2.268   6.595  0.2698 -1.5379 -0.2045
 7493SOL     OW33937   2.272   0.808  10.626 -0.5056  0.1207  0.0209
 7493SOL    HW133938   2.345   0.844  10.677 -2.3547  1.9207  1.4206
 7493SOL    HW233939   2.238   0.878  10.570  1.3292  0.9014 -0.1285
 7494SOL     OW33940   2.826   4.127   3.568 -0.2403 -0.2492  0.6656
 7494SOL    HW133941   2.884   4.056   3.538 -0.7903 -0.7675  0.8315
 7494SOL    HW233942   2.857   4.191   3.504  0.4262  1.1234  2.3954
 7495SOL     OW33943   2.109   1.353   5.759 -0.3479  1.1291 -0.1419
 7495SOL    HW133944   2.195   1.395   5.766  0.6683 -0.7442 -1.2942
 7495SOL    HW233945   2.066   1.392   5.682 -0.8093  2.0992  0.6148
 7496SOL     OW33946   0.249   0.004   6.072 -0.4114 -0.0708 -0.0966
 7496SOL    HW133947   0.336   0.044   6.077 -0.8288  0.8370 -0.1983
 7496SOL    HW233948   0.274   4.652   6.016  0.8102 -0.5594  1.0953
 7497SOL     OW33949   0.995   1.602   9.456  0.0196  0.1056 -0.1368
 7497SOL    HW133950   0.979   1.567   9.369  2.9197  0.8416 -0.9668
 7497SOL    HW233951   1.024   1.527   9.507 -0.5304 -0.1240 -0.1542
 7498SOL     OW33952   0.146   0.266  15.354  0.0807  0.0226  0.0888
 7498SOL    HW133953   0.163   0.194  15.293 -0.3934 -1.0467  1.2010
 7498SOL    HW233954   0.158   0.346  15.304 -2.1754  0.4067  0.1713
 7499SOL     OW33955   4.432   4.356   3.697  0.0171  0.1579 -0.3797
 7499SOL    HW133956   4.423   4.384   3.788 -0.2253 -2.0481  0.2593
 7499SOL    HW233957   4.399   4.268   3.715  1.9549 -0.2882  0.9705
 7500SOL     OW33958   4.609   1.972   6.059 -0.2241 -0.2420 -0.0202
 7500SOL    HW133959   4.671   1.930   6.118  0.7829  1.1489 -0.0756
 7500SOL    HW233960   4.609   2.065   6.085  0.6830 -0.7013  1.6203
 7501SOL     OW33961   1.931   1.358  11.201  0.0829 -0.9402 -0.2752
 7501SOL    HW133962   1.854   1.308  11.175 -0.6408 -0.6766  1.3460
 7501SOL    HW233963   1.942   1.426  11.134 -1.6559  0.0320  0.4136
 7502SOL     OW33964   3.853   3.848   4.502  0.8924  0.5515 -0.4755
 7502SOL    HW133965   3.784   3.900   4.545 -0.9068 -1.8080 -0.5088
 7502SOL    HW233966   3.827   3.757   4.512  4.3549 -0.2668  1.0561
 7503SOL     OW33967   0.318   3.085   6.560  1.0830 -0.2908  0.2102
 7503SOL    HW133968   0.330   3.154   6.494 -2.4387  0.4528  0.3387
 7503SOL    HW233969   0.259   3.022   6.518 -1.2436  2.3393 -0.5307
 7504SOL     OW33970   1.068   3.749   3.222 -0.7767  0.0452  0.3535
 7504SOL    HW133971   1.158   3.719   3.208 -0.6676 -0.0132  1.1778
 7504SOL    HW233972   1.051   3.801   3.144  1.0736  0.3398  0.1568
 7505SOL     OW33973   3.724   4.616   3.898 -0.1539 -0.0653  0.5181
 7505SOL    HW133974   3.754   4.707   3.893  0.4961 -0.1455  2.7518
 7505SOL    HW233975   3.777   4.572   3.965 -0.9103 -0.5327  0.8014
 7506SOL     OW33976   3.346   2.716   5.255  0.5784  0.0667 -0.4143
 7506SOL    HW133977   3.425   2.703   5.307  0.1895 -1.2008 -0.1274
 7506SOL    HW233978   3.302   2.788   5.300 -0.5811 -2.1223  1.9608
 7507SOL     OW33979   4.321   0.919  11.255 -0.6851  0.3374 -0.0032
 7507SOL    HW133980   4.298   0.846  11.198 -0.8184  1.1552 -1.0076
 7507SOL    HW233981   4.386   0.969  11.206 -1.5238  1.9429  0.4859
 7508SOL     OW33982   3.897   2.820   9.134 -0.3142 -0.2065  0.1130
 7508SOL    HW133983   3.893   2.905   9.179 -1.1296  0.6322 -1.5423
 7508SOL    HW233984   3.854   2.759   9.194  1.0158 -0.3936  0.8824
 7509SOL     OW33985   0.698   2.089   8.000 -0.7135 -0.4798 -0.2024
 7509SOL    HW133986   0.685   1.996   8.021  2.1876 -0.7925  0.1305
 7509SOL    HW233987   0.704   2.125   8.088  0.2491 -1.5538  0.1753
 7510SOL     OW33988   1.120   1.682   6.744 -0.6326  0.3331  0.3827
 7510SOL    HW133989   1.071   1.763   6.727  0.5161  0.5044 -2.1791
 7510SOL    HW233990   1.211   1.702   6.718 -1.7755  3.8030 -1.0012
 7511SOL     OW33991   4.422   0.857  11.592 -0.4902  0.8319  0.3201
 7511SOL    HW133992   4.473   0.808  11.528 -0.2832 -0.1837  1.2591
 7511SOL    HW233993   4.470   0.938  11.610  1.4740  0.3487 -2.8872
 7512SOL     OW33994   2.550   1.060  13.520  0.1037 -0.4353  0.1562
 7512SOL    HW133995   2.538   1.099  13.606  0.1400  2.9458 -1.3751
 7512SOL    HW233996   2.573   1.135  13.466 -1.8233  0.5193  0.6567
 7513SOL     OW33997   2.556   2.620   6.395 -0.8192  0.0688 -0.3994
 7513SOL    HW133998   2.584   2.561   6.465  0.5563 -1.0186 -1.8656
 7513SOL    HW233999   2.566   2.575   6.312 -0.4876 -0.5965  0.0067
 7514SOL     OW34000   3.008   2.135   0.746 -0.3685 -0.2731 -0.5082
 7514SOL    HW134001   2.966   2.107   0.664 -2.9269 -1.5676  1.2695
 7514SOL    HW234002   2.934   2.139   0.806 -2.0135  0.4152 -2.5659
 7515SOL     OW34003   2.180   2.796   5.290  0.4800 -0.7041 -0.7744
 7515SOL    HW134004   2.140   2.882   5.303  2.0236 -0.3364  1.5499
 7515SOL    HW234005   2.128   2.760   5.218  0.3501  2.8262 -2.4115
 7516SOL     OW34006   2.449   4.689   0.704  0.2521  0.3774 -0.0124
 7516SOL    HW134007   2.359   4.702   0.673  0.0340 -0.9460  0.0508
 7516SOL    HW234008   2.473   0.051   0.742  1.3605  0.4082 -0.7506
 7517SOL     OW34009   3.511   0.427  11.981  0.3787  0.1139  0.3448
 7517SOL    HW134010   3.438   0.400  12.036 -1.4338  1.2404 -1.5084
 7517SOL    HW234011   3.575   0.469  12.038 -0.8499 -0.8045  2.4000
 7518SOL     OW34012   1.647   0.431  13.919 -0.2399 -0.5816  0.4702
 7518SOL    HW134013   1.726   0.440  13.866 -1.5343 -0.0015 -1.3754
 7518SOL    HW234014   1.596   0.391  13.850 -0.4982  1.2207 -0.3998
 7519SOL     OW34015   4.445   2.491  11.114 -0.2430  0.0803  0.5794
 7519SOL    HW134016   4.480   2.420  11.061 -0.4520  0.6811 -0.3654
 7519SOL    HW234017   4.521   2.548  11.119  1.3866 -2.1276  0.5950
 7520SOL     OW34018   4.312   3.666   5.782 -0.3222  0.4748 -0.0824
 7520SOL    HW134019   4.332   3.580   5.745 -0.0699  1.4111 -2.0787
 7520SOL    HW234020   4.216   3.666   5.779 -0.3281 -1.3544 -0.1671
 7521SOL     OW34021   0.589   4.157  12.344  0.1541  0.2313  0.0121
 7521SOL    HW134022   0.615   4.077  12.299  0.0978 -0.2159  0.7573
 7521SOL    HW234023   0.651   4.225  12.319 -0.0000  0.0971 -0.7109
 7522SOL     OW34024   1.376   0.197  11.560  0.2607 -0.1842  0.0763
 7522SOL    HW134025   1.462   0.200  11.519  0.4103 -0.6606  0.3530
 7522SOL    HW234026   1.318   0.230  11.492  0.3399 -0.6051 -0.1990
 7523SOL     OW34027   2.056   2.940  12.823  0.0662 -0.3704 -0.2406
 7523SOL    HW134028   2.048   2.909  12.733 -0.3390 -2.0451  0.3747
 7523SOL    HW234029   1.987   3.006  12.815  1.7145  1.3734 -0.0628
 7524SOL     OW34030   0.526   3.017   0.490  0.5117 -0.0085 -0.3721
 7524SOL    HW134031   0.434   2.998   0.475  0.0944  0.8939  1.0363
 7524SOL    HW234032   0.542   3.106   0.460  0.4205  0.1414  0.0231
 7525SOL     OW34033   1.281   3.762   1.851 -0.4484  0.3464  0.1715
 7525SOL    HW134034   1.207   3.756   1.790 -0.7659 -1.9656  0.7806
 7525SOL    HW234035   1.330   3.685   1.824 -1.3062 -0.4689  0.9351
 7526SOL     OW34036   1.725   2.762   6.932 -0.1074 -0.1943 -0.4028
 7526SOL    HW134037   1.821   2.764   6.928 -0.1629  1.6389 -0.8029
 7526SOL    HW234038   1.696   2.847   6.898 -0.2224 -0.5285 -1.1380
 7527SOL     OW34039   3.673   2.758   6.506 -0.5865  0.5932 -0.4151
 7527SOL    HW134040   3.578   2.754   6.521 -0.6293 -1.2529 -1.1943
 7527SOL    HW234041   3.702   2.824   6.570  0.0158 -0.3681  0.2976
 7528SOL     OW34042   1.130   0.836  13.510  0.0975  0.5659 -0.3822
 7528SOL    HW134043   1.068   0.908  13.519 -2.0546 -1.2142 -0.9631
 7528SOL    HW234044   1.192   0.883  13.453 -0.3964  0.9244 -0.6195
 7529SOL     OW34045   1.603   0.765   6.991 -0.2500  0.1993  0.5064
 7529SOL    HW134046   1.579   0.727   7.075 -0.7970 -2.1169 -0.7023
 7529SOL    HW234047   1.519   0.793   6.956  0.6445  1.3397 -0.7314
 7530SOL     OW34048   1.830   2.801   9.072 -0.5901  0.1759 -0.2955
 7530SOL    HW134049   1.867   2.800   8.983  1.1792 -0.4201  0.4680
 7530SOL    HW234050   1.898   2.750   9.116 -0.5580  2.1935  2.0048
 7531SOL     OW34051   3.083   1.997  14.804 -0.9039 -0.1438  0.0361
 7531SOL    HW134052   3.027   2.007  14.882 -0.3802  0.0528  0.3913
 7531SOL    HW234053   3.155   1.942  14.835  0.4065  2.1574  1.1145
 7532SOL     OW34054   1.989   0.429   8.183  0.1495  0.3601  0.3623
 7532SOL    HW134055   2.000   0.369   8.109 -1.0479  0.3935  0.1393
 7532SOL    HW234056   2.076   0.429   8.222  0.0714 -0.4901  0.5211
 7533SOL     OW34057   3.059   2.729   6.375 -0.4035 -0.3699  0.2532
 7533SOL    HW134058   3.114   2.650   6.375 -1.6263 -1.2370  1.3189
 7533SOL    HW234059   3.026   2.723   6.464  1.0135  1.8439  0.9046
 7534SOL     OW34060   2.852   1.239   4.237 -0.5172 -0.4575 -0.2832
 7534SOL    HW134061   2.851   1.278   4.150 -4.1725 -0.9928 -0.4966
 7534SOL    HW234062   2.761   1.239   4.269 -1.1994  0.4680 -2.2107
 7535SOL     OW34063   1.727   4.680   8.704 -0.5452  0.6562 -0.2234
 7535SOL    HW134064   1.806   4.627   8.711 -1.5485 -0.8227  0.0793
 7535SOL    HW234065   1.747   0.012   8.627  1.1960  0.5544  0.1549
 7536SOL     OW34066   0.778   0.233   2.041 -0.1349 -0.2627 -0.3838
 7536SOL    HW134067   0.696   0.275   2.069 -1.9346 -3.3537 -0.9496
 7536SOL    HW234068   0.840   0.306   2.044 -0.3924 -0.0305 -0.7000
 7537SOL     OW34069   1.558   2.254   6.527 -0.7593  0.0813  0.4308
 7537SOL    HW134070   1.553   2.167   6.566 -3.1369 -0.0862 -0.2808
 7537SOL    HW234071   1.488   2.253   6.462 -1.1815  2.4672  0.8516
 7538SOL     OW34072   0.277   3.688  11.432  0.1541  0.0021 -0.1433
 7538SOL    HW134073   0.245   3.688  11.522  0.6773  1.5640  0.0364
 7538SOL    HW234074   0.233   3.610  11.398  2.6382 -0.3339 -2.6245
 7539SOL     OW34075   0.017   2.289  16.678 -0.0534 -0.0285 -0.3292
 7539SOL    HW134076   0.031   2.237  16.757  0.2845 -3.7654 -2.8169
 7539SOL    HW234077   0.103   2.325  16.657  0.6901 -1.9302 -0.5852
 7540SOL     OW34078   0.748   2.384   4.988 -0.0960 -0.0404 -0.6090
 7540SOL    HW134079   0.672   2.359   4.935 -1.1502  0.2829  0.7521
 7540SOL    HW234080   0.824   2.351   4.939  0.9987  0.8761  0.4510
 7541SOL     OW34081   2.137   3.079   6.242 -0.0724  0.0508  0.0754
 7541SOL    HW134082   2.103   3.069   6.331 -2.1018 -1.1694 -0.8327
 7541SOL    HW234083   2.223   3.117   6.257  0.1761 -0.0226 -1.1250
 7542SOL     OW34084   3.642   0.851   6.541 -0.2317 -0.3941 -0.5793
 7542SOL    HW134085   3.728   0.849   6.584 -0.5176 -2.4002 -0.1046
 7542SOL    HW234086   3.588   0.882   6.614  0.9853  2.8409 -1.0619
 7543SOL     OW34087   0.898   3.007  11.695  0.4143  0.4932 -0.1899
 7543SOL    HW134088   0.820   2.950  11.689  1.9885 -1.8239  1.2025
 7543SOL    HW234089   0.968   2.946  11.671  1.2630  1.2198  0.4385
 7544SOL     OW34090   3.898   0.554  10.851  0.1130  0.1458  0.6690
 7544SOL    HW134091   3.845   0.550  10.931  0.1194  2.3032  0.7937
 7544SOL    HW234092   3.873   0.474  10.804 -0.4950  0.9134 -0.3112
 7545SOL     OW34093   1.771   4.109   8.215 -0.2267  0.1974 -0.2059
 7545SOL    HW134094   1.682   4.095   8.183 -0.1787 -1.7267  0.4745
 7545SOL    HW234095   1.800   4.194   8.184 -1.3581 -0.5096 -3.1835
 7546SOL     OW34096   1.622   0.299   6.108  0.3763 -0.0079 -0.2592
 7546SOL    HW134097   1.617   0.389   6.077  2.8021 -0.3616 -1.6747
 7546SOL    HW234098   1.691   0.257   6.057 -1.0850 -1.3672 -1.1399
 7547SOL     OW34099   0.985   1.547   5.574 -0.3225  0.3908 -0.6829
 7547SOL    HW134100   0.953   1.459   5.595 -0.1894  1.2857  3.3840
 7547SOL    HW234101   0.972   1.599   5.653  3.3417  2.0307 -1.1867
 7548SOL     OW34102   3.025   1.321   1.742  0.3097 -0.0308  0.5527
 7548SOL    HW134103   3.008   1.414   1.756 -0.5285  0.0278 -0.8854
 7548SOL    HW234104   2.955   1.303   1.680 -2.1244  0.2983  3.2218
 7549SOL     OW34105   4.423   2.774   2.849  0.0358  0.0670 -0.2413
 7549SOL    HW134106   4.416   2.810   2.938 -1.9109 -3.4800  1.0417
 7549SOL    HW234107   4.496   2.830   2.821  0.2498  0.4231  1.0155
 7550SOL     OW34108   2.951   1.210  16.226 -0.4514 -0.2802 -0.4274
 7550SOL    HW134109   2.883   1.255  16.277 -0.6069 -1.7606  0.6890
 7550SOL    HW234110   2.995   1.168  16.300 -1.0665  0.0780  0.1489
 7551SOL     OW34111   4.171   2.965   9.085 -0.4887 -0.0696  0.4528
 7551SOL    HW134112   4.157   2.963   8.991 -2.0698  4.0425  0.6000
 7551SOL    HW234113   4.097   2.909   9.113 -0.2510 -0.7547 -0.2890
 7552SOL     OW34114   4.610   3.776  14.425  0.4329 -0.0307  0.2851
 7552SOL    HW134115   4.682   3.724  14.461  2.8122  1.5436 -2.1823
 7552SOL    HW234116   4.610   3.732  14.340  1.5063  0.8577 -0.1850
 7553SOL     OW34117   3.297   3.722   3.936 -0.1312 -0.0226  0.1644
 7553SOL    HW134118   3.370   3.694   3.882 -1.4216 -0.1007 -1.5435
 7553SOL    HW234119   3.350   3.721   4.016 -0.2197 -2.6921  0.1856
 7554SOL     OW34120   1.005   2.685   5.330  0.6799 -0.4471 -0.4981
 7554SOL    HW134121   1.071   2.619   5.352 -0.5065 -0.9763  1.4101
 7554SOL    HW234122   1.049   2.737   5.262 -1.1027  0.6216 -0.8116
 7555SOL     OW34123   3.092   3.271   5.194 -0.0371 -0.3672  0.1582
 7555SOL    HW134124   3.131   3.342   5.245 -2.8862  0.5271  1.0797
 7555SOL    HW234125   3.156   3.249   5.126  0.3483  4.1026 -0.9634
 7556SOL     OW34126   2.681   3.501   3.684  1.2358  0.5308 -0.3612
 7556SOL    HW134127   2.759   3.479   3.633  1.3222 -0.4647  0.1944
 7556SOL    HW234128   2.651   3.575   3.632  1.0776  1.2313  0.7303
 7557SOL     OW34129   1.979   1.290   6.005 -0.1594 -0.0120 -0.2787
 7557SOL    HW134130   2.002   1.334   5.923 -0.5636  0.1468 -0.3076
 7557SOL    HW234131   2.014   1.202   5.991 -1.1372 -0.2806 -1.0645
 7558SOL     OW34132   1.102   4.676   2.462 -0.0304  0.1609 -0.5371
 7558SOL    HW134133   1.183   4.722   2.485  2.3442 -2.7903 -2.9842
 7558SOL    HW234134   1.063   0.014   2.399 -1.3449 -1.0720 -0.8865
 7559SOL     OW34135   4.057   4.599   3.617 -0.1328 -0.0024 -0.1728
 7559SOL    HW134136   3.972   4.634   3.593  0.1519  0.4434 -0.5343
 7559SOL    HW234137   4.109   4.581   3.538  0.8947  1.9947  0.0388
 7560SOL     OW34138   3.950   1.486   1.069  0.1786  0.4672  0.1449
 7560SOL    HW134139   3.928   1.442   1.151  0.1651 -1.2772 -0.7940
 7560SOL    HW234140   3.874   1.543   1.065  0.0922  0.4482  1.6386
 7561SOL     OW34141   1.384   3.856   8.462 -0.0508  0.5443  0.7591
 7561SOL    HW134142   1.373   3.774   8.414  0.5575  2.2804 -2.2925
 7561SOL    HW234143   1.311   3.910   8.433  2.0137  1.8698 -2.0008
 7562SOL     OW34144   0.610   1.682  14.210 -0.0047  0.3219 -0.3325
 7562SOL    HW134145   0.633   1.634  14.130 -0.7423 -0.1929 -0.2331
 7562SOL    HW234146   0.657   1.764  14.196  1.1523 -0.4960 -1.2628
 7563SOL     OW34147   1.256   0.034   8.199 -0.1109  0.0395  0.2317
 7563SOL    HW134148   1.327   0.006   8.257  0.5940 -0.1963 -0.7267
 7563SOL    HW234149   1.258   0.129   8.198 -1.3636  0.0251 -2.8361
 7564SOL     OW34150   2.538   2.006  14.794  0.2488 -0.0707 -0.5895
 7564SOL    HW134151   2.557   2.049  14.877  0.1416 -1.4576  0.1488
 7564SOL    HW234152   2.555   1.916  14.819  2.6210  0.6202  0.3262
 7565SOL     OW34153   1.788   2.304   7.027 -1.0242 -0.5605 -0.7902
 7565SOL    HW134154   1.758   2.306   6.937 -1.2030 -0.7885 -0.7358
 7565SOL    HW234155   1.711   2.326   7.080 -0.2483  1.9729 -0.7110
 7566SOL     OW34156   2.212   0.893  11.587 -0.2986  0.0318 -0.4390
 7566SOL    HW134157   2.276   0.854  11.646  0.1982  0.8351 -0.4375
 7566SOL    HW234158   2.264   0.971  11.565 -0.5904 -0.1751 -1.8113
 7567SOL     OW34159   1.962   2.089  15.560 -0.0166 -0.1738  0.7097
 7567SOL    HW134160   1.956   1.998  15.531 -0.7956  0.8124 -2.2563
 7567SOL    HW234161   1.969   2.071  15.653 -0.0999  2.0561  1.1441
 7568SOL     OW34162   3.624   3.247   8.350  0.2328 -0.1437 -0.0452
 7568SOL    HW134163   3.537   3.209   8.364  1.1768 -3.1580 -2.2427
 7568SOL    HW234164   3.672   3.180   8.300  1.2441 -0.7718  1.7627
 7569SOL     OW34165   1.741   1.571  12.544  0.2355  0.0770 -0.4427
 7569SOL    HW134166   1.818   1.577  12.601 -1.5847  0.9604  1.9324
 7569SOL    HW234167   1.780   1.499  12.495  1.0797  0.2847 -0.0768
 7570SOL     OW34168   0.968   3.839  16.331 -0.0863 -0.6550  0.0447
 7570SOL    HW134169   1.043   3.817  16.277  1.2818 -0.2217  1.7758
 7570SOL    HW234170   0.984   3.922  16.376  0.0390 -0.8639  0.3883
 7571SOL     OW34171   3.212   2.852  17.662 -1.1036 -0.3007  0.1864
 7571SOL    HW134172   3.229   2.929   0.026  0.5054 -1.8783  1.9020
 7571SOL    HW234173   3.255   2.878  17.580 -1.9295  0.4352 -0.0117
 7572SOL     OW34174   3.141   1.483   7.745  0.3309 -0.1984  0.4075
 7572SOL    HW134175   3.152   1.388   7.755 -0.4738 -0.2135  1.2101
 7572SOL    HW234176   3.069   1.476   7.682 -1.1598 -2.7453  2.3949
 7573SOL     OW34177   4.203   0.583   1.329  0.2352  0.0308 -0.1901
 7573SOL    HW134178   4.149   0.520   1.282  1.3042  0.1373 -1.5607
 7573SOL    HW234179   4.262   0.631   1.271  2.4521 -1.9559  0.4113
 7574SOL     OW34180   1.006   2.837   5.876  0.5620 -0.2175 -0.3722
 7574SOL    HW134181   1.016   2.763   5.817 -2.1802 -1.0378  0.2207
 7574SOL    HW234182   0.912   2.855   5.877  0.5235 -0.6666  2.2772
 7575SOL     OW34183   1.185   3.853   2.105  0.4302 -0.4367  0.3535
 7575SOL    HW134184   1.119   3.922   2.111 -0.0105 -0.6061 -3.0856
 7575SOL    HW234185   1.205   3.847   2.012 -1.3419  0.6554 -0.0994
 7576SOL     OW34186   1.929   3.825  13.021  0.0369  0.1329  0.0185
 7576SOL    HW134187   1.898   3.915  13.021  1.1374  0.5127 -0.2489
 7576SOL    HW234188   1.860   3.777  12.976 -0.6924  1.0469  0.1675
 7577SOL     OW34189   0.102   4.098   8.345 -0.4534  0.1169 -0.2933
 7577SOL    HW134190   0.108   4.016   8.297  0.0677 -0.4441  0.7092
 7577SOL    HW234191   0.078   4.158   8.275 -3.4313  0.3481  0.9298
 7578SOL     OW34192   1.370   2.889  14.105 -0.0869 -0.1304 -1.1567
 7578SOL    HW134193   1.446   2.941  14.078  1.2303 -0.9589  0.9414
 7578SOL    HW234194   1.362   2.817  14.043 -1.0143  0.9807 -2.3301
 7579SOL     OW34195   2.296   1.644  17.380 -0.3412 -0.3803  0.0788
 7579SOL    HW134196   2.276   1.683  17.465 -1.4694 -1.4826  0.3155
 7579SOL    HW234197   2.227   1.579  17.373 -0.1657 -0.5712  0.1263
 7580SOL     OW34198   3.733   2.939   6.762  0.0490  0.4633  0.1104
 7580SOL    HW134199   3.686   3.016   6.731  0.1131  0.5748  0.2898
 7580SOL    HW234200   3.669   2.904   6.824 -0.6550 -1.3390 -1.6236
 7581SOL     OW34201   2.375   1.072   3.705  0.2907 -0.1108 -0.0664
 7581SOL    HW134202   2.361   1.155   3.751  0.8776 -1.1318  1.9331
 7581SOL    HW234203   2.306   1.022   3.748 -2.1179  2.0358 -1.4578
 7582SOL     OW34204   0.563   4.067   1.831  0.0232 -0.5942 -0.1128
 7582SOL    HW134205   0.523   4.140   1.783  1.0547  0.0550  0.0107
 7582SOL    HW234206   0.556   3.999   1.764  0.3224 -1.8548  1.1494
 7583SOL     OW34207   2.509   0.102  15.539 -1.0995  0.0511  0.4402
 7583SOL    HW134208   2.556   0.121  15.458 -2.8165  0.8165 -0.3641
 7583SOL    HW234209   2.557   0.025  15.571  0.5340  1.0914  0.4753
 7584SOL     OW34210   2.090   2.658   3.860  0.0593  0.3412 -0.1163
 7584SOL    HW134211   2.075   2.753   3.858 -0.1641  0.3749  2.5011
 7584SOL    HW234212   2.025   2.633   3.794  0.1777  0.2991 -0.2159
 7585SOL     OW34213   2.043   2.778   8.183  0.1041 -0.1086 -0.0300
 7585SOL    HW134214   2.008   2.705   8.132 -1.7186  0.5130  0.3289
 7585SOL    HW234215   1.987   2.770   8.261  0.4678  4.7072  0.6836
 7586SOL     OW34216   0.328   1.658   6.306  0.1147 -0.3292  0.1025
 7586SOL    HW134217   0.246   1.625   6.343 -1.8730  3.4096 -0.9042
 7586SOL    HW234218   0.336   1.741   6.353  0.5339 -1.3345  1.7798
 7587SOL     OW34219   2.413   2.429   8.243  0.2801  0.3985 -0.7287
 7587SOL    HW134220   2.505   2.455   8.242  0.4795 -0.1358  2.0858
 7587SOL    HW234221   2.430   2.336   8.226  3.2575  0.7458  0.3251
 7588SOL     OW34222   1.445   3.043   6.432  0.1372  0.2838 -0.4585
 7588SOL    HW134223   1.435   3.071   6.523 -2.9166 -1.2773 -0.3291
 7588SOL    HW234224   1.359   3.066   6.395  0.1061 -1.6108 -1.5227
 7589SOL     OW34225   2.603   0.741   4.179 -0.7560 -0.2374 -0.1291
 7589SOL    HW134226   2.559   0.664   4.214 -0.4453 -0.2690  0.1904
 7589SOL    HW234227   2.626   0.788   4.259  0.9885 -1.5650  0.1359
 7590SOL     OW34228   0.633   2.363   1.971  0.1308 -0.1699 -0.2257
 7590SOL    HW134229   0.695   2.434   1.989  1.3354 -0.9092 -1.4716
 7590SOL    HW234230   0.557   2.421   1.976  0.4999  0.5272 -2.5849
 7591SOL     OW34231   3.825   2.438   7.313 -0.2909  0.2318 -0.2732
 7591SOL    HW134232   3.851   2.402   7.228  0.4709 -1.5364  0.7183
 7591SOL    HW234233   3.879   2.517   7.322 -1.2090  0.2775  4.4627
 7592SOL     OW34234   4.590   0.974   8.358 -0.1518  0.6758 -0.2979
 7592SOL    HW134235   4.540   0.959   8.438  1.2796 -0.8821  0.3062
 7592SOL    HW234236   4.627   1.059   8.380 -1.1733  0.9665  0.2999
 7593SOL     OW34237   0.840   2.923   4.331 -0.2248 -0.1864  0.0159
 7593SOL    HW134238   0.830   2.979   4.408  0.4343  0.2057 -0.1824
 7593SOL    HW234239   0.798   2.977   4.265  0.9402  1.1895  0.3969
 7594SOL     OW34240   0.983   2.240   8.590 -0.2229 -0.1689 -0.3747
 7594SOL    HW134241   0.963   2.332   8.608  0.4971  0.3038 -1.9610
 7594SOL    HW234242   0.958   2.219   8.500 -2.4326  0.5269  0.0584
 7595SOL     OW34243   1.454   0.383   9.576  0.1405 -0.4282 -0.2228
 7595SOL    HW134244   1.526   0.321   9.561  0.6995 -0.4176  2.4308
 7595SOL    HW234245   1.462   0.432   9.494  3.0848 -0.0851  0.2580
 7596SOL     OW34246   3.871   0.762  13.538 -0.5448 -0.0996  0.2488
 7596SOL    HW134247   3.900   0.853  13.544  0.0640 -0.1598 -1.8433
 7596SOL    HW234248   3.939   0.715  13.489  1.9414  2.0447  1.6565
 7597SOL     OW34249   0.145   4.607  15.489  0.4109  0.1642 -0.6179
 7597SOL    HW134250   0.061   4.573  15.458  0.7431 -0.8303 -0.4307
 7597SOL    HW234251   0.172   4.676  15.428 -1.5821  0.9664 -0.5997
 7598SOL     OW34252   1.465   0.082  12.661  0.6200 -0.0493 -0.1547
 7598SOL    HW134253   1.426   0.047  12.581  1.1814  0.5237 -0.6773
 7598SOL    HW234254   1.385   0.091  12.713  0.7998 -0.1295  0.1367
 7599SOL     OW34255   1.277   1.066   4.267 -0.2172  0.2753  0.0963
 7599SOL    HW134256   1.325   1.075   4.350 -1.6689 -0.9275  1.0632
 7599SOL    HW234257   1.321   0.989   4.230  0.8167  2.3917 -3.1039
 7600SOL     OW34258   2.716   1.337   7.526  0.2183 -0.2551  0.3424
 7600SOL    HW134259   2.751   1.248   7.521 -1.0660 -0.7741  0.6072
 7600SOL    HW234260   2.644   1.337   7.464  1.6839  0.0757 -1.3571
 7601SOL     OW34261   4.010   2.459  10.302  0.6691 -0.0763  0.1401
 7601SOL    HW134262   4.070   2.524  10.340  1.0467  0.4118 -1.3059
 7601SOL    HW234263   4.071   2.402  10.256  1.1081 -1.0638  1.9529
 7602SOL     OW34264   2.692   2.476   4.803 -0.1279  0.3173 -0.0993
 7602SOL    HW134265   2.731   2.400   4.845  1.9972  0.4841 -1.7650
 7602SOL    HW234266   2.764   2.514   4.754 -0.4291  0.5203 -0.3857
 7603SOL     OW34267   0.144   2.162   5.403  0.1400 -0.3192 -0.1768
 7603SOL    HW134268   0.219   2.216   5.427  1.4076 -1.7442 -0.9612
 7603SOL    HW234269   0.187   2.105   5.339 -2.5638 -1.7632 -0.7219
 7604SOL     OW34270   0.173   2.129   8.420 -0.2452 -0.1376 -0.6777
 7604SOL    HW134271   0.267   2.113   8.412 -0.1766 -0.8788  1.5363
 7604SOL    HW234272   0.181   2.191   8.492  0.0196 -3.2050  1.9470
 7605SOL     OW34273   0.565   0.660   2.201 -0.2683 -0.1898  0.1633
 7605SOL    HW134274   0.522   0.614   2.129  0.2003 -2.3192  1.2372
 7605SOL    HW234275   0.655   0.629   2.205  0.1731  0.7799 -2.2472
 7606SOL     OW34276   3.144   2.828   3.459 -1.0793 -0.2375  0.0960
 7606SOL    HW134277   3.076   2.826   3.391 -1.5319 -0.8018  0.5611
 7606SOL    HW234278   3.227   2.808   3.417  0.2919  1.0432  2.2380
 7607SOL     OW34279   3.623   3.643   8.673 -0.6332  0.7194  0.1483
 7607SOL    HW134280   3.541   3.606   8.706 -0.5294 -0.3572 -0.8177
 7607SOL    HW234281   3.688   3.608   8.735 -0.2347 -1.4830 -1.5058
 7608SOL     OW34282   3.615   3.221   6.348 -0.9004 -0.4010  0.3987
 7608SOL    HW134283   3.595   3.312   6.370  0.9253 -0.2498  1.4802
 7608SOL    HW234284   3.698   3.199   6.392 -0.2849  2.2971  0.5913
 7609SOL     OW34285   0.686   3.070   2.891 -0.4275  0.6081 -0.1468
 7609SOL    HW134286   0.640   3.152   2.907  1.1940  1.4144  0.3735
 7609SOL    HW234287   0.778   3.095   2.882  0.2315 -2.3034 -1.6286
 7610SOL     OW34288   1.710   1.482   6.359 -0.5144  0.0831  0.0554
 7610SOL    HW134289   1.791   1.477   6.410 -0.0224  0.8018 -0.6483
 7610SOL    HW234290   1.728   1.412   6.295  2.3556  1.8992 -1.1410
 7611SOL     OW34291   2.454   4.603   3.422 -0.0562  0.3529 -0.3080
 7611SOL    HW134292   2.513   4.579   3.493 -0.6159  2.7227  0.9482
 7611SOL    HW234293   2.515   4.630   3.353  2.3272  0.5227  1.8831
 7612SOL     OW34294   3.011   2.329  15.457  0.4550 -0.5078  0.1329
 7612SOL    HW134295   3.033   2.422  15.468 -0.9872 -0.2875  1.2007
 7612SOL    HW234296   2.917   2.349  15.456  0.8785  1.5990  1.5977
 7613SOL     OW34297   0.660   3.242  13.793 -0.3381 -0.0284 -0.4537
 7613SOL    HW134298   0.655   3.175  13.725  1.7866 -0.2915 -0.3578
 7613SOL    HW234299   0.687   3.317  13.740  2.0198  1.3380  2.6543
 7614SOL     OW34300   4.373   2.100   4.636 -0.1660 -0.0318 -0.8401
 7614SOL    HW134301   4.413   2.150   4.565 -1.2949  0.2067 -1.3070
 7614SOL    HW234302   4.322   2.032   4.592 -0.2451 -0.2353 -0.4338
 7615SOL     OW34303   0.574   3.928  15.023 -0.1392 -0.0474 -0.0493
 7615SOL    HW134304   0.606   3.883  14.945  0.9752 -0.0017  0.3889
 7615SOL    HW234305   0.652   3.925  15.077  0.2054  1.0785 -0.4968
 7616SOL     OW34306   3.163   4.626  16.916 -0.0694  0.5120 -0.2386
 7616SOL    HW134307   3.076   4.615  16.877 -1.0681  0.8139  1.9058
 7616SOL    HW234308   3.154   4.687  16.990 -2.6611  1.4981 -1.3369
 7617SOL     OW34309   2.822   0.838   6.065 -0.4118  0.0846 -0.0327
 7617SOL    HW134310   2.743   0.805   6.106  1.2067  0.1620  3.1641
 7617SOL    HW234311   2.830   0.770   5.999 -1.4536  0.8398 -0.9209
 7618SOL     OW34312   2.083   0.988   3.636 -0.3124 -0.3289  0.6741
 7618SOL    HW134313   2.147   0.962   3.570  0.9175  2.1584  0.8533
 7618SOL    HW234314   2.070   1.079   3.609  2.1394 -0.5622 -1.3511
 7619SOL     OW34315   2.294   3.051  10.406  0.2772 -0.0459 -0.5419
 7619SOL    HW134316   2.276   2.980  10.345  0.7651 -2.3259  1.9435
 7619SOL    HW234317   2.383   3.019  10.421 -0.0755 -0.4924  0.6364
 7620SOL     OW34318   3.824   0.836   2.880 -0.0884  0.0596  0.2424
 7620SOL    HW134319   3.764   0.813   2.950 -0.6872 -0.3932 -0.4236
 7620SOL    HW234320   3.794   0.768   2.820 -0.1717  0.5109 -0.2315
 7621SOL     OW34321   1.395   3.870   6.256 -0.7469 -0.2347 -0.3127
 7621SOL    HW134322   1.301   3.884   6.242 -0.9640 -2.6180 -1.1872
 7621SOL    HW234323   1.423   3.960   6.240  0.8107 -0.5329  0.7313
 7622SOL     OW34324   1.902   3.671   3.537  0.4755  0.2771 -0.2752
 7622SOL    HW134325   1.944   3.741   3.488 -2.0571  0.4412 -2.2249
 7622SOL    HW234326   1.938   3.598   3.486  0.8599  0.7077 -0.6146
 7623SOL     OW34327   1.915   2.922   1.068  0.1743  0.1658  0.3047
 7623SOL    HW134328   1.838   2.964   1.107 -2.3828 -2.8660 -1.5040
 7623SOL    HW234329   1.971   2.893   1.140 -2.1755  1.3061  2.5587
 7624SOL     OW34330   0.523   4.397   6.947  0.0083 -0.4645 -0.0880
 7624SOL    HW134331   0.462   4.471   6.945  0.4478 -0.0422  2.2986
 7624SOL    HW234332   0.562   4.410   7.033 -0.8810  0.0808  0.2368
 7625SOL     OW34333   1.740   1.795   5.870  0.2181 -0.3644 -0.1588
 7625SOL    HW134334   1.797   1.853   5.920 -0.3376  0.1288 -0.1003
 7625SOL    HW234335   1.792   1.793   5.790  0.5635  0.7966  0.0462
 7626SOL     OW34336   3.160   1.876  15.462  0.3595  0.3608 -0.0454
 7626SOL    HW134337   3.146   1.896  15.555 -1.2069  0.3974 -0.2855
 7626SOL    HW234338   3.112   1.950  15.424 -1.7923  0.1306  2.1881
 7627SOL     OW34339   3.385   0.560   3.203 -0.1880 -0.0257 -0.1591
 7627SOL    HW134340   3.346   0.543   3.288 -1.0996 -0.8603 -0.7459
 7627SOL    HW234341   3.473   0.552   3.238 -0.5277  1.6554  1.0571
 7628SOL     OW34342   4.417   0.192   5.087  0.0305 -0.1823  0.5357
 7628SOL    HW134343   4.401   0.099   5.071 -1.3540  0.2008 -0.3416
 7628SOL    HW234344   4.352   0.219   5.152 -0.7839  3.3103 -1.7191
 7629SOL     OW34345   0.939   1.223   8.254  0.1428 -0.1273  0.0675
 7629SOL    HW134346   0.907   1.195   8.339 -2.4849 -0.8101 -1.1439
 7629SOL    HW234347   0.878   1.293   8.233  0.4518 -0.0138 -0.4812
 7630SOL     OW34348   3.708   1.866   5.423 -0.5649  0.3820  0.2069
 7630SOL    HW134349   3.624   1.906   5.445 -0.4429 -0.7408  2.8260
 7630SOL    HW234350   3.686   1.839   5.334 -0.0512 -1.0563  0.5149
 7631SOL     OW34351   2.876   0.438  14.245 -0.1347  0.3250  0.7727
 7631SOL    HW134352   2.807   0.377  14.267  0.3611 -1.0173 -1.4655
 7631SOL    HW234353   2.947   0.380  14.218 -0.9577 -1.4646  2.4574
 7632SOL     OW34354   1.576   0.260   7.833 -0.5284 -0.1570  0.7013
 7632SOL    HW134355   1.567   0.217   7.748 -0.0140 -0.2683  0.7034
 7632SOL    HW234356   1.491   0.300   7.852 -1.1585 -0.7600 -0.7925
 7633SOL     OW34357   2.791   1.162   4.972  0.1978  1.1229  0.1287
 7633SOL    HW134358   2.776   1.076   5.008  0.3337  1.1535  0.2593
 7633SOL    HW234359   2.705   1.202   4.984 -0.0749  1.1097 -1.8082
 7634SOL     OW34360   2.770   1.670   4.606 -0.5930 -0.0005  0.5498
 7634SOL    HW134361   2.693   1.702   4.654  0.4149 -0.1508  2.2676
 7634SOL    HW234362   2.773   1.744   4.546 -0.8631 -0.6187 -0.2299
 7635SOL     OW34363   1.366   1.213  15.964  0.2473 -0.4553 -0.2733
 7635SOL    HW134364   1.349   1.155  16.039  1.4793 -1.0955 -0.4889
 7635SOL    HW234365   1.334   1.160  15.891 -0.6248  1.2244 -1.1081
 7636SOL     OW34366   3.866   1.740   4.146  0.4120 -0.2106  0.2215
 7636SOL    HW134367   3.958   1.715   4.152  0.6578  0.3271 -1.4373
 7636SOL    HW234368   3.824   1.695   4.220 -1.2705 -2.0271 -1.8272
 7637SOL     OW34369   2.136   3.476   1.523  0.3077  0.3289  0.4625
 7637SOL    HW134370   2.066   3.459   1.460  1.2783  0.8437 -0.7344
 7637SOL    HW234371   2.205   3.490   1.458  0.3371  1.2914  0.7023
 7638SOL     OW34372   3.233   0.890   6.620 -0.4391 -0.4706  0.2316
 7638SOL    HW134373   3.252   0.910   6.529 -0.1450  0.4316  0.4897
 7638SOL    HW234374   3.265   0.800   6.623 -2.3810 -1.1453  0.7791
 7639SOL     OW34375   0.372   0.986  16.766 -0.0851 -0.5058  0.4247
 7639SOL    HW134376   0.301   0.927  16.793 -0.3648 -1.2204 -1.8300
 7639SOL    HW234377   0.367   1.048  16.838 -0.1007 -0.5911  0.4969
 7640SOL     OW34378   4.153   3.728   3.352  0.1560  0.3053 -0.5498
 7640SOL    HW134379   4.193   3.642   3.368 -0.8826 -0.3637 -1.5996
 7640SOL    HW234380   4.086   3.721   3.419  0.7365  1.1280  0.1108
 7641SOL     OW34381   4.397   4.283   0.956 -0.3647  0.1139  0.1837
 7641SOL    HW134382   4.375   4.293   0.864 -1.0496  3.0801  0.6663
 7641SOL    HW234383   4.311   4.264   0.994 -0.1189 -1.4132  0.0061
 7642SOL     OW34384   1.809   3.170   3.084  0.1472 -0.1581 -0.5039
 7642SOL    HW134385   1.833   3.236   3.018  2.2591 -1.0164 -0.6058
 7642SOL    HW234386   1.794   3.228   3.159  3.2115  1.1368 -0.8782
 7643SOL     OW34387   0.846   0.418   8.665 -0.6533  0.3326  0.0111
 7643SOL    HW134388   0.890   0.495   8.702  1.7502 -0.3872 -1.3793
 7643SOL    HW234389   0.757   0.435   8.696  0.2096  1.3816  1.9296
 7644SOL     OW34390   3.845   0.157   3.913  0.4453 -0.6243 -0.1207
 7644SOL    HW134391   3.918   0.135   3.855 -0.6215 -0.5504 -1.5145
 7644SOL    HW234392   3.843   0.251   3.895  1.9892 -0.1114  2.4382
 7645SOL     OW34393   0.372   3.943   3.488 -0.0218  0.1309 -0.5850
 7645SOL    HW134394   0.288   3.970   3.525  0.4286 -1.6228  1.7013
 7645SOL    HW234395   0.428   3.921   3.562 -0.0679  1.8648 -0.0408
 7646SOL     OW34396   1.820   3.530   7.132 -0.2374  0.7101 -0.5606
 7646SOL    HW134397   1.734   3.568   7.151  0.0212  0.3868  1.2304
 7646SOL    HW234398   1.847   3.584   7.058 -1.5955  1.3959 -0.5458
 7647SOL     OW34399   3.379   4.161   8.318 -0.4766 -0.1515  0.6106
 7647SOL    HW134400   3.320   4.092   8.289 -1.8223  0.4413  1.9936
 7647SOL    HW234401   3.462   4.134   8.277  0.4633  2.0975  1.0011
 7648SOL     OW34402   4.522   4.636  14.999 -0.5200 -0.3709  0.1121
 7648SOL    HW134403   4.476   4.558  14.967 -1.3346  0.2124 -0.1394
 7648SOL    HW234404   4.611   4.618  14.968 -0.0956  1.1904  0.4140
 7649SOL     OW34405   0.165   0.209   9.354  0.3426  0.7071  0.2030
 7649SOL    HW134406   0.120   0.125   9.364  1.2989  0.0313 -1.1266
 7649SOL    HW234407   0.115   0.261   9.417  0.2817  0.1411  0.6201
 7650SOL     OW34408   3.925   3.960   1.123 -0.2770 -0.4808 -0.5086
 7650SOL    HW134409   3.999   3.909   1.089  1.2661  0.4587  1.4175
 7650SOL    HW234410   3.857   3.945   1.057 -1.0887  1.6664 -0.1536
 7651SOL     OW34411   0.621   0.422  16.165  0.0636 -0.4124  0.5411
 7651SOL    HW134412   0.545   0.401  16.111  1.1299  0.3717 -1.2682
 7651SOL    HW234413   0.597   0.514  16.176  1.4994  0.2062 -1.4885
 7652SOL     OW34414   3.072   1.705  12.132  0.5994 -0.2500  0.1572
 7652SOL    HW134415   3.034   1.730  12.047 -0.3643 -0.6190  0.4791
 7652SOL    HW234416   3.004   1.646  12.163  1.5260 -1.2593  0.2568
 7653SOL     OW34417   2.916   1.931  10.613  0.0284 -0.3855 -0.4281
 7653SOL    HW134418   2.949   1.862  10.556 -1.6827 -1.1800 -0.4644
 7653SOL    HW234419   2.956   1.924  10.699 -0.6666  3.3188  0.2096
 7654SOL     OW34420   3.384   4.459   8.893 -0.4597 -0.1179  0.1919
 7654SOL    HW134421   3.453   4.475   8.828  0.7544  0.7251  1.7015
 7654SOL    HW234422   3.376   4.364   8.881  0.4209 -0.1890  0.1760
 7655SOL     OW34423   2.095   3.305   4.776 -0.1778  0.1832  0.0550
 7655SOL    HW134424   2.056   3.345   4.854  0.9006  1.1473  0.0975
 7655SOL    HW234425   2.183   3.334   4.800  0.1696  0.2284 -1.2666
 7656SOL     OW34426   4.635   3.823  13.887 -0.4306 -0.0902  0.6157
 7656SOL    HW134427   4.663   3.738  13.922 -0.3580 -0.1102  0.5081
 7656SOL    HW234428   4.559   3.799  13.834 -0.7952 -1.8729  1.9467
 7657SOL     OW34429   0.444   1.570  14.385  0.1386 -0.0022  0.2875
 7657SOL    HW134430   0.373   1.626  14.356 -0.2963 -1.1250 -0.8174
 7657SOL    HW234431   0.509   1.590  14.318 -1.2672  2.9443 -0.1600
 7658SOL     OW34432   1.320   2.657  12.938  0.3200  0.3613  0.3814
 7658SOL    HW134433   1.300   2.750  12.926  0.4891  0.0618 -2.0328
 7658SOL    HW234434   1.402   2.642  12.891  0.0975 -0.6283  0.3169
 7659SOL     OW34435   2.344   1.502   8.564  0.0965 -0.1440  0.7691
 7659SOL    HW134436   2.254   1.491   8.594 -0.5840  0.1394 -1.1480
 7659SOL    HW234437   2.373   1.413   8.542 -0.4717 -0.5845  1.8182
 7660SOL     OW34438   4.058   2.161   7.566 -0.7934  0.8459 -0.8678
 7660SOL    HW134439   4.101   2.169   7.481  1.7491  0.6473  0.3998
 7660SOL    HW234440   4.010   2.243   7.577  0.4167  1.3990  0.2043
 7661SOL     OW34441   1.297   4.545   3.962  0.6259  0.0880  0.0015
 7661SOL    HW134442   1.307   4.633   3.925 -0.6242  0.2100 -0.0409
 7661SOL    HW234443   1.205   4.530   3.941  0.9212  0.3942 -1.4809
 7662SOL     OW34444   3.885   2.238  17.251 -0.0272 -0.1503 -0.6692
 7662SOL    HW134445   3.792   2.218  17.251  0.5518 -2.7430  2.3418
 7662SOL    HW234446   3.897   2.217  17.343  0.3277  0.2260 -0.6258
 7663SOL     OW34447   1.239   3.689  12.713  0.3338 -0.4617  0.2833
 7663SOL    HW134448   1.167   3.633  12.683 -0.5138 -0.1399  1.6781
 7663SOL    HW234449   1.209   3.708  12.802 -0.1530 -0.5679  0.1425
 7664SOL     OW34450   2.027   0.092  14.920  0.0169 -0.1269  0.3068
 7664SOL    HW134451   1.953   0.031  14.914 -0.7928  0.9620 -0.9205
 7664SOL    HW234452   1.974   0.164  14.884  1.6589  0.4089 -0.9963
 7665SOL     OW34453   4.541   3.698   9.625  0.5922 -0.2609  0.2560
 7665SOL    HW134454   4.513   3.660   9.708 -0.2053  0.9929  0.5555
 7665SOL    HW234455   4.482   3.657   9.561 -0.4289 -0.4475  1.3189
 7666SOL     OW34456   3.918   4.023   3.215  0.0999  0.3870  0.1309
 7666SOL    HW134457   3.977   4.019   3.140 -1.0282 -1.3973 -0.6512
 7666SOL    HW234458   3.875   4.102   3.183  1.5440  0.9173 -0.4853
 7667SOL     OW34459   2.195   2.844   6.054 -0.0266 -0.1044  0.2353
 7667SOL    HW134460   2.132   2.906   6.090 -1.4625 -0.9577 -0.7933
 7667SOL    HW234461   2.215   2.786   6.128  0.4969  1.0470  0.9926
 7668SOL     OW34462   0.675   1.639   8.448  0.3216  0.0408  1.2276
 7668SOL    HW134463   0.720   1.657   8.530  1.0270 -0.0609  0.8644
 7668SOL    HW234464   0.677   1.724   8.403  1.0998  0.2272  1.6128
 7669SOL     OW34465   0.149   0.519   7.955  0.4924 -0.5094  0.2821
 7669SOL    HW134466   0.055   0.501   7.968  0.2262  0.3664 -0.4335
 7669SOL    HW234467   0.149   0.513   7.860 -0.1776  2.8008  0.0636
 7670SOL     OW34468   3.566   3.361  14.233  0.0056  0.3141 -0.0576
 7670SOL    HW134469   3.512   3.282  14.234  0.7000 -0.1471  1.0813
 7670SOL    HW234470   3.654   3.323  14.241  0.3424  1.0613 -0.2751
 7671SOL     OW34471   1.904   2.032   0.093 -0.4737  0.2814 -0.8605
 7671SOL    HW134472   1.939   1.951   0.131 -1.8497  0.4598  0.7927
 7671SOL    HW234473   1.968   2.093   0.130  0.6746 -1.1444 -0.4960
 7672SOL     OW34474   3.137   0.483   5.451  0.5145 -0.2521  0.3728
 7672SOL    HW134475   3.222   0.450   5.479  0.3545 -1.7085 -0.8785
 7672SOL    HW234476   3.113   0.538   5.526  0.6690 -1.1428  1.0783
 7673SOL     OW34477   4.398   4.436   6.475  0.2511 -0.1501 -0.1016
 7673SOL    HW134478   4.417   4.346   6.452  2.7945  0.4731 -0.3668
 7673SOL    HW234479   4.399   4.476   6.388 -1.9883  2.1732  0.9138
 7674SOL     OW34480   1.022   3.973   1.755  0.5079  0.3764 -0.2324
 7674SOL    HW134481   0.935   3.934   1.758  0.8896 -0.6535 -3.0076
 7674SOL    HW234482   1.034   3.994   1.663 -1.3371 -0.1927 -0.6034
 7675SOL     OW34483   2.202   2.595   1.260 -0.4942 -0.2184 -0.1663
 7675SOL    HW134484   2.173   2.685   1.276  0.4708 -0.2818  1.8443
 7675SOL    HW234485   2.201   2.560   1.348  1.1019 -2.1619 -0.9288
 7676SOL     OW34486   1.567   4.006  15.632 -0.1599 -0.4420  0.6935
 7676SOL    HW134487   1.494   4.011  15.694 -0.1546  0.2341  0.6417
 7676SOL    HW234488   1.612   4.089  15.648  0.6120 -0.5470 -0.9158
 7677SOL     OW34489   4.556   2.464  17.688 -0.2723 -0.2094 -0.3545
 7677SOL    HW134490   4.595   2.547  17.661 -0.6563  0.0058 -0.2337
 7677SOL    HW234491   4.624   2.423   0.052  0.3171  0.8761 -0.2716
 7678SOL     OW34492   4.635   2.025   8.487  0.1400  0.5945  0.0281
 7678SOL    HW134493   4.633   2.095   8.553  2.3643  1.3232 -0.6919
 7678SOL    HW234494   0.005   2.031   8.460 -0.0867 -1.0378 -1.0817
 7679SOL     OW34495   1.977   2.576   0.071 -0.4976 -0.2606 -0.1280
 7679SOL    HW134496   1.947   2.550  17.674 -1.1773  0.1469 -0.0167
 7679SOL    HW234497   1.957   2.670   0.066 -0.5575 -0.1598  1.8855
 7680SOL     OW34498   2.447   4.398   6.468  0.1169 -0.4916  0.0207
 7680SOL    HW134499   2.450   4.490   6.444  1.2014  0.0318  2.2204
 7680SOL    HW234500   2.424   4.418   6.558 -1.4326 -0.5024 -0.3619
 7681SOL     OW34501   2.099   2.706  12.968  0.3817  0.2278 -0.3122
 7681SOL    HW134502   2.097   2.772  12.898  0.3510  0.7199  0.1491
 7681SOL    HW234503   2.024   2.737  13.020  0.3133 -0.1483 -0.1853
 7682SOL     OW34504   1.767   0.880  15.770  0.4444  0.3473  0.5229
 7682SOL    HW134505   1.704   0.947  15.798  1.1627  1.4480 -0.4705
 7682SOL    HW234506   1.716   0.801  15.783  1.4376 -0.6602 -1.6746
 7683SOL     OW34507   0.112   1.863   8.023  0.2094 -0.0716 -0.4015
 7683SOL    HW134508   0.059   1.806   8.079 -1.4384 -0.3154 -2.2225
 7683SOL    HW234509   0.186   1.880   8.081  0.7042  1.2604 -1.4293
 7684SOL     OW34510   4.667   2.549   8.294 -0.2609  0.3060 -0.2044
 7684SOL    HW134511   4.577   2.530   8.320 -0.2128  2.3733  1.4599
 7684SOL    HW234512   4.687   2.470   8.244  1.8790  1.4474 -1.1553
 7685SOL     OW34513   1.904   1.206   1.396  0.4624 -0.4134  0.0757
 7685SOL    HW134514   1.870   1.168   1.314  1.6110 -0.4023 -0.4094
 7685SOL    HW234515   1.851   1.285   1.402  1.3442  0.2734 -1.0116
 7686SOL     OW34516   1.733   0.061  12.719 -0.2050  0.1266 -0.1446
 7686SOL    HW134517   1.644   0.091  12.702  0.3036  1.3518 -0.7115
 7686SOL    HW234518   1.783   0.139  12.744 -2.5597  2.3402 -2.3503
 7687SOL     OW34519   0.082   1.562   5.533  0.1076 -0.0759  0.3225
 7687SOL    HW134520   0.001   1.614   5.525  0.4005  0.1609 -1.1408
 7687SOL    HW234521   0.111   1.590   5.620  1.4999 -2.6086  0.6415
 7688SOL     OW34522   0.320   0.895  13.231 -0.5304 -0.0050 -0.0628
 7688SOL    HW134523   0.263   0.877  13.156  1.4502 -0.7690 -1.3665
 7688SOL    HW234524   0.336   0.805  13.258  1.8240 -0.0309 -1.6541
 7689SOL     OW34525   4.626   0.808  12.991 -0.3897 -0.4776 -0.6109
 7689SOL    HW134526   4.561   0.746  12.958 -0.1197 -0.2495 -1.5634
 7689SOL    HW234527   4.591   0.887  12.950  1.4749  0.4166 -0.4842
 7690SOL     OW34528   3.211   2.101   2.553 -0.1518  0.1691  0.2134
 7690SOL    HW134529   3.174   2.189   2.548 -0.6432 -0.1234 -1.4991
 7690SOL    HW234530   3.286   2.119   2.496  1.0034  0.3210  1.8006
 7691SOL     OW34531   3.830   0.988  10.536 -0.2142  0.6779  0.8942
 7691SOL    HW134532   3.886   1.026  10.468  0.1252  1.5784  1.6679
 7691SOL    HW234533   3.800   0.909  10.492  0.7848  2.4080 -2.9268
 7692SOL     OW34534   0.939   0.589  10.277 -0.2830 -0.2873 -0.8761
 7692SOL    HW134535   1.016   0.637  10.247  1.2738 -1.8736  0.6001
 7692SOL    HW234536   0.960   0.570  10.368 -0.2609  1.3937 -0.5317
 7693SOL     OW34537   0.064   4.548   8.284 -0.0307  0.1359 -0.0475
 7693SOL    HW134538   0.111   4.538   8.202 -1.8243 -0.9276 -0.9352
 7693SOL    HW234539   4.695   4.531   8.258 -0.3156  0.2201  0.8659
 7694SOL     OW34540   0.049   2.060  15.347 -0.4344  0.1011  0.2054
 7694SOL    HW134541   0.013   2.141  15.385  1.1334  0.1647  1.6030
 7694SOL    HW234542   0.058   1.999  15.420 -1.2810  0.2276  0.4175
 7695SOL     OW34543   3.170   1.647   2.329  0.1288 -0.0482 -0.2862
 7695SOL    HW134544   3.168   1.588   2.404 -0.2581  0.5432  0.1717
 7695SOL    HW234545   3.262   1.673   2.329 -0.3180  1.5171 -1.9494
 7696SOL     OW34546   4.326   3.946   3.314 -0.2018  1.0170  0.1344
 7696SOL    HW134547   4.313   3.985   3.401  0.5128 -0.3746  0.8604
 7696SOL    HW234548   4.273   3.867   3.324  0.0038  0.7252 -1.1485
 7697SOL     OW34549   3.015   3.496  14.053 -0.3574  0.0793  0.1278
 7697SOL    HW134550   3.030   3.403  14.039 -1.1933  0.2839 -2.1467
 7697SOL    HW234551   2.920   3.485  14.044 -0.2965 -1.8569  2.0068
 7698SOL     OW34552   2.470   2.038   4.939  0.0754 -0.3822  0.6610
 7698SOL    HW134553   2.553   2.073   4.972  0.3394  0.4128 -0.8419
 7698SOL    HW234554   2.449   1.974   5.007 -1.1602 -1.1545 -0.4426
 7699SOL     OW34555   2.791   2.585   0.256 -0.9128  0.4814  0.3243
 7699SOL    HW134556   2.746   2.534   0.188  1.4247  0.1872 -1.0242
 7699SOL    HW234557   2.757   2.539   0.332  1.0498  1.3888  1.7371
 7700SOL     OW34558   4.414   2.109   8.753  0.0423  0.3483  0.3301
 7700SOL    HW134559   4.409   2.024   8.709 -0.4094  0.5039  0.0824
 7700SOL    HW234560   4.370   2.090   8.836 -0.4515 -1.9700 -0.4740
 7701SOL     OW34561   4.112   2.890   6.667 -0.2542 -0.0714  0.3189
 7701SOL    HW134562   4.041   2.952   6.682 -0.0096  0.1907  0.3937
 7701SOL    HW234563   4.110   2.854   6.756  1.8312  1.0492  0.8144
 7702SOL     OW34564   4.289   2.316   6.563 -0.0037  0.1405 -0.4549
 7702SOL    HW134565   4.363   2.341   6.508  1.9588  0.1182  2.2035
 7702SOL    HW234566   4.245   2.266   6.495 -0.3644  1.8921 -1.5103
 7703SOL     OW34567   4.247   0.701   4.068 -0.5317  0.3100  0.3023
 7703SOL    HW134568   4.302   0.637   4.114 -0.0608 -0.4279 -1.2999
 7703SOL    HW234569   4.310   0.740   4.008  0.4877 -2.0656 -0.1794
 7704SOL     OW34570   1.590   3.088   2.942  0.2680 -0.3397 -0.1859
 7704SOL    HW134571   1.658   3.135   2.990 -1.8100  2.1664  0.3249
 7704SOL    HW234572   1.579   3.151   2.870 -2.2262 -0.4809  0.0762
 7705SOL     OW34573   3.857   2.589   0.181 -0.3027 -0.2137 -0.5616
 7705SOL    HW134574   3.941   2.634   0.184 -0.0956 -0.5142 -1.7674
 7705SOL    HW234575   3.809   2.626   0.107 -1.5427  0.8791  0.7771
 7706SOL     OW34576   2.190   4.452  10.662  0.2147 -0.4625 -0.5481
 7706SOL    HW134577   2.192   4.542  10.628  0.4405 -0.4141 -0.4071
 7706SOL    HW234578   2.129   4.411  10.602  0.6775 -0.6969 -0.8556
 7707SOL     OW34579   2.710   2.625   8.805  0.4019  0.1250  0.4156
 7707SOL    HW134580   2.684   2.658   8.719 -1.2657 -1.9070  0.1216
 7707SOL    HW234581   2.763   2.700   8.832  0.3630 -0.2765  1.6082
 7708SOL     OW34582   4.004   0.835  12.102  0.2300 -0.1236 -0.3947
 7708SOL    HW134583   4.015   0.899  12.172  0.5908  0.9162 -1.4125
 7708SOL    HW234584   4.003   0.752  12.149 -0.3662  0.8802  1.3536
 7709SOL     OW34585   3.006   3.596   6.003  0.0977 -0.5315 -0.0758
 7709SOL    HW134586   2.957   3.523   6.040  1.2252 -2.9263 -3.3654
 7709SOL    HW234587   2.935   3.659   6.014 -0.4612 -0.9701 -1.1655
 7710SOL     OW34588   0.059   2.106   3.605  0.9269  0.4056  0.0024
 7710SOL    HW134589   0.120   2.161   3.655 -0.0453  1.5948 -0.1321
 7710SOL    HW234590   0.070   2.023   3.652 -1.4857 -1.5130 -2.8157
 7711SOL     OW34591   0.413   0.466   7.505  0.0215  0.0712 -0.2360
 7711SOL    HW134592   0.433   0.520   7.429  0.3729  0.0570 -0.1540
 7711SOL    HW234593   0.401   0.378   7.469  1.9285 -0.8241  1.2951
 7712SOL     OW34594   3.295   3.300   2.835 -0.7721 -0.6183 -0.5042
 7712SOL    HW134595   3.212   3.271   2.873 -0.8112  1.4030  0.9565
 7712SOL    HW234596   3.334   3.213   2.831  1.6002  0.4096  0.4324
 7713SOL     OW34597   4.679   4.106   8.968  0.2367 -1.1175 -0.4190
 7713SOL    HW134598   0.027   4.170   8.957 -0.9389  0.4947  1.4497
 7713SOL    HW234599   4.654   4.099   8.876  0.3429  2.7887 -0.7350
 7714SOL     OW34600   2.932   2.967   0.019 -0.4163 -0.1436 -0.0222
 7714SOL    HW134601   3.019   2.926   0.018 -0.2111  0.2915 -0.2433
 7714SOL    HW234602   2.957   3.059   0.010  0.2385 -0.1180  1.9980
 7715SOL     OW34603   4.255   2.963  13.445  0.0754 -0.0742 -0.0051
 7715SOL    HW134604   4.165   2.939  13.423  0.8193 -0.2106 -2.9280
 7715SOL    HW234605   4.245   3.051  13.408 -0.2481 -0.1803 -0.1763
 7716SOL     OW34606   0.872   3.206   4.838 -0.4805  0.0093 -0.0942
 7716SOL    HW134607   0.919   3.285   4.812 -0.1796 -0.0765  0.1947
 7716SOL    HW234608   0.852   3.227   4.929  2.6321 -1.0960  0.8143
 7717SOL     OW34609   1.063   0.170   2.772 -0.2975 -0.2069  0.0835
 7717SOL    HW134610   0.990   0.191   2.714 -1.5155 -1.9223  1.0152
 7717SOL    HW234611   1.042   0.092   2.822 -0.4404  0.2361  0.7158
 7718SOL     OW34612   3.278   1.292   2.484 -0.4028  0.2458 -0.4823
 7718SOL    HW134613   3.263   1.303   2.391 -0.9154 -1.9487 -0.6576
 7718SOL    HW234614   3.218   1.356   2.522 -0.2546  0.2599 -0.2699
 7719SOL     OW34615   2.069   1.043   2.005  0.1407  0.0267 -0.1642
 7719SOL    HW134616   2.161   1.032   1.984 -0.2911 -0.2949 -1.8772
 7719SOL    HW234617   2.079   1.127   2.050  0.6759  0.3911 -0.9693
 7720SOL     OW34618   0.465   2.484   8.704  0.2822 -0.5344 -0.3860
 7720SOL    HW134619   0.528   2.546   8.669 -2.7225  3.1102  0.7019
 7720SOL    HW234620   0.436   2.536   8.779 -0.4916 -1.4452 -0.0456
 7721SOL     OW34621   1.738   2.538  16.457 -0.0776  0.0199  0.0679
 7721SOL    HW134622   1.700   2.620  16.426  0.5543  0.1098 -0.4495
 7721SOL    HW234623   1.753   2.481  16.382 -1.7057 -0.8396  0.4023
 7722SOL     OW34624   1.896   0.522   8.420 -0.1982 -0.4552 -0.2878
 7722SOL    HW134625   1.927   0.451   8.477 -2.0369 -1.7206 -0.8854
 7722SOL    HW234626   1.905   0.479   8.335  1.2417  2.4367 -1.6003
 7723SOL     OW34627   2.774   4.176   5.241 -0.5412 -0.1665 -0.6216
 7723SOL    HW134628   2.752   4.112   5.174 -1.7086 -1.3299  0.8604
 7723SOL    HW234629   2.694   4.219   5.270 -0.0894  1.4533 -1.7924
 7724SOL     OW34630   4.077   2.951   4.947  0.0072  0.1448 -0.4072
 7724SOL    HW134631   4.038   2.997   5.021 -0.4949 -1.4619  0.3244
 7724SOL    HW234632   4.168   2.973   4.966 -0.1924 -1.3833  2.3400
 7725SOL     OW34633   1.983   4.595   8.694  0.0894  0.7580  0.0146
 7725SOL    HW134634   2.038   4.610   8.617 -0.4321 -2.4954 -1.0003
 7725SOL    HW234635   2.039   4.541   8.749 -0.2337  0.4143  0.0090
 7726SOL     OW34636   0.426   1.162   2.323  0.1788  0.4652 -0.1341
 7726SOL    HW134637   0.342   1.155   2.369 -0.1327  2.1035 -0.4379
 7726SOL    HW234638   0.416   1.076   2.282 -0.6246  0.5636 -0.1400
 7727SOL     OW34639   2.423   4.320   4.114  0.0024  0.5087  0.3392
 7727SOL    HW134640   2.442   4.285   4.201  1.3992 -1.3108 -0.7086
 7727SOL    HW234641   2.476   4.254   4.070 -0.3151  1.0040 -0.7847
 7728SOL     OW34642   1.573   1.836   9.122 -0.1635  0.5540  0.4591
 7728SOL    HW134643   1.576   1.919   9.076  1.1546  0.3146  0.1188
 7728SOL    HW234644   1.652   1.833   9.176 -0.0257 -1.0041  0.1678
 7729SOL     OW34645   3.413   4.665   9.567  0.6745 -0.5044  0.3255
 7729SOL    HW134646   3.406   4.701   9.478  0.7776 -0.8325  0.1845
 7729SOL    HW234647   3.471   0.008   9.608 -1.0445  1.5392 -0.4389
 7730SOL     OW34648   3.470   2.567   7.186  0.5433 -0.4071 -0.0078
 7730SOL    HW134649   3.427   2.559   7.101  0.0036  0.5508  0.1707
 7730SOL    HW234650   3.538   2.632   7.166 -0.3678  1.1744  2.0996
 7731SOL     OW34651   0.610   1.370   6.863 -0.3028  0.1798 -0.1136
 7731SOL    HW134652   0.542   1.329   6.810  0.1286 -0.2995 -0.3021
 7731SOL    HW234653   0.567   1.446   6.902  2.5540  0.4656  2.4996
 7732SOL     OW34654   2.183   3.034   5.800 -0.2832 -0.2990 -0.3728
 7732SOL    HW134655   2.199   3.042   5.894  0.1024  0.9938 -0.5481
 7732SOL    HW234656   2.235   3.100   5.755 -0.6495  1.3487  1.6124
 7733SOL     OW34657   3.559   4.365   4.266  1.1439  0.0935  0.3849
 7733SOL    HW134658   3.527   4.429   4.329  1.5438  0.1885  0.4938
 7733SOL    HW234659   3.576   4.416   4.186  2.8888 -1.1700 -0.0443
 7734SOL     OW34660   1.619   1.866   5.487  0.1901 -0.0182 -0.5188
 7734SOL    HW134661   1.582   1.852   5.575  2.9798 -1.2944  0.4683
 7734SOL    HW234662   1.704   1.824   5.499 -0.3147 -0.6649  0.8021
 7735SOL     OW34663   2.362   2.803   6.297 -0.5291  0.4295 -0.0594
 7735SOL    HW134664   2.425   2.731   6.303 -1.5755 -0.3677  1.7060
 7735SOL    HW234665   2.419   2.875   6.321 -0.2007  0.4268 -0.8513
 7736SOL     OW34666   4.680   3.863  11.357 -0.2712  0.3808  0.2706
 7736SOL    HW134667   4.647   3.773  11.350  0.8949 -0.0645  0.4901
 7736SOL    HW234668   4.711   3.870  11.448  0.0433  3.0072 -0.0311
 7737SOL     OW34669   0.655   0.824   3.921 -0.3617 -0.4068 -0.0915
 7737SOL    HW134670   0.575   0.772   3.918 -0.5864 -0.0685  0.1507
 7737SOL    HW234671   0.721   0.755   3.931  0.2843  0.2598  0.1847
 7738SOL     OW34672   0.713   3.144   2.480 -0.0273 -0.1677  0.1589
 7738SOL    HW134673   0.708   3.167   2.387 -2.7386  0.6690  0.5051
 7738SOL    HW234674   0.765   3.065   2.472 -0.3783 -0.4082  0.2619
 7739SOL     OW34675   0.840   4.452   3.246 -0.1163 -0.0310 -0.2180
 7739SOL    HW134676   0.834   4.488   3.158  1.0050  2.2137  0.6227
 7739SOL    HW234677   0.772   4.384   3.240  0.4063 -0.4673 -1.0736
 7740SOL     OW34678   0.581   0.989   6.292 -0.0246 -0.2293 -0.1178
 7740SOL    HW134679   0.585   0.984   6.388  0.8998 -1.1406 -0.2145
 7740SOL    HW234680   0.488   0.976   6.274  0.0713 -1.7195  0.5120
 7741SOL     OW34681   4.599   1.363  10.894 -0.4736 -0.1857  0.8837
 7741SOL    HW134682   4.668   1.362  10.961 -0.6517  0.8038  1.0770
 7741SOL    HW234683   4.595   1.271  10.868 -0.6146  0.0360  0.1415
 7742SOL     OW34684   1.405   2.303   0.897  0.0194 -0.2499 -0.1880
 7742SOL    HW134685   1.437   2.239   0.833 -0.6849 -1.5774  0.8003
 7742SOL    HW234686   1.389   2.248   0.973 -2.4127  0.6048 -0.0699
 7743SOL     OW34687   1.180   1.642  14.966  0.1173  0.1871 -0.6339
 7743SOL    HW134688   1.210   1.720  15.014  1.5663 -1.5417  1.2445
 7743SOL    HW234689   1.238   1.568  14.985  0.3647  0.4547 -0.3428
 7744SOL     OW34690   3.860   4.683  17.638 -0.1705 -0.4197 -0.3079
 7744SOL    HW134691   3.812   0.010   0.015  2.6387 -0.6277  1.8415
 7744SOL    HW234692   3.902   4.614  17.690 -0.3427  0.5154  1.0575
 7745SOL     OW34693   3.159   0.473   1.384  0.4967  0.2356  0.1304
 7745SOL    HW134694   3.149   0.561   1.420  0.6034  0.7378 -1.0753
 7745SOL    HW234695   3.071   0.438   1.371  0.7255 -0.9745  1.9043
 7746SOL     OW34696   0.461   3.265  15.327  0.5495 -0.4268 -0.1064
 7746SOL    HW134697   0.524   3.193  15.332  0.3104 -0.4428  2.5928
 7746SOL    HW234698   0.471   3.318  15.407  0.8299 -0.8051  0.1110
 7747SOL     OW34699   2.766   2.820   8.993 -0.4721 -0.6402 -0.5591
 7747SOL    HW134700   2.692   2.803   9.052 -0.1568  2.1899  0.6531
 7747SOL    HW234701   2.827   2.860   9.055 -0.6396 -0.6819 -0.3673
 7748SOL     OW34702   1.964   0.711   2.503  0.4953  0.1930 -0.0155
 7748SOL    HW134703   2.006   0.718   2.418  0.7632 -0.7905  0.0300
 7748SOL    HW234704   1.871   0.702   2.482  0.6633  2.0727 -1.5489
 7749SOL     OW34705   2.170   0.255   1.798  0.1199 -0.3980 -0.6883
 7749SOL    HW134706   2.101   0.319   1.812  0.1411 -0.5456  0.0865
 7749SOL    HW234707   2.247   0.306   1.772 -1.8859  2.1134 -1.7211
 7750SOL     OW34708   4.649   1.518  16.870 -0.0386  0.0985 -0.1029
 7750SOL    HW134709   4.645   1.607  16.835 -1.8606 -0.4005 -1.1354
 7750SOL    HW234710   4.608   1.463  16.804 -0.4554  1.5989 -1.0899
 7751SOL     OW34711   2.769   3.979   8.577  0.0126 -0.4990 -0.0904
 7751SOL    HW134712   2.719   3.961   8.657  1.9230  2.3028  1.7421
 7751SOL    HW234713   2.756   4.072   8.559 -0.2450 -0.8941 -1.8956
 7752SOL     OW34714   1.534   3.245   4.955 -0.5518 -0.3936  0.0151
 7752SOL    HW134715   1.548   3.173   4.894  0.4115  0.8300 -1.1797
 7752SOL    HW234716   1.539   3.196   5.038 -0.1041  2.1561  1.4907
 7753SOL     OW34717   3.514   3.993   4.051 -0.7847 -0.3189 -0.2023
 7753SOL    HW134718   3.460   3.938   4.108  0.6611  2.0244  3.4521
 7753SOL    HW234719   3.578   4.027   4.114 -0.5409 -0.3245 -0.4496
 7754SOL     OW34720   2.974   3.689  15.450 -0.1467  0.6108 -0.3035
 7754SOL    HW134721   3.047   3.750  15.461 -0.9992  1.4682  0.5807
 7754SOL    HW234722   2.899   3.730  15.493 -0.5861 -1.0825  0.5812
 7755SOL     OW34723   2.899   2.598   2.088 -0.2687  0.3042 -0.8910
 7755SOL    HW134724   2.843   2.539   2.038 -1.0434  1.3938 -1.2972
 7755SOL    HW234725   2.985   2.559   2.073  0.9466  2.5088  0.2797
 7756SOL     OW34726   1.196   1.035   4.965 -0.3178  0.2139  0.7073
 7756SOL    HW134727   1.211   1.040   5.059 -0.4614 -0.5261  0.7672
 7756SOL    HW234728   1.282   1.035   4.925  0.0913  1.7170  1.5960
 7757SOL     OW34729   3.029   2.015   3.050 -0.4097  0.1751  0.6031
 7757SOL    HW134730   3.098   2.042   2.989  0.2343  0.7103  1.5460
 7757SOL    HW234731   2.957   2.043   2.994  0.5376 -1.2564 -1.3144
 7758SOL     OW34732   3.435   0.517  17.061  0.5429  0.1731  0.4276
 7758SOL    HW134733   3.488   0.512  16.982  0.4986  1.6377  0.3060
 7758SOL    HW234734   3.348   0.531  17.022  0.1487 -1.1340  0.8318
 7759SOL     OW34735   2.064   3.940  15.037  0.2879  0.0669  0.0634
 7759SOL    HW134736   2.075   3.847  15.056 -1.2199 -0.7840 -3.2252
 7759SOL    HW234737   2.001   3.941  14.965  2.2841 -1.8683 -1.7062
 7760SOL     OW34738   0.074   1.486   2.636  0.4067 -0.2458 -0.0030
 7760SOL    HW134739   0.146   1.469   2.575 -1.8695  0.3454 -2.8856
 7760SOL    HW234740   0.052   1.574   2.603  0.8584 -0.4428 -0.8312
 7761SOL     OW34741   1.217   0.700   0.533  0.0414  0.2142  0.1483
 7761SOL    HW134742   1.157   0.759   0.578 -0.3227 -0.3335  0.3833
 7761SOL    HW234743   1.286   0.667   0.591 -1.0943 -2.7947 -0.2174
 7762SOL     OW34744   1.980   3.990   3.953  0.3878 -0.0811 -0.1137
 7762SOL    HW134745   1.963   3.964   3.862  0.6597  0.4539 -0.3204
 7762SOL    HW234746   2.051   4.053   3.937 -0.1006  0.2397 -0.9938
 7763SOL     OW34747   1.466   2.683   3.343  0.1988 -1.1068 -0.0390
 7763SOL    HW134748   1.548   2.653   3.384  0.4599 -1.2299 -0.6480
 7763SOL    HW234749   1.495   2.773   3.331 -2.5954 -0.1475  0.6374
 7764SOL     OW34750   1.772   0.284   2.644  0.1185 -0.2653  0.1758
 7764SOL    HW134751   1.861   0.266   2.615 -0.0225 -1.4455  0.4972
 7764SOL    HW234752   1.785   0.246   2.730 -0.9423 -2.1256 -0.4948
 7765SOL     OW34753   2.482   2.460   9.913  0.0754  0.1988  0.4491
 7765SOL    HW134754   2.451   2.370   9.907 -0.2358  0.2567  1.1939
 7765SOL    HW234755   2.433   2.511   9.848 -0.6944  0.3613  1.1584
 7766SOL     OW34756   1.895   1.281   4.783  0.7481  0.1822 -0.3381
 7766SOL    HW134757   1.893   1.344   4.854  0.7913 -1.0796  0.7797
 7766SOL    HW234758   1.887   1.197   4.827  2.6197  0.2254  0.0790
 7767SOL     OW34759   3.340   0.287  17.152 -0.1354  0.4362  0.1628
 7767SOL    HW134760   3.299   0.346  17.215 -2.2828  0.9859 -1.7492
 7767SOL    HW234761   3.406   0.350  17.121 -0.8684  2.0966  1.9436
 7768SOL     OW34762   4.421   4.318   7.666  0.2184  0.1845 -0.7014
 7768SOL    HW134763   4.340   4.340   7.621  0.2526  1.0601 -0.3253
 7768SOL    HW234764   4.410   4.224   7.681 -2.2368  0.5115 -0.4250
 7769SOL     OW34765   0.680   0.482   4.569 -0.2136  0.1364 -0.1608
 7769SOL    HW134766   0.629   0.562   4.554 -0.5186 -0.0355 -0.0461
 7769SOL    HW234767   0.602   0.426   4.572 -0.1149 -0.1061 -1.9885
 7770SOL     OW34768   4.012   4.164   4.297 -0.3331 -0.0436 -0.2337
 7770SOL    HW134769   3.960   4.240   4.326 -0.1078  0.0664 -0.1143
 7770SOL    HW234770   4.071   4.171   4.372  1.8345 -0.1575 -1.9611
 7771SOL     OW34771   1.446   2.120   0.637  0.1114  0.3358  0.2543
 7771SOL    HW134772   1.408   2.033   0.632  0.4951  0.2605 -1.3151
 7771SOL    HW234773   1.445   2.143   0.544 -2.5935 -0.5400  0.0701
 7772SOL     OW34774   3.745   1.896   2.469  0.1152  0.0715 -0.7398
 7772SOL    HW134775   3.825   1.862   2.508  0.8530  1.3868 -1.1041
 7772SOL    HW234776   3.756   1.852   2.385  0.4703  1.6284 -1.5078
 7773SOL     OW34777   0.038   0.663   9.320 -0.0656 -0.4231 -0.2519
 7773SOL    HW134778   0.113   0.611   9.346 -0.5417 -0.6484  0.6743
 7773SOL    HW234779   4.703   0.611   9.263  0.0106 -0.5313 -0.2288
 7774SOL     OW34780   1.278   1.516   1.867  0.5754 -0.0098 -0.3176
 7774SOL    HW134781   1.189   1.521   1.902  0.4604  2.0100 -0.9205
 7774SOL    HW234782   1.299   1.423   1.879 -1.0668 -0.3615 -0.1055
 7775SOL     OW34783   3.083   1.216  15.588  0.2609  0.4480  0.4271
 7775SOL    HW134784   3.159   1.183  15.635  0.2140 -0.8835 -0.3949
 7775SOL    HW234785   3.118   1.214  15.499  0.5934 -0.9594  0.5794
 7776SOL     OW34786   0.927   1.213  14.961  0.3003 -0.0374 -0.1626
 7776SOL    HW134787   0.919   1.241  15.052  1.2868  0.1213 -0.1250
 7776SOL    HW234788   1.007   1.266  14.952 -0.1632  0.8185  0.7281
 7777SOL     OW34789   0.902   3.608  16.496 -0.3183 -0.1489 -0.3565
 7777SOL    HW134790   0.898   3.541  16.428 -2.3535  0.9408 -1.3346
 7777SOL    HW234791   0.917   3.689  16.446 -0.5817  0.0313 -0.1483
 7778SOL     OW34792   1.465   2.956   7.071  0.2395  0.6376  0.3552
 7778SOL    HW134793   1.440   2.981   7.161 -0.1379  1.9515 -0.1157
 7778SOL    HW234794   1.492   2.865   7.083  1.2692  0.6655 -1.8416
 7779SOL     OW34795   3.649   3.420   1.688 -0.5878 -0.5429 -0.0786
 7779SOL    HW134796   3.740   3.450   1.680 -0.7160  0.0036  0.4865
 7779SOL    HW234797   3.613   3.501   1.726  0.4523 -0.6855  1.2227
 7780SOL     OW34798   2.220   3.857  15.368  0.0496  0.6293 -0.3088
 7780SOL    HW134799   2.230   3.933  15.311  0.7483 -1.0688 -2.4390
 7780SOL    HW234800   2.295   3.803  15.344  0.1936  0.2770  0.9364
 7781SOL     OW34801   2.506   3.007  16.839 -0.7159  0.5804 -0.3842
 7781SOL    HW134802   2.423   2.987  16.882  0.5410 -1.1572  1.1939
 7781SOL    HW234803   2.568   2.975  16.904  1.3611  2.8756 -1.2640
 7782SOL     OW34804   0.767   3.356   7.816  0.6273  0.3264  0.0202
 7782SOL    HW134805   0.794   3.447   7.821 -0.1584  0.6156 -1.1188
 7782SOL    HW234806   0.775   3.327   7.907 -2.8302 -0.9974 -0.0773
 7783SOL     OW34807   3.324   0.576   0.554 -0.3837  0.3161  0.2598
 7783SOL    HW134808   3.266   0.632   0.503 -1.5548 -0.6435  0.5075
 7783SOL    HW234809   3.267   0.540   0.623  0.8229 -1.8566  0.1288
 7784SOL     OW34810   4.310   3.886   5.601 -0.0713 -0.2854  0.2618
 7784SOL    HW134811   4.282   3.849   5.516 -0.0978 -0.0146  0.1528
 7784SOL    HW234812   4.356   3.820   5.652 -2.6647 -2.4087 -0.1256
 7785SOL     OW34813   4.552   3.275   0.933  0.0034  0.6215  0.3698
 7785SOL    HW134814   4.568   3.202   0.993  1.3457 -0.5030 -1.3308
 7785SOL    HW234815   4.597   3.248   0.853 -0.1671 -0.6589  0.7048
 7786SOL     OW34816   0.456   0.102   3.834 -0.4332  0.0639  0.6935
 7786SOL    HW134817   0.544   0.123   3.803 -0.9370  0.9017 -0.1765
 7786SOL    HW234818   0.410   0.178   3.797 -2.2568 -0.4308  1.9833
 7787SOL     OW34819   0.064   0.539   8.809 -0.0367  0.2945 -0.1625
 7787SOL    HW134820   0.078   0.485   8.731 -2.9962  2.4041 -2.1512
 7787SOL    HW234821   0.113   0.489   8.875 -1.0010  0.1126  0.4067
 7788SOL     OW34822   4.231   1.960   4.412 -0.5006 -0.1610 -0.0368
 7788SOL    HW134823   4.138   1.983   4.407 -0.8324 -1.9312 -2.0457
 7788SOL    HW234824   4.226   1.865   4.421 -0.9427 -0.0450  0.9971
 7789SOL     OW34825   0.857   0.145   6.763  0.5746 -0.0570 -0.0966
 7789SOL    HW134826   0.885   0.131   6.672 -1.2115 -0.1174 -0.6403
 7789SOL    HW234827   0.898   0.231   6.768  0.9308 -0.2398  0.0737
 7790SOL     OW34828   1.112   3.711   1.495  0.2582 -0.3047 -0.4077
 7790SOL    HW134829   1.173   3.638   1.509  0.5308  0.2617  1.3166
 7790SOL    HW234830   1.067   3.680   1.416 -0.4715 -0.1058 -0.0700
 7791SOL     OW34831   2.529   2.315   7.121  0.0804 -1.0036 -0.2157
 7791SOL    HW134832   2.434   2.302   7.126 -0.2863  1.7284  0.2677
 7791SOL    HW234833   2.534   2.404   7.085 -1.8323 -1.1682 -0.9249
 7792SOL     OW34834   3.067   1.737   2.721 -0.0538 -0.0776 -0.4371
 7792SOL    HW134835   3.056   1.787   2.641 -3.9726  0.9110  0.7527
 7792SOL    HW234836   3.154   1.769   2.745 -0.1655  1.2613 -1.8286
 7793SOL     OW34837   3.087   2.518   1.441  0.1265  0.4517 -0.0469
 7793SOL    HW134838   3.027   2.573   1.391  0.1836  0.0083 -0.6087
 7793SOL    HW234839   3.039   2.485   1.517  2.1684 -1.7197  0.3120
 7794SOL     OW34840   1.035   0.685   3.349  0.5452 -0.2793 -0.0652
 7794SOL    HW134841   1.080   0.601   3.357 -0.2097 -0.5479  1.3553
 7794SOL    HW234842   1.107   0.748   3.346  2.3346 -2.3064  0.6523
 7795SOL     OW34843   0.599   2.743   5.808  0.1358 -0.3979  0.3216
 7795SOL    HW134844   0.666   2.719   5.744  0.4154 -0.5881  0.6775
 7795SOL    HW234845   0.629   2.829   5.838 -2.6037  0.3770  0.8279
 7796SOL     OW34846   4.174   4.238   2.578 -0.2597 -0.1946  0.3224
 7796SOL    HW134847   4.099   4.215   2.523 -0.7687  0.9823  0.5268
 7796SOL    HW234848   4.146   4.192   2.657 -0.7097  0.0558  0.3054
 7797SOL     OW34849   2.508   2.312   4.496  0.1577 -0.3780  0.3243
 7797SOL    HW134850   2.485   2.394   4.541 -2.5212 -0.2193 -1.2936
 7797SOL    HW234851   2.586   2.349   4.455  0.3392  0.9269  1.8514
 7798SOL     OW34852   0.415   4.352   8.090 -0.6471  0.0679 -0.4237
 7798SOL    HW134853   0.398   4.370   8.183  1.7710  0.5172 -0.0827
 7798SOL    HW234854   0.348   4.406   8.048  1.0068  1.4294 -1.2886
 7799SOL     OW34855   0.731   1.317   4.115  0.2830  0.5954 -0.0216
 7799SOL    HW134856   0.675   1.388   4.148  0.8633 -0.9810  4.2887
 7799SOL    HW234857   0.799   1.368   4.071  0.8151  1.9148  2.3117
 7800SOL     OW34858   2.030   3.992   2.833  0.4951  0.2721 -0.3555
 7800SOL    HW134859   2.042   3.985   2.739  0.0443  0.0305 -0.3931
 7800SOL    HW234860   1.969   4.066   2.836 -0.4008 -0.4889  0.3344
 7801SOL     OW34861   0.991   4.053   5.496  0.6297  0.2815 -0.2169
 7801SOL    HW134862   0.955   4.065   5.408  1.9016  0.3428 -0.7343
 7801SOL    HW234863   1.066   4.112   5.495  0.9782 -0.1783 -1.0438
 7802SOL     OW34864   2.477   4.480   7.522 -0.1342 -0.0097  0.1836
 7802SOL    HW134865   2.442   4.392   7.507 -1.7367  0.4544  1.2289
 7802SOL    HW234866   2.554   4.471   7.577 -0.0656 -0.2965  0.0460
 7803SOL     OW34867   1.468   0.857  17.578  0.2423 -0.0747 -0.1925
 7803SOL    HW134868   1.413   0.897  17.511 -0.2290 -1.6508 -0.7571
 7803SOL    HW234869   1.545   0.914  17.570 -0.0613  0.3267 -0.2199
 7804SOL     OW34870   0.937   4.505   4.397 -0.1574 -0.3318  0.2802
 7804SOL    HW134871   0.931   4.411   4.384  3.3031 -0.6363  0.7645
 7804SOL    HW234872   0.911   4.542   4.312 -4.5648  0.8510  2.1375
 7805SOL     OW34873   1.090   3.330   5.040  0.4272  0.4103  0.1406
 7805SOL    HW134874   1.103   3.421   5.069  0.6557  0.9998 -1.7603
 7805SOL    HW234875   0.998   3.321   5.064  0.3653  2.9023  0.8714
 7806SOL     OW34876   0.745   0.907  11.439 -0.6239 -0.6361 -0.4564
 7806SOL    HW134877   0.659   0.882  11.406 -1.1062  1.4481 -0.7696
 7806SOL    HW234878   0.787   0.957  11.368  1.1711  1.3137  1.9625
 7807SOL     OW34879   0.628   0.108  14.737  0.2233 -0.4734  0.2463
 7807SOL    HW134880   0.544   0.141  14.768 -0.2796 -0.8632 -0.6899
 7807SOL    HW234881   0.677   0.125  14.818  1.1397 -0.6878 -0.2612
 7808SOL     OW34882   1.629   2.658  13.066 -0.4095  0.1682  0.6132
 7808SOL    HW134883   1.680   2.701  13.134  1.2925 -0.7226 -0.1150
 7808SOL    HW234884   1.602   2.578  13.110 -0.0664 -0.8820 -1.0736
 7809SOL     OW34885   4.247   4.556  13.385  0.7190 -0.0536 -0.1538
 7809SOL    HW134886   4.330   4.582  13.345  0.7912  0.0324  0.0521
 7809SOL    HW234887   4.188   4.619  13.344  1.0376  1.0439  1.0622
 7810SOL     OW34888   1.061   2.189  11.661 -0.3454  0.2422  0.1825
 7810SOL    HW134889   1.132   2.243  11.695 -0.3304  0.5419 -0.3288
 7810SOL    HW234890   1.076   2.207  11.568  0.7764 -0.3305  0.2581
 7811SOL     OW34891   1.632   1.741   9.416 -0.1993  0.2879 -0.0834
 7811SOL    HW134892   1.572   1.814   9.432  1.1859  0.8140  2.7327
 7811SOL    HW234893   1.714   1.778   9.383 -0.5881  0.6858 -0.6054
 7812SOL     OW34894   4.452   1.127   5.165  0.6177 -0.2538  0.1611
 7812SOL    HW134895   4.383   1.083   5.114  1.4420  0.6048 -1.7145
 7812SOL    HW234896   4.397   1.194   5.204 -1.3969 -1.5546 -0.4441
 7813SOL     OW34897   0.684   0.567   2.791  0.0934 -0.1686  0.2274
 7813SOL    HW134898   0.627   0.538   2.720  1.8784  0.5666 -1.5126
 7813SOL    HW234899   0.645   0.517   2.862 -0.5794  1.2583  0.8707
 7814SOL     OW34900   0.953   1.454   1.954  0.1573 -0.1766 -0.2912
 7814SOL    HW134901   1.004   1.377   1.982 -0.1520  0.3197  1.6027
 7814SOL    HW234902   0.860   1.438   1.969  0.6783 -1.4959  1.5987
 7815SOL     OW34903   3.349   0.431  10.799 -0.1024  0.2752 -0.2302
 7815SOL    HW134904   3.372   0.521  10.823  0.4317 -0.0752  0.5598
 7815SOL    HW234905   3.258   0.449  10.773 -0.9079  0.0928  2.3819
 7816SOL     OW34906   0.968   4.704   6.236  0.3565 -0.0685 -0.0202
 7816SOL    HW134907   0.998   4.694   6.146  1.5341 -0.5053  0.4193
 7816SOL    HW234908   0.874   4.715   6.222  0.3717  2.1638  1.4777
 7817SOL     OW34909   0.603   0.764   8.983 -0.3155 -0.5145 -0.0863
 7817SOL    HW134910   0.688   0.723   8.999  0.3245  0.7537 -0.2194
 7817SOL    HW234911   0.594   0.832   9.050  1.8573 -0.1645 -0.1464
 7818SOL     OW34912   4.192   1.406  16.525  0.5572 -0.6557  0.2905
 7818SOL    HW134913   4.237   1.354  16.592  2.8092 -0.6910 -1.2649
 7818SOL    HW234914   4.137   1.340  16.484 -1.8831  1.0120  0.8241
 7819SOL     OW34915   0.239   2.079   6.229  0.7518  0.1231  0.0466
 7819SOL    HW134916   0.227   2.099   6.136 -0.9419 -0.2866  0.1690
 7819SOL    HW234917   0.334   2.091   6.230  0.9013 -1.1815  2.5132
 7820SOL     OW34918   2.653   3.313   7.431 -0.0584  0.3837  0.0618
 7820SOL    HW134919   2.564   3.312   7.466  0.3256  0.2180  1.0333
 7820SOL    HW234920   2.699   3.234   7.461  1.8999  1.8118  0.8321
 7821SOL     OW34921   2.402   3.516   1.647  0.0024  0.1634  0.0030
 7821SOL    HW134922   2.427   3.473   1.566  0.1313 -0.5533  0.4223
 7821SOL    HW234923   2.308   3.501   1.650  0.0333  0.0439  0.4018
 7822SOL     OW34924   0.797   4.584   4.625  0.0709  0.1055  0.2539
 7822SOL    HW134925   0.716   4.566   4.578 -0.0097  1.3905 -0.0989
 7822SOL    HW234926   0.858   4.579   4.551 -0.0063  1.9889  0.0735
 7823SOL     OW34927   1.246   2.744   7.547  0.0056  0.2367  0.2928
 7823SOL    HW134928   1.171   2.694   7.581 -0.6365  1.9528  1.3815
 7823SOL    HW234929   1.273   2.789   7.626  0.8287 -0.4543  0.3998
 7824SOL     OW34930   1.239   0.390   1.718 -0.2646  0.1553  0.4798
 7824SOL    HW134931   1.320   0.354   1.756 -1.2725 -0.7702  1.7496
 7824SOL    HW234932   1.267   0.413   1.630  2.3206 -0.1486  1.2069
 7825SOL     OW34933   0.657   3.363  10.388  0.2530 -0.5525  0.0693
 7825SOL    HW134934   0.702   3.444  10.412  0.2537 -0.8502  1.0813
 7825SOL    HW234935   0.667   3.307  10.465  1.3882 -2.3848 -1.4365
 7826SOL     OW34936   1.467   2.371   1.961 -0.0415  0.2662 -0.2283
 7826SOL    HW134937   1.449   2.309   2.031 -0.2660  1.1824  0.5279
 7826SOL    HW234938   1.562   2.369   1.960 -0.0667  0.0131 -1.9877
 7827SOL     OW34939   0.796   2.151   2.539  0.0005  0.1950  0.1323
 7827SOL    HW134940   0.828   2.179   2.624 -2.1201  0.7310  0.7354
 7827SOL    HW234941   0.703   2.173   2.546  0.2244  1.0627  0.2965
 7828SOL     OW34942   2.068   3.372  17.298 -0.0467  0.7553 -0.1582
 7828SOL    HW134943   2.059   3.406  17.209  0.9217  1.0793 -0.1390
 7828SOL    HW234944   2.123   3.297  17.274  0.8643  1.8574 -1.5490
 7829SOL     OW34945   2.319   3.608   2.298  0.0094 -0.4232  0.2153
 7829SOL    HW134946   2.396   3.561   2.266  0.1648  0.2371 -0.3774
 7829SOL    HW234947   2.252   3.541   2.312 -0.2522 -0.4833 -1.2390
 7830SOL     OW34948   3.290   1.083  16.971  0.4477 -0.6667  0.0956
 7830SOL    HW134949   3.372   1.100  17.017  0.8249 -0.2507 -0.7332
 7830SOL    HW234950   3.244   1.164  16.995  0.3636 -0.5577 -0.4291
 7831SOL     OW34951   1.420   0.110   6.170 -0.2489 -0.3384 -0.8186
 7831SOL    HW134952   1.413   0.047   6.099  0.6446  0.1073 -1.3064
 7831SOL    HW234953   1.497   0.163   6.146  0.9690 -3.3675 -3.4988
 7832SOL     OW34954   2.035   1.389   1.564  0.6990 -0.5328  0.5034
 7832SOL    HW134955   2.049   1.306   1.611  0.5306 -1.7553 -1.6135
 7832SOL    HW234956   2.021   1.347   1.479  1.4799 -2.1985  1.1888
 7833SOL     OW34957   1.303   4.573   2.662 -0.3354 -0.0065 -0.6286
 7833SOL    HW134958   1.387   4.527   2.658 -0.1133  0.2843  0.6875
 7833SOL    HW234959   1.325   4.666   2.670 -0.6334 -0.1849  2.2536
 7834SOL     OW34960   0.020   2.104   1.837 -0.1392  0.1340  0.0705
 7834SOL    HW134961   4.708   2.191   1.858  1.8664  1.0440 -0.4578
 7834SOL    HW234962   0.099   2.105   1.892 -0.2006 -1.4872  0.2089
 7835SOL     OW34963   0.421   3.445   9.484 -0.3283 -0.3783  0.0975
 7835SOL    HW134964   0.385   3.523   9.439 -0.9089  0.1593  1.4978
 7835SOL    HW234965   0.348   3.425   9.543  0.0287 -0.2156  0.5893
 7836SOL     OW34966   0.281   1.701   5.050 -0.0055 -0.4101  0.1300
 7836SOL    HW134967   0.253   1.685   5.140  0.3673  1.0649  0.5143
 7836SOL    HW234968   0.200   1.683   5.003 -0.1261 -0.3348  0.3113
 7837SOL     OW34969   4.352   4.640   5.042  0.2456  0.6663 -0.6789
 7837SOL    HW134970   4.257   4.642   5.040  0.2344  2.9811  1.6984
 7837SOL    HW234971   4.377   4.547   5.044  2.4499  1.2571 -1.0501
 7838SOL     OW34972   1.637   4.000  11.854 -0.1625 -0.4468 -0.2942
 7838SOL    HW134973   1.561   3.942  11.855 -0.7630  0.3454  1.9380
 7838SOL    HW234974   1.589   4.083  11.862  0.3320  0.0900 -3.1241
 7839SOL     OW34975   0.847   1.882   2.407 -0.4199 -0.4650 -0.5038
 7839SOL    HW134976   0.823   1.884   2.314  0.0515 -0.1256 -0.6180
 7839SOL    HW234977   0.808   1.959   2.447 -3.1156 -1.0286 -2.0562
 7840SOL     OW34978   1.818   1.583  11.754 -0.0670 -0.1116  0.0050
 7840SOL    HW134979   1.813   1.489  11.737 -1.3274  0.1025 -0.8514
 7840SOL    HW234980   1.911   1.574  11.776 -0.5217 -2.7065  0.8828
 7841SOL     OW34981   3.749   2.582   8.798 -0.3496 -0.3506 -0.4179
 7841SOL    HW134982   3.761   2.510   8.736 -2.7093 -0.6400 -0.5651
 7841SOL    HW234983   3.789   2.548   8.878  0.6533  0.2490 -0.6709
 7842SOL     OW34984   1.750   1.400   7.604  0.1706 -0.6271  0.2860
 7842SOL    HW134985   1.679   1.341   7.627  1.1779 -0.9077  2.6167
 7842SOL    HW234986   1.822   1.360   7.653 -0.0618  0.2928  1.3659
 7843SOL     OW34987   4.083   0.711   7.702  0.4779 -0.4900  0.1155
 7843SOL    HW134988   4.090   0.655   7.625 -1.4753 -1.4250  0.6165
 7843SOL    HW234989   4.168   0.756   7.699  1.1103 -1.7380 -0.9057
 7844SOL     OW34990   2.759   1.516   2.826  0.3827  0.0719  0.4808
 7844SOL    HW134991   2.714   1.480   2.750 -1.9572 -0.3484  2.0564
 7844SOL    HW234992   2.737   1.610   2.826  1.5402  0.3433  0.4961
 7845SOL     OW34993   1.538   2.938   5.746  0.0643  0.7395 -0.1228
 7845SOL    HW134994   1.464   2.968   5.800 -2.3515  0.3790 -3.2252
 7845SOL    HW234995   1.515   2.988   5.668 -2.0340 -0.0335 -0.0175
 7846SOL     OW34996   4.494   2.294   4.488 -0.1772 -0.3506  0.4728
 7846SOL    HW134997   4.542   2.345   4.553 -1.4209  0.2483  0.9157
 7846SOL    HW234998   4.459   2.368   4.438 -1.4501 -1.1348  0.1976
 7847SOL     OW34999   3.391   2.298   2.057  0.5175  0.3633  0.0934
 7847SOL    HW135000   3.428   2.383   2.080  2.2873 -0.4889  0.3528
 7847SOL    HW235001   3.468   2.244   2.072 -0.3577 -1.1389 -0.8432
 7848SOL     OW35002   4.674   1.444   3.830  0.1653  0.5415  0.0887
 7848SOL    HW135003   4.594   1.493   3.845 -0.6218 -0.1974 -1.6656
 7848SOL    HW235004   0.013   1.517   3.838  1.1184  0.0526 -2.6854
 7849SOL     OW35005   3.999   4.325  16.666  0.0329  0.0971 -0.5185
 7849SOL    HW135006   4.035   4.339  16.754  1.6482  1.0201 -1.3386
 7849SOL    HW235007   3.976   4.414  16.636 -0.4986  0.0626 -0.2216
 7850SOL     OW35008   0.391   3.999   2.620  0.1275 -0.0481 -0.0589
 7850SOL    HW135009   0.459   4.045   2.570 -0.3741  1.7464  0.9260
 7850SOL    HW235010   0.315   4.005   2.561  0.2045  2.8379  0.1450
 7851SOL     OW35011   2.148   0.521   3.716 -0.1258  0.1005  0.8784
 7851SOL    HW135012   2.077   0.506   3.778  0.2240  1.5142  1.6091
 7851SOL    HW235013   2.194   0.437   3.711  0.3685  0.4636 -0.5931
 7852SOL     OW35014   4.427   1.835   8.503  0.0465 -0.3381  0.0185
 7852SOL    HW135015   4.499   1.898   8.498 -1.6764  1.7249  0.7605
 7852SOL    HW235016   4.455   1.787   8.581  0.7805 -0.0953 -0.0946
 7853SOL     OW35017   4.461   3.484   2.456  0.8150  0.1693  0.0230
 7853SOL    HW135018   4.457   3.395   2.492 -1.3426  0.9505  1.7148
 7853SOL    HW235019   4.504   3.453   2.376  0.4168  1.9410 -0.8649
 7854SOL     OW35020   0.705   3.021   0.060  0.0155 -0.1103  0.3347
 7854SOL    HW135021   0.765   3.080   0.106  0.2620  0.0308 -0.1667
 7854SOL    HW235022   0.636   3.000   0.123 -0.7695  1.1506 -0.0868
 7855SOL     OW35023   3.033   2.333   5.438  0.2192  0.4099  0.5355
 7855SOL    HW135024   3.039   2.319   5.533  1.6885  0.8298  0.5136
 7855SOL    HW235025   3.125   2.338   5.413 -0.4147  0.6734 -1.7400
 7856SOL     OW35026   3.287   0.386   3.940  0.6877 -0.6517  0.2558
 7856SOL    HW135027   3.247   0.413   4.023 -0.0725  1.3420 -0.7517
 7856SOL    HW235028   3.376   0.420   3.940 -0.0188  1.2375 -0.6532
 7857SOL     OW35029   4.277   2.667  16.886  0.1425 -0.0719  0.1921
 7857SOL    HW135030   4.204   2.723  16.913 -0.3769 -1.9269  2.6479
 7857SOL    HW235031   4.226   2.598  16.844 -0.7503  0.5127  0.2948
 7858SOL     OW35032   2.759   4.399  16.232 -0.7673 -0.5842  0.0766
 7858SOL    HW135033   2.753   4.437  16.320 -1.7161  2.2353 -1.1968
 7858SOL    HW235034   2.697   4.465  16.200  2.7064  1.8722 -1.5309
 7859SOL     OW35035   4.455   1.133   7.607  0.0839  0.3131  1.0456
 7859SOL    HW135036   4.360   1.125   7.617 -0.2526  1.6319 -0.9936
 7859SOL    HW235037   4.483   1.062   7.549  1.1714  2.1905 -0.7242
 7860SOL     OW35038   4.182   1.278   4.803  0.2917  0.1602 -0.4165
 7860SOL    HW135039   4.219   1.366   4.798  0.8768 -0.1370 -1.3207
 7860SOL    HW235040   4.183   1.260   4.897 -0.0180 -0.2035 -0.4806
 7861SOL     OW35041   0.340   4.213   6.786 -0.3980 -0.8799 -0.0944
 7861SOL    HW135042   0.274   4.274   6.819  0.2943 -1.2487  1.9278
 7861SOL    HW235043   0.414   4.261   6.824 -0.5218 -0.6098 -0.1878
 7862SOL     OW35044   0.715   2.635   5.581 -0.1502 -0.1204  0.0882
 7862SOL    HW135045   0.760   2.716   5.556 -0.2573  0.5956  2.1477
 7862SOL    HW235046   0.706   2.596   5.495 -1.2362 -1.6267  0.8902
 7863SOL     OW35047   4.466   0.006   1.873  0.1647 -0.1878 -0.4430
 7863SOL    HW135048   4.560   0.020   1.889  0.4205  0.6446 -2.6516
 7863SOL    HW235049   4.447   0.093   1.837  1.7970  0.0767 -0.7072
 7864SOL     OW35050   0.794   1.873   8.898 -0.0226  0.0830  1.2771
 7864SOL    HW135051   0.783   1.787   8.858 -1.9468  0.1727  1.6244
 7864SOL    HW235052   0.862   1.907   8.839 -0.9782 -0.3307 -0.0436
 7865SOL     OW35053   4.322   4.629   0.082 -0.5236  0.0155  0.4337
 7865SOL    HW135054   4.329   4.651  17.680  1.7058 -0.9466  0.3733
 7865SOL    HW235055   4.347   4.714   0.118 -0.1236  1.1380 -2.5374
 7866SOL     OW35056   2.880   1.664  10.892  0.4006 -0.0108  0.1464
 7866SOL    HW135057   2.906   1.755  10.877  2.0194 -0.7947 -1.7723
 7866SOL    HW235058   2.920   1.632  10.973 -0.9654 -2.3142 -0.0857
 7867SOL     OW35059   4.653   0.356   7.039 -0.1413 -0.2623 -0.1769
 7867SOL    HW135060   4.708   0.326   6.966 -1.7194 -1.6487 -0.7987
 7867SOL    HW235061   4.667   0.292   7.108  2.9100  1.1203  0.4957
 7868SOL     OW35062   2.677   4.008   5.037 -0.4815  0.4736 -0.0229
 7868SOL    HW135063   2.750   4.022   4.977  0.5643 -0.2516  1.0799
 7868SOL    HW235064   2.611   4.013   4.968 -1.1071  0.6572  0.6005
 7869SOL     OW35065   1.415   1.088   9.366  0.2745 -0.2042  0.5739
 7869SOL    HW135066   1.404   1.155   9.433 -1.3219 -0.2868  0.3969
 7869SOL    HW235067   1.365   1.128   9.296 -0.0313  0.5764  1.2432
 7870SOL     OW35068   4.251   1.629   6.026 -0.8074 -0.8479  0.1273
 7870SOL    HW135069   4.202   1.681   6.089  0.0329  1.3506 -1.0359
 7870SOL    HW235070   4.224   1.539   6.047 -1.8366 -0.4840  0.3369
 7871SOL     OW35071   1.167   3.759   0.306 -0.1222  0.4407 -0.3080
 7871SOL    HW135072   1.190   3.845   0.272 -2.3262  0.4664 -1.7842
 7871SOL    HW235073   1.158   3.719   0.219  0.9370  2.1197 -1.1756
 7872SOL     OW35074   3.482   3.968   4.893  0.1221  0.3166  0.2050
 7872SOL    HW135075   3.396   4.000   4.865 -1.3130 -2.5157  1.4377
 7872SOL    HW235076   3.499   4.012   4.976 -0.9562  0.1553  0.5071
 7873SOL     OW35077   1.478   1.731  15.569 -0.5403  0.0607  0.4828
 7873SOL    HW135078   1.458   1.806  15.625  0.9151 -1.4716  3.0793
 7873SOL    HW235079   1.472   1.778  15.486  1.4791 -0.7500 -0.1208
 7874SOL     OW35080   0.137   3.309   9.916 -0.6049  0.5601  0.0460
 7874SOL    HW135081   0.137   3.219   9.951  2.1634  0.9951  1.2558
 7874SOL    HW235082   0.195   3.345   9.983  0.3311  2.0511 -1.5932
 7875SOL     OW35083   3.511   0.641   8.791  0.6834  0.1709  0.4078
 7875SOL    HW135084   3.604   0.661   8.806  0.9575 -1.4397  0.8391
 7875SOL    HW235085   3.485   0.654   8.882  2.4239 -0.9223  1.0610
 7876SOL     OW35086   2.018   4.554  16.635  0.4642 -0.2812  0.1208
 7876SOL    HW135087   1.970   4.633  16.611  0.7783 -0.1794 -0.1614
 7876SOL    HW235088   2.096   4.592  16.676  0.5459  1.8892 -2.1113
 7877SOL     OW35089   4.321   2.504   7.323 -0.2719 -0.2814 -0.1580
 7877SOL    HW135090   4.396   2.453   7.353  0.0718 -0.5452 -1.4619
 7877SOL    HW235091   4.358   2.541   7.243 -1.2674 -1.3815 -1.1250
 7878SOL     OW35092   3.052   0.178   5.287 -0.0669  0.4819 -0.5176
 7878SOL    HW135093   2.975   0.218   5.329 -0.8731 -0.4500 -1.1095
 7878SOL    HW235094   3.057   0.105   5.349  0.9474  2.4367  1.7084
 7879SOL     OW35095   1.289   2.094   1.050  0.2027 -0.5294 -0.2767
 7879SOL    HW135096   1.271   2.137   1.134  2.6938 -1.3007  0.6234
 7879SOL    HW235097   1.203   2.062   1.024 -0.1650 -0.0062  0.2735
 7880SOL     OW35098   2.788   0.731  16.703  0.2263 -0.5431 -0.4669
 7880SOL    HW135099   2.736   0.811  16.709 -0.5861 -1.1993  1.3414
 7880SOL    HW235100   2.719   0.668  16.678  0.2642 -1.4228  1.6119
 7881SOL     OW35101   1.570   1.765  15.122  0.8909 -0.0796 -0.1807
 7881SOL    HW135102   1.494   1.806  15.162  1.3394 -0.8819  1.4945
 7881SOL    HW235103   1.621   1.729  15.195  0.5321  1.7571  0.9720
 7882SOL     OW35104   4.119   2.975  11.404 -0.2249  0.1140  0.0822
 7882SOL    HW135105   4.140   2.882  11.411 -0.8597 -0.0818 -0.6354
 7882SOL    HW235106   4.205   3.016  11.411  0.3719 -1.7206  3.2513
 7883SOL     OW35107   3.160   3.675   5.540  0.0028 -0.0015  0.0471
 7883SOL    HW135108   3.156   3.653   5.633 -0.8567 -0.0785 -0.0093
 7883SOL    HW235109   3.114   3.759   5.542 -1.3469 -0.7340 -0.1153
 7884SOL     OW35110   3.311   3.544  16.776  0.0289 -0.4956 -0.8468
 7884SOL    HW135111   3.381   3.480  16.784 -1.4269 -1.8693  0.7896
 7884SOL    HW235112   3.329   3.577  16.688 -0.6260  1.1248 -0.3691
 7885SOL     OW35113   3.606   2.116   8.635 -0.2624  0.2351 -0.2011
 7885SOL    HW135114   3.596   2.189   8.574 -3.3461  0.7661  0.9115
 7885SOL    HW235115   3.701   2.109   8.632 -0.2011  1.7803 -1.9320
 7886SOL     OW35116   0.910   4.681  14.793  0.2223 -0.1386 -0.2023
 7886SOL    HW135117   0.938   4.619  14.860 -2.4151  1.0019  1.9830
 7886SOL    HW235118   0.887   0.029  14.854  1.8272 -0.1481  0.4205
 7887SOL     OW35119   1.635   4.533   7.957 -0.2279  0.7115  0.5634
 7887SOL    HW135120   1.685   4.604   7.917  0.4993 -0.0824  0.0686
 7887SOL    HW235121   1.552   4.574   7.981 -0.5950  1.0376 -1.2149
 7888SOL     OW35122   3.388   2.986   1.590 -0.3325 -0.7097 -0.0787
 7888SOL    HW135123   3.461   2.924   1.585  1.9160  2.0463 -1.5039
 7888SOL    HW235124   3.440   3.065   1.606 -3.6679  1.3849  0.3823
 7889SOL     OW35125   1.949   4.047   9.008  0.4303 -0.1389 -0.4366
 7889SOL    HW135126   1.972   4.021   9.097  2.2099  2.9896 -0.0000
 7889SOL    HW235127   1.974   4.140   9.004  2.1066 -0.6498 -2.0215
 7890SOL     OW35128   4.453   0.912   9.341 -0.1760 -0.8731  0.6677
 7890SOL    HW135129   4.399   0.865   9.277  0.4034 -1.2222  0.4269
 7890SOL    HW235130   4.482   0.841   9.398  0.8459  1.1857  2.6818
 7891SOL     OW35131   3.991   3.832   5.270  0.3327  0.0891  0.2183
 7891SOL    HW135132   3.934   3.891   5.319  0.2060 -2.4730  3.1615
 7891SOL    HW235133   3.934   3.767   5.228 -0.3044  0.7036  0.1412
 7892SOL     OW35134   1.404   1.089   4.784 -0.6152  0.5510 -0.1470
 7892SOL    HW135135   1.441   1.024   4.844 -1.0648  2.1458  1.8485
 7892SOL    HW235136   1.481   1.138   4.756  0.4852  1.0168  3.7369
 7893SOL     OW35137   3.323   4.541   1.992  0.1368  0.1782  0.0488
 7893SOL    HW135138   3.335   4.502   1.905  1.2125 -1.2858  0.8666
 7893SOL    HW235139   3.251   4.489   2.026  1.7899 -1.7361  0.5756
 7894SOL     OW35140   1.112   3.703   6.718 -0.1887  0.1748  0.5804
 7894SOL    HW135141   1.193   3.677   6.763  0.4600  0.3483 -0.4815
 7894SOL    HW235142   1.139   3.702   6.627 -0.1091  2.1103  0.5767
 7895SOL     OW35143   1.806   1.093   8.291 -0.1512  0.2630 -0.5957
 7895SOL    HW135144   1.887   1.137   8.266  0.3557 -0.2814  0.0705
 7895SOL    HW235145   1.741   1.161   8.306 -0.8676 -0.6663  0.5268
 7896SOL     OW35146   4.405   2.463   9.855  0.9358  0.4054  0.7542
 7896SOL    HW135147   4.474   2.422   9.906 -0.7311 -2.5379  0.6237
 7896SOL    HW235148   4.451   2.507   9.783  0.7599  1.0661  1.0388
 7897SOL     OW35149   0.167   2.775   4.216  0.0338  0.5291 -0.7993
 7897SOL    HW135150   0.188   2.718   4.290 -0.7481  2.2369  0.7099
 7897SOL    HW235151   0.088   2.823   4.240 -1.5806 -2.5070  0.0966
 7898SOL     OW35152   0.768   3.265   8.061  0.3892  0.2398 -0.0302
 7898SOL    HW135153   0.838   3.284   8.123  0.2799  0.6171 -0.0248
 7898SOL    HW235154   0.701   3.233   8.122  0.9832 -1.8036 -0.4293
 7899SOL     OW35155   0.417   4.368   5.762 -0.4572 -0.6708  0.8890
 7899SOL    HW135156   0.422   4.453   5.719 -2.1751 -1.0174  0.0291
 7899SOL    HW235157   0.360   4.310   5.712 -3.6377  1.7559  1.7000
 7900SOL     OW35158   0.061   0.410   1.804  0.5990  0.8842 -0.1667
 7900SOL    HW135159   4.718   0.480   1.808 -0.0086  0.3553 -0.8693
 7900SOL    HW235160   0.138   0.464   1.783  0.0429  1.5712 -0.4431
 7901SOL     OW35161   3.119   4.048   8.953  0.1256  0.0536 -0.1338
 7901SOL    HW135162   3.093   4.001   8.873 -0.6603 -0.6882  0.5659
 7901SOL    HW235163   3.048   4.018   9.009 -1.8484  1.5217 -1.8589
 7902SOL     OW35164   2.641   2.712   8.573 -0.2537 -0.1988  0.1945
 7902SOL    HW135165   2.707   2.677   8.514  0.1318 -0.0312  0.5229
 7902SOL    HW235166   2.555   2.682   8.543 -0.3215 -0.1310  0.3177
 7903SOL     OW35167   3.059   1.880   5.819  0.1429 -0.7128 -0.1976
 7903SOL    HW135168   3.083   1.942   5.888  0.1421  0.8613 -1.5907
 7903SOL    HW235169   2.985   1.839   5.863 -1.2454  1.9275 -0.0714
 7904SOL     OW35170   2.347   3.879   2.044  0.5786  0.0186  0.2427
 7904SOL    HW135171   2.378   3.842   1.961 -0.6956  0.7804 -0.5721
 7904SOL    HW235172   2.437   3.903   2.065  0.6153 -1.2214  1.5442
 7905SOL     OW35173   1.734   3.367  14.636  0.3676 -0.0615  0.5697
 7905SOL    HW135174   1.828   3.353  14.644  0.5416  0.2758 -0.9520
 7905SOL    HW235175   1.732   3.459  14.610  1.8238 -0.3882 -0.6892
 7906SOL     OW35176   2.791   2.954   4.386 -0.5740 -0.3184 -0.5061
 7906SOL    HW135177   2.873   3.003   4.385 -3.0419  3.7786 -0.0154
 7906SOL    HW235178   2.742   3.012   4.329  1.2885  0.4740 -1.3057
 7907SOL     OW35179   3.147   3.948  17.236 -0.6448  0.1854 -0.1028
 7907SOL    HW135180   3.213   4.015  17.253 -0.8272  0.1026  0.8851
 7907SOL    HW235181   3.075   4.002  17.204 -2.0898 -2.4618 -1.3192
 7908SOL     OW35182   4.404   4.138   8.105  0.3590  0.6767 -0.5277
 7908SOL    HW135183   4.381   4.174   8.190 -2.0760 -1.5337 -0.2453
 7908SOL    HW235184   4.368   4.050   8.114 -1.0847  1.1489 -1.4685
 7909SOL     OW35185   4.451   4.257   2.702  0.2080 -0.0370  0.2495
 7909SOL    HW135186   4.391   4.246   2.628  1.3570 -1.8649 -0.3953
 7909SOL    HW235187   4.535   4.251   2.657 -0.0046  0.5374 -0.2272
 7910SOL     OW35188   4.445   1.224   5.762  0.0280  0.0407 -0.6260
 7910SOL    HW135189   4.349   1.225   5.762  0.0690  2.5800  0.8077
 7910SOL    HW235190   4.467   1.203   5.671  0.1763  0.9663 -0.8045
 7911SOL     OW35191   1.416   1.928  15.371 -0.3707 -0.0242 -0.0300
 7911SOL    HW135192   1.339   1.975  15.403 -2.5257 -3.1138 -0.6647
 7911SOL    HW235193   1.462   1.997  15.325  0.7501 -0.1047  0.9872
 7912SOL     OW35194   1.734   4.255   3.664  0.6337 -0.0666  0.5196
 7912SOL    HW135195   1.699   4.333   3.707  0.9786  1.0553 -1.2807
 7912SOL    HW235196   1.825   4.284   3.671  0.2820  1.6715 -2.2953
 7913SOL     OW35197   1.880   3.965   6.122  0.1018  0.1513  0.3812
 7913SOL    HW135198   1.831   4.047   6.128 -1.4256 -0.6747 -0.7420
 7913SOL    HW235199   1.916   3.971   6.033  0.1817 -1.8530  0.2792
 7914SOL     OW35200   2.457   0.513   4.252  0.0736 -0.3799  0.0931
 7914SOL    HW135201   2.386   0.449   4.257  1.5102 -2.0211 -0.6214
 7914SOL    HW235202   2.514   0.460   4.309 -2.0112  0.9787  3.4740
 7915SOL     OW35203   0.780   3.173   8.999  0.0546  0.2683  0.5393
 7915SOL    HW135204   0.776   3.256   9.046  1.0970  1.3786 -1.3196
 7915SOL    HW235205   0.822   3.114   9.062 -1.2141 -1.0602  0.1473
 7916SOL     OW35206   2.486   1.533  15.869 -0.4501  0.0943 -0.6597
 7916SOL    HW135207   2.572   1.491  15.866  1.1837  3.2799  0.4697
 7916SOL    HW235208   2.433   1.495  15.800 -0.3099 -0.8291 -0.2527
 7917SOL     OW35209   4.537   4.557  12.081 -0.0318 -0.1784 -0.4397
 7917SOL    HW135210   4.532   4.557  12.176 -0.8729  0.1810 -0.4800
 7917SOL    HW235211   4.454   4.523  12.050  0.9299 -1.1434 -1.9499
 7918SOL     OW35212   4.551   4.602  16.622  0.7298 -0.7060  0.2275
 7918SOL    HW135213   4.532   4.569  16.535 -2.5535  0.7189  0.4249
 7918SOL    HW235214   4.600   4.679  16.592 -1.2696 -0.2131 -1.7471
 7919SOL     OW35215   3.965   3.189  11.526  0.4818  0.4192  0.7605
 7919SOL    HW135216   4.012   3.110  11.499  1.8153  1.5744 -0.2588
 7919SOL    HW235217   3.872   3.177  11.505  0.8767  1.1357 -1.4213
 7920SOL     OW35218   3.946   1.421  14.238 -0.0432  0.1235 -0.1265
 7920SOL    HW135219   3.949   1.489  14.171 -0.9754  0.3724  0.0774
 7920SOL    HW235220   4.041   1.410  14.238 -0.2104 -1.2740 -0.3898
 7921SOL     OW35221   2.455   0.899  15.072 -0.6972  0.1119  0.0125
 7921SOL    HW135222   2.523   0.903  15.139 -0.4351 -1.3836 -0.1865
 7921SOL    HW235223   2.460   0.805  15.055 -0.9466  0.2141 -0.6055
 7922SOL     OW35224   3.664   2.353  16.133 -0.3763 -0.1860 -0.4835
 7922SOL    HW135225   3.626   2.440  16.123  1.2828  0.8088  1.7073
 7922SOL    HW235226   3.583   2.311  16.161 -0.7866 -0.0275 -1.4512
 7923SOL     OW35227   0.815   2.342   5.237  0.2496 -0.0977 -0.2182
 7923SOL    HW135228   0.785   2.365   5.149  0.8874  2.2412  0.1919
 7923SOL    HW235229   0.777   2.255   5.252  0.0801 -0.2548 -1.5501
 7924SOL     OW35230   0.704   1.924   1.334 -0.0105 -0.3496  0.4546
 7924SOL    HW135231   0.771   1.959   1.392  0.7435 -0.0232 -0.5994
 7924SOL    HW235232   0.763   1.885   1.269 -0.4558  1.4063 -1.0144
 7925SOL     OW35233   1.487   0.037   3.035  0.1277  0.0108 -0.0458
 7925SOL    HW135234   1.506   0.117   3.084  3.9509 -0.7782 -0.2523
 7925SOL    HW235235   1.441   0.070   2.958  0.4428 -0.9253 -0.6313
 7926SOL     OW35236   1.666   3.906   3.043  0.1383  0.0179  0.0679
 7926SOL    HW135237   1.578   3.943   3.037 -0.8685 -2.3932 -0.1345
 7926SOL    HW235238   1.699   3.946   3.124  0.1793  0.8962 -0.3850
 7927SOL     OW35239   4.608   4.427  16.808 -0.0470  0.5344  0.2746
 7927SOL    HW135240   4.694   4.391  16.789  0.0372 -0.9028  3.2752
 7927SOL    HW235241   4.590   4.475  16.728  1.7249 -1.7177 -1.4516
 7928SOL     OW35242   2.844   4.576   5.656 -0.3979 -0.5524 -0.7810
 7928SOL    HW135243   2.897   4.537   5.726 -0.2104  1.7006  0.3150
 7928SOL    HW235244   2.804   4.648   5.703  1.4683  0.8121 -1.2729
 7929SOL     OW35245   3.396   1.188   4.327 -0.1857 -0.0044  0.2136
 7929SOL    HW135246   3.369   1.228   4.245  1.0707  0.2974 -0.0559
 7929SOL    HW235247   3.456   1.253   4.363 -0.2237 -0.0084  0.2861
 7930SOL     OW35248   3.415   1.205   4.664  0.0999  0.5066 -0.6722
 7930SOL    HW135249   3.347   1.187   4.599 -1.4469  0.6935  0.9116
 7930SOL    HW235250   3.370   1.267   4.721 -1.4236 -0.8502 -0.3957
 7931SOL     OW35251   1.042   4.444   9.520 -0.9665  0.2784  0.2809
 7931SOL    HW135252   1.107   4.503   9.482 -1.3603  1.5103  1.5000
 7931SOL    HW235253   0.994   4.493   9.587  0.6539  2.5048 -0.1892
 7932SOL     OW35254   4.295   4.424   5.443 -0.1453  0.2870  0.7129
 7932SOL    HW135255   4.242   4.475   5.382  0.7941 -0.6381 -0.8788
 7932SOL    HW235256   4.334   4.359   5.384 -3.4029 -0.9286 -0.0741
 7933SOL     OW35257   4.675   1.598   1.577  0.4853  0.7059  0.0475
 7933SOL    HW135258   4.644   1.681   1.540 -1.7069 -0.6093 -1.0510
 7933SOL    HW235259   4.601   1.567   1.628  0.9278  0.5479  0.5942
 7934SOL     OW35260   1.392   2.705   7.939 -0.0588  0.2603 -0.0953
 7934SOL    HW135261   1.432   2.780   7.895 -2.7231  2.7127  1.6446
 7934SOL    HW235262   1.413   2.729   8.029  0.3778  0.5332 -0.2725
 7935SOL     OW35263   2.861   1.827   1.002 -0.8146  0.1096 -0.2815
 7935SOL    HW135264   2.840   1.915   0.970 -0.1717 -0.6328 -2.7700
 7935SOL    HW235265   2.953   1.819   0.977 -0.0968  3.4861  1.3811
 7936SOL     OW35266   0.001   3.582   6.694  0.1497 -0.1770  0.1627
 7936SOL    HW135267   4.664   3.590   6.619  0.5782  0.9736 -0.0557
 7936SOL    HW235268   0.066   3.524   6.654 -0.4044  0.4415 -1.6432
 7937SOL     OW35269   2.957   4.284   3.373  0.1807 -0.8028  0.4069
 7937SOL    HW135270   2.950   4.359   3.433 -0.3816 -0.4502 -0.0913
 7937SOL    HW235271   3.040   4.243   3.394 -0.1746  0.3930  4.0944
 7938SOL     OW35272   3.084   0.354   9.772 -0.6486 -0.8766  0.1965
 7938SOL    HW135273   3.058   0.273   9.815 -0.4691 -1.5635 -0.9978
 7938SOL    HW235274   3.146   0.312   9.713  0.8118 -2.1058  2.6395
 7939SOL     OW35275   1.034   4.305   3.009  0.6490  0.5304 -0.6212
 7939SOL    HW135276   1.051   4.237   2.944  1.1291  0.7998 -0.7758
 7939SOL    HW235277   0.997   4.372   2.951 -0.2087 -0.2285 -0.9456
 7940SOL     OW35278   0.145   3.417   7.494 -0.4002 -0.5879 -0.7057
 7940SOL    HW135279   0.099   3.495   7.525  1.4246  0.2670 -0.1343
 7940SOL    HW235280   0.157   3.380   7.582 -0.0018  1.0255 -0.0635
 7941SOL     OW35281   0.128   1.742   5.758 -0.1079  0.6172 -0.8694
 7941SOL    HW135282   0.076   1.723   5.837 -1.0492  3.1635 -0.8658
 7941SOL    HW235283   0.209   1.776   5.798 -0.1564 -1.7368  1.2177
 7942SOL     OW35284   1.703   2.004   7.613  0.3971 -0.1680  0.4841
 7942SOL    HW135285   1.641   2.058   7.661 -0.7617  0.5703 -1.8478
 7942SOL    HW235286   1.754   2.065   7.560  0.1128  0.8035  1.3500
 7943SOL     OW35287   1.281   0.941   8.060  0.1916 -0.2577  0.4860
 7943SOL    HW135288   1.254   0.851   8.042 -0.7399  0.3472 -1.1505
 7943SOL    HW235289   1.198   0.974   8.093  0.5879 -1.5336  2.7399
 7944SOL     OW35290   4.209   3.498   1.094 -0.1719 -0.1193  0.0783
 7944SOL    HW135291   4.258   3.486   1.013 -0.2181 -2.1633  0.3449
 7944SOL    HW235292   4.274   3.453   1.147 -1.2436 -1.3695  0.3416
 7945SOL     OW35293   1.909   2.139   7.867  0.2324  0.3065 -0.3365
 7945SOL    HW135294   1.836   2.119   7.926  0.3939 -0.8735 -0.5211
 7945SOL    HW235295   1.979   2.130   7.931  0.9728 -1.8550 -1.4425
 7946SOL     OW35296   0.867   2.884   5.464 -0.2407  0.2076 -0.1160
 7946SOL    HW135297   0.913   2.963   5.493  1.4008 -0.9253  0.3733
 7946SOL    HW235298   0.924   2.847   5.397  0.3580 -1.6435  1.4069
 7947SOL     OW35299   2.316   0.977   8.517  0.2677  0.2487  0.3834
 7947SOL    HW135300   2.237   0.947   8.471  1.6705  1.5296 -2.8143
 7947SOL    HW235301   2.366   0.897   8.533  0.3779  0.1431 -0.4665
 7948SOL     OW35302   2.648   3.553   3.275 -0.0132  0.0438  1.0747
 7948SOL    HW135303   2.617   3.464   3.255 -1.6084  1.7318 -3.8859
 7948SOL    HW235304   2.717   3.533   3.339  0.9066 -0.9297 -0.2138
 7949SOL     OW35305   0.876   1.625   4.384  0.3628  0.3123  0.0097
 7949SOL    HW135306   0.839   1.684   4.318  0.3632  2.3106  1.7945
 7949SOL    HW235307   0.971   1.641   4.382  0.4452 -0.5164 -2.5917
 7950SOL     OW35308   0.389   0.993   1.531 -0.5584  0.0850  0.3682
 7950SOL    HW135309   0.341   1.007   1.449  0.4719 -0.2549 -0.2871
 7950SOL    HW235310   0.357   1.074   1.571 -0.4098  0.2589  0.1342
 7951SOL     OW35311   2.733   4.390   3.918 -0.0253 -0.0072  0.7963
 7951SOL    HW135312   2.671   4.348   3.859 -1.8391  1.8901  1.3555
 7951SOL    HW235313   2.730   4.478   3.880  1.0445 -0.5418 -0.5604
 7952SOL     OW35314   0.999   3.296   9.346 -0.3998  0.1468  0.0347
 7952SOL    HW135315   1.057   3.294   9.422 -1.3095 -0.8460  0.7110
 7952SOL    HW235316   0.935   3.364   9.369 -2.9057 -3.4737  3.9250
 7953SOL     OW35317   1.502   1.077   7.442 -0.2738 -0.2993 -0.3022
 7953SOL    HW135318   1.583   1.104   7.398  1.0555 -1.6863  1.3042
 7953SOL    HW235319   1.490   0.990   7.403 -2.1080 -0.0666 -0.2421
 7954SOL     OW35320   3.944   3.333   7.998 -0.2090 -0.1909 -0.2785
 7954SOL    HW135321   3.991   3.417   8.000  1.6024 -1.2018 -0.3477
 7954SOL    HW235322   3.996   3.274   7.943 -1.1617  0.2074 -1.6110
 7955SOL     OW35323   2.377   2.691  13.769 -0.2588  0.1396  0.8832
 7955SOL    HW135324   2.410   2.704  13.858  0.2111  1.7494  0.4825
 7955SOL    HW235325   2.309   2.758  13.762 -0.6368 -0.3135  0.2749
 7956SOL     OW35326   0.244   4.448   6.039  0.3319  0.6299 -0.2318
 7956SOL    HW135327   0.197   4.370   6.009 -1.0057  1.2513  0.2297
 7956SOL    HW235328   0.169   4.487   6.085 -0.6723 -0.7037 -0.7544
 7957SOL     OW35329   4.305   1.457  13.259 -0.2871 -0.1444  0.3245
 7957SOL    HW135330   4.247   1.523  13.220  0.8229  0.1229 -0.8604
 7957SOL    HW235331   4.269   1.374  13.228  0.2216 -0.4247  0.4904
 7958SOL     OW35332   1.520   2.402   4.454  0.1128  0.1403  0.0956
 7958SOL    HW135333   1.433   2.431   4.480  0.7931  2.6620 -0.5113
 7958SOL    HW235334   1.555   2.476   4.405  0.4966 -0.1405 -0.0569
 7959SOL     OW35335   1.846   0.339   7.797 -0.0513  0.4276  0.3735
 7959SOL    HW135336   1.856   0.429   7.766 -1.3243  0.3793 -0.1473
 7959SOL    HW235337   1.751   0.336   7.804 -0.0836 -0.7776 -0.5859
 7960SOL     OW35338   1.704   0.894   2.905  0.5256  0.3911 -0.1384
 7960SOL    HW135339   1.783   0.919   2.954 -0.0177  0.2973  0.7816
 7960SOL    HW235340   1.659   0.847   2.975  0.3319  0.0174 -0.5150
 7961SOL     OW35341   4.118   3.569  10.374 -0.3967 -0.1935  0.0329
 7961SOL    HW135342   4.197   3.516  10.357 -0.1731  0.4671 -0.9832
 7961SOL    HW235343   4.040   3.528  10.339  0.1741 -0.6736 -0.6866
 7962SOL     OW35344   0.761   1.186   6.279  0.3586  0.2955 -0.0669
 7962SOL    HW135345   0.730   1.251   6.216 -0.5526  0.3085  0.3928
 7962SOL    HW235346   0.684   1.131   6.291  3.5689 -3.8658  1.3288
 7963SOL     OW35347   3.149   3.051   6.366  0.5238  0.3860  0.0929
 7963SOL    HW135348   3.070   3.036   6.313 -0.4672 -1.9076  2.2249
 7963SOL    HW235349   3.106   3.054   6.451 -0.1951 -0.3844 -0.2439
 7964SOL     OW35350   3.369   2.175   8.322  0.3526  0.1765 -0.0359
 7964SOL    HW135351   3.287   2.147   8.281 -0.0516  1.1844  0.0712
 7964SOL    HW235352   3.417   2.190   8.240  0.1683 -2.6514 -0.6598
 7965SOL     OW35353   1.222   3.421   3.304  0.3185  0.0990  0.0137
 7965SOL    HW135354   1.244   3.511   3.280  0.3566 -0.2070 -1.1232
 7965SOL    HW235355   1.134   3.440   3.337 -0.2035  0.4138 -1.5265
 7966SOL     OW35356   2.080   3.725   1.689  0.4062 -0.1832  0.0690
 7966SOL    HW135357   2.101   3.790   1.622 -0.2868 -0.6698 -0.6210
 7966SOL    HW235358   2.115   3.648   1.644  2.4837  1.4304 -1.0722
 7967SOL     OW35359   3.116   3.266   0.182 -0.2178 -0.1143 -0.1454
 7967SOL    HW135360   3.061   3.231   0.252  1.1465 -2.6296 -0.3246
 7967SOL    HW235361   3.103   3.360   0.191 -0.5333  0.0085 -1.9740
 7968SOL     OW35362   2.229   3.842   6.253 -0.1552  0.3752 -0.0720
 7968SOL    HW135363   2.288   3.807   6.319 -0.4441  0.4284  0.2135
 7968SOL    HW235364   2.146   3.798   6.270 -0.4078 -0.0805 -2.5263
 7969SOL     OW35365   1.528   1.970   6.405 -0.3229  0.0245  0.3336
 7969SOL    HW135366   1.606   2.024   6.398 -0.1426 -0.3484 -0.5035
 7969SOL    HW235367   1.559   1.887   6.368  1.7886  1.4107 -0.9542
 7970SOL     OW35368   0.843   4.462   2.160 -0.7869  0.4780 -0.4180
 7970SOL    HW135369   0.855   4.555   2.145 -0.5511  0.7826  1.5630
 7970SOL    HW235370   0.868   4.428   2.074 -0.2995 -0.7557  0.1986
 7971SOL     OW35371   0.077   3.810   7.356  0.6283  0.2629  0.2707
 7971SOL    HW135372   0.049   3.900   7.340 -0.1956  0.0010  0.2470
 7971SOL    HW235373   0.059   3.767   7.273 -0.2597 -0.9323  1.0815
 7972SOL     OW35374   2.654   2.562  14.123  0.7691  0.3967  0.6118
 7972SOL    HW135375   2.599   2.637  14.103  0.8289  0.5928  1.1680
 7972SOL    HW235376   2.726   2.559  14.060  0.3550  2.0580  0.0742
 7973SOL     OW35377   1.028   3.822  13.997  0.1492 -0.0307 -0.2963
 7973SOL    HW135378   1.004   3.741  13.951  0.2487 -1.9752  3.1157
 7973SOL    HW235379   0.993   3.794  14.082  1.7581  1.7785  0.9398
 7974SOL     OW35380   3.902   2.411   7.571 -0.7190 -0.2271  0.1371
 7974SOL    HW135381   3.869   2.408   7.481  0.5080  1.6405 -0.3581
 7974SOL    HW235382   3.845   2.474   7.617 -0.8168 -0.8185  0.8351
 7975SOL     OW35383   0.372   0.903  12.713 -0.4397  0.5224 -0.0717
 7975SOL    HW135384   0.468   0.906  12.718 -0.4492  0.4109  0.1840
 7975SOL    HW235385   0.349   0.968  12.780 -0.5498  0.1048  0.2922
 7976SOL     OW35386   4.104   0.212   6.320  0.2930  0.1198  0.5460
 7976SOL    HW135387   4.120   0.142   6.383  0.9842 -0.1900  0.0241
 7976SOL    HW235388   4.039   0.173   6.261  0.5086  1.0874 -0.3424
 7977SOL     OW35389   1.081   0.217   3.449  0.3392  0.2620  0.6855
 7977SOL    HW135390   1.098   0.137   3.399  1.0867  1.5807 -1.1616
 7977SOL    HW235391   1.057   0.185   3.536 -1.5908  1.1082  0.4669
 7978SOL     OW35392   3.600   1.075   3.907  0.1721 -0.3940  0.3181
 7978SOL    HW135393   3.647   1.077   3.991  0.1258 -0.6253  0.3490
 7978SOL    HW235394   3.666   1.042   3.846 -1.3220  0.4365 -1.7221
 7979SOL     OW35395   2.048   0.290   7.960  0.2088 -0.1328 -0.0022
 7979SOL    HW135396   2.076   0.205   7.926  1.9349 -0.6354  2.7486
 7979SOL    HW235397   1.971   0.303   7.903  0.5343 -2.0904 -0.9207
 7980SOL     OW35398   0.105   2.699   3.950 -0.0031 -0.2937  0.4216
 7980SOL    HW135399   0.199   2.680   3.950  0.3390  1.4273  1.0893
 7980SOL    HW235400   0.099   2.730   4.040  0.1384  1.2540 -0.1019
 7981SOL     OW35401   1.449   3.419   5.356 -0.4369 -0.1174 -0.7531
 7981SOL    HW135402   1.390   3.459   5.420 -2.1388 -0.3631 -2.1545
 7981SOL    HW235403   1.413   3.332   5.337  1.6129 -1.2023  0.4505
 7982SOL     OW35404   0.463   2.175   3.695  0.2945  0.3707 -0.1193
 7982SOL    HW135405   0.441   2.209   3.608  0.8621 -0.0051 -0.4119
 7982SOL    HW235406   0.404   2.231   3.747 -2.0358 -1.5571 -0.7114
 7983SOL     OW35407   0.077   2.197   6.576  0.4047 -0.3155 -0.3708
 7983SOL    HW135408   0.172   2.195   6.566  0.7087  1.0706  2.3057
 7983SOL    HW235409   0.065   2.218   6.669  3.7148  0.9582 -0.2356
 7984SOL     OW35410   1.809   2.583  10.112 -0.3198  0.0394 -0.3443
 7984SOL    HW135411   1.739   2.535  10.157  0.7764 -0.4974  0.7775
 7984SOL    HW235412   1.768   2.669  10.100  0.3423  0.7001  1.9751
 7985SOL     OW35413   3.573   4.430   4.858  0.1262 -0.3662 -0.1887
 7985SOL    HW135414   3.584   4.492   4.785 -2.2907  0.4167  0.1254
 7985SOL    HW235415   3.534   4.355   4.813  1.5506 -0.9487 -0.4480
 7986SOL     OW35416   3.097   1.406   8.790 -0.6526 -1.2398 -0.4016
 7986SOL    HW135417   3.095   1.390   8.885  1.7638 -1.2578 -0.3292
 7986SOL    HW235418   3.058   1.493   8.779  0.3280 -0.7911 -0.3783
 7987SOL     OW35419   0.234   1.466   7.070 -0.8903  0.2663  0.6835
 7987SOL    HW135420   0.318   1.512   7.070 -0.3926 -0.6651 -0.9818
 7987SOL    HW235421   0.266   1.378   7.050 -1.1581  0.7939 -2.0246
 7988SOL     OW35422   1.818   0.479   5.381  0.1982  0.1330  0.2671
 7988SOL    HW135423   1.843   0.410   5.320  0.0299 -0.7013  1.1565
 7988SOL    HW235424   1.754   0.526   5.327 -1.2042  0.0280  1.8641
 7989SOL     OW35425   3.674   4.680  16.720 -0.1803 -0.1196  0.1910
 7989SOL    HW135426   3.654   4.594  16.684 -1.7172 -0.0183  0.8226
 7989SOL    HW235427   3.664   0.013  16.642  1.9022  1.3527  0.9428
 7990SOL     OW35428   1.969   1.516   9.292  0.3609 -0.3962  0.5247
 7990SOL    HW135429   1.986   1.570   9.215 -0.6542  0.3536  0.8320
 7990SOL    HW235430   1.980   1.430   9.250 -0.2342 -0.3613  0.2941
 7991SOL     OW35431   4.637   1.415   4.989  0.0224  0.0416  0.0522
 7991SOL    HW135432   4.581   1.459   5.053  0.0478 -1.2329  0.9548
 7991SOL    HW235433   4.693   1.490   4.973  0.5632 -0.8217 -2.1638
 7992SOL     OW35434   3.376   2.584   0.466 -0.5914  0.7399  0.0244
 7992SOL    HW135435   3.390   2.491   0.447 -1.0032  1.1096 -2.1222
 7992SOL    HW235436   3.325   2.593   0.385 -1.1576  0.9606  0.4050
 7993SOL     OW35437   4.199   0.745   2.443  0.5228 -0.3490 -0.0013
 7993SOL    HW135438   4.133   0.769   2.508 -1.9240 -0.6472 -2.3854
 7993SOL    HW235439   4.148   0.779   2.369 -2.8021 -2.1746  1.4745
 7994SOL     OW35440   1.391   0.901   1.976  0.5008  0.4919 -0.0863
 7994SOL    HW135441   1.384   0.861   1.889 -0.4734  1.1021 -0.2934
 7994SOL    HW235442   1.381   0.827   2.036 -1.2513 -0.9666 -2.1328
 7995SOL     OW35443   0.481   4.181   3.667 -0.3203  0.1822 -0.1046
 7995SOL    HW135444   0.435   4.217   3.591  0.9652 -0.8867 -1.3998
 7995SOL    HW235445   0.558   4.143   3.625  1.2590  1.0933  1.9826
 7996SOL     OW35446   1.895   2.427  12.605 -0.0635  0.2273  0.0367
 7996SOL    HW135447   1.959   2.389  12.545  1.1678 -0.8711  2.0372
 7996SOL    HW235448   1.870   2.515  12.576  3.5489  0.8996 -1.0246
 7997SOL     OW35449   0.477   2.785   3.735  0.3490 -0.4644 -0.9697
 7997SOL    HW135450   0.408   2.777   3.668 -1.2048 -1.3414  0.7317
 7997SOL    HW235451   0.457   2.865   3.783  0.6925  0.3085 -2.1150
 7998SOL     OW35452   2.172   1.574  14.611 -0.0282  0.4107 -0.3540
 7998SOL    HW135453   2.078   1.574  14.590 -0.6898  2.1514  2.6667
 7998SOL    HW235454   2.195   1.519  14.536  0.9344  0.1546  0.1392
 7999SOL     OW35455   3.145   0.818  15.840 -0.2398 -0.6249 -0.9358
 7999SOL    HW135456   3.145   0.726  15.812  2.2392 -1.5959  2.2195
 7999SOL    HW235457   3.066   0.828  15.892  0.7350  0.6361  0.3112
 8000SOL     OW35458   3.733   0.782   4.101  0.0424  1.0187 -0.6176
 8000SOL    HW135459   3.643   0.808   4.118 -0.3287 -1.9320  1.8197
 8000SOL    HW235460   3.779   0.816   4.179 -0.5015 -1.5128  0.8066
 8001SOL     OW35461   1.822   2.294   5.460 -0.2456  0.1918  0.6645
 8001SOL    HW135462   1.873   2.346   5.397  0.1985 -1.6798 -0.5411
 8001SOL    HW235463   1.796   2.215   5.411  0.5435  0.2213  0.1907
 8002SOL     OW35464   0.728   0.809   1.352 -0.1177  0.1566 -0.1731
 8002SOL    HW135465   0.734   0.758   1.271 -0.4442 -1.5022  0.8450
 8002SOL    HW235466   0.819   0.806   1.383  0.1634 -1.2360 -1.1082
 8003SOL     OW35467   2.085   0.298   3.074 -0.0477 -0.6084 -0.0811
 8003SOL    HW135468   2.147   0.322   3.143  1.2782  1.0561 -1.8658
 8003SOL    HW235469   2.096   0.368   3.009 -1.0617 -0.6146 -0.2583
 8004SOL     OW35470   0.132   2.648   9.530  0.0089  0.4112  0.2271
 8004SOL    HW135471   0.226   2.663   9.519 -0.0640 -0.0272 -1.0167
 8004SOL    HW235472   0.102   2.732   9.495 -1.7919 -0.2740  0.1346
 8005SOL     OW35473   0.252   1.916   8.625  0.0388  0.4923  0.1110
 8005SOL    HW135474   0.254   1.941   8.718  0.1372 -2.2442  0.8334
 8005SOL    HW235475   0.329   1.961   8.588  1.4218 -1.7994  0.2140
 8006SOL     OW35476   1.536   0.573   7.616  0.0730 -0.0929 -0.8078
 8006SOL    HW135477   1.607   0.519   7.582 -1.6154 -1.9948 -1.3384
 8006SOL    HW235478   1.579   0.658   7.609 -2.5150  1.4274  1.6433
 8007SOL     OW35479   4.376   2.611   3.342 -0.2559  0.9731  0.2624
 8007SOL    HW135480   4.369   2.631   3.249  0.2519  1.7501  0.3947
 8007SOL    HW235481   4.328   2.528   3.339  1.1819  0.1768 -0.7996
 8008SOL     OW35482   3.394   1.501   8.507  0.5690  0.1634 -0.1614
 8008SOL    HW135483   3.433   1.436   8.565  1.5815  1.2576  0.4009
 8008SOL    HW235484   3.457   1.573   8.510 -0.6355  1.1034  2.0228
 8009SOL     OW35485   0.329   3.508   5.409 -0.6058 -0.0959 -0.2561
 8009SOL    HW135486   0.281   3.497   5.327  1.3162  2.4473 -1.7540
 8009SOL    HW235487   0.310   3.602   5.419 -1.6556 -0.2109 -1.2452
 8010SOL     OW35488   2.132   2.926  14.424 -0.1315  0.0420 -0.3142
 8010SOL    HW135489   2.124   2.938  14.329 -0.9799 -2.2547 -0.5356
 8010SOL    HW235490   2.216   2.880  14.430  0.4986  1.2705  0.2159
 8011SOL     OW35491   3.619   3.803  13.740 -0.0702 -0.5731 -0.1145
 8011SOL    HW135492   3.664   3.829  13.821  0.3598 -1.2505 -0.1381
 8011SOL    HW235493   3.591   3.888  13.707 -0.6298 -1.3201 -1.5564
 8012SOL     OW35494   0.771   0.607   5.357 -0.4289  0.7210 -0.5515
 8012SOL    HW135495   0.760   0.514   5.372  2.2188  0.4187 -0.3760
 8012SOL    HW235496   0.855   0.628   5.398 -0.1982  1.4835 -1.4042
 8013SOL     OW35497   2.430   2.813   3.974 -0.3097  0.0241  0.1831
 8013SOL    HW135498   2.451   2.904   3.954  0.6923 -0.1405  0.4778
 8013SOL    HW235499   2.367   2.827   4.045 -1.2221  0.3650 -0.6848
 8014SOL     OW35500   1.425   0.994   1.637  0.4263  0.0028  0.0543
 8014SOL    HW135501   1.330   0.998   1.649  0.7758 -0.1847  3.0092
 8014SOL    HW235502   1.434   0.914   1.586 -2.6981 -0.0825 -0.3858
 8015SOL     OW35503   3.820   1.606   4.555  0.3080 -0.3376 -0.3429
 8015SOL    HW135504   3.914   1.614   4.546  0.4190 -2.5532 -1.2532
 8015SOL    HW235505   3.816   1.577   4.646 -0.8013  1.5071  0.1934
 8016SOL     OW35506   2.941   3.540   8.072 -0.6177 -0.4073 -0.1328
 8016SOL    HW135507   3.016   3.522   8.129 -0.2831 -1.4567 -0.9082
 8016SOL    HW235508   2.936   3.463   8.015 -1.6221 -1.1006  0.8998
 8017SOL     OW35509   2.993   2.569   4.200  0.2800 -0.3073 -0.3397
 8017SOL    HW135510   2.942   2.620   4.263 -0.9950  0.1401 -1.7218
 8017SOL    HW235511   3.079   2.588   4.237  1.7310 -2.8516 -2.4098
 8018SOL     OW35512   4.538   0.110  14.772  0.3038 -0.6386 -0.1324
 8018SOL    HW135513   4.547   0.085  14.864  3.2774 -0.4742 -0.3829
 8018SOL    HW235514   4.456   0.065  14.753 -1.4265  0.8803  3.7882
 8019SOL     OW35515   4.711   3.728   8.937 -0.5833  0.2043  0.0192
 8019SOL    HW135516   4.625   3.723   8.895 -0.1938  0.0887 -0.7667
 8019SOL    HW235517   0.007   3.822   8.936 -0.4742  0.1869  0.2370
 8020SOL     OW35518   2.952   3.660   4.727 -0.3049  0.6121 -0.1202
 8020SOL    HW135519   2.859   3.647   4.711  0.0846 -1.6127 -0.6305
 8020SOL    HW235520   2.998   3.645   4.645 -0.1845  0.6441 -0.0591
 8021SOL     OW35521   2.261   3.869   2.404 -0.9155 -0.3475  0.4317
 8021SOL    HW135522   2.296   3.853   2.491 -0.5439 -1.2461  0.1118
 8021SOL    HW235523   2.302   3.798   2.355  2.8380  1.0636  1.5481
 8022SOL     OW35524   1.527   0.309   3.858 -0.2503 -0.1385  0.1315
 8022SOL    HW135525   1.442   0.281   3.893  0.8631 -0.9274  2.1903
 8022SOL    HW235526   1.507   0.313   3.764  2.6664  1.2833 -0.4358
 8023SOL     OW35527   2.061   0.640   4.022  0.0184  0.2469  0.2515
 8023SOL    HW135528   2.021   0.688   4.094 -0.2879  0.8519 -0.3194
 8023SOL    HW235529   1.981   0.609   3.979  0.1125 -0.9110  0.9033
 8024SOL     OW35530   4.040   2.158   6.176  0.5661  0.0081  0.0923
 8024SOL    HW135531   4.069   2.127   6.262 -0.0593  1.6063  0.8996
 8024SOL    HW235532   3.953   2.196   6.191  0.7886  1.3918 -2.2016
 8025SOL     OW35533   2.397   3.888  14.981  0.6779 -0.2133 -0.7085
 8025SOL    HW135534   2.363   3.798  14.982  2.6786 -0.9424  1.4651
 8025SOL    HW235535   2.484   3.875  15.019 -0.3997  0.0480  1.8658
 8026SOL     OW35536   0.407   0.394   4.599 -0.1710  0.1317 -0.1341
 8026SOL    HW135537   0.370   0.328   4.658  1.2741 -1.8474 -1.4167
 8026SOL    HW235538   0.341   0.385   4.530  0.6011  0.4342 -0.9157
 8027SOL     OW35539   2.415   0.873   2.643  0.2909  0.1744  0.1559
 8027SOL    HW135540   2.413   0.797   2.702 -0.1056 -0.2774 -0.4412
 8027SOL    HW235541   2.322   0.892   2.655 -0.1746 -2.0843  0.2397
 8028SOL     OW35542   3.101   1.215   7.692 -0.4420 -0.3444  0.5059
 8028SOL    HW135543   3.051   1.205   7.774 -1.8301  1.4554 -0.1237
 8028SOL    HW235544   3.106   1.131   7.646  0.6472 -0.0450  0.0889
 8029SOL     OW35545   0.372   0.042  10.127 -0.2491  0.2801  0.1260
 8029SOL    HW135546   0.390   4.686  10.180  1.2117  1.3243  1.1871
 8029SOL    HW235547   0.436   0.106  10.159  1.0502 -0.2543 -1.4421
 8030SOL     OW35548   2.008   4.567   8.003  0.1497  0.3529 -0.0326
 8030SOL    HW135549   1.930   4.515   8.020  1.4459 -1.2564  0.9880
 8030SOL    HW235550   2.000   4.629   8.076 -1.7194 -0.5049  0.4824
 8031SOL     OW35551   3.512   1.983  13.496  0.4269  0.3180  0.0640
 8031SOL    HW135552   3.428   1.978  13.541 -0.0126  1.8993 -0.6175
 8031SOL    HW235553   3.494   2.052  13.432 -0.0342  1.0970  1.0326
 8032SOL     OW35554   2.725   4.682  11.098  0.3323  0.3913  0.1259
 8032SOL    HW135555   2.715   4.680  11.003  2.8413  1.4223 -0.1691
 8032SOL    HW235556   2.775   0.041  11.103 -2.1211  1.9957 -1.1431
 8033SOL     OW35557   2.930   2.280   3.881 -0.3281 -0.5811 -0.0290
 8033SOL    HW135558   2.878   2.209   3.919  3.7655 -3.9820 -0.8037
 8033SOL    HW235559   2.944   2.254   3.790 -1.2216 -1.6255  0.1330
 8034SOL     OW35560   2.284   4.005   8.881  0.0639 -0.2282 -0.2895
 8034SOL    HW135561   2.194   3.995   8.913 -0.1892  0.2703 -0.8361
 8034SOL    HW235562   2.328   4.031   8.962 -0.1479  0.3374 -0.3543
 8035SOL     OW35563   2.332   3.711  14.284 -0.7634 -0.2286 -0.4067
 8035SOL    HW135564   2.342   3.772  14.211 -1.2740  1.5953  1.0545
 8035SOL    HW235565   2.238   3.693  14.294 -0.9707  1.0827 -0.0458
 8036SOL     OW35566   3.123   0.480  12.998 -0.0948 -0.3626  0.2046
 8036SOL    HW135567   3.199   0.455  13.050  0.3186  2.5658  1.0006
 8036SOL    HW235568   3.050   0.483  13.061 -0.8833 -1.2730 -0.6623
 8037SOL     OW35569   1.202   3.070   4.243  0.2054 -0.2878 -0.0107
 8037SOL    HW135570   1.205   3.149   4.296 -1.8178  0.0064 -0.3369
 8037SOL    HW235571   1.116   3.039   4.270 -0.3691 -0.4893 -2.0281
 8038SOL     OW35572   2.814   1.510   0.316 -0.1196 -0.5695  0.5991
 8038SOL    HW135573   2.724   1.478   0.324 -1.2438  2.1561 -0.9403
 8038SOL    HW235574   2.832   1.476   0.229 -2.8941  0.1330 -0.2367
 8039SOL     OW35575   3.227   4.583   3.564  0.1940  0.2633  0.4215
 8039SOL    HW135576   3.262   4.634   3.637  0.4901 -0.9946  1.1553
 8039SOL    HW235577   3.197   4.511   3.620  0.0563 -0.8456 -1.0834
 8040SOL     OW35578   2.920   3.039   5.652  0.0617 -0.5357 -0.1086
 8040SOL    HW135579   2.986   2.986   5.697 -0.7291 -1.2649  0.1989
 8040SOL    HW235580   2.975   3.115   5.634 -1.6792  0.5405 -0.8967
 8041SOL     OW35581   3.522   3.631  13.271 -0.3981  0.5066 -0.0062
 8041SOL    HW135582   3.602   3.603  13.225  0.4717  1.9484  0.6040
 8041SOL    HW235583   3.466   3.639  13.194 -0.0786  2.3311 -0.0494
 8042SOL     OW35584   1.694   0.550   2.850  0.1066 -0.2823  0.5453
 8042SOL    HW135585   1.741   0.467   2.840  0.0131 -0.0571 -1.8019
 8042SOL    HW235586   1.764   0.614   2.841 -0.8340  0.8116  1.0013
 8043SOL     OW35587   0.141   3.223   2.155  0.2947  0.2787  0.0349
 8043SOL    HW135588   0.135   3.130   2.132 -0.5619  0.5047 -0.6695
 8043SOL    HW235589   0.206   3.256   2.093  0.3667 -0.5413 -0.3312
 8044SOL     OW35590   1.865   0.816  14.818  0.1732  0.0614  0.1556
 8044SOL    HW135591   1.944   0.788  14.865 -0.9950 -1.6578  1.1239
 8044SOL    HW235592   1.815   0.826  14.898  1.8424  1.9131  0.9578
 8045SOL     OW35593   1.944   1.541   2.068 -0.1360 -0.4252  0.0564
 8045SOL    HW135594   1.952   1.565   2.161 -0.4408  2.8255 -0.7604
 8045SOL    HW235595   1.980   1.614   2.019 -0.2931 -0.2695  0.1711
 8046SOL     OW35596   1.436   0.001   9.665 -0.0930 -0.0825  0.8048
 8046SOL    HW135597   1.527   4.706   9.689 -0.4335 -1.9639  0.7216
 8046SOL    HW235598   1.415   4.662   9.595  1.2082 -1.2149  1.4112
 8047SOL     OW35599   1.211   1.841   3.484  0.1521  0.0175 -0.0452
 8047SOL    HW135600   1.256   1.910   3.532 -0.5858 -0.3907  1.2204
 8047SOL    HW235601   1.160   1.901   3.429 -0.6487 -0.5856  0.0441
 8048SOL     OW35602   0.561   3.522  13.097 -1.2660  0.0686 -0.1713
 8048SOL    HW135603   0.548   3.529  13.191  0.2967 -1.9768  0.1906
 8048SOL    HW235604   0.572   3.613  13.070  0.0157 -0.3294 -0.9807
 8049SOL     OW35605   1.013   1.070   5.333 -0.5930 -0.3532 -0.0675
 8049SOL    HW135606   1.048   0.985   5.307 -0.6905  0.1273 -1.8047
 8049SOL    HW235607   0.983   1.046   5.421 -0.5312 -1.8917 -0.4769
 8050SOL     OW35608   1.359   4.395  17.285  0.3013  0.1340  0.0053
 8050SOL    HW135609   1.292   4.344  17.239 -1.0954  0.3342  1.7979
 8050SOL    HW235610   1.434   4.340  17.264  0.6070  1.0830 -1.3681
 8051SOL     OW35611   1.681   1.901   3.029  0.1955  0.4901 -0.0912
 8051SOL    HW135612   1.683   1.925   3.122  1.9971  1.7662 -0.4473
 8051SOL    HW235613   1.767   1.931   2.999  0.8510  0.0191  1.2851
 8052SOL     OW35614   2.718   0.748  11.856 -0.4817 -0.7402  0.5265
 8052SOL    HW135615   2.751   0.721  11.942  0.8755 -0.1971  0.1741
 8052SOL    HW235616   2.630   0.711  11.866 -1.2298  0.6799 -0.8040
 8053SOL     OW35617   2.644   2.154  16.270  0.2474  0.2366  0.0402
 8053SOL    HW135618   2.696   2.207  16.331  0.0757 -1.7200  1.8865
 8053SOL    HW235619   2.591   2.222  16.229 -1.0298 -1.7731 -1.6410
 8054SOL     OW35620   2.883   3.032  10.715  0.4868 -0.4785  0.2103
 8054SOL    HW135621   2.813   2.999  10.772  1.8707 -2.4392  0.7970
 8054SOL    HW235622   2.855   3.123  10.709  4.2128  0.7426  0.8720
 8055SOL     OW35623   2.324   1.275  17.192  0.1732 -0.6463 -0.2594
 8055SOL    HW135624   2.395   1.337  17.210 -1.1743  1.7673 -3.1995
 8055SOL    HW235625   2.252   1.321  17.236 -0.0531 -0.2847 -1.0086
 8056SOL     OW35626   0.012   0.308   6.165 -0.8930  0.0203 -0.1301
 8056SOL    HW135627   0.019   0.385   6.108  1.9474 -0.9277 -1.0273
 8056SOL    HW235628   0.008   0.242   6.097  1.7631 -0.2579 -0.0093
 8057SOL     OW35629   3.007   3.235   3.679 -0.9537  0.2753 -0.0504
 8057SOL    HW135630   3.050   3.149   3.679  1.1099  1.2907 -0.4775
 8057SOL    HW235631   2.992   3.244   3.773  2.6708  1.4754  0.4182
 8058SOL     OW35632   0.897   2.058   7.498  0.1866  0.0389 -0.0211
 8058SOL    HW135633   0.887   2.018   7.584  0.0695  0.8414  0.3396
 8058SOL    HW235634   0.955   1.994   7.457  0.7198 -0.8308  2.0979
 8059SOL     OW35635   4.358   4.591  16.856 -0.0340  0.2982 -0.1823
 8059SOL    HW135636   4.440   4.542  16.852 -0.9993 -1.2950 -0.4639
 8059SOL    HW235637   4.388   4.675  16.820 -0.1600  1.5374  2.5706
 8060SOL     OW35638   1.840   0.149   7.513  0.5395 -0.2893  0.0022
 8060SOL    HW135639   1.910   0.086   7.528 -0.4272 -1.6427 -1.1925
 8060SOL    HW235640   1.888   0.221   7.472 -0.2027 -0.6126 -1.4022
 8061SOL     OW35641   4.653   3.938  13.580 -0.7968 -0.5070 -0.5179
 8061SOL    HW135642   4.634   4.002  13.512  0.5246  0.7169  0.2684
 8061SOL    HW235643   0.010   3.977  13.617 -0.2710  0.5616 -2.7585
 8062SOL     OW35644   1.166   1.616   5.955  0.5015  0.1719  0.0713
 8062SOL    HW135645   1.222   1.678   6.001 -4.0151  2.0980  2.9792
 8062SOL    HW235646   1.224   1.541   5.947 -1.4735 -1.3720  0.1574
 8063SOL     OW35647   0.406   4.106   5.278  0.3293 -0.7243  0.2553
 8063SOL    HW135648   0.452   4.044   5.222 -0.0557 -0.3947 -0.4286
 8063SOL    HW235649   0.472   4.105   5.347 -0.3513  1.0691  0.9359
 8064SOL     OW35650   0.223   1.931  12.691  0.6695 -0.7344  0.0815
 8064SOL    HW135651   0.222   1.941  12.595 -1.7066  1.0444  0.2794
 8064SOL    HW235652   0.318   1.924  12.697  0.9935  1.2165 -2.5423
 8065SOL     OW35653   1.572   0.734   3.053 -0.2015  0.7341 -0.5647
 8065SOL    HW135654   1.661   0.712   3.080 -0.3932 -1.3184 -1.5937
 8065SOL    HW235655   1.546   0.650   3.015  0.2026 -0.1361  1.1251
 8066SOL     OW35656   0.712   4.712   7.165  0.0263 -0.2524  0.3569
 8066SOL    HW135657   0.744   4.675   7.083  0.1817 -0.7057  0.6222
 8066SOL    HW235658   0.771   4.687   7.236  0.0949  2.5996  1.2675
 8067SOL     OW35659   4.672   4.591  11.830 -0.3732 -0.1382 -0.1683
 8067SOL    HW135660   0.035   4.633  11.823 -0.2401 -0.3398  0.2562
 8067SOL    HW235661   4.655   4.597  11.924  1.2608 -0.9164  0.1668
 8068SOL     OW35662   1.188   4.142   1.954 -0.7569  0.5595  0.1016
 8068SOL    HW135663   1.126   4.084   1.909 -0.2058 -0.6127  0.8506
 8068SOL    HW235664   1.140   4.225   1.957 -1.7919 -0.0284  0.0231
 8069SOL     OW35665   2.501   4.526   4.315 -0.7030  0.0964 -0.0558
 8069SOL    HW135666   2.569   4.488   4.258  2.2993  2.4198  1.9601
 8069SOL    HW235667   2.478   4.443   4.358  2.0214  1.8793  4.8374
 8070SOL     OW35668   0.794   3.810   2.544 -0.0983  0.6790  0.1534
 8070SOL    HW135669   0.841   3.833   2.464  0.4523  1.4786  0.7095
 8070SOL    HW235670   0.770   3.723   2.510  1.8218  0.6513 -1.1352
 8071SOL     OW35671   0.633   3.166  17.296  0.1760 -0.0008  0.9161
 8071SOL    HW135672   0.554   3.201  17.338 -0.7959 -0.7677 -0.2533
 8071SOL    HW235673   0.607   3.074  17.290  0.4524 -0.0815  0.9746
 8072SOL     OW35674   4.047   4.702   1.890 -0.5300 -0.6224  0.5472
 8072SOL    HW135675   4.121   0.020   1.844 -0.4733 -0.4489  0.7848
 8072SOL    HW235676   3.974   0.039   1.874  2.7331  2.8741 -1.4338
 8073SOL     OW35677   3.884   2.832   5.662 -0.0062  0.3191  0.5981
 8073SOL    HW135678   3.936   2.752   5.655  0.3781  0.6980 -0.9276
 8073SOL    HW235679   3.953   2.898   5.667 -0.4885  0.6914  2.1860
 8074SOL     OW35680   4.314   2.381   1.333 -0.0482  0.1601  0.5872
 8074SOL    HW135681   4.293   2.388   1.426  1.5159  0.5377  0.9141
 8074SOL    HW235682   4.267   2.457   1.299 -1.1178 -0.1736  1.3116
 8075SOL     OW35683   2.582   0.272   5.376  0.4036  0.2713 -0.4639
 8075SOL    HW135684   2.634   0.317   5.309 -2.3357  2.1961 -1.2999
 8075SOL    HW235685   2.526   0.343   5.406 -0.8684 -0.9659  0.0837
 8076SOL     OW35686   1.922   0.795   1.955  0.3285  0.1234 -0.1496
 8076SOL    HW135687   1.973   0.874   1.941  0.2040  0.5891  2.1395
 8076SOL    HW235688   1.858   0.812   1.885 -0.7368  1.8464  1.2407
 8077SOL     OW35689   0.451   2.085   2.801 -0.4503 -0.6306 -0.3597
 8077SOL    HW135690   0.484   2.030   2.730  1.4996 -1.2943  1.0412
 8077SOL    HW235691   0.396   2.023   2.849 -0.4313 -1.4951 -1.4344
 8078SOL     OW35692   0.986   0.150   7.251  0.9153 -0.2208 -0.4243
 8078SOL    HW135693   0.915   0.204   7.286  2.7968  0.9635  1.5122
 8078SOL    HW235694   1.036   0.141   7.332  1.4139  0.7442 -0.6266
 8079SOL     OW35695   3.346   4.174   8.872  0.4796 -0.1701 -0.0420
 8079SOL    HW135696   3.378   4.178   8.962 -1.2584 -2.4517  0.6835
 8079SOL    HW235697   3.262   4.133   8.896 -0.1555  0.7642 -0.6783
 8080SOL     OW35698   0.475   3.785  12.394 -0.4179  0.2764 -0.0599
 8080SOL    HW135699   0.549   3.754  12.446 -0.0232  0.2217 -0.6448
 8080SOL    HW235700   0.507   3.784  12.303  1.1024 -2.5634  0.5020
 8081SOL     OW35701   3.014   0.220   2.391  0.5179  0.3726 -0.1027
 8081SOL    HW135702   3.064   0.167   2.453 -0.0519 -0.2035 -0.1384
 8081SOL    HW235703   2.925   0.191   2.414  0.5434  1.2698  1.1591
 8082SOL     OW35704   0.020   1.311   1.497  0.2010 -0.2131  0.7418
 8082SOL    HW135705   4.679   1.282   1.563 -0.6629  0.2847  0.1211
 8082SOL    HW235706   0.012   1.406   1.495  2.4196 -0.0613 -0.5846
 8083SOL     OW35707   2.852   4.589   1.568  0.5948 -0.4181  0.4448
 8083SOL    HW135708   2.865   4.512   1.513  0.1540 -2.0188  2.5553
 8083SOL    HW235709   2.763   4.621   1.550  1.1034  0.7480 -0.0009
 8084SOL     OW35710   2.248   4.280  11.769  0.4787 -0.2863 -0.1724
 8084SOL    HW135711   2.187   4.307  11.837 -0.0578 -0.4668 -0.5845
 8084SOL    HW235712   2.266   4.187  11.785  0.3812 -0.5586 -1.6433
 8085SOL     OW35713   0.807   3.915   2.165  0.3701 -0.0342 -0.2876
 8085SOL    HW135714   0.792   3.845   2.101 -1.2268  1.0254 -1.0752
 8085SOL    HW235715   0.850   3.863   2.233  0.0533  0.7551  0.5034
 8086SOL     OW35716   0.362   2.989   9.568  0.5935 -0.0374 -0.1611
 8086SOL    HW135717   0.380   3.049   9.640  0.4220  2.6190 -2.3234
 8086SOL    HW235718   0.419   3.020   9.497  0.9855 -0.1256  0.1187
 8087SOL     OW35719   2.209   4.623  17.072  0.4960  0.1719  0.2773
 8087SOL    HW135720   2.236   4.714  17.080 -0.1649  0.5372 -1.6375
 8087SOL    HW235721   2.252   4.586  17.149 -0.2469 -1.9154 -0.3034
 8088SOL     OW35722   4.116   1.399   3.344  0.3650 -0.1546  0.0590
 8088SOL    HW135723   4.069   1.481   3.355 -0.3778 -0.3637 -1.4677
 8088SOL    HW235724   4.050   1.353   3.292  0.2448  0.0430  0.0390
 8089SOL     OW35725   1.407   2.872   4.300 -0.7145  0.0520  1.4437
 8089SOL    HW135726   1.373   2.823   4.224  0.3461  3.6801 -1.3680
 8089SOL    HW235727   1.344   2.943   4.289 -2.0218 -1.3663 -0.1917
 8090SOL     OW35728   4.187   3.253   2.809  0.3041  0.2820 -0.7891
 8090SOL    HW135729   4.270   3.299   2.823 -1.4043  2.9715  0.4967
 8090SOL    HW235730   4.195   3.229   2.717 -2.6883  1.5165 -1.3854
 8091SOL     OW35731   0.031   0.146   5.949  0.1155  0.2899  0.0352
 8091SOL    HW135732   0.101   0.083   5.968 -0.4765  0.1137  1.5764
 8091SOL    HW235733   0.033   0.149   5.853 -1.3215  0.2877 -0.0030
 8092SOL     OW35734   1.926   4.010  17.081  0.3244  0.8498 -0.0701
 8092SOL    HW135735   1.935   4.067  17.157  0.4196 -2.4188  2.4138
 8092SOL    HW235736   1.858   4.060  17.035  0.6611  1.3701  0.0011
 8093SOL     OW35737   4.620   1.858  14.607  0.8092 -0.2870  0.8242
 8093SOL    HW135738   4.664   1.776  14.631 -0.0461 -0.3868  2.0338
 8093SOL    HW235739   4.663   1.923  14.663 -2.8511  1.2530  1.8477
 8094SOL     OW35740   0.295   1.807  10.694 -0.1311 -0.4372 -0.1531
 8094SOL    HW135741   0.390   1.821  10.688 -0.1563 -0.6940 -1.2356
 8094SOL    HW235742   0.300   1.747  10.620 -1.9369 -0.1407 -0.5150
 8095SOL     OW35743   1.058   1.042  12.841 -0.1775 -0.3718 -0.0973
 8095SOL    HW135744   1.133   0.989  12.867  0.4883 -0.0271 -1.3080
 8095SOL    HW235745   1.069   1.050  12.746  0.8405  0.5698  0.1015
 8096SOL     OW35746   0.959   2.357   1.481 -0.0409  0.2061  0.3100
 8096SOL    HW135747   0.920   2.409   1.410 -0.5679 -1.4918 -0.6281
 8096SOL    HW235748   0.888   2.297   1.504  1.0647 -1.0327  0.4801
 8097SOL     OW35749   3.061   1.191  15.962  0.3049 -0.4955 -0.1832
 8097SOL    HW135750   3.013   1.226  16.037  1.3635 -1.7431  1.0706
 8097SOL    HW235751   3.106   1.116  16.002 -0.2257 -1.3667 -1.2224
 8098SOL     OW35752   1.370   0.919  16.565 -0.0149  1.0597  0.0071
 8098SOL    HW135753   1.286   0.965  16.564 -0.8685 -0.5384 -2.0184
 8098SOL    HW235754   1.335   0.830  16.555  1.2128  0.6572 -0.7418
 8099SOL     OW35755   1.112   4.603   8.707  0.1416  1.0573  0.2596
 8099SOL    HW135756   1.038   4.581   8.651  0.5229  1.2658 -0.3176
 8099SOL    HW235757   1.105   4.545   8.784 -0.9522 -2.4226 -2.4657
 8100SOL     OW35758   3.282   0.845   6.331 -0.2082 -0.7254  0.5023
 8100SOL    HW135759   3.210   0.847   6.268  2.2717 -2.1024 -2.3956
 8100SOL    HW235760   3.296   0.751   6.319  0.4918 -0.2220 -2.7109
 8101SOL     OW35761   0.158   1.586  16.062  0.0112 -0.4467 -0.5671
 8101SOL    HW135762   0.068   1.616  16.080  0.2990 -0.0262  0.2076
 8101SOL    HW235763   0.176   1.517  16.125  0.7082 -0.7456 -1.0998
 8102SOL     OW35764   3.030   4.166   1.525  0.0242 -0.6889  0.1175
 8102SOL    HW135765   3.068   4.081   1.502 -0.6860 -0.6937 -1.0717
 8102SOL    HW235766   3.079   4.184   1.605 -0.1485 -0.9339  0.2783
 8103SOL     OW35767   3.236   2.920   5.435 -0.9118 -0.0993  0.1189
 8103SOL    HW135768   3.255   2.892   5.525  0.0120 -1.5614 -0.5413
 8103SOL    HW235769   3.261   3.012   5.436  2.7480 -1.1074 -0.2098
 8104SOL     OW35770   0.499   2.689   3.025  0.2386 -0.4568  0.8043
 8104SOL    HW135771   0.499   2.756   3.094 -4.2653  1.6729 -1.2069
 8104SOL    HW235772   0.575   2.714   2.973  0.0544 -1.9236 -0.1678
 8105SOL     OW35773   1.965   4.069   8.505 -0.1030 -0.0274  0.6272
 8105SOL    HW135774   1.912   4.004   8.460  0.5095 -1.1028  1.4772
 8105SOL    HW235775   1.964   4.032   8.593  2.1576  1.0083  1.0719
 8106SOL     OW35776   4.212   4.541   3.827 -0.3145 -0.1246 -0.9529
 8106SOL    HW135777   4.170   4.589   3.755  1.1493 -0.1240 -1.8060
 8106SOL    HW235778   4.141   4.478   3.811 -1.1063  0.2909  0.9225
 8107SOL     OW35779   0.506   1.738  11.002 -0.4083 -0.2158  0.1280
 8107SOL    HW135780   0.472   1.803  10.940  0.5676  0.0685 -0.1083
 8107SOL    HW235781   0.598   1.749  10.978 -0.7000  0.5138 -0.6745
 8108SOL     OW35782   1.556   2.229  14.202  0.3885 -0.2324  0.3053
 8108SOL    HW135783   1.515   2.293  14.144 -0.9401 -1.5259 -0.1979
 8108SOL    HW235784   1.559   2.281  14.282 -1.1534 -0.9935  0.8593
 8109SOL     OW35785   4.255   0.933   5.301 -0.0231 -0.4276  0.1694
 8109SOL    HW135786   4.271   0.943   5.207 -3.5070  3.0849 -0.0179
 8109SOL    HW235787   4.338   0.898   5.335 -0.7991 -1.8641  0.5773
 8110SOL     OW35788   4.564   4.005   2.569 -0.0110  0.3601 -0.0244
 8110SOL    HW135789   4.541   3.928   2.516  4.1103 -0.8241 -0.1548
 8110SOL    HW235790   4.538   3.980   2.657 -0.4540 -0.8036 -0.4842
 8111SOL     OW35791   0.383   0.946  15.303  0.3224 -0.1688  0.4856
 8111SOL    HW135792   0.296   0.924  15.270 -0.0245 -0.8784  1.8373
 8111SOL    HW235793   0.408   1.022  15.250  0.0971 -0.6709 -0.3277
 8112SOL     OW35794   3.454   3.937   5.987  0.2725  0.1170 -0.2599
 8112SOL    HW135795   3.535   3.939   6.038  0.6099  3.2670 -0.9007
 8112SOL    HW235796   3.417   4.021   6.015  0.2181 -0.1247  0.3969
 8113SOL     OW35797   4.336   0.429   6.113  0.4183  0.1898 -0.1572
 8113SOL    HW135798   4.280   0.448   6.038  0.7588 -0.5126 -0.5867
 8113SOL    HW235799   4.397   0.362   6.081  0.0118 -0.3112  0.1291
 8114SOL     OW35800   1.985   1.732   4.363  0.2413 -0.1050  1.0425
 8114SOL    HW135801   2.052   1.694   4.306 -1.9651  0.3073 -1.8524
 8114SOL    HW235802   2.015   1.823   4.367 -0.9043  0.3936 -1.9265
 8115SOL     OW35803   0.731   3.869   4.414 -0.1246  0.1836 -0.3015
 8115SOL    HW135804   0.694   3.794   4.461  0.9866 -0.2699 -0.1447
 8115SOL    HW235805   0.774   3.821   4.343  2.7086  0.2923  1.3585
 8116SOL     OW35806   2.866   0.473   2.431  0.3141  0.0155 -0.0919
 8116SOL    HW135807   2.775   0.447   2.416  0.0391  0.6110  0.5280
 8116SOL    HW235808   2.906   0.388   2.447  0.2498 -0.3440 -1.9205
 8117SOL     OW35809   3.081   4.377   7.817  0.5047 -0.3958 -0.6487
 8117SOL    HW135810   3.009   4.375   7.881  1.7455  0.3712  0.7710
 8117SOL    HW235811   3.163   4.371   7.865 -0.9199 -0.0088  1.8520
 8118SOL     OW35812   0.768   4.168   4.195 -0.2206 -0.3040 -0.5884
 8118SOL    HW135813   0.746   4.106   4.125  0.7034  0.1531 -1.2962
 8118SOL    HW235814   0.706   4.239   4.179  2.4686  1.4171 -3.5585
 8119SOL     OW35815   2.208   3.246   6.967  0.5895 -0.3124 -0.3497
 8119SOL    HW135816   2.207   3.159   6.928 -0.8094 -0.1808 -0.6144
 8119SOL    HW235817   2.254   3.304   6.907  0.7833  1.5967  1.6312
 8120SOL     OW35818   3.188   1.351   8.058 -0.6671 -0.0276 -0.9279
 8120SOL    HW135819   3.258   1.307   8.010  1.4955  1.3480  0.9464
 8120SOL    HW235820   3.239   1.414   8.110 -0.7322 -0.6043 -0.1682
 8121SOL     OW35821   2.587   1.782   6.973 -0.2693 -0.0444 -0.0013
 8121SOL    HW135822   2.667   1.732   6.956  1.4517  2.5687  0.4056
 8121SOL    HW235823   2.516   1.724   6.946  0.3179 -0.6979 -0.1315
 8122SOL     OW35824   2.349   3.696   9.801  0.8142 -0.0419 -0.0186
 8122SOL    HW135825   2.395   3.621   9.764  0.6158  0.2005 -0.7680
 8122SOL    HW235826   2.416   3.753   9.840  1.2940 -1.1327  0.7347
 8123SOL     OW35827   2.408   4.643   6.349 -0.2581  0.8784  0.3308
 8123SOL    HW135828   2.376   4.661   6.260  0.6916  0.7777 -0.0307
 8123SOL    HW235829   2.331   4.648   6.406  0.1078  0.2276  0.8744
 8124SOL     OW35830   4.060   3.040  10.189 -0.0618 -0.8162 -0.3577
 8124SOL    HW135831   4.104   3.123  10.208 -1.3100 -0.3660  0.4929
 8124SOL    HW235832   4.073   2.997  10.273  0.0596 -1.4732 -0.7052
 8125SOL     OW35833   4.227   4.015   3.058  0.4271  0.2370  0.0271
 8125SOL    HW135834   4.193   3.926   3.051  0.1338  0.4648 -1.4988
 8125SOL    HW235835   4.268   4.010   3.144 -0.9352  1.1159  0.7270
 8126SOL     OW35836   0.378   0.390  14.611 -0.4150 -0.0593 -0.3334
 8126SOL    HW135837   0.364   0.484  14.619 -1.2121 -0.1098 -1.0632
 8126SOL    HW235838   0.305   0.371  14.552  0.5092 -0.3550 -1.3783
 8127SOL     OW35839   3.855   1.601   1.921  0.0887  0.1802 -0.0555
 8127SOL    HW135840   3.857   1.658   1.998  0.3133  1.1962 -0.8133
 8127SOL    HW235841   3.808   1.524   1.953 -0.2692 -0.6888 -2.6423
 8128SOL     OW35842   0.190   2.305  13.911  0.1781 -0.1288 -0.5247
 8128SOL    HW135843   0.210   2.376  13.972 -0.4127 -1.0239  0.6988
 8128SOL    HW235844   0.182   2.239  13.979  2.4865 -0.2445 -0.3536
 8129SOL     OW35845   3.870   2.072   4.178 -0.3517 -0.6062  0.4505
 8129SOL    HW135846   3.863   2.000   4.116 -0.0372 -0.6931  0.5122
 8129SOL    HW235847   3.784   2.110   4.162  0.6303  1.1608 -0.5996
 8130SOL     OW35848   1.979   0.227   8.804 -0.0653 -0.4673  0.1214
 8130SOL    HW135849   1.920   0.163   8.844 -0.6553  0.0909  0.1591
 8130SOL    HW235850   2.062   0.199   8.843 -0.1970 -1.1223 -0.0683
 8131SOL     OW35851   3.742   4.445   8.217  0.0487 -0.2719  0.4333
 8131SOL    HW135852   3.690   4.501   8.160 -0.5640  0.3520  1.6089
 8131SOL    HW235853   3.708   4.459   8.305 -0.3085 -2.7385  0.6986
 8132SOL     OW35854   3.382   0.951   2.902 -0.3291 -1.1795  0.2066
 8132SOL    HW135855   3.412   0.873   2.857  0.8160 -0.5050 -0.2116
 8132SOL    HW235856   3.354   0.909   2.982 -1.8348 -0.2255  0.1846
 8133SOL     OW35857   2.021   0.973   4.121  0.0479 -0.2092  0.2366
 8133SOL    HW135858   2.024   0.896   4.178  0.3531  0.0389  0.5527
 8133SOL    HW235859   1.932   0.956   4.090  1.2911 -2.0454 -2.3182
 8134SOL     OW35860   3.748   4.165   9.394 -0.2631 -0.0919  0.8686
 8134SOL    HW135861   3.665   4.164   9.442 -1.1526  0.4551 -0.6099
 8134SOL    HW235862   3.802   4.216   9.453  2.5628 -2.5933  0.4182
 8135SOL     OW35863   4.116   3.040   2.967 -0.0703 -0.6653  0.0039
 8135SOL    HW135864   4.106   3.125   2.925 -0.6332  0.0226  1.5147
 8135SOL    HW235865   4.200   3.018   2.928  0.0146  0.3277 -0.3682
 8136SOL     OW35866   1.402   0.286   7.363 -0.4240 -0.5079 -0.4120
 8136SOL    HW135867   1.422   0.213   7.304  0.7151  1.2354 -2.1950
 8136SOL    HW235868   1.387   0.352   7.295  0.3374 -0.5021 -0.5797
 8137SOL     OW35869   2.404   3.088   5.268  0.1789  0.3184  0.5303
 8137SOL    HW135870   2.380   3.044   5.187  0.5245  1.0698  0.0162
 8137SOL    HW235871   2.448   3.015   5.311  0.2099 -1.5176 -2.6430
 8138SOL     OW35872   2.831   2.389  17.138 -0.2023  0.0259 -0.3130
 8138SOL    HW135873   2.897   2.323  17.159  0.9892  1.6082  0.8873
 8138SOL    HW235874   2.835   2.436  17.221  3.4630 -0.7988 -0.0387
 8139SOL     OW35875   3.420   2.139   7.438 -0.5000 -0.6238  0.0776
 8139SOL    HW135876   3.353   2.151   7.504 -0.6810 -0.1769 -0.1855
 8139SOL    HW235877   3.453   2.228   7.422 -2.8153  0.3478  0.7325
 8140SOL     OW35878   2.915   4.590  16.811 -0.0988 -0.0859 -0.5058
 8140SOL    HW135879   2.861   4.666  16.791  0.0667  0.2433  0.3060
 8140SOL    HW235880   2.848   4.530  16.845 -1.4446  0.3766 -2.3219
 8141SOL     OW35881   4.222   2.182   5.041  0.2325 -0.3882 -0.2151
 8141SOL    HW135882   4.276   2.181   5.120 -0.1709  0.4587  0.0653
 8141SOL    HW235883   4.175   2.099   5.045  0.6713 -0.5284  1.7383
 8142SOL     OW35884   1.533   1.597   7.707 -0.0311 -0.7422  0.6229
 8142SOL    HW135885   1.584   1.666   7.750 -1.1016  0.2850  0.2341
 8142SOL    HW235886   1.607   1.548   7.670  0.6201  1.1979 -0.6602
 8143SOL     OW35887   1.112   3.515   2.156 -0.0809 -0.3976  0.3075
 8143SOL    HW135888   1.192   3.522   2.103 -0.0718  0.1578  0.3992
 8143SOL    HW235889   1.133   3.433   2.200 -0.2426 -0.0729  0.9848
 8144SOL     OW35890   0.654   2.165   9.335 -0.3541  0.2308  0.0633
 8144SOL    HW135891   0.644   2.077   9.298 -0.3968 -0.5718  1.9689
 8144SOL    HW235892   0.597   2.155   9.411 -0.4080 -3.1799 -0.4343
 8145SOL     OW35893   3.935   4.593  16.619 -0.6038  0.2283 -0.4546
 8145SOL    HW135894   3.860   4.623  16.670  0.2139 -0.0599  0.9426
 8145SOL    HW235895   4.006   4.648  16.652  0.6903 -1.0714 -1.0427
 8146SOL     OW35896   2.207   0.965   6.865 -0.2692  0.0633 -0.4409
 8146SOL    HW135897   2.112   0.974   6.853  0.0425  0.5301 -2.6368
 8146SOL    HW235898   2.224   1.004   6.950 -2.1076 -1.9661  0.8644
 8147SOL     OW35899   3.385   3.490   8.797  0.6052 -0.3560 -0.0103
 8147SOL    HW135900   3.380   3.420   8.863 -1.5421 -0.0092  0.1709
 8147SOL    HW235901   3.333   3.561   8.835  2.9568  0.2406  2.0976
 8148SOL     OW35902   1.160   1.998   9.943  0.0136 -0.0192  0.1269
 8148SOL    HW135903   1.122   2.079   9.908  0.7981 -0.7072 -2.3087
 8148SOL    HW235904   1.165   1.950   9.860 -3.4925  2.0549 -1.2691
 8149SOL     OW35905   3.959   1.458   4.709  0.7360 -0.0341 -0.3873
 8149SOL    HW135906   3.921   1.383   4.755  1.7008 -0.0525  0.3649
 8149SOL    HW235907   4.041   1.420   4.678 -0.2303  0.9268 -4.0804
 8150SOL     OW35908   4.260   0.416   7.527 -0.2199 -0.4513 -0.9883
 8150SOL    HW135909   4.341   0.392   7.482  1.2822  1.6063  0.6210
 8150SOL    HW235910   4.287   0.421   7.619 -0.2121  1.2179 -1.0880
 8151SOL     OW35911   2.678   2.373  11.958  0.5091 -0.0258  0.1087
 8151SOL    HW135912   2.644   2.462  11.959  0.5381 -0.0279  1.0894
 8151SOL    HW235913   2.677   2.351  12.051  1.4942 -0.9606 -0.1018
 8152SOL     OW35914   2.091   4.064   3.124  0.2249 -0.5363  0.2103
 8152SOL    HW135915   2.128   4.145   3.086 -0.6607 -1.0062 -1.6337
 8152SOL    HW235916   2.050   4.040   3.041  1.2790  1.4517 -0.8982
 8153SOL     OW35917   4.552   0.489  13.616 -0.0182  0.1209 -0.6548
 8153SOL    HW135918   4.561   0.569  13.668  1.4605 -0.4866  0.0076
 8153SOL    HW235919   4.524   0.519  13.529 -0.6221 -0.7590 -0.7617
 8154SOL     OW35920   2.044   0.499   7.423  0.4789  0.3252 -0.0386
 8154SOL    HW135921   2.098   0.479   7.346  0.1790  0.8052 -0.3770
 8154SOL    HW235922   2.001   0.581   7.399 -0.6047  0.1300  1.2479
 8155SOL     OW35923   4.699   1.425   8.717 -0.2149 -0.7652 -0.2171
 8155SOL    HW135924   0.053   1.399   8.664  1.7774  0.2300  2.1654
 8155SOL    HW235925   4.705   1.371   8.795  1.2785 -0.2969 -0.0134
 8156SOL     OW35926   3.085   3.010  14.586  0.5771 -0.0226 -0.0535
 8156SOL    HW135927   3.078   2.970  14.673 -1.9454  3.0506  1.1360
 8156SOL    HW235928   3.123   2.938  14.535 -2.5422 -1.0390 -0.9240
 8157SOL     OW35929   1.663   3.374  10.010 -0.0220  0.0761 -0.0847
 8157SOL    HW135930   1.741   3.424  10.036 -1.2476  2.6722 -1.3867
 8157SOL    HW235931   1.603   3.426   9.956  0.9114  0.7456 -0.4819
 8158SOL     OW35932   0.664   0.929   1.584 -0.1427 -0.2908 -0.4826
 8158SOL    HW135933   0.682   0.880   1.503  1.8197  0.6888 -0.6152
 8158SOL    HW235934   0.579   0.967   1.559 -0.2371 -0.2915 -0.1652
 8159SOL     OW35935   4.234   2.747  16.370  0.1502 -0.6234  0.1763
 8159SOL    HW135936   4.326   2.774  16.370  0.1438 -0.5836  1.8506
 8159SOL    HW235937   4.247   2.702  16.286 -0.2317 -0.5717  0.0919
 8160SOL     OW35938   4.637   1.809   6.426  0.4145  0.5073  0.1897
 8160SOL    HW135939   4.656   1.725   6.467 -1.6823 -0.6042 -1.0969
 8160SOL    HW235940   4.675   1.800   6.339 -1.0484  0.0247 -0.4100
 8161SOL     OW35941   1.790   3.167   0.314  0.0649 -0.1301  0.0466
 8161SOL    HW135942   1.772   3.146   0.406 -4.3188 -1.7204 -1.1681
 8161SOL    HW235943   1.706   3.143   0.275 -1.2342  3.8610  0.2936
 8162SOL     OW35944   0.491   0.469   3.731 -0.3391 -0.5403 -0.3796
 8162SOL    HW135945   0.572   0.517   3.720 -1.8440  2.2193  0.6584
 8162SOL    HW235946   0.467   0.511   3.814 -1.8762  2.1778 -2.2209
 8163SOL     OW35947   3.005   3.379   6.220  0.1112 -0.3954 -0.1731
 8163SOL    HW135948   3.017   3.428   6.301  0.1149  0.7581 -0.8663
 8163SOL    HW235949   3.092   3.403   6.188 -0.2692  2.0686  0.6346
 8164SOL     OW35950   0.375   3.998   6.638  0.1265 -0.1808  0.0276
 8164SOL    HW135951   0.288   3.974   6.606 -0.2392  1.9612 -0.5250
 8164SOL    HW235952   0.351   4.071   6.694  2.0896  0.7896 -0.4202
 8165SOL     OW35953   2.322   4.229   8.710  0.5085 -0.0700 -0.5456
 8165SOL    HW135954   2.304   4.149   8.759  0.1424  2.8726  4.1314
 8165SOL    HW235955   2.372   4.202   8.632  2.8336  1.6868  0.3387
 8166SOL     OW35956   2.496   1.785   4.358 -0.0563  0.5189 -0.4806
 8166SOL    HW135957   2.589   1.805   4.350  0.2324 -0.7013 -0.1997
 8166SOL    HW235958   2.465   1.875   4.359 -1.4296  0.0518  0.1532
 8167SOL     OW35959   4.069   4.680   5.021  0.0785  0.1268 -0.8832
 8167SOL    HW135960   3.991   4.626   5.019  0.5401 -0.6204  0.9624
 8167SOL    HW235961   4.040   0.045   4.992 -0.6263 -0.4060 -1.7797
 8168SOL     OW35962   2.910   0.391   8.356  0.2338  0.5683  0.0748
 8168SOL    HW135963   2.826   0.351   8.335  0.0578  1.0605 -0.1565
 8168SOL    HW235964   2.951   0.347   8.431 -0.2779  1.4941  0.9102
 8169SOL     OW35965   4.138   0.066  11.267  0.1965 -0.0499 -0.0086
 8169SOL    HW135966   4.228   0.082  11.237  1.8549 -2.7021  3.6718
 8169SOL    HW235967   4.158   0.023  11.350  0.0871 -0.0411  0.0215
 8170SOL     OW35968   2.180   0.701  10.877  0.1733 -0.6708  0.0998
 8170SOL    HW135969   2.243   0.770  10.857  0.9896 -1.1943  0.8397
 8170SOL    HW235970   2.095   0.744  10.884  0.5324  0.2250 -0.9936
 8171SOL     OW35971   4.160   1.225   5.077 -0.2279  0.3617 -0.2640
 8171SOL    HW135972   4.206   1.265   5.151 -1.9594  2.2459 -0.1857
 8171SOL    HW235973   4.068   1.233   5.102  0.2214  1.8407  0.9540
 8172SOL     OW35974   3.718   1.605   1.067 -0.5365 -0.4153 -0.3128
 8172SOL    HW135975   3.666   1.570   1.140  2.0517 -2.6350  0.4318
 8172SOL    HW235976   3.718   1.701   1.070  0.4240 -0.4225 -0.2510
 8173SOL     OW35977   0.561   0.032  14.282 -0.1738 -0.0990  0.0223
 8173SOL    HW135978   0.556   4.660  14.266 -2.4754 -0.2108  1.3062
 8173SOL    HW235979   0.630   0.037  14.348  0.3025  0.1300 -0.4990
 8174SOL     OW35980   0.748   3.380   4.299  0.0978 -0.7140 -0.2073
 8174SOL    HW135981   0.758   3.340   4.386 -0.5755  0.3141  0.3368
 8174SOL    HW235982   0.828   3.358   4.251  0.6319 -2.8188  1.6442
 8175SOL     OW35983   0.433   3.449  15.845 -0.2405  0.3717 -0.3437
 8175SOL    HW135984   0.384   3.382  15.893  1.5716  2.5519  4.5497
 8175SOL    HW235985   0.371   3.520  15.827  0.0001  0.5523 -0.4568
 8176SOL     OW35986   1.504   4.079   8.132 -0.4086  0.7619 -0.2104
 8176SOL    HW135987   1.477   4.049   8.045 -0.8236  0.1798  0.1243
 8176SOL    HW235988   1.479   4.171   8.137 -0.5857  0.7608 -1.1237
 8177SOL     OW35989   1.028   3.601   4.538  0.3920  0.4104  0.4452
 8177SOL    HW135990   1.050   3.647   4.619  1.5772  2.1366 -0.8696
 8177SOL    HW235991   1.024   3.510   4.568  0.4125  0.2044 -0.1754
 8178SOL     OW35992   0.843   3.544   3.201 -0.2913  0.0468  0.0880
 8178SOL    HW135993   0.841   3.464   3.148 -2.0145  0.9862 -1.2261
 8178SOL    HW235994   0.925   3.585   3.176  0.0027 -1.0782 -0.7933
 8179SOL     OW35995   2.568   4.248   4.798 -0.9736  0.2399 -0.0103
 8179SOL    HW135996   2.496   4.277   4.742 -1.4806 -0.6170  0.2076
 8179SOL    HW235997   2.598   4.336   4.820  1.3352 -0.4308 -0.4587
 8180SOL     OW35998   3.652   0.283  11.207 -0.5104 -0.0390 -0.2553
 8180SOL    HW135999   3.605   0.222  11.150 -0.6496  1.8272 -2.1291
 8180SOL    HW236000   3.596   0.308  11.281  0.4962 -0.4150  0.6350
 8181SOL     OW36001   2.320   1.047   3.388  0.0059 -0.5653 -0.5096
 8181SOL    HW136002   2.352   1.125   3.435 -2.3039 -0.6126  1.1993
 8181SOL    HW236003   2.346   1.073   3.300 -0.3212  1.5603  0.0004
 8182SOL     OW36004   3.704   2.350   3.990  0.0104 -0.1359 -0.3940
 8182SOL    HW136005   3.748   2.435   3.993  0.7777 -0.6598  3.7849
 8182SOL    HW236006   3.758   2.309   3.922  2.3989  3.6485 -0.7888
 8183SOL     OW36007   2.232   2.040  14.082  0.3295  0.1853  0.2342
 8183SOL    HW136008   2.143   2.037  14.118 -0.1584  2.5694 -0.7586
 8183SOL    HW236009   2.283   1.966  14.114  0.4276 -0.1375 -0.6859
 8184SOL     OW36010   2.525   0.506   3.941  0.0950 -0.0538 -0.2751
 8184SOL    HW136011   2.513   0.541   4.029  2.7667 -2.0288  0.8458
 8184SOL    HW236012   2.467   0.558   3.885 -0.6614 -2.0639 -1.3647
 8185SOL     OW36013   1.088   1.940   0.937 -0.0458 -0.4216 -0.5924
 8185SOL    HW136014   1.100   1.987   0.855 -0.3548 -0.2556 -0.5387
 8185SOL    HW236015   1.107   1.848   0.917  4.0657 -0.0721  1.6079
 8186SOL     OW36016   0.830   1.889   6.614  0.8171  0.5597  0.1220
 8186SOL    HW136017   0.760   1.954   6.623  2.1622  1.8175  1.4003
 8186SOL    HW236018   0.896   1.938   6.663  1.4790  0.0535 -0.2503
 8187SOL     OW36019   1.679   0.333   7.209  0.1541  0.5984 -0.2873
 8187SOL    HW136020   1.621   0.257   7.209  1.4108 -0.3619  0.3242
 8187SOL    HW236021   1.616   0.403   7.225 -0.6719 -0.0785 -0.5498
 8188SOL     OW36022   2.492   2.803   5.330  0.3732  0.1144  0.3843
 8188SOL    HW136023   2.575   2.793   5.284  0.2849  1.5847 -0.1160
 8188SOL    HW236024   2.515   2.838   5.416  1.8308 -0.0375  0.0437
 8189SOL     OW36025   4.381   0.925  12.841  0.3123  0.4256  0.5442
 8189SOL    HW136026   4.441   0.871  12.790 -3.3695 -1.5941 -1.6591
 8189SOL    HW236027   4.347   0.864  12.905 -0.5400 -2.3662 -2.5795
 8190SOL     OW36028   0.111   1.104  16.592  0.3431  0.2669 -0.1302
 8190SOL    HW136029   0.116   1.034  16.528  2.5975  0.8404 -0.5628
 8190SOL    HW236030   0.045   1.070  16.653 -0.6491  1.0919 -0.7404
 8191SOL     OW36031   4.272   4.486  11.330 -0.4063  0.5635  0.4216
 8191SOL    HW136032   4.207   4.480  11.260 -0.3091  2.0534  0.2048
 8191SOL    HW236033   4.236   4.558  11.382  0.7891  0.2398  1.6965
 8192SOL     OW36034   3.183   3.995   8.189  0.2793  0.9530  0.0816
 8192SOL    HW136035   3.186   3.914   8.137 -1.6143  0.7964  0.2177
 8192SOL    HW236036   3.093   4.024   8.173 -0.9338 -2.1266  1.2770
 8193SOL     OW36037   0.594   1.834   5.340 -0.1969  0.1175 -0.0189
 8193SOL    HW136038   0.556   1.882   5.413 -0.2859  1.3388 -0.8671
 8193SOL    HW236039   0.685   1.831   5.368  0.0125 -1.3607 -0.8770
 8194SOL     OW36040   1.639   2.370  16.702 -1.1724  0.5459 -0.5863
 8194SOL    HW136041   1.588   2.451  16.708 -0.5244  0.7462  2.1443
 8194SOL    HW236042   1.643   2.347  16.609  2.2748  2.1015 -0.8055
 8195SOL     OW36043   1.497   1.252  14.368 -0.0044 -0.3810  0.3197
 8195SOL    HW136044   1.510   1.306  14.290  1.1574 -0.4653  0.4509
 8195SOL    HW236045   1.548   1.299  14.434 -0.0620  0.0818  0.0337
 8196SOL     OW36046   1.477   2.858   4.558  0.0108 -0.0853  0.6894
 8196SOL    HW136047   1.406   2.804   4.591 -0.4530  0.3283  0.3585
 8196SOL    HW236048   1.455   2.881   4.468 -2.4361 -0.9672  1.0872
 8197SOL     OW36049   4.345   2.836   8.390  0.3064 -0.2735 -1.0813
 8197SOL    HW136050   4.336   2.789   8.308  0.1396  0.2561 -1.3707
 8197SOL    HW236051   4.432   2.814   8.424 -0.1398 -0.1820  0.1165
 8198SOL     OW36052   3.423   2.390   3.497 -0.6455  0.2248  0.2361
 8198SOL    HW136053   3.460   2.364   3.581  1.0286  0.1015 -0.5337
 8198SOL    HW236054   3.375   2.309   3.480 -1.7307  1.5355 -2.9254
 8199SOL     OW36055   3.175   3.527  14.706 -0.2675  0.4147  0.2281
 8199SOL    HW136056   3.093   3.515  14.753  0.3866  2.1257  1.8094
 8199SOL    HW236057   3.204   3.444  14.668  1.8343  0.5556  1.5449
 8200SOL     OW36058   3.139   1.236   7.351  0.2139  0.2115 -0.0349
 8200SOL    HW136059   3.201   1.206   7.284  2.2141  1.0996  1.4113
 8200SOL    HW236060   3.191   1.293   7.408 -0.6605  0.5710  0.4036
 8201SOL     OW36061   4.195   2.517  16.161  0.0180 -0.3097 -0.1651
 8201SOL    HW136062   4.103   2.514  16.185  0.1343  0.0368  0.3410
 8201SOL    HW236063   4.207   2.431  16.121  0.5617 -1.2526  2.0114
 8202SOL     OW36064   4.553   4.025   4.710 -0.5760 -0.2445  0.0929
 8202SOL    HW136065   4.639   3.983   4.702  0.3670  1.5269  0.9102
 8202SOL    HW236066   4.524   3.994   4.795 -0.5365 -0.6704 -0.0474
 8203SOL     OW36067   2.603   3.138  16.156 -0.1114 -0.2198 -0.1844
 8203SOL    HW136068   2.572   3.211  16.103  1.6062  0.1010 -0.7377
 8203SOL    HW236069   2.658   3.088  16.097  2.0613 -0.2423  1.8501
 8204SOL     OW36070   1.149   4.635   3.617 -0.0556  0.2210  0.8568
 8204SOL    HW136071   1.230   4.648   3.568  0.8943  0.7195  2.5360
 8204SOL    HW236072   1.083   4.622   3.550  0.2807 -1.0183  0.7735
 8205SOL     OW36073   4.260   0.726   8.410 -0.2154 -0.4891  0.4215
 8205SOL    HW136074   4.283   0.679   8.490  1.8876 -2.3108 -1.2296
 8205SOL    HW236075   4.287   0.814   8.435 -2.3986  0.5340 -0.7787
 8206SOL     OW36076   3.219   3.799  14.666  0.7580  0.0864 -0.4734
 8206SOL    HW136077   3.307   3.777  14.633  0.3215 -1.5494 -0.5791
 8206SOL    HW236078   3.183   3.714  14.692 -1.1748  1.0986  0.1036
 8207SOL     OW36079   4.066   2.356  12.647 -0.5152 -0.2605 -0.6628
 8207SOL    HW136080   4.159   2.381  12.653 -0.7471 -0.1439  2.9596
 8207SOL    HW236081   4.055   2.304  12.727 -0.6117  0.4235 -0.2202
 8208SOL     OW36082   3.654   3.847   8.944  0.3529  0.4881 -0.0176
 8208SOL    HW136083   3.585   3.889   8.996 -1.9640 -3.4083  0.0441
 8208SOL    HW236084   3.737   3.855   8.990 -0.0642  0.2649  0.7759
 8209SOL     OW36085   2.804   0.564   9.457  0.1881 -0.7554 -0.0556
 8209SOL    HW136086   2.800   0.655   9.428 -0.2469 -1.3796 -1.9583
 8209SOL    HW236087   2.829   0.580   9.548  0.6569  0.5989 -0.4167
 8210SOL     OW36088   4.393   3.345   4.410  0.2948  0.0006  0.0107
 8210SOL    HW136089   4.309   3.383   4.386  0.0160 -1.3605 -1.1555
 8210SOL    HW236090   4.422   3.426   4.451  0.9227 -1.6926  2.9575
 8211SOL     OW36091   0.377   0.306  13.357  0.7358  0.4944  0.1566
 8211SOL    HW136092   0.307   0.345  13.410  0.9170 -0.5693  1.1823
 8211SOL    HW236093   0.340   0.303  13.269  1.5425  1.2286 -0.2107
 8212SOL     OW36094   1.686   2.128   9.426  0.1226 -0.1944 -0.1428
 8212SOL    HW136095   1.608   2.075   9.443 -0.0870  1.0417  2.7209
 8212SOL    HW236096   1.667   2.206   9.478 -3.8094 -1.0751 -0.2818
 8213SOL     OW36097   1.998   1.294   6.906 -0.3973  0.1189 -0.4326
 8213SOL    HW136098   2.057   1.352   6.858 -0.6072  1.0989  0.5018
 8213SOL    HW236099   2.035   1.307   6.993  3.9949 -1.6356 -2.0425
 8214SOL     OW36100   0.337   4.386   2.225  0.1394  0.7522 -0.1874
 8214SOL    HW136101   0.432   4.394   2.218  0.4000  1.2473  3.9049
 8214SOL    HW236102   0.316   4.450   2.156 -0.6899  1.7561  0.9889
 8215SOL     OW36103   4.192   1.803   0.120  0.5299  0.1954 -0.0266
 8215SOL    HW136104   4.258   1.836   0.181  1.8443 -0.8522 -0.8872
 8215SOL    HW236105   4.198   1.709   0.135 -1.6077 -0.1982 -1.5253
 8216SOL     OW36106   3.267   4.453  11.172  0.1167 -0.0414 -0.2598
 8216SOL    HW136107   3.301   4.385  11.231  1.1126 -0.2718 -1.0917
 8216SOL    HW236108   3.252   4.408  11.089 -0.6129  1.3605 -0.8916
 8217SOL     OW36109   0.481   3.991   9.463 -0.2986 -0.3250  0.1926
 8217SOL    HW136110   0.561   3.983   9.515 -0.4886 -1.8610  0.2721
 8217SOL    HW236111   0.421   3.933   9.510 -0.4287 -1.0640 -0.8857
 8218SOL     OW36112   2.956   3.236   2.846 -0.4163  0.0141  0.6465
 8218SOL    HW136113   2.941   3.306   2.783 -0.6935 -0.5483  0.0833
 8218SOL    HW236114   2.997   3.173   2.786 -0.1985  0.9617 -0.1991
 8219SOL     OW36115   4.433   1.562  10.913  0.1866  0.3954 -0.2658
 8219SOL    HW136116   4.484   1.488  10.879  0.5997  0.4155  0.3229
 8219SOL    HW236117   4.473   1.575  10.998  0.3129 -1.0517 -0.1076
 8220SOL     OW36118   3.405   0.411   9.427  0.2576  0.2363  0.3761
 8220SOL    HW136119   3.496   0.421   9.397  0.5806 -0.6057  1.0796
 8220SOL    HW236120   3.360   0.492   9.403  0.7387  0.0014 -1.3157
 8221SOL     OW36121   1.735   3.719   8.493  0.2965  0.0292 -0.2621
 8221SOL    HW136122   1.654   3.706   8.444 -0.5904  0.1608  1.1967
 8221SOL    HW236123   1.785   3.773   8.431  0.9334  0.9263  1.0372
 8222SOL     OW36124   2.310   1.297   1.830 -0.1012 -0.1205  0.0556
 8222SOL    HW136125   2.346   1.211   1.854 -1.9160 -0.7062  0.6855
 8222SOL    HW236126   2.386   1.352   1.851 -2.6454  3.5024 -0.2182
 8223SOL     OW36127   1.950   1.500   6.538  0.2009 -0.1307  0.0504
 8223SOL    HW136128   1.894   1.464   6.607  0.8830 -2.0417 -0.4019
 8223SOL    HW236129   2.017   1.432   6.534  1.6273  1.4290 -2.7570
 8224SOL     OW36130   3.651   3.769   9.710 -0.2413  0.0316  0.1380
 8224SOL    HW136131   3.622   3.773   9.619 -0.0426 -1.5030  0.0107
 8224SOL    HW236132   3.694   3.852   9.730  0.0571 -0.8917  3.3440
 8225SOL     OW36133   4.462   3.687   8.798 -0.4021 -0.4235  0.2561
 8225SOL    HW136134   4.406   3.642   8.861  1.6184 -2.2278  0.7543
 8225SOL    HW236135   4.413   3.687   8.716 -0.1081  2.0510  0.0870
 8226SOL     OW36136   2.149   2.394   8.251  0.8278  0.0878 -0.0867
 8226SOL    HW136137   2.243   2.407   8.260  0.3700  3.0591  0.6447
 8226SOL    HW236138   2.134   2.437   8.167  1.8103 -1.7322 -1.1864
 8227SOL     OW36139   2.905   2.170   5.196  0.5543  0.2145 -0.1143
 8227SOL    HW136140   2.952   2.228   5.256  0.4268  2.5647 -2.2634
 8227SOL    HW236141   2.896   2.092   5.250 -0.0844  2.0431  2.4027
 8228SOL     OW36142   0.385   4.403   8.359  0.2701  0.5438 -0.0618
 8228SOL    HW136143   0.401   4.403   8.453 -2.4214  0.0838  0.3861
 8228SOL    HW236144   0.350   4.314   8.354  0.2537  0.5671 -0.3831
 8229SOL     OW36145   0.974   3.537  16.748 -0.1889 -0.1043 -0.8338
 8229SOL    HW136146   0.902   3.489  16.789 -0.0485 -0.3285 -0.8503
 8229SOL    HW236147   0.931   3.576  16.671  3.4553  3.5079 -1.0102
 8230SOL     OW36148   1.651   0.185   3.422  0.7622  0.6786  0.7642
 8230SOL    HW136149   1.613   0.204   3.337  3.8263 -1.1285 -0.9858
 8230SOL    HW236150   1.709   0.113   3.398  0.5205  0.1633  1.6899
 8231SOL     OW36151   3.115   2.923   8.788  0.0308  0.1031 -0.1383
 8231SOL    HW136152   3.196   2.873   8.797  0.6191  0.9567 -0.6825
 8231SOL    HW236153   3.064   2.861   8.840 -0.2452  0.1049 -0.4076
 8232SOL     OW36154   1.807   0.284   5.883 -0.4987  0.1106 -0.5111
 8232SOL    HW136155   1.885   0.338   5.895  0.9425 -1.8154 -1.4353
 8232SOL    HW236156   1.782   0.305   5.793  0.4641  0.6908 -0.6440
 8233SOL     OW36157   2.276   4.400   6.966  0.1697  0.3477 -0.7465
 8233SOL    HW136158   2.289   4.364   7.054  0.2022  0.0767 -0.8619
 8233SOL    HW236159   2.215   4.471   6.987 -0.6143 -0.1741 -1.2759
 8234SOL     OW36160   1.572   4.093  15.974  0.1201  0.0355  0.1808
 8234SOL    HW136161   1.502   4.101  15.909  0.0387 -0.3235  0.2280
 8234SOL    HW236162   1.597   4.184  15.991 -0.3956  0.4722 -1.4426
 8235SOL     OW36163   0.926   3.581   6.966 -0.6226  0.6045 -0.1965
 8235SOL    HW136164   0.997   3.580   7.030 -1.3768 -0.5214  0.6107
 8235SOL    HW236165   0.850   3.558   7.019  1.1706  0.2969  2.2343
 8236SOL     OW36166   3.759   2.995   8.703  0.2170  0.2319 -0.0563
 8236SOL    HW136167   3.852   2.994   8.726  0.2359 -1.6902 -0.2425
 8236SOL    HW236168   3.725   2.952   8.782 -0.8901  1.1952  0.0084
 8237SOL     OW36169   0.303   3.799   5.487  0.3361 -0.3492 -0.0123
 8237SOL    HW136170   0.342   3.762   5.566 -2.4080 -3.4172 -0.1249
 8237SOL    HW236171   0.336   3.888   5.498  0.5699 -0.5207  0.6435
 8238SOL     OW36172   2.522   4.510  15.855  0.6934 -0.9256  0.2351
 8238SOL    HW136173   2.576   4.431  15.862  2.2616  0.1120 -0.1161
 8238SOL    HW236174   2.565   4.551  15.781 -1.0613 -0.1320 -0.3283
 8239SOL     OW36175   4.203   0.607   8.881 -0.2663 -0.0082  0.1213
 8239SOL    HW136176   4.297   0.593   8.866 -0.4515 -0.0466 -0.9898
 8239SOL    HW236177   4.163   0.534   8.834  1.7258  0.2965 -2.0282
 8240SOL     OW36178   2.223   1.959   5.219  0.2523 -0.1112 -0.4224
 8240SOL    HW136179   2.140   1.914   5.234  0.9539 -1.8600 -1.7398
 8240SOL    HW236180   2.228   1.966   5.123  0.7100 -1.0972 -0.4674
 8241SOL     OW36181   3.926   3.465   2.238  0.1361 -0.0401 -0.1766
 8241SOL    HW136182   3.839   3.482   2.275 -0.5649 -0.0479 -1.8083
 8241SOL    HW236183   3.960   3.553   2.223  0.9911 -0.1510  1.1297
 8242SOL     OW36184   1.446   0.416   6.828  0.1136 -0.4916  0.2692
 8242SOL    HW136185   1.369   0.414   6.883 -0.9230 -4.6262 -1.2924
 8242SOL    HW236186   1.426   0.493   6.775 -0.2913 -1.2436 -0.6871
 8243SOL     OW36187   3.461   2.091  16.105  0.3681  0.0262  0.0377
 8243SOL    HW136188   3.422   2.171  16.070 -1.2229 -0.2600  1.1384
 8243SOL    HW236189   3.523   2.065  16.038  0.9852  2.1195 -0.2003
 8244SOL     OW36190   1.860   2.139   7.435 -0.5291 -0.2347  0.3586
 8244SOL    HW136191   1.838   2.094   7.354  0.2126  0.1044 -0.0303
 8244SOL    HW236192   1.872   2.230   7.406 -1.3595  0.3998  1.9944
 8245SOL     OW36193   1.597   2.279   5.286 -0.6296  0.1168 -0.0987
 8245SOL    HW136194   1.543   2.226   5.228 -1.6393  2.7722 -1.5711
 8245SOL    HW236195   1.529   2.305   5.349 -2.8718 -2.3663 -1.5496
 8246SOL     OW36196   2.621   1.034  17.624  0.0648 -0.5297 -0.1426
 8246SOL    HW136197   2.570   0.958  17.598 -0.8103  0.1466 -0.3873
 8246SOL    HW236198   2.705   1.007  17.587  0.3486  0.0340  0.0953
 8247SOL     OW36199   1.861   2.070   7.166  0.2567 -0.4343 -0.8640
 8247SOL    HW136200   1.842   2.149   7.116  0.8631 -0.2556 -0.8118
 8247SOL    HW236201   1.778   2.028   7.145 -1.2460  3.0813 -2.0043
 8248SOL     OW36202   2.979   2.218   9.186  0.4085 -0.4369  0.0452
 8248SOL    HW136203   2.920   2.146   9.208 -2.2317  1.2112 -1.6362
 8248SOL    HW236204   3.066   2.178   9.180  0.4470 -0.4421  0.6983
 8249SOL     OW36205   2.178   0.298   2.389  0.0753 -0.4061 -0.4325
 8249SOL    HW136206   2.107   0.256   2.340  0.7205 -0.3311 -1.4258
 8249SOL    HW236207   2.237   0.328   2.320 -1.6153  0.2556 -1.5700
 8250SOL     OW36208   4.168   4.493   2.700 -0.8138 -0.4316 -0.4949
 8250SOL    HW136209   4.129   4.418   2.656 -2.1711  0.6702 -1.1920
 8250SOL    HW236210   4.240   4.461   2.754 -1.1803  1.3359  1.0252
 8251SOL     OW36211   1.050   3.034  15.396 -0.6801  0.2931  0.0911
 8251SOL    HW136212   1.028   3.030  15.302  2.3272  0.7270 -0.6318
 8251SOL    HW236213   1.075   2.942  15.401 -0.4211  0.2932 -1.0792
 8252SOL     OW36214   4.278   3.903   9.489  0.5930  0.4961 -0.2815
 8252SOL    HW136215   4.282   3.808   9.497 -1.7249  0.3117 -1.1998
 8252SOL    HW236216   4.259   3.925   9.581  0.3428  1.1202 -0.4809
 8253SOL     OW36217   2.546   1.925   6.026 -0.2216 -0.3728  0.3948
 8253SOL    HW136218   2.490   1.869   6.079 -0.2875 -0.6771 -0.0026
 8253SOL    HW236219   2.617   1.868   5.998  0.2783  0.2186  0.4495
 8254SOL     OW36220   1.426   4.341   8.151  0.6722  0.2988 -0.3856
 8254SOL    HW136221   1.392   4.303   8.232  0.8874  0.5298 -0.1896
 8254SOL    HW236222   1.444   4.429   8.183 -0.8642 -0.5976  2.9185
 8255SOL     OW36223   3.194   0.096   0.895  0.2607  0.6442  0.0234
 8255SOL    HW136224   3.127   0.164   0.887 -1.6324 -1.0933  1.2551
 8255SOL    HW236225   3.186   0.036   0.820 -0.2903  0.0298  0.5760
 8256SOL     OW36226   1.946   2.625  10.540  0.0274  0.3371  0.4864
 8256SOL    HW136227   1.992   2.571  10.604  1.8067 -0.4179 -1.4319
 8256SOL    HW236228   1.955   2.720  10.551  1.5686  0.4302 -1.5973
 8257SOL     OW36229   4.153   3.983   4.741  0.8347 -0.9966 -0.6028
 8257SOL    HW136230   4.067   4.017   4.715  1.0520 -0.8623 -1.1259
 8257SOL    HW236231   4.129   3.912   4.801  0.7354 -1.4558 -1.1881
 8258SOL     OW36232   2.391   2.441   2.686  0.5186  0.7288  0.1516
 8258SOL    HW136233   2.324   2.374   2.695 -1.3204  2.2715 -2.1135
 8258SOL    HW236234   2.473   2.394   2.703  1.1518  0.9578 -2.2374
 8259SOL     OW36235   0.484   0.332   8.815  0.3374 -0.2387 -0.1041
 8259SOL    HW136236   0.485   0.394   8.741  1.2314 -1.0983 -0.8142
 8259SOL    HW236237   0.480   0.247   8.770  2.1558 -0.7714  0.7393
 8260SOL     OW36238   2.244   1.596  11.367  0.1047  0.0375  0.0850
 8260SOL    HW136239   2.200   1.650  11.301  0.4610  2.7363  2.0409
 8260SOL    HW236240   2.261   1.665  11.432 -1.2193 -2.7912  3.4594
 8261SOL     OW36241   0.243   4.662   3.325  0.0727  0.3329  0.7917
 8261SOL    HW136242   0.248   4.668   3.421  1.3923  1.0002  0.6848
 8261SOL    HW236243   0.159   4.618   3.316 -0.6122  1.4774  1.5340
 8262SOL     OW36244   4.540   0.731   4.923  0.0064  0.6848 -0.2806
 8262SOL    HW136245   4.609   0.747   4.859  0.2866 -0.1216 -0.1924
 8262SOL    HW236246   4.545   0.811   4.975 -1.2562 -0.0258  0.9590
 8263SOL     OW36247   1.775   2.164   8.840  0.0786 -0.2573 -0.6766
 8263SOL    HW136248   1.832   2.194   8.910 -0.5085  2.4944 -1.3659
 8263SOL    HW236249   1.832   2.151   8.764  0.5495 -0.8575 -0.2205
 8264SOL     OW36250   1.009   2.306   6.559  0.6962  0.2348  0.2524
 8264SOL    HW136251   1.064   2.241   6.513 -1.0370  0.1391 -1.6736
 8264SOL    HW236252   1.073   2.377   6.558 -0.8820  1.5777 -2.5451
 8265SOL     OW36253   1.284   0.682   3.581 -0.5389 -0.2153 -0.1553
 8265SOL    HW136254   1.231   0.614   3.540  0.9700 -1.8522  0.6017
 8265SOL    HW236255   1.334   0.714   3.506  0.6201 -1.6861  0.0114
 8266SOL     OW36256   2.164   0.169   9.670  0.4625 -0.3708  0.7321
 8266SOL    HW136257   2.071   0.190   9.660  0.5128 -0.0361  0.9786
 8266SOL    HW236258   2.191   0.235   9.733 -0.4209  1.4129 -0.7483
 8267SOL     OW36259   3.692   2.663   6.203  0.1632  0.1086 -0.5933
 8267SOL    HW136260   3.615   2.692   6.155 -0.4611  2.0342  1.5282
 8267SOL    HW236261   3.686   2.708   6.288  0.5060 -0.5043 -0.2458
 8268SOL     OW36262   0.995   0.073   5.058  0.4464 -0.2823  0.1214
 8268SOL    HW136263   0.958   0.029   4.982 -2.1959  0.9331  0.7052
 8268SOL    HW236264   1.034   0.154   5.026 -1.3422  0.6707  0.3178
 8269SOL     OW36265   1.928   3.594   5.484 -0.1753  0.4268  0.1737
 8269SOL    HW136266   1.834   3.587   5.467  0.3074 -1.8932 -1.4442
 8269SOL    HW236267   1.939   3.530   5.555  0.2705 -0.8189 -1.0299
 8270SOL     OW36268   0.097   3.977   2.938 -0.0045 -0.1687 -0.2140
 8270SOL    HW136269   0.166   4.024   2.890 -0.0386  0.1044  0.0054
 8270SOL    HW236270   0.022   4.002   2.884  0.0277 -2.3476 -1.2761
 8271SOL     OW36271   2.660   2.932  14.472  0.0362 -0.4403  0.0848
 8271SOL    HW136272   2.706   3.016  14.484 -2.4598  1.0319 -0.5976
 8271SOL    HW236273   2.676   2.885  14.554  1.5378 -2.9025 -1.6273
 8272SOL     OW36274   0.158   1.916  13.831 -0.3097  0.0360  0.6231
 8272SOL    HW136275   0.110   1.897  13.750  0.7737  3.0708 -0.7234
 8272SOL    HW236276   0.176   1.825  13.856  1.7073 -0.0681 -1.2450
 8273SOL     OW36277   1.866   3.230   9.587  0.0676  0.6734  0.3141
 8273SOL    HW136278   1.916   3.199   9.663  0.3565 -1.3013 -0.6586
 8273SOL    HW236279   1.818   3.304   9.623 -1.8513  0.4621 -1.7862
 8274SOL     OW36280   3.703   1.153   3.157 -0.5298  0.0264  0.3151
 8274SOL    HW136281   3.678   1.211   3.084  2.1797  0.3657 -0.3213
 8274SOL    HW236282   3.619   1.121   3.190  0.0691 -2.7235 -0.8353
 8275SOL     OW36283   4.182   0.471   4.968  0.3058  0.6734  0.0007
 8275SOL    HW136284   4.269   0.474   5.009 -0.8035 -0.5031  2.4548
 8275SOL    HW236285   4.197   0.507   4.881 -0.7816  1.6187  0.2073
 8276SOL     OW36286   0.424   3.568   7.442 -0.1000 -0.0530  0.2012
 8276SOL    HW136287   0.355   3.501   7.436  0.4949 -0.5506 -1.2230
 8276SOL    HW236288   0.496   3.517   7.480  0.1036  0.5538  0.6295
 8277SOL     OW36289   3.716   1.340  14.368 -0.1720 -0.1786  0.3547
 8277SOL    HW136290   3.797   1.388  14.354 -1.7613  1.4600 -3.1914
 8277SOL    HW236291   3.698   1.368  14.458 -1.6916 -0.0397  0.0065
 8278SOL     OW36292   1.278   1.119   5.968 -0.0663  0.2452  0.6994
 8278SOL    HW136293   1.291   1.198   5.917  1.9645 -0.3210  0.3588
 8278SOL    HW236294   1.204   1.152   6.020 -0.6079 -1.2581  0.8977
 8279SOL     OW36295   2.574   0.230   3.994 -0.2282  0.1021  0.3123
 8279SOL    HW136296   2.550   0.200   3.906 -0.6619  1.7510 -0.1307
 8279SOL    HW236297   2.579   0.324   3.976 -3.2102 -0.0320 -1.3211
 8280SOL     OW36298   2.627   2.148   1.995  0.6931 -0.6388  0.2875
 8280SOL    HW136299   2.626   2.053   1.981  0.6791 -0.7449  1.0326
 8280SOL    HW236300   2.547   2.176   1.950  0.2351 -2.8105 -0.2684
 8281SOL     OW36301   2.390   1.779  14.030  0.0256  0.4125 -0.7367
 8281SOL    HW136302   2.404   1.687  14.008  2.0923  0.5268  0.1098
 8281SOL    HW236303   2.462   1.797  14.091 -0.4495  0.1507 -0.0981
 8282SOL     OW36304   2.182   1.004  10.451  0.5610  0.4231  0.2529
 8282SOL    HW136305   2.157   1.085  10.408 -1.8565 -0.3545  0.1774
 8282SOL    HW236306   2.277   1.015  10.450  0.5283  0.8179  1.4799
 8283SOL     OW36307   1.809   2.941   4.863  0.3025  0.5836  0.2721
 8283SOL    HW136308   1.848   2.889   4.793 -0.3073  0.7026 -0.1574
 8283SOL    HW236309   1.862   2.912   4.937 -1.0450  1.3116  1.5224
 8284SOL     OW36310   2.142   3.521   5.903 -0.4865  0.3662  0.6807
 8284SOL    HW136311   2.132   3.452   5.968 -0.0240 -0.8338 -0.5076
 8284SOL    HW236312   2.091   3.485   5.830  2.4562 -1.7253 -0.3825
 8285SOL     OW36313   0.765   0.309   7.374  0.6016  0.7922  0.1367
 8285SOL    HW136314   0.695   0.297   7.309  0.2586  0.0030  0.6643
 8285SOL    HW236315   0.746   0.251   7.447  1.4214 -1.4396 -1.4405
 8286SOL     OW36316   4.552   0.090  14.182  0.1923  0.3173  0.6704
 8286SOL    HW136317   4.648   0.088  14.186  0.2640 -0.0409 -1.4757
 8286SOL    HW236318   4.537   0.014  14.238 -1.0838 -0.1234 -0.2609
 8287SOL     OW36319   4.253   2.595  12.249  0.7702 -0.4638  0.0163
 8287SOL    HW136320   4.169   2.550  12.241  0.1267  1.0804 -1.9304
 8287SOL    HW236321   4.306   2.548  12.313  1.1938  0.8638  0.6469
 8288SOL     OW36322   1.753   1.945   3.880  0.4033  0.5027 -0.6607
 8288SOL    HW136323   1.711   2.014   3.829 -1.6979 -0.3069 -0.0031
 8288SOL    HW236324   1.802   1.896   3.813  0.6965 -2.2051  1.5362
 8289SOL     OW36325   1.429   0.742   3.337  0.8735 -0.8449 -0.1289
 8289SOL    HW136326   1.480   0.781   3.266  0.9095  1.0436  0.9114
 8289SOL    HW236327   1.448   0.813   3.398 -1.5224 -1.7609  1.6500
 8290SOL     OW36328   0.819   0.983   6.894  0.0403 -0.2482 -0.4475
 8290SOL    HW136329   0.844   1.067   6.855 -1.0305  0.1555 -0.2831
 8290SOL    HW236330   0.901   0.937   6.881 -0.6024 -0.9440 -2.0179
 8291SOL     OW36331   0.654   2.404   7.121  0.4774 -0.0143  0.1117
 8291SOL    HW136332   0.680   2.452   7.200 -0.4785  1.3541 -0.4018
 8291SOL    HW236333   0.726   2.424   7.061 -0.8013 -2.5035 -2.2169
 8292SOL     OW36334   3.540   3.231   1.850  0.4536 -0.4116 -0.5959
 8292SOL    HW136335   3.566   3.306   1.796  0.4311  1.4416  2.0087
 8292SOL    HW236336   3.587   3.156   1.814  0.4899 -2.1856  3.2118
 8293SOL     OW36337   3.390   1.332   7.497  0.3928 -0.1184 -0.7015
 8293SOL    HW136338   3.400   1.409   7.441 -1.9590  0.3687 -0.4814
 8293SOL    HW236339   3.381   1.364   7.587  1.9403  0.6940 -0.8440
 8294SOL     OW36340   1.098   2.499  17.271 -0.4659  0.2709  0.3929
 8294SOL    HW136341   1.096   2.407  17.248  1.2250 -0.1637  1.9397
 8294SOL    HW236342   1.018   2.536  17.235 -0.4947 -0.4425 -0.2611
 8295SOL     OW36343   4.440   1.658  15.208 -0.0574  0.1611  0.0308
 8295SOL    HW136344   4.407   1.689  15.293 -1.3607  2.0073 -1.1445
 8295SOL    HW236345   4.355   1.636  15.169 -0.6319  0.3994  1.1465
 8296SOL     OW36346   1.897   3.886   8.314 -0.2212  0.0005 -0.0371
 8296SOL    HW136347   1.880   3.825   8.242 -2.2968 -0.1372  0.5896
 8296SOL    HW236348   1.864   3.972   8.290 -0.5629  0.3025  1.5202
 8297SOL     OW36349   4.223   1.010   2.134 -0.1396  0.3232 -0.2653
 8297SOL    HW136350   4.147   0.955   2.152 -0.0889  0.9114  1.6894
 8297SOL    HW236351   4.221   1.010   2.038  0.8198 -0.4810 -0.2855
 8298SOL     OW36352   3.928   0.767   9.203 -0.2469  0.2644 -0.3835
 8298SOL    HW136353   3.861   0.763   9.270 -0.0855  0.7799 -0.1884
 8298SOL    HW236354   3.954   0.859   9.215  1.0114  0.1194 -1.9013
 8299SOL     OW36355   3.475   2.471   6.519 -0.3774  0.0406 -0.4248
 8299SOL    HW136356   3.536   2.445   6.589  0.1586 -2.5924 -1.8935
 8299SOL    HW236357   3.518   2.445   6.438 -1.6747 -3.1187 -0.1048
 8300SOL     OW36358   3.075   3.738  11.439 -0.5635 -0.5829  0.0593
 8300SOL    HW136359   3.082   3.649  11.475 -0.9930 -0.7199 -0.2043
 8300SOL    HW236360   3.103   3.782  11.520 -0.1932  1.6769 -1.3115
 8301SOL     OW36361   2.231   2.559   9.123  0.4005  0.0217  0.7805
 8301SOL    HW136362   2.135   2.564   9.119  0.2091 -3.5011  1.1069
 8301SOL    HW236363   2.263   2.649   9.111 -0.6755  0.3404  0.2739
 8302SOL     OW36364   0.543   0.750  16.992  0.0638  0.1527 -0.1029
 8302SOL    HW136365   0.492   0.810  17.047 -0.0819 -1.0472  1.0791
 8302SOL    HW236366   0.563   0.686  17.060  0.4061 -0.7381 -1.0510
 8303SOL     OW36367   3.936   0.662   3.961 -0.6662  0.3259  0.1915
 8303SOL    HW136368   3.861   0.717   3.985 -1.1566  0.7363 -2.2709
 8303SOL    HW236369   4.003   0.724   3.988  0.1994 -1.2529  1.6854
 8304SOL     OW36370   0.399   3.483   8.765 -0.2538 -0.4014 -0.1161
 8304SOL    HW136371   0.335   3.511   8.831 -0.4977  1.2491 -1.0531
 8304SOL    HW236372   0.476   3.522   8.808 -1.1237  1.8985 -0.6432
 8305SOL     OW36373   3.436   2.581   7.931  0.0899  0.3736  0.4368
 8305SOL    HW136374   3.346   2.600   7.956 -0.0692  0.9477 -0.5552
 8305SOL    HW236375   3.420   2.533   7.849  3.9707  1.2880 -0.8543
 8306SOL     OW36376   2.455   3.378   7.124  0.0196 -0.1409  0.1901
 8306SOL    HW136377   2.363   3.356   7.105  0.0161  0.3860 -0.4207
 8306SOL    HW236378   2.457   3.473   7.133 -0.2128 -0.2632  1.4669
 8307SOL     OW36379   0.351   3.725  14.688  0.0879 -0.3232  0.2895
 8307SOL    HW136380   0.367   3.817  14.670 -2.8254  0.2348  0.6024
 8307SOL    HW236381   0.265   3.711  14.647  1.4177 -1.4881 -2.1277
 8308SOL     OW36382   1.077   2.635   5.707 -0.2032 -0.2578 -0.1708
 8308SOL    HW136383   1.029   2.558   5.676 -0.3618  0.5094 -1.8267
 8308SOL    HW236384   1.151   2.603   5.759  0.4905  0.4530 -0.7077
 8309SOL     OW36385   3.003   0.215   5.842  0.5242  0.2855 -0.4367
 8309SOL    HW136386   3.017   0.276   5.914 -0.9084  0.5149 -0.3467
 8309SOL    HW236387   2.998   0.131   5.887 -3.2921  0.1429 -1.1369
 8310SOL     OW36388   0.905   4.551  16.063  0.3959  0.1266  0.0691
 8310SOL    HW136389   0.822   4.502  16.062 -0.8433  2.2392 -0.2549
 8310SOL    HW236390   0.896   4.586  16.152  2.1869  1.3604 -0.2362
 8311SOL     OW36391   4.601   1.092   9.087  0.0632  0.0615 -0.0661
 8311SOL    HW136392   4.576   1.021   9.027 -0.5535  0.9387 -0.8554
 8311SOL    HW236393   4.635   1.042   9.161 -4.7330 -3.1031 -0.0488
 8312SOL     OW36394   0.499   0.538   7.217  0.1920  0.8719 -0.1357
 8312SOL    HW136395   0.560   0.606   7.188  0.4630  0.6866 -0.0089
 8312SOL    HW236396   0.458   0.503   7.138  0.1233  2.3208 -0.7327
 8313SOL     OW36397   0.491   4.500   4.563  0.0644 -0.1624  0.0660
 8313SOL    HW136398   0.529   4.515   4.476  2.1365 -2.0364  0.6486
 8313SOL    HW236399   0.410   4.450   4.556  0.9382 -1.3943 -1.1343
 8314SOL     OW36400   1.933   4.267   7.026  0.2074 -0.5595  0.4528
 8314SOL    HW136401   2.009   4.265   6.968 -0.0787  0.6301  0.0306
 8314SOL    HW236402   1.865   4.229   6.971  1.0921 -4.2299  1.8902
 8315SOL     OW36403   1.080   4.135   7.514 -0.6728 -0.0048  0.0860
 8315SOL    HW136404   1.122   4.221   7.512  0.6841 -0.6942 -1.1309
 8315SOL    HW236405   1.070   4.112   7.422 -0.7322  0.8540 -0.1259
 8316SOL     OW36406   0.202   4.664   9.614  0.3952 -0.2008  0.6206
 8316SOL    HW136407   0.253   0.015   9.649  0.1303 -0.9718  2.5657
 8316SOL    HW236408   0.139   4.711   9.559  0.7964 -0.4959 -0.0893
 8317SOL     OW36409   1.383   0.514   1.424  0.0695 -0.3784 -0.4961
 8317SOL    HW136410   1.457   0.495   1.482  0.5556 -0.1251 -1.0420
 8317SOL    HW236411   1.407   0.450   1.357  2.7698 -0.8761  0.9087
 8318SOL     OW36412   1.622   0.253   4.316  0.1647 -0.1131 -0.0613
 8318SOL    HW136413   1.530   0.249   4.341  0.5599  4.6212  2.0940
 8318SOL    HW236414   1.616   0.328   4.256  0.8925  0.1590  0.2093
 8319SOL     OW36415   0.290   1.293  15.927 -0.0066 -0.0097  0.1611
 8319SOL    HW136416   0.318   1.376  15.888 -2.5328  0.7488  0.0077
 8319SOL    HW236417   0.286   1.237  15.850  0.9453  2.4681 -1.6664
 8320SOL     OW36418   0.655   3.011   6.946  0.5705  0.5658  0.2046
 8320SOL    HW136419   0.575   3.006   6.893  1.9378  0.8746 -1.9051
 8320SOL    HW236420   0.726   2.979   6.890  1.4961  2.0484  0.5229
 8321SOL     OW36421   1.132   2.563   1.866  0.4535 -0.4162  0.0295
 8321SOL    HW136422   1.224   2.535   1.866  0.9917  1.3520 -0.5341
 8321SOL    HW236423   1.109   2.587   1.777 -0.1669  2.2052  0.9058
 8322SOL     OW36424   0.127   4.702   3.068 -0.1599  0.3701 -0.2427
 8322SOL    HW136425   0.210   4.656   3.058 -0.0573  0.3594  0.6507
 8322SOL    HW236426   0.145   0.004   3.159 -0.1687 -0.0681 -0.1232
 8323SOL     OW36427   1.036   0.845   6.829  0.1538  0.4113  0.2912
 8323SOL    HW136428   1.037   0.826   6.735 -1.1133 -2.8539  0.9551
 8323SOL    HW236429   1.021   0.759   6.868 -0.2470 -0.5629 -2.0443
 8324SOL     OW36430   2.929   2.398   4.507  0.3953  0.0652 -0.5415
 8324SOL    HW136431   2.869   2.455   4.459 -2.0775 -0.6439  1.6988
 8324SOL    HW236432   2.933   2.327   4.442  0.0076 -0.2624 -0.2016
 8325SOL     OW36433   1.692   4.563   9.433  0.0352 -0.0283 -0.5349
 8325SOL    HW136434   1.781   4.531   9.426 -0.8860 -2.2186 -2.3168
 8325SOL    HW236435   1.710   4.651   9.465 -0.7587  0.1337 -0.5346
 8326SOL     OW36436   1.696   0.154   5.323 -0.0291  0.2400 -0.0499
 8326SOL    HW136437   1.686   0.110   5.239 -0.1074  0.2030 -0.0215
 8326SOL    HW236438   1.782   0.195   5.312  0.1769 -0.0957  0.2786
 8327SOL     OW36439   1.883   2.059   0.797  1.0752 -0.0002 -0.1012
 8327SOL    HW136440   1.913   2.024   0.881  0.7442 -0.5829 -0.2252
 8327SOL    HW236441   1.965   2.051   0.748  0.8878  0.5723 -0.5089
 8328SOL     OW36442   2.423   1.508  14.034  0.1904 -0.3913 -0.2322
 8328SOL    HW136443   2.422   1.468  14.121  0.1864  0.3918  0.1300
 8328SOL    HW236444   2.415   1.440  13.968  4.1036 -1.9474  0.8856
 8329SOL     OW36445   2.916   1.822   2.214  0.4521  0.0168  0.2983
 8329SOL    HW136446   2.935   1.910   2.245 -1.8514  0.7638 -0.4244
 8329SOL    HW236447   2.983   1.763   2.249  1.0625 -1.1007 -2.8030
 8330SOL     OW36448   3.587   2.906   7.928  0.4343  0.0776  0.4764
 8330SOL    HW136449   3.537   2.827   7.948 -2.4704  1.6273 -0.5673
 8330SOL    HW236450   3.655   2.885   7.865 -1.4581 -0.7269 -1.3148
 8331SOL     OW36451   2.345   2.554   7.288  0.0696 -0.0319  0.0753
 8331SOL    HW136452   2.363   2.539   7.380 -0.8835 -1.3245  0.0499
 8331SOL    HW236453   2.265   2.502   7.283 -0.8015  1.3737 -0.6923
 8332SOL     OW36454   2.639   0.593  15.249 -0.4036 -0.1503 -0.1622
 8332SOL    HW136455   2.692   0.515  15.263 -0.8011 -0.3704  0.1320
 8332SOL    HW236456   2.583   0.564  15.177  0.9182  0.6618 -1.5107
 8333SOL     OW36457   3.703   4.111   4.214  0.0068 -0.2036  0.2714
 8333SOL    HW136458   3.785   4.136   4.171  0.1066 -2.5400 -0.8975
 8333SOL    HW236459   3.666   4.198   4.231 -0.6407 -0.7301  1.6068
 8334SOL     OW36460   0.429   1.081   3.929  0.5245 -0.3743 -0.7203
 8334SOL    HW136461   0.339   1.051   3.936  0.1340  0.8526 -0.6460
 8334SOL    HW236462   0.453   1.118   3.844 -0.1849  1.8119  0.0421
 8335SOL     OW36463   4.538   3.172  14.637  0.6499  0.0164 -0.5520
 8335SOL    HW136464   4.571   3.173  14.548 -0.8737  0.9156 -1.1133
 8335SOL    HW236465   4.452   3.134  14.618 -0.2240  0.6769  2.0036
 8336SOL     OW36466   3.157   1.303   5.192 -0.3994  0.0855  0.3280
 8336SOL    HW136467   3.193   1.215   5.188 -2.7697 -0.9368  1.1939
 8336SOL    HW236468   3.242   1.345   5.182 -0.0920 -0.6790 -0.2320
 8337SOL     OW36469   1.033   4.054  16.496  0.0555 -0.5242 -0.1167
 8337SOL    HW136470   1.119   4.054  16.454  0.5016  1.4354  0.8047
 8337SOL    HW236471   1.037   4.139  16.539  1.9728 -0.3565 -0.6249
 8338SOL     OW36472   0.987   4.134   2.288 -0.2290  0.2083  0.5112
 8338SOL    HW136473   1.028   4.055   2.323  0.5622  1.0149  1.4130
 8338SOL    HW236474   0.903   4.108   2.249 -0.2703  3.5204 -1.6619
 8339SOL     OW36475   1.676   3.272  16.626 -0.4115 -0.7754 -0.0712
 8339SOL    HW136476   1.740   3.244  16.560 -0.2148 -2.5606  0.8760
 8339SOL    HW236477   1.599   3.248  16.575 -2.1927  3.3141  0.6748
 8340SOL     OW36478   0.997   1.525   2.744  0.1136 -0.1014  0.3651
 8340SOL    HW136479   1.078   1.560   2.781 -0.4622  2.8987 -1.1524
 8340SOL    HW236480   0.983   1.587   2.672 -0.9659 -1.8298 -0.9165
 8341SOL     OW36481   4.051   3.353   4.662  0.4743 -0.1651  0.0594
 8341SOL    HW136482   3.993   3.290   4.705  0.3210  0.5747  0.9399
 8341SOL    HW236483   4.072   3.310   4.579  0.5424  0.8412 -0.4468
 8342SOL     OW36484   2.998   1.567   5.207 -0.0653  0.5807 -0.1658
 8342SOL    HW136485   3.068   1.513   5.171  0.8345  1.4827  0.2226
 8342SOL    HW236486   3.036   1.643   5.250  2.0232 -0.2958 -0.4649
 8343SOL     OW36487   3.202   4.205   6.427 -0.5347  0.1024  0.3005
 8343SOL    HW136488   3.121   4.196   6.477 -0.9512  0.2848 -0.3393
 8343SOL    HW236489   3.266   4.209   6.498 -1.7043 -1.5723  1.4222
 8344SOL     OW36490   3.648   1.629   0.288 -0.0041 -0.1161  0.4103
 8344SOL    HW136491   3.583   1.593   0.349 -1.4098  1.3006 -0.2479
 8344SOL    HW236492   3.669   1.553   0.234  0.3466  0.2928 -0.0335
 8345SOL     OW36493   2.870   2.894   4.884  0.0192  0.4622 -0.5423
 8345SOL    HW136494   2.957   2.870   4.850  0.7378 -0.5814  2.0231
 8345SOL    HW236495   2.885   2.905   4.977  1.0407 -2.3367 -0.3694
 8346SOL     OW36496   3.930   0.991   4.764  0.8230  0.5880  0.3959
 8346SOL    HW136497   4.010   1.014   4.717  1.1226 -0.9838  0.1391
 8346SOL    HW236498   3.947   0.903   4.796  1.5226  0.8182  0.6486
 8347SOL     OW36499   0.422   2.380  10.591  0.1265 -0.1830  0.3422
 8347SOL    HW136500   0.445   2.463  10.549 -0.1211 -0.4757 -0.3791
 8347SOL    HW236501   0.464   2.385  10.676  0.4720 -0.3585  0.1835
 8348SOL     OW36502   4.152   3.598   4.483 -0.0459 -0.1497 -0.0845
 8348SOL    HW136503   4.147   3.538   4.408  1.8947  0.0556 -0.4035
 8348SOL    HW236504   4.147   3.538   4.557  2.9114  1.6539  1.6018
 8349SOL     OW36505   0.129   3.549   4.947  0.5057  0.3631 -0.0793
 8349SOL    HW136506   0.158   3.555   4.856  2.0158 -2.9659  0.1931
 8349SOL    HW236507   0.038   3.574   4.932  0.5125  0.1081 -0.5289
 8350SOL     OW36508   3.380   1.868   7.671 -0.2518 -0.7053  0.1485
 8350SOL    HW136509   3.386   1.858   7.576  0.2351  0.5377  0.0393
 8350SOL    HW236510   3.292   1.902   7.684 -0.0896 -0.4867  0.6582
 8351SOL     OW36511   2.145   2.773   0.377  0.1545 -0.3565 -0.5472
 8351SOL    HW136512   2.189   2.854   0.348  2.6818 -1.7316 -0.5268
 8351SOL    HW236513   2.100   2.795   0.458  0.7259 -1.5748  0.0900
 8352SOL     OW36514   4.087   3.938   3.962 -0.1653  0.2966 -0.1262
 8352SOL    HW136515   4.094   3.935   3.867 -2.0355  0.4370 -0.2684
 8352SOL    HW236516   4.127   3.851   3.973 -3.2622 -0.8078  2.5499
 8353SOL     OW36517   0.623   3.820   3.652  0.1177 -0.4549 -0.1657
 8353SOL    HW136518   0.562   3.842   3.722  0.2609  0.0186 -0.1920
 8353SOL    HW236519   0.704   3.838   3.700 -0.1632  3.0277 -1.0446
 8354SOL     OW36520   2.284   2.956   4.262 -0.2259  0.6319 -0.5893
 8354SOL    HW136521   2.250   2.948   4.351 -0.0005  0.1990 -0.5418
 8354SOL    HW236522   2.316   2.867   4.243  0.0646  0.3974  0.9698
 8355SOL     OW36523   2.020   2.229   9.544 -0.6753  0.0786 -0.9156
 8355SOL    HW136524   1.943   2.271   9.583  0.5593  0.5306  0.9999
 8355SOL    HW236525   2.088   2.272   9.596  0.0688  0.7586 -2.4750
 8356SOL     OW36526   4.506   0.363   6.598  0.3885  0.0818  0.2425
 8356SOL    HW136527   4.587   0.352   6.549  0.0145  1.2365 -0.6377
 8356SOL    HW236528   4.446   0.305   6.550 -0.1174 -0.9658  2.1476
 8357SOL     OW36529   4.591   1.300  16.686 -0.1393  0.0030 -0.4835
 8357SOL    HW136530   4.608   1.369  16.621 -0.0138  1.4319  1.0865
 8357SOL    HW236531   4.659   1.239  16.656  0.4050  0.4016 -0.0587
 8358SOL     OW36532   3.704   4.023   3.854 -0.1740 -0.0422  0.0015
 8358SOL    HW136533   3.687   4.079   3.778  0.2503  0.1967  0.0811
 8358SOL    HW236534   3.619   4.028   3.898 -0.4137  0.0319 -0.4712
 8359SOL     OW36535   4.185   2.636  10.377 -0.4165 -0.1040  0.1332
 8359SOL    HW136536   4.097   2.673  10.394 -1.7494 -1.4484 -4.0204
 8359SOL    HW236537   4.242   2.711  10.393 -0.7198  0.4610 -1.4342
 8360SOL     OW36538   2.097   3.762   6.566  0.3041  0.6246 -0.1635
 8360SOL    HW136539   2.144   3.841   6.592 -0.5570  0.7955  0.8779
 8360SOL    HW236540   2.009   3.792   6.546 -0.2673  0.1275  1.6215
 8361SOL     OW36541   2.739   0.029   5.398 -0.6809 -0.1777 -0.0197
 8361SOL    HW136542   2.699   0.114   5.418 -1.4823 -0.3193 -1.0376
 8361SOL    HW236543   2.736   4.718   5.487  0.2804 -2.1437 -0.7188
 8362SOL     OW36544   1.288   4.316   2.197 -0.0045  0.1139 -0.2785
 8362SOL    HW136545   1.262   4.366   2.119 -0.1719 -1.9844 -1.5734
 8362SOL    HW236546   1.208   4.311   2.249 -0.9078 -0.9158 -1.7702
 8363SOL     OW36547   1.616   1.098   7.860  0.0361 -0.2606 -0.1252
 8363SOL    HW136548   1.584   1.173   7.810 -1.5770 -0.6605  0.3130
 8363SOL    HW236549   1.711   1.111   7.858  0.3636 -2.2979  1.6241
 8364SOL     OW36550   1.618   3.333   8.020 -0.3277 -0.8092 -0.7969
 8364SOL    HW136551   1.559   3.259   8.035 -0.2518 -1.6483 -4.6897
 8364SOL    HW236552   1.583   3.367   7.938 -1.7466  0.3540  0.2855
 8365SOL     OW36553   3.171   2.487  14.621 -0.2401 -0.3672 -0.5782
 8365SOL    HW136554   3.118   2.499  14.542 -0.7923 -0.1285 -0.1730
 8365SOL    HW236555   3.136   2.402  14.650 -1.1409 -0.4886 -2.0286
 8366SOL     OW36556   2.525   0.862  15.921 -0.5719  0.2603  0.1072
 8366SOL    HW136557   2.435   0.829  15.923 -0.6594  0.5125  0.2855
 8366SOL    HW236558   2.529   0.873  15.826 -2.9921 -1.6148 -0.2115
 8367SOL     OW36559   3.807   2.458   5.167  0.3549  0.4891  0.0825
 8367SOL    HW136560   3.847   2.538   5.133  0.7020  0.4240  0.3425
 8367SOL    HW236561   3.831   2.383   5.113 -3.2368 -0.5112 -0.1667
 8368SOL     OW36562   2.339   1.297   0.092  0.0315  0.5664  0.3830
 8368SOL    HW136563   2.264   1.340   0.134 -1.2474 -0.6603 -0.6459
 8368SOL    HW236564   2.382   1.239   0.154 -0.7196 -1.2472 -0.7944
 8369SOL     OW36565   4.387   3.425   2.814 -0.2489  0.0528  0.0540
 8369SOL    HW136566   4.483   3.427   2.812 -0.3450  3.1947 -1.4059
 8369SOL    HW236567   4.369   3.518   2.822 -2.0288 -0.1665 -1.2891
 8370SOL     OW36568   2.215   3.795   0.457 -0.1839 -0.2541 -0.2771
 8370SOL    HW136569   2.300   3.752   0.447  0.1547  0.6771 -1.4975
 8370SOL    HW236570   2.209   3.792   0.552 -2.1426  0.6026 -0.3650
 8371SOL     OW36571   4.641   3.366   8.488  0.3356  0.0198  0.0865
 8371SOL    HW136572   4.593   3.356   8.569  0.8885 -0.5182  0.3509
 8371SOL    HW236573   4.573   3.363   8.420  1.3737 -1.2456 -0.9169
 8372SOL     OW36574   1.719   3.402   5.092  0.3263  0.4676 -0.5003
 8372SOL    HW136575   1.701   3.331   5.153  0.5256  2.1453  1.5256
 8372SOL    HW236576   1.651   3.377   5.031  1.3147 -1.9569 -0.5936
 8373SOL     OW36577   0.241   3.421   5.149  0.1033  0.4612  0.3660
 8373SOL    HW136578   0.203   3.460   5.071  0.2439 -2.3090 -1.0755
 8373SOL    HW236579   0.163   3.405   5.201 -0.5346  1.1902 -0.3783
 8374SOL     OW36580   3.725   4.024  14.410  0.5380  0.2349 -0.1403
 8374SOL    HW136581   3.698   4.069  14.491 -0.2760 -2.5333  1.1279
 8374SOL    HW236582   3.653   4.048  14.353  3.3791  1.1846 -3.2955
 8375SOL     OW36583   4.411   3.288   8.327 -0.1166 -0.1257 -0.1245
 8375SOL    HW136584   4.326   3.322   8.298  0.2627  1.1446  0.2393
 8375SOL    HW236585   4.383   3.219   8.387 -0.1091  0.3049  0.3746
 8376SOL     OW36586   0.513   0.890   4.715 -0.1024  0.2899 -0.0046
 8376SOL    HW136587   0.448   0.921   4.778 -0.0230 -2.1268  1.2861
 8376SOL    HW236588   0.475   0.804   4.695 -2.3883  1.0088  1.2949
 8377SOL     OW36589   2.413   3.098  15.212  0.5114  0.4746  0.3960
 8377SOL    HW136590   2.444   3.157  15.143  0.2262  1.1921  0.8830
 8377SOL    HW236591   2.426   3.013  15.171  0.4073  0.1810  0.9680
 8378SOL     OW36592   3.618   1.091   5.970  0.2679  0.6511  0.3403
 8378SOL    HW136593   3.616   1.179   6.009 -0.1375  1.7469 -2.1771
 8378SOL    HW236594   3.538   1.086   5.919 -0.2226 -1.8238  1.3197
 8379SOL     OW36595   4.626   2.971   7.453 -0.1115 -0.0014  0.7672
 8379SOL    HW136596   4.697   3.013   7.405 -2.6057 -1.1171 -3.8716
 8379SOL    HW236597   4.551   3.026   7.431 -0.3438  0.2573  2.2065
 8380SOL     OW36598   3.214   0.043   1.782  0.3837 -0.2187  0.5608
 8380SOL    HW136599   3.268   4.710   1.724  1.1402 -0.4216  1.4614
 8380SOL    HW236600   3.135   4.715   1.800  0.5806 -0.4330  0.8209
 8381SOL     OW36601   2.894   2.477   1.622  0.4859  0.1508 -0.3315
 8381SOL    HW136602   2.842   2.438   1.551  1.6041 -2.3171  0.1888
 8381SOL    HW236603   2.885   2.420   1.698  1.8146 -1.2978 -1.2410
 8382SOL     OW36604   0.021   2.287   7.760 -0.4618  0.0814 -0.0129
 8382SOL    HW136605   0.067   2.312   7.840 -1.0390  0.2252  0.2762
 8382SOL    HW236606   0.079   2.318   7.691  1.2083 -3.4074 -0.1747
 8383SOL     OW36607   1.942   0.768   6.601  0.3190  0.2485  0.2545
 8383SOL    HW136608   1.881   0.751   6.673 -1.1549 -0.7819 -1.2150
 8383SOL    HW236609   1.923   0.696   6.541  0.0512  0.1809  0.4189
 8384SOL     OW36610   4.069   3.157   4.477  0.0336 -0.2945 -0.1889
 8384SOL    HW136611   4.045   3.088   4.539  0.9946  0.3891  0.9526
 8384SOL    HW236612   4.118   3.114   4.408  0.3041 -0.7726  0.2992
 8385SOL     OW36613   1.161   1.406   3.726 -0.0460 -0.3809  0.1826
 8385SOL    HW136614   1.205   1.489   3.744 -2.0395  1.0148 -1.3768
 8385SOL    HW236615   1.193   1.350   3.796  1.3158  2.3604  1.7743
 8386SOL     OW36616   2.061   2.879  13.245  0.3385 -0.5051 -0.3415
 8386SOL    HW136617   1.970   2.852  13.261 -0.3801  0.2575 -3.0631
 8386SOL    HW236618   2.118   2.808  13.275 -1.0244 -1.4612 -0.0121
 8387SOL     OW36619   0.811   1.119  11.900  0.4270  0.4297 -0.3774
 8387SOL    HW136620   0.770   1.205  11.887  3.4027  1.7265 -1.1525
 8387SOL    HW236621   0.787   1.085  11.814 -0.1934 -0.0667 -0.0106
 8388SOL     OW36622   1.295   1.288   3.087  0.0759  0.3560  0.1805
 8388SOL    HW136623   1.301   1.362   3.027 -1.8197  0.0537 -0.3780
 8388SOL    HW236624   1.224   1.244   3.040 -0.2737 -1.4314  2.3853
 8389SOL     OW36625   2.558   0.562  13.880 -0.0966  0.0510  0.3061
 8389SOL    HW136626   2.607   0.493  13.922 -0.5316 -1.6570 -1.9533
 8389SOL    HW236627   2.630   0.621  13.857  0.0196 -0.0409  0.4410
 8390SOL     OW36628   0.741   3.322  13.368  0.3498  0.5126 -0.0949
 8390SOL    HW136629   0.725   3.251  13.430 -0.5892 -0.7349 -1.7539
 8390SOL    HW236630   0.662   3.320  13.314  0.6432 -0.0497 -0.4979
 8391SOL     OW36631   1.364   1.921   1.753 -0.1332  0.5771  0.3362
 8391SOL    HW136632   1.288   1.920   1.811 -1.4391 -1.4184 -1.3732
 8391SOL    HW236633   1.317   1.941   1.671 -2.0359 -0.1071  1.2572
 8392SOL     OW36634   0.892   3.656   4.309  0.3220  0.5193  0.4357
 8392SOL    HW136635   0.898   3.561   4.305  2.1015  0.7308 -2.8684
 8392SOL    HW236636   0.954   3.675   4.380 -1.4530  1.7587  1.6342
 8393SOL     OW36637   0.012   1.609  14.689  0.3827  0.2579  0.2077
 8393SOL    HW136638   0.042   1.600  14.780 -2.7535  1.2076  1.3658
 8393SOL    HW236639   0.077   1.553  14.647 -0.3482 -0.1216 -0.4022
 8394SOL     OW36640   2.418   3.722   9.345  0.1524  0.0041  0.4590
 8394SOL    HW136641   2.461   3.804   9.369  0.9351  0.0394 -1.0523
 8394SOL    HW236642   2.474   3.698   9.272  2.5657  1.1393  1.9680
 8395SOL     OW36643   1.607   3.845   8.237 -0.0418  0.2660  0.0224
 8395SOL    HW136644   1.618   3.931   8.197  0.5029  0.2269  0.0890
 8395SOL    HW236645   1.522   3.834   8.193 -1.3756  1.7343  2.2547
 8396SOL     OW36646   3.662   2.329   6.870  0.2534 -0.1213  0.2583
 8396SOL    HW136647   3.746   2.339   6.916  0.2152  0.2648  0.2471
 8396SOL    HW236648   3.598   2.354   6.937  0.3793  0.7749  0.0460
 8397SOL     OW36649   1.960   2.845   8.835 -0.5251 -0.4713  0.1128
 8397SOL    HW136650   2.025   2.774   8.835  0.9164  0.8331  1.2501
 8397SOL    HW236651   1.974   2.868   8.743 -0.5084 -0.1005  0.2081
 8398SOL     OW36652   3.562   0.151   2.439 -0.2648 -0.4960  0.1342
 8398SOL    HW136653   3.640   0.158   2.495  0.5582 -0.0687 -1.0539
 8398SOL    HW236654   3.595   0.088   2.376 -3.5264 -1.1524 -0.9109
 8399SOL     OW36655   2.011   1.698  16.336  0.4055 -0.3861 -0.6635
 8399SOL    HW136656   2.079   1.693  16.404 -1.4778 -0.8934  1.1763
 8399SOL    HW236657   1.970   1.782  16.356  0.7506  0.1321 -2.1360
 8400SOL     OW36658   3.025   2.629   3.723  0.2230  0.3061  0.5003
 8400SOL    HW136659   3.031   2.709   3.671  0.3625 -0.9218 -1.4077
 8400SOL    HW236660   3.058   2.568   3.656  0.1874 -0.5818  1.2914
 8401SOL     OW36661   1.567   0.047   8.287 -0.3053 -0.3119  0.1858
 8401SOL    HW136662   1.613   0.067   8.206 -0.1845 -1.9322 -0.1443
 8401SOL    HW236663   1.528   0.131   8.312  0.3448  0.1064 -0.1962
 8402SOL     OW36664   3.052   1.714   8.196 -0.4316  0.3250 -0.1146
 8402SOL    HW136665   3.027   1.795   8.151  0.8288  0.4609 -0.5793
 8402SOL    HW236666   3.047   1.645   8.130  1.5449  0.1434 -0.0750
 8403SOL     OW36667   1.479   1.321   2.575  0.2713 -0.5202  0.7737
 8403SOL    HW136668   1.385   1.332   2.562 -0.0202 -2.2214  1.4505
 8403SOL    HW236669   1.463   1.263   2.650 -0.7237 -0.2766  0.7421
 8404SOL     OW36670   2.928   3.210   7.211  0.8185 -0.0208  0.0707
 8404SOL    HW136671   2.836   3.229   7.193  0.9143  1.4007  1.0376
 8404SOL    HW236672   2.932   3.117   7.191  0.6965  0.0715 -0.3922
 8405SOL     OW36673   0.015   2.723   9.141 -0.0944  0.4924  0.2066
 8405SOL    HW136674   0.045   2.795   9.085 -0.5256  0.4665 -0.0562
 8405SOL    HW236675   0.010   2.766   9.227 -1.1882 -0.2747  0.5207
 8406SOL     OW36676   0.111   4.507   6.676 -0.4943 -0.1287  0.2021
 8406SOL    HW136677   0.019   4.494   6.702  0.0054 -0.6414  1.6881
 8406SOL    HW236678   0.154   4.449   6.738 -2.3755 -1.6604  0.0734
 8407SOL     OW36679   1.125   2.020   0.699 -0.9460  0.3719 -0.2601
 8407SOL    HW136680   1.095   2.073   0.625 -3.8218 -1.1707 -0.2135
 8407SOL    HW236681   1.212   1.996   0.668 -1.1817 -0.8063  0.0008
 8408SOL     OW36682   3.364   1.500   6.933 -0.1373 -0.0461  0.9584
 8408SOL    HW136683   3.293   1.448   6.896  2.0226 -2.7949  0.6735
 8408SOL    HW236684   3.436   1.447   6.899 -1.3972 -0.7420 -0.6253
 8409SOL     OW36685   1.703   1.639   1.632 -0.3665 -0.2749 -0.5415
 8409SOL    HW136686   1.765   1.622   1.703  0.8614 -1.1547 -1.8094
 8409SOL    HW236687   1.629   1.579   1.641  0.1194 -0.7625  0.1696
 8410SOL     OW36688   1.706   2.101   8.073  0.1150 -0.1032  0.5824
 8410SOL    HW136689   1.767   2.136   8.138  3.6470 -2.6564 -1.3193
 8410SOL    HW236690   1.644   2.049   8.124  0.6803  1.3113  2.7034
 8411SOL     OW36691   4.264   3.069   6.265 -0.4115 -0.0355 -0.3027
 8411SOL    HW136692   4.255   3.109   6.352  0.8116  0.2639 -0.3178
 8411SOL    HW236693   4.251   2.975   6.277  1.5517 -0.2600  0.0651
 8412SOL     OW36694   0.100   2.326  15.030  0.3783 -0.8921  0.1986
 8412SOL    HW136695   0.020   2.375  15.012  2.2131  1.9206 -0.2900
 8412SOL    HW236696   0.159   2.369  14.967  0.9381  2.0122  2.7138
 8413SOL     OW36697   0.874   3.982   7.293 -0.9739  0.2199 -0.1175
 8413SOL    HW136698   0.823   4.014   7.219 -0.1177  2.2051  0.1232
 8413SOL    HW236699   0.960   4.022   7.282 -0.1142 -1.2932  1.1706
 8414SOL     OW36700   1.880   0.948   7.134  0.1506  0.0146 -0.3544
 8414SOL    HW136701   1.894   0.906   7.049 -0.4383  0.9020 -0.8880
 8414SOL    HW236702   1.790   0.924   7.158  0.7568 -1.8516  0.0377
 8415SOL     OW36703   2.606   0.311   4.376 -0.0653 -0.5901 -0.6923
 8415SOL    HW136704   2.624   0.242   4.439 -0.3281 -1.2238 -1.3103
 8415SOL    HW236705   2.607   0.250   4.302  0.6011 -0.0755 -1.1086
 8416SOL     OW36706   3.122   2.318   8.108 -0.1089 -0.2152  0.5983
 8416SOL    HW136707   3.129   2.249   8.174 -0.0047  0.5874  1.4326
 8416SOL    HW236708   3.145   2.264   8.033  2.7542 -1.1749  2.1616
 8417SOL     OW36709   4.026   2.558  17.150  0.3912  0.2822  0.3434
 8417SOL    HW136710   3.950   2.525  17.101  0.0328 -0.3070  1.3114
 8417SOL    HW236711   4.047   2.631  17.092 -1.1291  0.8117  0.4488
 8418SOL     OW36712   1.515   2.357   7.149 -0.0220 -0.4875  0.1933
 8418SOL    HW136713   1.422   2.382   7.144  0.6080  2.0822  1.3460
 8418SOL    HW236714   1.519   2.303   7.228  1.0158  0.5317  0.8312
 8419SOL     OW36715   3.775   2.250   6.225  0.2728 -0.2528  0.0883
 8419SOL    HW136716   3.764   2.219   6.314 -1.8875  1.1514  0.3188
 8419SOL    HW236717   3.693   2.299   6.219 -0.7003 -1.8905  0.3561
 8420SOL     OW36718   1.954   2.262   6.675 -0.1378  0.2656 -0.4445
 8420SOL    HW136719   1.934   2.344   6.720  2.7385  1.6521 -1.7227
 8420SOL    HW236720   1.980   2.281   6.585  2.3331  0.7973  0.3835
 8421SOL     OW36721   1.584   2.987  13.933 -0.3466  0.2334 -0.2274
 8421SOL    HW136722   1.558   3.022  13.848  1.3303 -2.0123 -1.6795
 8421SOL    HW236723   1.627   3.065  13.967 -0.6827  0.5752 -0.5843
 8422SOL     OW36724   3.136   3.498  12.537  0.4000  0.9583  0.0978
 8422SOL    HW136725   3.103   3.486  12.447  3.0457 -1.8873 -0.4908
 8422SOL    HW236726   3.141   3.412  12.577  0.0105 -0.3348 -2.6062
 8423SOL     OW36727   0.727   0.722   1.104 -0.6889  0.2100 -0.0928
 8423SOL    HW136728   0.754   0.643   1.058 -2.1846 -0.6454  0.4969
 8423SOL    HW236729   0.642   0.727   1.061 -1.0546  0.7034  0.6821
 8424SOL     OW36730   2.129   1.899   6.456 -0.2510  0.0121 -0.0298
 8424SOL    HW136731   2.218   1.876   6.481 -0.1218 -0.2218 -0.7066
 8424SOL    HW236732   2.087   1.873   6.538 -1.3722  0.7349 -0.3701
 8425SOL     OW36733   4.689   3.239   1.696  0.0903 -0.1013  0.6657
 8425SOL    HW136734   0.034   3.287   1.647 -1.3690  1.8393  0.5416
 8425SOL    HW236735   0.018   3.212   1.773  1.6555  1.7728  0.3098
 8426SOL     OW36736   3.993   0.944  13.142 -0.5734  0.3095  0.0015
 8426SOL    HW136737   4.072   0.890  13.144 -1.3468 -0.8190  0.3151
 8426SOL    HW236738   3.933   0.879  13.104  0.7021 -0.4215 -0.7509
 8427SOL     OW36739   0.611   4.348   2.223 -0.1292  0.7304 -0.1754
 8427SOL    HW136740   0.681   4.413   2.220 -0.0544  0.6338 -0.5624
 8427SOL    HW236741   0.653   4.273   2.180  0.4013  1.1968 -0.4730
 8428SOL     OW36742   1.926   4.712   2.680 -0.1939 -0.1234 -0.0078
 8428SOL    HW136743   1.934   4.631   2.629 -0.9784 -0.0465 -0.2613
 8428SOL    HW236744   1.842   4.701   2.726  0.4722  0.3319  1.3061
 8429SOL     OW36745   3.506   4.678   7.914  0.6926  0.8120  0.8077
 8429SOL    HW136746   3.566   0.030   7.912 -3.1514  3.9897  1.5494
 8429SOL    HW236747   3.525   4.646   8.002 -1.0396  2.1191  1.6595
 8430SOL     OW36748   4.113   3.570   1.835  0.4443  0.4302  0.1377
 8430SOL    HW136749   4.143   3.657   1.863 -2.3555  1.0777  1.1275
 8430SOL    HW236750   4.022   3.589   1.858  0.4875  0.4057  0.3263
 8431SOL     OW36751   0.368   2.376   5.418 -0.8827 -0.1503 -0.4356
 8431SOL    HW136752   0.296   2.417   5.371 -0.5976  0.2805 -0.5040
 8431SOL    HW236753   0.418   2.346   5.342  0.5519 -0.3531  0.5918
 8432SOL     OW36754   3.109   3.692   5.142 -0.5736  0.2270 -0.1221
 8432SOL    HW136755   3.031   3.743   5.161 -1.2435 -1.1421  0.8439
 8432SOL    HW236756   3.106   3.621   5.207 -2.2009  0.0737 -0.3496
 8433SOL     OW36757   1.586   0.370   1.569 -0.3952 -0.4246 -0.4162
 8433SOL    HW136758   1.657   0.426   1.599 -0.8745 -1.4859  2.7868
 8433SOL    HW236759   1.549   0.350   1.656 -1.7440 -2.1748 -1.3778
 8434SOL     OW36760   4.386   0.268   6.328  0.3555  0.2125 -0.2614
 8434SOL    HW136761   4.377   0.360   6.301  0.3981  0.0886 -0.7063
 8434SOL    HW236762   4.294   0.242   6.328  0.0121  1.4604  1.4458
 8435SOL     OW36763   1.925   4.583   3.571  0.9114  0.0028  0.1136
 8435SOL    HW136764   1.916   4.551   3.661 -1.4095  1.5532  0.4447
 8435SOL    HW236765   2.015   4.564   3.546  1.5346  2.0332  0.7701
 8436SOL     OW36766   1.499   0.275   5.474  0.0716  0.0210  0.5250
 8436SOL    HW136767   1.486   0.339   5.403 -0.7063  0.8068  1.3782
 8436SOL    HW236768   1.558   0.218   5.425  2.1866 -0.1066  3.2163
 8437SOL     OW36769   3.266   0.067  12.951  0.6755  0.6358  0.4984
 8437SOL    HW136770   3.269   0.146  12.898  0.1863 -0.3241 -0.9428
 8437SOL    HW236771   3.331   0.093  13.017 -1.0259  1.9363  1.6610
 8438SOL     OW36772   2.212   0.747   7.925  0.3660 -0.5913  0.7425
 8438SOL    HW136773   2.224   0.792   8.009 -3.9442  2.1451 -0.1211
 8438SOL    HW236774   2.124   0.710   7.936 -0.4150  1.0872  0.2034
 8439SOL     OW36775   3.875   3.317   0.243  0.0591  0.3318 -0.3612
 8439SOL    HW136776   3.943   3.382   0.227 -0.1844  0.5218 -0.6381
 8439SOL    HW236777   3.899   3.249   0.179 -0.6570  0.7078 -1.0358
 8440SOL     OW36778   3.208   4.053   4.828 -0.0410 -0.1753 -0.1363
 8440SOL    HW136779   3.135   4.113   4.843  1.5814  1.8940 -0.6487
 8440SOL    HW236780   3.167   3.970   4.852  0.1798  0.0931  1.1961
 8441SOL     OW36781   2.137   2.125   6.852 -0.0816  0.4016 -0.7399
 8441SOL    HW136782   2.074   2.178   6.804 -0.2465  2.3721  1.6479
 8441SOL    HW236783   2.214   2.135   6.796  1.6779  0.9938  1.7840
 8442SOL     OW36784   0.116   0.659   3.036 -0.4311  0.0007 -0.2773
 8442SOL    HW136785   0.189   0.720   3.048  0.7980 -1.4073 -0.6405
 8442SOL    HW236786   0.055   0.700   3.098  1.8264  2.5513  0.3032
 8443SOL     OW36787   2.511   1.362   5.141 -0.2292  0.0346 -0.0505
 8443SOL    HW136788   2.444   1.344   5.074 -2.0494  0.9640  1.5145
 8443SOL    HW236789   2.587   1.393   5.092  0.0854 -2.6329 -1.2850
 8444SOL     OW36790   4.467   2.525   8.467 -0.4964  0.1185  0.0531
 8444SOL    HW136791   4.499   2.600   8.517 -3.2501  1.0131  0.4536
 8444SOL    HW236792   4.468   2.466   8.542  0.1203  3.4180  2.6372
 8445SOL     OW36793   0.030   0.419   3.770  0.2428  0.6963  0.0156
 8445SOL    HW136794   0.079   0.338   3.755 -0.0195  0.4880  0.2926
 8445SOL    HW236795   0.094   0.489   3.756  1.2795 -0.0749  0.8226
 8446SOL     OW36796   0.279   0.507  13.028  0.0523  0.5708  0.3231
 8446SOL    HW136797   0.295   0.541  12.941 -0.1527  0.4180  0.2255
 8446SOL    HW236798   0.262   0.415  13.010 -0.4517  0.8127 -0.4157
 8447SOL     OW36799   3.578   0.334  15.013 -1.0062 -0.0850 -0.0870
 8447SOL    HW136800   3.647   0.400  15.013 -0.3918 -0.7383 -1.6211
 8447SOL    HW236801   3.575   0.316  14.919 -2.6194  1.2345 -0.2804
 8448SOL     OW36802   3.780   1.945  13.458  0.0439  0.0082 -0.2432
 8448SOL    HW136803   3.815   1.948  13.369 -0.9055  2.1792 -0.5378
 8448SOL    HW236804   3.707   2.006  13.452 -0.1803 -0.3558 -1.2026
 8449SOL     OW36805   1.387   4.413  13.667 -0.1781 -0.2132  0.8442
 8449SOL    HW136806   1.476   4.403  13.699  0.0779 -2.1409 -0.4408
 8449SOL    HW236807   1.340   4.454  13.740 -0.3551 -1.5988  1.5134
 8450SOL     OW36808   2.601   4.496  14.387  0.2568 -0.2967  0.0703
 8450SOL    HW136809   2.693   4.509  14.408  0.9433 -0.2854 -2.9188
 8450SOL    HW236810   2.607   4.408  14.348  1.0433  1.0995 -2.9229
 8451SOL     OW36811   3.471   1.497  14.806  0.1879  0.4700 -0.2879
 8451SOL    HW136812   3.454   1.415  14.853  2.5962 -0.0116 -0.2149
 8451SOL    HW236813   3.382   1.531  14.810 -0.2887 -0.6423 -1.1332
 8452SOL     OW36814   1.969   0.751   7.366  0.6188 -0.4553  0.1906
 8452SOL    HW136815   1.976   0.796   7.450  1.3588 -0.2069 -0.0007
 8452SOL    HW236816   1.885   0.777   7.328 -0.0734  0.9895  2.6956
 8453SOL     OW36817   1.692   1.475   9.297 -0.3268 -0.4458  0.0286
 8453SOL    HW136818   1.785   1.499   9.295 -0.6977  1.1860  2.6842
 8453SOL    HW236819   1.659   1.557   9.333 -1.2687 -0.4523 -0.8425
 8454SOL     OW36820   4.238   4.309   0.368 -0.2139  0.0244 -0.4005
 8454SOL    HW136821   4.221   4.361   0.289 -3.9560 -0.0938  0.3242
 8454SOL    HW236822   4.324   4.277   0.343 -0.0226 -0.4032  0.8146
 8455SOL     OW36823   2.450   2.511   3.917  0.5546  0.3401  0.6306
 8455SOL    HW136824   2.512   2.483   3.985  0.3868  0.3099  0.7729
 8455SOL    HW236825   2.374   2.471   3.960  2.5205 -2.0298  1.8916
 8456SOL     OW36826   3.659   2.391   7.913 -0.0671 -0.0654 -0.5671
 8456SOL    HW136827   3.694   2.311   7.873  0.2939 -0.5973  0.7903
 8456SOL    HW236828   3.575   2.408   7.871  0.2583 -0.6365 -1.4552
 8457SOL     OW36829   2.032   4.318  10.893  0.8245  0.8728 -0.0038
 8457SOL    HW136830   1.996   4.232  10.870  0.8578  0.6396  0.8066
 8457SOL    HW236831   2.115   4.322  10.845  0.0667 -1.7175 -1.5712
 8458SOL     OW36832   1.981   3.404   2.009 -0.2438  0.5630 -0.3230
 8458SOL    HW136833   2.062   3.455   2.015  1.3916 -1.8561 -1.6690
 8458SOL    HW236834   1.958   3.421   1.917  0.8902 -1.3882 -0.9640
 8459SOL     OW36835   2.915   0.772   7.465  0.3367 -0.0863 -0.6930
 8459SOL    HW136836   2.975   0.750   7.537 -0.6846 -2.3393 -0.5353
 8459SOL    HW236837   2.862   0.693   7.471 -0.0309  0.2063 -0.0079
 8460SOL     OW36838   2.281   2.363   9.710 -0.4376  0.3049 -0.3904
 8460SOL    HW136839   2.287   2.456   9.729 -0.3562  0.0461  0.8638
 8460SOL    HW236840   2.361   2.348   9.660 -0.1338 -0.6673  0.3814
 8461SOL     OW36841   4.694   4.512   6.980 -0.5620 -0.0096 -0.1588
 8461SOL    HW136842   4.688   4.595   6.932 -3.1675 -1.1156 -1.7765
 8461SOL    HW236843   4.604   4.499   7.011 -0.7012 -1.6464 -1.2231
 8462SOL     OW36844   1.774   2.171  16.842 -0.6333  0.0931  0.2591
 8462SOL    HW136845   1.865   2.189  16.864 -0.4654  1.9410 -1.8633
 8462SOL    HW236846   1.748   2.248  16.791 -3.1387 -1.1654 -0.3446
 8463SOL     OW36847   1.328   0.912  11.918  0.0675 -0.2703  0.2927
 8463SOL    HW136848   1.270   0.965  11.863 -0.0372 -0.5990  0.0835
 8463SOL    HW236849   1.285   0.922  12.003  0.5621 -1.1046  0.6376
 8464SOL     OW36850   4.493   2.846   4.386 -0.1389 -0.3775  0.3270
 8464SOL    HW136851   4.576   2.807   4.412 -0.6161 -1.1121  0.7727
 8464SOL    HW236852   4.432   2.776   4.362  1.3211 -1.3533 -0.5161
 8465SOL     OW36853   4.479   3.748  14.170 -0.3753  0.1770  0.2140
 8465SOL    HW136854   4.560   3.750  14.120 -2.4724 -1.5525 -3.2212
 8465SOL    HW236855   4.422   3.758  14.094 -0.7921 -1.4722  0.3016
 8466SOL     OW36856   1.369   0.314  15.431  0.2446  0.0259 -0.0473
 8466SOL    HW136857   1.369   0.408  15.415 -2.5855  0.2486  1.1633
 8466SOL    HW236858   1.462   0.299  15.446  0.4533  0.5045 -0.8201
 8467SOL     OW36859   4.125   1.643   8.549 -0.0888 -0.1235  0.3839
 8467SOL    HW136860   4.109   1.635   8.643 -2.0758 -1.2813 -0.0532
 8467SOL    HW236861   4.215   1.610   8.542 -0.7543 -1.7342 -0.5680
 8468SOL     OW36862   3.245   4.174   6.764  0.0872 -0.0856 -0.1514
 8468SOL    HW136863   3.273   4.259   6.798 -3.7188  1.1635 -0.0790
 8468SOL    HW236864   3.250   4.125   6.847  0.1534  0.8285  0.3881
 8469SOL     OW36865   4.474   1.511   6.388 -0.4603  0.1958  0.2878
 8469SOL    HW136866   4.390   1.543   6.358 -1.5113 -1.5135  1.3968
 8469SOL    HW236867   4.460   1.426   6.429  1.8349  0.0349  0.7640
 8470SOL     OW36868   0.098   2.232  17.414  0.1456  0.3623  0.1075
 8470SOL    HW136869   0.124   2.291  17.485  0.4904  0.3083  0.0260
 8470SOL    HW236870   0.039   2.167  17.452  1.0548 -0.4486  0.1463
 8471SOL     OW36871   2.399   1.073  11.059  0.0188  0.8526 -0.3932
 8471SOL    HW136872   2.382   1.144  10.997 -1.3973  2.5089  1.8864
 8471SOL    HW236873   2.486   1.091  11.093  0.4543 -1.0749 -0.5002
 8472SOL     OW36874   1.638   1.899   1.724 -0.3061 -0.1291 -0.0803
 8472SOL    HW136875   1.543   1.905   1.726 -0.4134 -1.4853 -1.3515
 8472SOL    HW236876   1.649   1.817   1.677 -2.8590 -0.5638  0.1156
 8473SOL     OW36877   3.055   1.550  16.273 -0.3400  0.2428  0.6638
 8473SOL    HW136878   2.967   1.516  16.288 -0.9042  1.2002 -0.4404
 8473SOL    HW236879   3.103   1.482  16.320 -0.5865  0.4501  1.2062
 8474SOL     OW36880   3.193   3.453  14.349  0.3451 -0.2184  0.0981
 8474SOL    HW136881   3.159   3.371  14.313 -1.5574 -0.5223  2.5769
 8474SOL    HW236882   3.170   3.519  14.284  0.7047  0.2681  0.4642
 8475SOL     OW36883   3.759   3.072   2.352  0.2619  0.2790  0.0131
 8475SOL    HW136884   3.678   3.049   2.307 -0.3556  3.6663 -0.6106
 8475SOL    HW236885   3.735   3.143   2.412  0.0437  0.8643 -0.7562
 8476SOL     OW36886   4.027   3.848   4.274  0.0660  0.0957  0.0882
 8476SOL    HW136887   3.969   3.856   4.350 -0.9007  5.1656 -1.1246
 8476SOL    HW236888   4.041   3.940   4.252 -0.6287  0.5671  1.5799
 8477SOL     OW36889   3.776   1.671   7.031  0.1732  0.3927  0.7793
 8477SOL    HW136890   3.751   1.629   7.113  2.8648 -1.2133  0.7754
 8477SOL    HW236891   3.709   1.739   7.028 -1.2381 -0.8802  3.4083
 8478SOL     OW36892   3.997   4.273  13.175  0.5814  0.3785 -0.2007
 8478SOL    HW136893   4.043   4.354  13.156 -0.6758  0.9731 -0.6587
 8478SOL    HW236894   4.021   4.259  13.267 -0.6489 -0.3073  0.0223
 8479SOL     OW36895   4.139   3.279   5.603 -0.2530 -0.1595  0.0738
 8479SOL    HW136896   4.146   3.369   5.571  0.3379 -0.5567 -0.9232
 8479SOL    HW236897   4.211   3.233   5.560  0.9534 -0.7476  2.7217
 8480SOL     OW36898   3.588   1.680   6.611 -0.7601 -0.5406 -0.3028
 8480SOL    HW136899   3.665   1.658   6.664  0.3019 -1.4926 -2.2330
 8480SOL    HW236900   3.633   1.699   6.529  2.0348 -1.3321  1.0202
 8481SOL     OW36901   4.474   4.716  13.313  0.0513 -0.1298  0.1132
 8481SOL    HW136902   4.527   0.067  13.281  1.0363 -1.0491 -0.3530
 8481SOL    HW236903   4.518   4.692  13.395 -0.8935  0.1316  0.7008
 8482SOL     OW36904   3.021   4.563   6.756  0.2450  0.0911  0.4795
 8482SOL    HW136905   3.070   4.613   6.691 -2.4390  0.8791 -0.9256
 8482SOL    HW236906   3.055   4.621   6.825  1.0274  1.0042 -0.6576
 8483SOL     OW36907   1.426   3.848   6.590 -0.7423  0.3550  0.1182
 8483SOL    HW136908   1.334   3.859   6.615 -1.5196  1.1124 -3.0486
 8483SOL    HW236909   1.422   3.895   6.507  1.1327 -0.9270 -0.6847
 8484SOL     OW36910   2.540   0.493   6.035 -0.0867  0.3975  0.0127
 8484SOL    HW136911   2.538   0.568   5.976  0.6350  1.2234  1.0226
 8484SOL    HW236912   2.461   0.489   6.088  0.8108  1.6106  1.4685
 8485SOL     OW36913   0.485   1.201   8.808 -0.2356  0.1291 -0.1305
 8485SOL    HW136914   0.569   1.186   8.851 -0.8170 -1.6289  0.3951
 8485SOL    HW236915   0.444   1.280   8.845  0.8301  0.5162  0.2309
 8486SOL     OW36916   4.679   3.597   3.921 -0.2852  0.3563  0.7154
 8486SOL    HW136917   4.590   3.568   3.941 -0.0636  0.0488  1.2716
 8486SOL    HW236918   4.689   3.555   3.836 -0.9762  1.2022  0.2196
 8487SOL     OW36919   4.621   3.410   7.070 -0.0069  0.2702 -0.2292
 8487SOL    HW136920   4.692   3.419   7.006 -1.8574 -1.7748 -2.5452
 8487SOL    HW236921   4.577   3.334   7.033  0.5039  0.0919 -0.4786
 8488SOL     OW36922   2.637   0.988  16.699 -0.0573  0.4152  0.3761
 8488SOL    HW136923   2.644   0.970  16.606  0.7926 -2.4201  0.9776
 8488SOL    HW236924   2.646   1.083  16.700  0.3985  0.3631  1.2427
 8489SOL     OW36925   0.156   4.643   4.771  0.2497 -0.9757  0.6557
 8489SOL    HW136926   0.102   4.594   4.709  0.8938 -1.3104  0.3696
 8489SOL    HW236927   0.086   4.708   4.784  2.1879  1.8654 -3.1471
 8490SOL     OW36928   3.807   2.652   5.391  0.0705  0.3604 -0.1059
 8490SOL    HW136929   3.864   2.615   5.323 -1.2396  0.8874 -1.5034
 8490SOL    HW236930   3.866   2.716   5.429  0.3433 -0.8187  1.4468
 8491SOL     OW36931   3.215   1.265   1.930 -0.3533 -0.5676  0.7712
 8491SOL    HW136932   3.155   1.267   2.004 -1.4134 -2.2379 -0.0557
 8491SOL    HW236933   3.159   1.306   1.864 -0.3171 -1.8614 -0.0669
 8492SOL     OW36934   4.297   2.548  11.786 -0.5489 -0.2535  0.2644
 8492SOL    HW136935   4.280   2.557  11.692  1.1510  0.9954  0.0701
 8492SOL    HW236936   4.322   2.455  11.786 -0.0788 -0.1296  0.2593
 8493SOL     OW36937   3.529   1.809   7.166  0.0724  0.4820  0.0019
 8493SOL    HW136938   3.589   1.881   7.146 -0.8171  1.6113  1.4033
 8493SOL    HW236939   3.475   1.817   7.087  0.5988 -2.4979 -0.6428
 8494SOL     OW36940   2.993   2.646   6.742  0.7000 -0.3243  0.0028
 8494SOL    HW136941   2.940   2.725   6.728  3.1385  1.7716  2.6667
 8494SOL    HW236942   2.927   2.582   6.768  0.5921 -0.6261 -1.0124
 8495SOL     OW36943   4.179   1.193  14.583 -0.1072  0.1595  0.3494
 8495SOL    HW136944   4.118   1.223  14.649  0.0401 -0.3831  0.7339
 8495SOL    HW236945   4.267   1.205  14.618  0.0169  0.7318 -0.1580
 8496SOL     OW36946   4.716   3.774   3.265  0.0820 -0.2060  0.4512
 8496SOL    HW136947   0.033   3.720   3.334 -0.5456  1.0237  1.7434
 8496SOL    HW236948   0.077   3.809   3.233  0.2738 -0.7123  0.3840
 8497SOL     OW36949   1.143   0.204   7.028  0.4042 -0.3014  0.0570
 8497SOL    HW136950   1.148   0.113   6.998  1.9961 -0.6856  1.4154
 8497SOL    HW236951   1.100   0.206   7.113  1.5835  0.9759  0.6332
 8498SOL     OW36952   3.391   3.309   7.998 -0.0735  0.0830 -0.3719
 8498SOL    HW136953   3.311   3.352   8.027  1.6138  2.0118  1.4248
 8498SOL    HW236954   3.383   3.221   8.034  2.8881  0.0188  0.1468
 8499SOL     OW36955   0.994   3.397   4.169  0.5639  0.3936  0.4459
 8499SOL    HW136956   1.006   3.357   4.082 -1.2880  1.7802 -0.4548
 8499SOL    HW236957   1.068   3.355   4.214  0.4713  0.0324  0.2697
 8500SOL     OW36958   1.433   2.151   6.203  0.1484 -0.0042 -0.0154
 8500SOL    HW136959   1.420   2.060   6.230 -0.1394 -0.1946 -0.7789
 8500SOL    HW236960   1.522   2.145   6.168 -0.1468  0.7748 -0.9086
 8501SOL     OW36961   4.524   3.146   5.437  0.1826 -0.1298 -0.4162
 8501SOL    HW136962   4.494   3.096   5.513 -0.9479 -0.7188 -1.2591
 8501SOL    HW236963   4.614   3.114   5.440  1.0870  2.1860 -3.0385
 8502SOL     OW36964   2.173   3.353   2.399 -0.1962  0.5335 -0.0036
 8502SOL    HW136965   2.266   3.332   2.409 -0.6970 -0.9660  1.5608
 8502SOL    HW236966   2.136   3.265   2.410 -2.0301  1.3680  0.4449
 8503SOL     OW36967   4.083   4.534  14.861  0.2903  0.7026  0.2229
 8503SOL    HW136968   4.115   4.449  14.890 -1.2765 -0.2719 -0.8977
 8503SOL    HW236969   4.057   4.579  14.942 -0.7391 -0.6673  0.6507
 8504SOL     OW36970   2.080   2.592   9.740  0.1522  0.2661 -0.2626
 8504SOL    HW136971   2.058   2.535   9.813  1.6407 -1.0061 -0.8194
 8504SOL    HW236972   2.175   2.600   9.745  0.2309 -0.5940 -0.3827
 8505SOL     OW36973   1.848   4.675   4.005 -0.0082 -0.2782  0.2570
 8505SOL    HW136974   1.875   4.711   4.089 -3.1172  1.6392  0.4582
 8505SOL    HW236975   1.855   0.034   3.954 -2.9339 -0.5071 -0.5194
 8506SOL     OW36976   3.087   2.120   7.746  0.3222  0.6043  0.4703
 8506SOL    HW136977   3.156   2.095   7.807  0.3616  0.6061  0.4266
 8506SOL    HW236978   3.007   2.114   7.798  0.3287 -0.9132  0.3014
 8507SOL     OW36979   0.317   0.276   3.341 -0.4239  0.1507  0.1468
 8507SOL    HW136980   0.256   0.317   3.280 -1.0016 -1.1408 -0.1450
 8507SOL    HW236981   0.284   0.186   3.337  1.9630 -0.6689 -0.8244
 8508SOL     OW36982   2.213   2.737   8.823 -0.1116  0.1826 -0.2545
 8508SOL    HW136983   2.300   2.772   8.843  0.6362 -2.1980  0.6047
 8508SOL    HW236984   2.228   2.645   8.800 -1.1541  0.0066 -0.2231
 8509SOL     OW36985   3.217   4.376   1.061 -0.3268 -0.3338  0.2343
 8509SOL    HW136986   3.165   4.418   0.992  1.8492  1.2686 -0.4535
 8509SOL    HW236987   3.172   4.404   1.141 -1.1226  1.9970 -1.0185
 8510SOL     OW36988   0.368   3.740   6.441 -0.0983  0.1723  0.3506
 8510SOL    HW136989   0.328   3.827   6.444 -0.0575  0.1976  0.1157
 8510SOL    HW236990   0.356   3.711   6.532  2.8517 -0.1985  0.6209
 8511SOL     OW36991   0.486   0.221  11.034  0.8756 -0.4761  0.4283
 8511SOL    HW136992   0.564   0.165  11.042  0.9514 -0.1189  2.0297
 8511SOL    HW236993   0.445   0.195  10.951  0.8344  2.4686 -0.4549
 8512SOL     OW36994   1.531   0.573   6.206  0.4934 -0.3042 -0.2320
 8512SOL    HW136995   1.572   0.549   6.289 -0.2444  1.2492  0.5822
 8512SOL    HW236996   1.445   0.532   6.213 -0.5907  1.8924 -0.7625
 8513SOL     OW36997   0.705   0.318   6.426 -0.3297 -0.2510  0.2363
 8513SOL    HW136998   0.659   0.358   6.352 -1.7145 -3.3454 -0.5437
 8513SOL    HW236999   0.719   0.390   6.488 -1.6484 -0.2792  0.5615
 8514SOL     OW37000   3.575   3.188   4.936 -0.4429 -0.2984 -0.5649
 8514SOL    HW137001   3.650   3.197   4.877  1.0375 -0.4350  1.3048
 8514SOL    HW237002   3.513   3.243   4.888 -1.2484  0.4462  1.3261
 8515SOL     OW37003   4.358   3.645   3.123  0.0012  0.2699  0.5327
 8515SOL    HW137004   4.371   3.619   3.215  3.1514 -1.8210 -0.5041
 8515SOL    HW237005   4.443   3.660   3.083 -1.2581  3.1459 -1.0845
 8516SOL     OW37006   1.822   0.257   6.301 -0.4635 -0.0434  0.3349
 8516SOL    HW137007   1.743   0.295   6.263 -1.0332 -1.7520 -0.2019
 8516SOL    HW237008   1.832   0.298   6.387 -1.8520  1.0629 -0.0275
 8517SOL     OW37009   3.523   0.182  15.223 -0.0724  0.1046  0.1357
 8517SOL    HW137010   3.520   0.239  15.147  2.2071  0.1926  0.1280
 8517SOL    HW237011   3.618   0.175  15.227 -0.0489  0.2900 -0.1243
 8518SOL     OW37012   2.863   1.934   6.853 -0.2150  0.4019  0.2410
 8518SOL    HW137013   2.895   1.872   6.918  1.4841  0.9062 -0.1168
 8518SOL    HW237014   2.793   1.974   6.904  1.2095  1.6180  1.2675
 8519SOL     OW37015   0.111   2.278   5.108 -0.5753 -0.6415 -0.1365
 8519SOL    HW137016   0.018   2.272   5.132 -0.2614  2.6110  1.8679
 8519SOL    HW237017   0.118   2.188   5.078 -1.1204 -0.2551 -1.4367
 8520SOL     OW37018   1.582   0.683  15.848 -0.4175 -0.0775 -0.2519
 8520SOL    HW137019   1.513   0.697  15.914  0.8515  2.0810  0.6353
 8520SOL    HW237020   1.523   0.657  15.778 -0.0556  1.1602 -1.0179
 8521SOL     OW37021   1.241   0.354   4.716 -0.0431  0.4629  0.9895
 8521SOL    HW137022   1.259   0.411   4.641  3.8549 -1.1993  0.6942
 8521SOL    HW237023   1.175   0.412   4.755 -2.5943 -1.5605 -0.3122
 8522SOL     OW37024   0.640   3.638   1.550  0.6095 -0.0695 -0.6529
 8522SOL    HW137025   0.728   3.678   1.546  1.0813 -1.1735 -1.1949
 8522SOL    HW237026   0.614   3.682   1.631  0.9606 -3.4510  1.2873
 8523SOL     OW37027   1.100   2.489   4.053  0.3533 -0.3137  0.6117
 8523SOL    HW137028   1.095   2.415   3.992  0.2299  1.4307 -1.4730
 8523SOL    HW237029   1.050   2.553   4.002 -2.2664 -2.2644  0.7367
 8524SOL     OW37030   1.025   2.343   1.980 -0.2427  0.3086 -0.6782
 8524SOL    HW137031   0.984   2.378   2.059 -0.7145  0.8989 -1.1830
 8524SOL    HW237032   1.069   2.419   1.942 -2.7006  1.5636 -1.0143
 8525SOL     OW37033   4.064   0.829   5.691 -0.1137 -0.1199 -0.2035
 8525SOL    HW137034   4.031   0.919   5.691  0.8743  0.2365 -0.9995
 8525SOL    HW237035   4.026   0.792   5.611 -1.7783 -0.2362  0.6316
 8526SOL     OW37036   2.896   2.899   7.905  0.2207  0.2283 -0.3581
 8526SOL    HW137037   2.841   2.977   7.897  0.4247  0.1873 -2.1314
 8526SOL    HW237038   2.968   2.930   7.960 -1.3671 -0.9278  2.4050
 8527SOL     OW37039   0.878   0.324   8.183 -0.8929  0.3607  0.3095
 8527SOL    HW137040   0.922   0.344   8.266  0.8349  1.8087 -0.9670
 8527SOL    HW237041   0.870   0.229   8.188 -0.4315  0.2714 -0.7076
 8528SOL     OW37042   1.937   2.381   8.422  0.3191  0.2545 -0.2719
 8528SOL    HW137043   1.998   2.379   8.348  0.0719 -0.5413 -0.4518
 8528SOL    HW237044   1.889   2.298   8.418 -0.0872  0.5955 -2.4544
 8529SOL     OW37045   4.383   4.072   7.798 -0.1938  0.3752 -0.6122
 8529SOL    HW137046   4.358   3.992   7.844  2.0212  1.2446  2.1142
 8529SOL    HW237047   4.440   4.117   7.860  0.9090  0.0452 -1.3780
 8530SOL     OW37048   2.750   2.792  15.206 -0.3749  0.3341 -0.5535
 8530SOL    HW137049   2.723   2.749  15.126  2.1417 -0.5997 -0.9057
 8530SOL    HW237050   2.683   2.761  15.266 -1.2109 -0.1891 -1.7715
 8531SOL     OW37051   0.322   0.509   6.911  0.0953 -0.4478  0.0349
 8531SOL    HW137052   0.321   0.589   6.964 -2.9696 -0.0566 -0.5993
 8531SOL    HW237053   0.257   0.454   6.954 -1.5752  1.8805  0.4744
 8532SOL     OW37054   3.087   4.611  12.341  0.5575 -0.0849 -0.3438
 8532SOL    HW137055   3.077   4.626  12.435  0.9244  1.5753 -0.5756
 8532SOL    HW237056   3.028   4.536  12.332  1.6209 -0.9712  0.0711
 8533SOL     OW37057   4.619   3.729  13.378  1.3176 -0.3799  0.4848
 8533SOL    HW137058   4.552   3.780  13.331  1.1662 -2.7528 -1.9195
 8533SOL    HW237059   4.629   3.777  13.460  0.1408 -0.1761  0.5131
 8534SOL     OW37060   3.736   1.458  15.532 -0.0166 -1.0417  0.6287
 8534SOL    HW137061   3.652   1.432  15.495 -0.5290  0.4148  0.7684
 8534SOL    HW237062   3.713   1.432  15.622 -0.6575 -0.1359  0.7268
 8535SOL     OW37063   2.011   0.898   5.237  0.2641 -0.1017 -0.2494
 8535SOL    HW137064   1.987   0.968   5.299 -0.4076  0.6359 -1.3552
 8535SOL    HW237065   1.932   0.869   5.193 -0.1401 -0.2784  0.5821
 8536SOL     OW37066   0.712   4.272   5.118  0.3464  0.0022 -0.0820
 8536SOL    HW137067   0.625   4.285   5.080 -0.5508  0.5688  2.1952
 8536SOL    HW237068   0.743   4.361   5.103  1.2540 -0.1797  0.7010
 8537SOL     OW37069   4.233   2.758   7.991  0.9487  0.1170  0.1829
 8537SOL    HW137070   4.291   2.779   8.064  1.4429  0.0714 -0.2006
 8537SOL    HW237071   4.210   2.668   8.016  0.8403  0.4236  1.1910
 8538SOL     OW37072   2.045   3.612   3.815 -0.2285 -0.0434  0.3287
 8538SOL    HW137073   2.002   3.665   3.881 -1.0540  0.7909 -0.8908
 8538SOL    HW237074   1.994   3.631   3.736 -1.3123 -0.2642  0.9864
 8539SOL     OW37075   1.381   1.121   2.819  0.1309 -0.3686  0.1017
 8539SOL    HW137076   1.292   1.154   2.815  0.2751 -0.3648 -2.6429
 8539SOL    HW237077   1.372   1.050   2.883 -2.1342  0.5690  0.8007
 8540SOL     OW37078   3.652   1.310   5.167 -0.3204  0.2006  0.3814
 8540SOL    HW137079   3.602   1.322   5.248 -2.4124 -0.8373 -0.7505
 8540SOL    HW237080   3.647   1.402   5.138  0.7080 -0.0933 -0.7207
 8541SOL     OW37081   1.485   1.809   5.722 -0.2239  0.3205  0.5161
 8541SOL    HW137082   1.413   1.833   5.781 -1.1451 -0.9593 -0.1034
 8541SOL    HW237083   1.561   1.822   5.779 -0.7954  1.0144  1.1257
 8542SOL     OW37084   2.534   0.886   5.971 -0.2015  0.5031  0.3620
 8542SOL    HW137085   2.482   0.879   6.052  0.3417  0.9783  0.7523
 8542SOL    HW237086   2.532   0.979   5.948 -1.5919  1.0124  2.4760
 8543SOL     OW37087   2.099   1.405   8.354 -0.1572  0.4506 -0.2459
 8543SOL    HW137088   2.087   1.333   8.291  1.4122  0.3151 -0.3924
 8543SOL    HW237089   2.159   1.461   8.305  0.5079  0.8540  1.0186
 8544SOL     OW37090   1.605   4.140   5.678 -0.0929 -0.0953  0.2863
 8544SOL    HW137091   1.611   4.058   5.628  2.2348  0.3951 -0.2541
 8544SOL    HW237092   1.654   4.198   5.620 -0.1635 -0.6441 -0.3292
 8545SOL     OW37093   0.169   3.648   9.699  0.0906  0.0998 -0.3759
 8545SOL    HW137094   0.223   3.684   9.769  0.0234  1.9170 -1.2307
 8545SOL    HW237095   0.080   3.674   9.721  0.5306  0.8822  0.4850
 8546SOL     OW37096   1.708   4.177  16.625 -0.0988  0.0872 -0.0777
 8546SOL    HW137097   1.784   4.235  16.631 -0.4618  0.4824  0.6510
 8546SOL    HW237098   1.645   4.215  16.686  0.8300 -0.2816  1.1063
 8547SOL     OW37099   3.271   4.544   0.430 -0.2291 -0.2914  0.2194
 8547SOL    HW137100   3.243   4.524   0.341  1.8108  0.4855 -0.5940
 8547SOL    HW237101   3.307   4.458   0.450 -2.7946 -1.1984  0.9104
 8548SOL     OW37102   3.698   4.462   3.657 -0.2379 -0.0793  0.4112
 8548SOL    HW137103   3.675   4.530   3.593  1.3895 -0.6283 -0.7371
 8548SOL    HW237104   3.695   4.514   3.737  0.0071 -0.7633  0.8664
 8549SOL     OW37105   2.523   1.692   8.446 -0.0785  0.1072 -0.1530
 8549SOL    HW137106   2.465   1.625   8.483  0.2050  0.7101  1.4140
 8549SOL    HW237107   2.460   1.742   8.394 -0.9680 -0.6439  0.2002
 8550SOL     OW37108   4.382   2.017   4.042  0.5255 -0.5705 -0.6061
 8550SOL    HW137109   4.296   2.032   4.003  0.2776  0.2206  0.2373
 8550SOL    HW237110   4.394   2.056   4.129  1.2735 -2.6214  0.2057
 8551SOL     OW37111   2.719   1.718  11.771 -0.3489 -0.1730 -0.3251
 8551SOL    HW137112   2.700   1.625  11.761 -1.1548  0.0926 -1.3730
 8551SOL    HW237113   2.672   1.761  11.699 -0.2988 -2.3445 -1.6587
 8552SOL     OW37114   1.989   4.118   3.531  0.1543 -0.1485  0.3224
 8552SOL    HW137115   1.945   4.072   3.603  0.0622  0.2379  0.5174
 8552SOL    HW237116   1.995   4.047   3.467  1.1059 -0.9120  1.2678
 8553SOL     OW37117   1.329   0.435   7.808 -0.1550 -0.7510 -0.3848
 8553SOL    HW137118   1.236   0.421   7.824 -0.2777 -1.0712 -1.3593
 8553SOL    HW237119   1.330   0.456   7.714  0.5257  1.3731  0.0884
 8554SOL     OW37120   0.975   1.821   5.953  0.7942 -0.9425 -0.0387
 8554SOL    HW137121   0.928   1.784   6.027  0.3370 -0.2362  0.0198
 8554SOL    HW237122   1.060   1.779   5.964  0.2046 -2.8092 -2.5700
 8555SOL     OW37123   4.336   0.078   2.253  0.3251 -0.2984  0.1176
 8555SOL    HW137124   4.249   0.063   2.217 -0.6360 -0.7234  2.5751
 8555SOL    HW237125   4.368   0.145   2.193  0.1799 -0.3169  0.0191
 8556SOL     OW37126   0.073   2.750   9.851  0.0976 -0.3376  0.4157
 8556SOL    HW137127   0.025   2.698   9.916 -0.0736  0.5748  1.0141
 8556SOL    HW237128   0.158   2.706   9.848 -0.0773 -0.6423 -0.0211
 8557SOL     OW37129   0.898   2.421   2.467 -0.2581  0.3254 -0.4003
 8557SOL    HW137130   0.847   2.478   2.524 -0.4470 -1.3635  1.1126
 8557SOL    HW237131   0.862   2.337   2.497 -0.0587  0.6182  0.6553
 8558SOL     OW37132   1.337   4.283   5.942 -0.0645  0.4214  0.1069
 8558SOL    HW137133   1.349   4.243   5.856  0.5540  0.3266  0.2379
 8558SOL    HW237134   1.353   4.377   5.930  0.5372  0.2981 -0.0474
 8559SOL     OW37135   3.540   2.762   3.725 -0.2409 -0.6053  1.0948
 8559SOL    HW137136   3.632   2.738   3.730 -0.0668 -0.4145 -1.2736
 8559SOL    HW237137   3.505   2.736   3.640 -0.2533  1.5063  0.4588
 8560SOL     OW37138   4.204   4.319   6.824 -0.7429 -0.0027  0.6954
 8560SOL    HW137139   4.182   4.375   6.898  1.5512  1.4903  0.2644
 8560SOL    HW237140   4.293   4.298   6.852 -0.7479 -0.7571  0.1652
 8561SOL     OW37141   1.765   2.936   8.204  0.0977 -0.1077 -0.6083
 8561SOL    HW137142   1.724   3.011   8.247  0.8826  1.3755 -2.3662
 8561SOL    HW237143   1.808   2.898   8.280 -0.5558  0.3800  0.0050
 8562SOL     OW37144   3.811   0.180  15.199 -0.7072 -0.1012  0.1925
 8562SOL    HW137145   3.881   0.147  15.254 -3.2062 -1.7945  2.3481
 8562SOL    HW237146   3.822   0.269  15.233 -0.0385 -0.4027  0.7508
 8563SOL     OW37147   1.244   2.186   7.922  0.3110 -0.0228 -0.1756
 8563SOL    HW137148   1.309   2.242   7.962  0.8220 -0.2706 -0.6451
 8563SOL    HW237149   1.201   2.142   7.995  1.0258 -2.5077 -1.2484
 8564SOL     OW37150   0.247   1.492   0.156  0.2431 -0.2441 -0.2269
 8564SOL    HW137151   0.329   1.461   0.119 -0.5733 -0.8259 -1.5683
 8564SOL    HW237152   0.251   1.586   0.138  0.0677 -0.2135 -0.1053
 8565SOL     OW37153   1.957   3.256   8.227  0.0452  0.2753  0.7440
 8565SOL    HW137154   1.880   3.313   8.237  0.0313  0.2050  1.0533
 8565SOL    HW237155   1.944   3.232   8.136  0.6617 -0.2118  0.7905
 8566SOL     OW37156   3.165   0.031   6.891  0.1133  0.2920  0.2750
 8566SOL    HW137157   3.248   0.042   6.845 -1.8826  0.1226 -3.3741
 8566SOL    HW237158   3.189   0.050   6.981 -0.4377 -0.4781  0.5801
 8567SOL     OW37159   1.116   0.960   3.383  0.3660 -0.3467  0.9713
 8567SOL    HW137160   1.155   1.048   3.379  0.0512 -0.2079  0.9394
 8567SOL    HW237161   1.044   0.973   3.321 -0.0910  0.1544  1.6028
 8568SOL     OW37162   1.214   2.847   3.064 -0.1879  0.6173 -0.0492
 8568SOL    HW137163   1.165   2.884   2.990 -0.0065  2.6253  0.8374
 8568SOL    HW237164   1.145   2.808   3.118  0.6729 -0.6271  0.1524
 8569SOL     OW37165   3.744   0.399  16.236  0.0711  0.3375 -0.4086
 8569SOL    HW137166   3.832   0.429  16.258 -0.6542  0.8710  1.7653
 8569SOL    HW237167   3.767   0.307  16.242  1.6930  0.8217  0.9297
 8570SOL     OW37168   1.038   4.634  15.542  0.2756 -0.4966  0.4985
 8570SOL    HW137169   1.117   4.688  15.538  1.1511 -2.0609 -2.8689
 8570SOL    HW237170   1.013   4.656  15.632 -0.1015 -0.8816  0.4893
 8571SOL     OW37171   3.725   0.891   6.128 -0.0603  0.6361  0.5731
 8571SOL    HW137172   3.687   0.960   6.073  0.1417  0.3195  0.0392
 8571SOL    HW237173   3.739   0.818   6.067  2.9059  1.2322  0.5702
 8572SOL     OW37174   3.898   3.077   3.544  0.3193 -0.3453  0.0755
 8572SOL    HW137175   3.892   3.043   3.455  2.1145  1.9391 -0.9031
 8572SOL    HW237176   3.817   3.036   3.575  0.0675  0.5771  0.6492
 8573SOL     OW37177   1.006   0.502   9.278  0.6326 -0.2703  0.3405
 8573SOL    HW137178   0.997   0.476   9.370  0.1445  0.2878  0.4567
 8573SOL    HW237179   1.033   0.418   9.241  1.0221  0.7494 -1.6539
 8574SOL     OW37180   3.846   2.601  14.591  0.2862 -0.2881  0.1711
 8574SOL    HW137181   3.810   2.513  14.605 -2.0322  1.1304  3.1585
 8574SOL    HW237182   3.781   2.653  14.639 -1.0105 -0.1651 -1.7296
 8575SOL     OW37183   3.802   3.015   4.285  0.0747  0.1540 -0.7511
 8575SOL    HW137184   3.715   2.974   4.285  0.2112 -0.1547 -2.0503
 8575SOL    HW237185   3.871   2.951   4.303 -0.2596 -0.4066 -1.4471
 8576SOL     OW37186   3.283   4.157   3.154 -0.4169 -0.1065  0.3432
 8576SOL    HW137187   3.376   4.138   3.144 -0.2386 -0.4121  2.5846
 8576SOL    HW237188   3.289   4.216   3.229  3.7926 -0.1835  0.0786
 8577SOL     OW37189   3.666   1.408   2.024 -0.1076  0.3487 -0.2298
 8577SOL    HW137190   3.636   1.359   2.101  2.0079  2.6721  2.0954
 8577SOL    HW237191   3.581   1.439   1.992  0.7128  0.0076 -2.6707
 8578SOL     OW37192   2.672   2.060   7.558 -0.2595 -0.6980  0.0340
 8578SOL    HW137193   2.611   2.004   7.512  0.0689 -2.8274  2.1861
 8578SOL    HW237194   2.721   2.099   7.485 -1.7455  1.5058  0.2123
 8579SOL     OW37195   3.356   1.202   7.905 -0.0863 -0.5558 -0.0304
 8579SOL    HW137196   3.314   1.117   7.892  1.0055 -1.5456  2.8030
 8579SOL    HW237197   3.358   1.233   7.815  0.9064 -1.3578 -0.2846
 8580SOL     OW37198   1.448   2.003   5.131 -0.3576  0.0306  0.5641
 8580SOL    HW137199   1.525   1.949   5.148  0.8075  1.2099 -0.9371
 8580SOL    HW237200   1.442   1.973   5.040  0.2955 -2.2563  1.2979
 8581SOL     OW37201   2.601   2.526   7.764 -0.5961 -0.4158 -0.0335
 8581SOL    HW137202   2.623   2.616   7.788 -0.6135  0.2740 -2.5654
 8581SOL    HW237203   2.680   2.479   7.789  0.0647 -0.5583 -2.3472
 8582SOL     OW37204   3.158   1.402   1.507  0.5791  0.2948 -0.8450
 8582SOL    HW137205   3.074   1.382   1.465 -0.0723 -1.5128  1.3779
 8582SOL    HW237206   3.143   1.368   1.595 -0.6328 -0.5357 -1.3842
 8583SOL     OW37207   1.148   3.990  15.983  0.2401  0.0445 -0.0938
 8583SOL    HW137208   1.055   3.996  15.958  0.0966  0.5703  0.5474
 8583SOL    HW237209   1.146   3.909  16.033  2.2646  0.6961  1.0358
 8584SOL     OW37210   2.102   1.687   2.813 -0.4806 -0.0737 -0.1278
 8584SOL    HW137211   2.021   1.664   2.858  0.0136 -0.2534  0.6787
 8584SOL    HW237212   2.131   1.605   2.772  0.6375 -0.1563  0.8363
 8585SOL     OW37213   2.248   2.063   0.030  0.0608  0.0120 -0.0598
 8585SOL    HW137214   2.221   2.115   0.105 -0.3557  0.0348 -0.2296
 8585SOL    HW237215   2.319   2.114  17.683 -1.6302  2.5399  0.2023
 8586SOL     OW37216   1.835   0.045   4.268 -0.3523 -0.1933  1.0185
 8586SOL    HW137217   1.752   0.091   4.256  0.0300  0.2406 -0.0377
 8586SOL    HW237218   1.812   4.689   4.319  0.2270 -2.1523 -1.6825
 8587SOL     OW37219   1.654   1.200   5.108  0.1250  0.3075  0.0200
 8587SOL    HW137220   1.585   1.265   5.098  1.2484  1.1903 -2.2478
 8587SOL    HW237221   1.641   1.171   5.198 -1.1011  1.4780  0.2084
 8588SOL     OW37222   1.295   2.927  12.892  0.3278  0.3274  0.3170
 8588SOL    HW137223   1.203   2.930  12.868  0.1144  0.7196  1.1850
 8588SOL    HW237224   1.300   3.008  12.944  0.7825 -0.9127  2.2123
 8589SOL     OW37225   1.604   3.801   7.843 -0.0313 -0.2430  0.0287
 8589SOL    HW137226   1.652   3.884   7.836  1.4218 -0.9298  1.8465
 8589SOL    HW237227   1.678   3.742   7.857  0.2110  0.2744  1.0126
 8590SOL     OW37228   0.372   4.387   5.380  0.5162 -0.1727  0.3580
 8590SOL    HW137229   0.377   4.292   5.373 -1.6981 -0.2226 -0.3749
 8590SOL    HW237230   0.278   4.401   5.377  0.5212 -0.4654 -0.8676
 8591SOL     OW37231   3.972   2.930  12.148  0.1324 -0.1890 -0.1550
 8591SOL    HW137232   3.901   2.912  12.087  0.5180  2.1993 -1.3021
 8591SOL    HW237233   3.940   2.892  12.230  0.7579 -0.4212 -0.0190
 8592SOL     OW37234   1.101   0.933   7.128 -0.5057 -0.7100 -0.3745
 8592SOL    HW137235   1.037   1.005   7.123 -1.0340 -0.9119  4.1401
 8592SOL    HW237236   1.104   0.909   7.220 -1.0878 -1.6577 -0.5995
 8593SOL     OW37237   2.377   0.176   3.403 -0.6176  0.1067 -0.3851
 8593SOL    HW137238   2.378   0.084   3.427  1.0619 -0.0382 -1.0042
 8593SOL    HW237239   2.419   0.218   3.478 -2.2208  1.7307 -0.3773
 8594SOL     OW37240   1.167   2.878   5.512  0.7133 -0.3528 -0.4699
 8594SOL    HW137241   1.154   2.788   5.543 -0.4873 -0.3405 -0.9274
 8594SOL    HW237242   1.116   2.924   5.578  0.3517 -2.1384  0.4847
 8595SOL     OW37243   3.413   2.010  14.034 -0.3470 -0.3009  0.1329
 8595SOL    HW137244   3.449   2.027  13.946  3.4067 -2.0965  1.3038
 8595SOL    HW237245   3.358   2.087  14.048  1.6899  1.0712  0.6121
 8596SOL     OW37246   2.408   3.385   3.039  0.1539  0.0570  0.3170
 8596SOL    HW137247   2.352   3.358   2.967 -1.5603  1.6822  1.0508
 8596SOL    HW237248   2.450   3.459   2.996 -2.4368  1.3641  0.0573
 8597SOL     OW37249   1.657   4.484   7.220  0.0255  0.6246  0.1566
 8597SOL    HW137250   1.733   4.537   7.243  2.0468 -2.0673 -0.3108
 8597SOL    HW237251   1.588   4.522   7.275 -2.4780 -0.1693 -2.4283
 8598SOL     OW37252   0.842   2.015   7.099 -0.0398 -0.3116  0.0107
 8598SOL    HW137253   0.806   1.949   7.039 -1.6561 -0.4750  1.1470
 8598SOL    HW237254   0.762   2.039   7.147  0.4287 -0.2670  0.7603
 8599SOL     OW37255   4.584   0.355   4.951  0.7539 -0.5716 -0.0229
 8599SOL    HW137256   4.579   0.430   5.012  0.8415  0.1950 -0.9646
 8599SOL    HW237257   4.520   0.294   4.986 -0.6180  0.6116 -0.4710
 8600SOL     OW37258   0.890   3.182   3.510  0.6766 -0.2744 -0.1982
 8600SOL    HW137259   0.953   3.110   3.512  0.9306 -0.0430  0.1901
 8600SOL    HW237260   0.948   3.251   3.477 -0.0854  1.3987  1.9066
 8601SOL     OW37261   2.687   2.821  14.706  0.2369 -0.3150  0.3453
 8601SOL    HW137262   2.766   2.831  14.759  1.3546 -0.6948 -1.2407
 8601SOL    HW237263   2.693   2.726  14.703  1.7069 -0.2546  1.3905
 8602SOL     OW37264   4.065   1.537   4.368  0.6443 -0.9572 -0.4276
 8602SOL    HW137265   3.987   1.486   4.345 -1.0136  1.8009 -0.8894
 8602SOL    HW237266   4.135   1.502   4.313  0.4937 -0.9190 -0.6393
 8603SOL     OW37267   3.495   2.221  13.845 -0.1566  0.6247 -0.3788
 8603SOL    HW137268   3.446   2.202  13.764 -0.6367  1.0595 -0.1896
 8603SOL    HW237269   3.501   2.316  13.834  1.0869  0.2212 -3.3044
 8604SOL     OW37270   2.934   2.977  14.067 -0.1098 -0.3214  0.2949
 8604SOL    HW137271   2.852   2.959  14.112 -0.3476 -0.8827 -0.3593
 8604SOL    HW237272   2.994   2.974  14.141 -1.5276  0.3136  1.4565
 8605SOL     OW37273   1.642   4.640   7.596 -0.2775  0.0221  0.2170
 8605SOL    HW137274   1.674   4.702   7.661 -1.6122  1.1338 -0.1807
 8605SOL    HW237275   1.709   4.572   7.602 -0.0566  0.1445 -0.7863
 8606SOL     OW37276   4.415   2.561  17.116 -0.6172 -0.4902  0.1167
 8606SOL    HW137277   4.370   2.530  17.195 -1.9748  0.9804 -0.0733
 8606SOL    HW237278   4.349   2.548  17.048 -2.2793  0.0946  1.6242
 8607SOL     OW37279   2.121   4.419   2.303  0.2653  0.1738  0.4576
 8607SOL    HW137280   2.064   4.447   2.374 -0.3339 -0.7436  0.3447
 8607SOL    HW237281   2.103   4.491   2.242 -1.0204  2.7412  3.9030
 8608SOL     OW37282   0.458   4.269   1.678  0.6015 -0.0868 -0.3396
 8608SOL    HW137283   0.484   4.337   1.616 -0.9041 -0.4254 -1.3176
 8608SOL    HW237284   0.364   4.278   1.664  0.4452 -1.2101 -0.0354
 8609SOL     OW37285   0.849   2.476  13.724  0.4059 -0.0067 -0.1365
 8609SOL    HW137286   0.899   2.436  13.653 -1.2022 -0.0201 -1.2545
 8609SOL    HW237287   0.800   2.542  13.676 -1.7367 -1.5981 -0.1670
 8610SOL     OW37288   2.927   0.674  12.330 -0.1668 -0.1822 -0.1746
 8610SOL    HW137289   3.017   0.643  12.319  0.1516  0.4157  0.7877
 8610SOL    HW237290   2.928   0.713  12.417 -1.3487 -1.7772  0.5526
 8611SOL     OW37291   0.244   1.412   2.459  0.3658  0.1802 -0.3663
 8611SOL    HW137292   0.243   1.317   2.455  0.0366  0.1840 -0.3879
 8611SOL    HW237293   0.263   1.435   2.367  0.0265  0.5803 -0.3393
 8612SOL     OW37294   0.739   2.638   4.782 -0.3604 -0.1758  0.0016
 8612SOL    HW137295   0.672   2.659   4.718 -0.9042 -0.9170  0.3235
 8612SOL    HW237296   0.810   2.599   4.731 -1.0323 -1.8850  0.3651
 8613SOL     OW37297   2.700   4.476   8.803  0.3169  0.2488 -1.0880
 8613SOL    HW137298   2.695   4.511   8.714  2.5652  0.1562 -1.2325
 8613SOL    HW237299   2.735   4.557   8.839 -0.1485  0.4616 -1.1147
 8614SOL     OW37300   4.054   0.758   7.185 -0.0997 -0.3454 -0.4281
 8614SOL    HW137301   4.098   0.842   7.171  1.5614 -1.5173 -2.1726
 8614SOL    HW237302   4.096   0.718   7.261 -1.1241  1.4809  1.0919
 8615SOL     OW37303   2.057   2.249   2.390  0.2698 -0.6759  0.1957
 8615SOL    HW137304   1.971   2.287   2.375  0.0337 -1.3111 -0.0109
 8615SOL    HW237305   2.076   2.272   2.482 -1.0067  0.7208  0.1221
 8616SOL     OW37306   1.215   0.332   5.943 -0.1225 -0.0205 -0.5329
 8616SOL    HW137307   1.124   0.360   5.928 -1.0659 -2.4538  0.5032
 8616SOL    HW237308   1.216   0.246   5.900  2.0874 -0.4627  0.4389
 8617SOL     OW37309   4.682   2.951   9.710  0.6098 -0.4918 -0.0181
 8617SOL    HW137310   4.664   2.997   9.792 -1.3357  0.1648 -0.8293
 8617SOL    HW237311   4.709   2.868   9.750 -1.2444 -0.3118  1.5817
 8618SOL     OW37312   3.855   0.207  10.930  0.0673 -0.3317 -0.3507
 8618SOL    HW137313   3.898   0.221  10.846 -1.5140  1.0644 -0.9507
 8618SOL    HW237314   3.775   0.259  10.920  0.8378  0.6889 -1.3193
 8619SOL     OW37315   0.824   4.054   0.551 -0.2616  0.0415  0.0507
 8619SOL    HW137316   0.884   4.128   0.557 -1.0950  0.6658  0.8456
 8619SOL    HW237317   0.878   3.976   0.537  0.9305  1.2047 -1.8017
 8620SOL     OW37318   3.129   2.739  10.789 -0.2842 -0.4206 -0.2706
 8620SOL    HW137319   3.110   2.827  10.821 -0.8417 -1.4160  2.1054
 8620SOL    HW237320   3.051   2.716  10.737 -0.0112  3.0340 -2.1934
 8621SOL     OW37321   2.078   1.832  10.912 -0.5538 -0.3639  0.4208
 8621SOL    HW137322   2.077   1.924  10.886  0.5301 -0.3480  0.4251
 8621SOL    HW237323   2.020   1.826  10.988  0.2747 -0.0163  1.0770
 8622SOL     OW37324   4.659   3.270   6.438 -0.2421  0.2560  0.1975
 8622SOL    HW137325   4.638   3.182   6.407  1.8461 -0.5966  1.2187
 8622SOL    HW237326   4.630   3.329   6.368 -2.4395  0.4845  1.3202
 8623SOL     OW37327   2.642   2.032   7.048  0.4322 -0.0483  0.0669
 8623SOL    HW137328   2.629   1.937   7.045  1.0211 -0.0702 -1.7528
 8623SOL    HW237329   2.559   2.065   7.082 -0.1490  1.2016 -2.6009
 8624SOL     OW37330   2.785   0.371   0.767  0.5730 -0.2193 -0.2216
 8624SOL    HW137331   2.805   0.399   0.677  1.3901  0.7577  0.2744
 8624SOL    HW237332   2.695   0.341   0.759  0.0261  0.8421  2.0590
 8625SOL     OW37333   0.203   4.611   8.491  0.2010  0.5256  0.0974
 8625SOL    HW137334   0.263   4.538   8.505  0.9584  1.1698  0.1992
 8625SOL    HW237335   0.174   4.603   8.401 -0.8740 -0.2800  0.5179
 8626SOL     OW37336   0.278   3.951  17.653  0.2161  0.4629 -0.4411
 8626SOL    HW137337   0.354   3.925  17.600  0.0034 -0.6199 -0.2258
 8626SOL    HW237338   0.330   3.979   0.038 -1.1025  2.8145 -0.4196
 8627SOL     OW37339   3.800   4.435   8.905 -0.1353  0.6896 -0.2908
 8627SOL    HW137340   3.782   4.370   8.973  0.6103  0.8385  0.0472
 8627SOL    HW237341   3.803   4.375   8.830 -2.5450 -0.4651  0.5333
 8628SOL     OW37342   4.153   1.740   6.275 -0.5116 -0.5602  0.4137
 8628SOL    HW137343   4.098   1.802   6.322 -1.6376 -2.2007  1.2729
 8628SOL    HW237344   4.234   1.782   6.303 -0.7303 -0.3633  0.7460
 8629SOL     OW37345   2.327   1.414  15.075 -0.5889  0.5394  0.0726
 8629SOL    HW137346   2.327   1.325  15.040 -2.0740 -0.2276  2.0399
 8629SOL    HW237347   2.245   1.412  15.124 -0.2467  0.1381  0.6313
 8630SOL     OW37348   1.244   1.839  15.143 -0.1408 -0.0069 -0.2097
 8630SOL    HW137349   1.170   1.800  15.189 -0.1598 -1.4374 -1.4879
 8630SOL    HW237350   1.224   1.932  15.127  0.8795  0.5002  1.4278
 8631SOL     OW37351   1.090   4.168   7.240 -0.6799  0.7069 -0.0157
 8631SOL    HW137352   1.183   4.146   7.228 -1.2542 -0.6937 -1.9260
 8631SOL    HW237353   1.064   4.151   7.150 -1.9204  0.0596  0.4589
 8632SOL     OW37354   0.645   1.324   5.806  0.0833  0.3510  0.8319
 8632SOL    HW137355   0.555   1.344   5.781  0.4306  0.6715 -0.1487
 8632SOL    HW237356   0.676   1.279   5.728  1.4012 -3.4284  3.4781
 8633SOL     OW37357   2.675   4.353   6.985 -0.0320  0.4510  0.4668
 8633SOL    HW137358   2.658   4.281   7.045 -4.0199  1.4087  0.5243
 8633SOL    HW237359   2.769   4.360   6.998  0.4026 -3.4171 -0.6572
 8634SOL     OW37360   2.034   0.502   1.788  0.3440  0.4881 -0.5303
 8634SOL    HW137361   2.045   0.584   1.837  0.2560 -0.0342  0.3514
 8634SOL    HW237362   2.111   0.506   1.730 -2.0118 -4.6875 -4.0209
 8635SOL     OW37363   0.789   0.931   5.869  0.2534  0.2323  0.1066
 8635SOL    HW137364   0.730   0.895   5.803 -0.1445 -0.1174  0.6558
 8635SOL    HW237365   0.760   0.894   5.952  1.7418 -2.2455 -0.4781
 8636SOL     OW37366   1.335   2.833  10.164  0.0016 -0.0419 -0.2975
 8636SOL    HW137367   1.329   2.785  10.246 -2.0687 -1.1465 -1.1016
 8636SOL    HW237368   1.319   2.925  10.186 -0.5819 -0.1177 -0.4043
 8637SOL     OW37369   2.822   2.493   6.504 -0.3349 -0.4896 -0.0663
 8637SOL    HW137370   2.895   2.438   6.534 -0.2188 -0.5347 -0.4306
 8637SOL    HW237371   2.781   2.516   6.587  0.9015 -1.4894  0.8433
 8638SOL     OW37372   2.743   0.364   6.178  0.0769 -0.0153  0.4967
 8638SOL    HW137373   2.664   0.387   6.131  0.1027 -0.4152  0.2619
 8638SOL    HW237374   2.807   0.429   6.148 -1.4885  1.0743 -0.4614
 8639SOL     OW37375   1.482   2.027   0.371  0.2793  0.1898  0.0739
 8639SOL    HW137376   1.399   2.061   0.336  0.0321  1.2598  1.6981
 8639SOL    HW237377   1.541   2.012   0.298  0.8340  0.5288  0.4495
 8640SOL     OW37378   3.975   2.696   7.298 -0.0614 -0.0439  0.2276
 8640SOL    HW137379   4.007   2.781   7.269  1.6334 -0.4147  1.0353
 8640SOL    HW237380   4.058   2.663   7.334 -0.1825 -0.2034  0.3617
 8641SOL     OW37381   3.009   0.342   9.044 -0.3959  0.4771  0.5082
 8641SOL    HW137382   3.090   0.392   9.050 -1.2794  1.7478  1.8015
 8641SOL    HW237383   3.033   0.258   9.084 -0.8970  0.0337 -0.1132
 8642SOL     OW37384   3.678   3.363   2.869 -0.6881 -0.3203  0.2195
 8642SOL    HW137385   3.692   3.385   2.961 -0.1463  1.1037 -0.1868
 8642SOL    HW237386   3.760   3.316   2.854 -1.2619 -0.2961 -2.9665
 8643SOL     OW37387   0.836   3.798   6.355 -0.7859 -0.3288  0.1836
 8643SOL    HW137388   0.873   3.867   6.411 -1.0216  0.6490 -0.8813
 8643SOL    HW237389   0.786   3.858   6.300 -0.1121  0.4207  0.3943
 8644SOL     OW37390   2.048   0.787   4.286  0.0585 -0.3900  0.0929
 8644SOL    HW137391   2.035   0.815   4.377  0.6207  0.7188 -0.1636
 8644SOL    HW237392   2.126   0.733   4.291  0.2805 -0.0964 -0.1955
 8645SOL     OW37393   1.931   1.274   7.765  0.6254 -0.2635 -0.0059
 8645SOL    HW137394   1.967   1.316   7.843  0.1204  0.6850 -0.2943
 8645SOL    HW237395   1.960   1.184   7.779  0.8252 -0.4729 -1.7964
 8646SOL     OW37396   3.207   2.137   8.631 -0.4096 -0.1518  0.4593
 8646SOL    HW137397   3.204   2.226   8.596 -0.6684 -0.1703  0.4342
 8646SOL    HW237398   3.233   2.088   8.553 -1.9143  0.5635 -0.5010
 8647SOL     OW37399   4.237   0.170   8.475  0.2878 -0.3123  0.1275
 8647SOL    HW137400   4.159   0.220   8.451  0.6980  1.1047  1.6849
 8647SOL    HW237401   4.301   0.197   8.409 -2.4359  0.8461 -2.0095
 8648SOL     OW37402   3.034   4.463   9.150  0.4751  0.3146  0.4440
 8648SOL    HW137403   2.989   4.465   9.234  0.9145 -0.0133  0.6853
 8648SOL    HW237404   2.969   4.444   9.082  0.9795 -1.7247  0.5426
 8649SOL     OW37405   3.006   0.067   2.126  0.4052 -0.9359 -0.1148
 8649SOL    HW137406   2.943   4.719   2.108 -0.2070 -0.6867  1.0893
 8649SOL    HW237407   2.962   0.139   2.079  1.0537  0.1235  0.8917
 8650SOL     OW37408   4.563   3.708   0.355  0.0585  0.2446 -0.5785
 8650SOL    HW137409   4.634   3.746   0.305  0.3526  0.0148 -0.3359
 8650SOL    HW237410   4.501   3.781   0.364 -1.2221 -0.2312 -5.5251
 8651SOL     OW37411   4.655   3.053   7.118 -0.2283  0.0401 -0.3175
 8651SOL    HW137412   4.699   3.128   7.158 -2.0566  0.5138  0.7854
 8651SOL    HW237413   4.653   3.081   7.027  0.0926  1.3393  0.0848
 8652SOL     OW37414   4.427   0.473   7.755 -0.1883  0.2399 -0.4762
 8652SOL    HW137415   4.503   0.470   7.813 -0.4941 -1.4636 -0.1595
 8652SOL    HW237416   4.437   0.564   7.728  2.2294 -0.0641 -0.5735
 8653SOL     OW37417   2.362   0.431   6.648 -0.4336 -0.6246  0.3578
 8653SOL    HW137418   2.449   0.471   6.650 -0.0894 -1.3535 -0.3052
 8653SOL    HW237419   2.301   0.503   6.666  0.3452 -0.4038  2.1209
 8654SOL     OW37420   3.587   0.015  10.783 -0.4744  0.5097 -0.3093
 8654SOL    HW137421   3.681   4.715  10.783 -0.4433  0.6485 -0.5023
 8654SOL    HW237422   3.542   4.656  10.805 -0.1742  0.5562  0.4956
 8655SOL     OW37423   3.828   4.628   5.229  0.0150 -0.0038 -0.2297
 8655SOL    HW137424   3.828   0.002   5.234  1.5546  0.0517 -1.0130
 8655SOL    HW237425   3.745   4.603   5.269 -0.7223  2.7699  0.0055
 8656SOL     OW37426   3.948   2.156   6.622  0.5182 -0.3187  0.3770
 8656SOL    HW137427   3.952   2.251   6.635  1.0264 -0.5676  1.9753
 8656SOL    HW237428   3.852   2.150   6.624  0.3428  2.4868 -0.3024
 8657SOL     OW37429   3.997   1.030   3.002 -0.3202 -0.1225  0.1399
 8657SOL    HW137430   3.932   0.970   2.965 -0.3392  0.3149 -0.5345
 8657SOL    HW237431   4.027   1.072   2.921 -0.9563 -1.1255 -0.6306
 8658SOL     OW37432   1.714   1.586   7.394 -0.8583  0.2419  0.7137
 8658SOL    HW137433   1.776   1.549   7.331  0.4297  2.4761  0.6535
 8658SOL    HW237434   1.722   1.520   7.463  2.0504 -1.0946 -0.8871
 8659SOL     OW37435   0.444   1.916  16.291 -0.5086 -0.2726 -0.6397
 8659SOL    HW137436   0.407   1.992  16.245 -1.6751 -0.6475 -0.3309
 8659SOL    HW237437   0.477   1.970  16.362  0.6836 -0.1470 -1.2938
 8660SOL     OW37438   0.760   0.943   8.690 -0.7691 -0.1937  0.3587
 8660SOL    HW137439   0.799   0.856   8.678  0.5954  0.6349 -1.2067
 8660SOL    HW237440   0.666   0.936   8.671 -0.1466 -1.4279 -2.2216
 8661SOL     OW37441   0.875   2.652  10.360 -0.9746 -0.7866 -0.0742
 8661SOL    HW137442   0.868   2.675  10.267  0.9059 -1.6403 -0.4373
 8661SOL    HW237443   0.878   2.743  10.389 -0.8410 -0.6613 -0.4710
 8662SOL     OW37444   0.036   0.717   1.216 -0.1707  0.2819  0.2627
 8662SOL    HW137445   0.043   0.645   1.153 -1.0535 -0.1330  0.6371
 8662SOL    HW237446   0.128   0.736   1.230  0.1508  0.0188 -1.5311
 8663SOL     OW37447   2.771   2.823   5.281 -0.2642 -0.2005  0.1652
 8663SOL    HW137448   2.790   2.912   5.250  0.3594 -1.0540 -1.8991
 8663SOL    HW237449   2.859   2.786   5.278 -1.3611 -2.6320 -2.2501
 8664SOL     OW37450   0.836   3.866  11.040  0.1924 -0.3267 -0.1066
 8664SOL    HW137451   0.927   3.874  11.070  0.3003  2.4815 -1.2181
 8664SOL    HW237452   0.857   3.871  10.947 -1.4763  0.6493 -0.4319
 8665SOL     OW37453   2.523   1.766   4.700 -0.2054 -0.5508 -0.6198
 8665SOL    HW137454   2.500   1.857   4.681  1.8120 -0.0462 -0.6078
 8665SOL    HW237455   2.538   1.758   4.795 -0.5337 -1.1635 -0.6217
 8666SOL     OW37456   3.889   2.863   8.088 -0.3166 -0.4995  0.0748
 8666SOL    HW137457   3.831   2.793   8.057 -1.4776  0.3824  0.2668
 8666SOL    HW237458   3.975   2.841   8.053 -0.5268  0.5941 -1.1236
 8667SOL     OW37459   1.772   3.264   2.451  0.9716 -0.5525  0.4462
 8667SOL    HW137460   1.830   3.189   2.439  0.2184 -1.0127 -0.3462
 8667SOL    HW237461   1.803   3.330   2.388  0.5110 -0.2255  0.5585
 8668SOL     OW37462   4.370   2.343  11.369 -0.1665 -0.2925 -0.0234
 8668SOL    HW137463   4.407   2.409  11.309 -1.0708  0.1681 -0.0878
 8668SOL    HW237464   4.414   2.261  11.348  1.4087  0.6223 -0.2898
 8669SOL     OW37465   2.741   1.215   9.829 -0.8075  0.9534  0.2125
 8669SOL    HW137466   2.671   1.268   9.791 -1.0957  1.6627  1.7213
 8669SOL    HW237467   2.698   1.159   9.893  3.2980 -0.8883  1.3261
 8670SOL     OW37468   4.100   1.651  17.151 -0.5151 -0.4644 -0.0266
 8670SOL    HW137469   4.172   1.642  17.088  0.6337  0.1179  1.2268
 8670SOL    HW237470   4.153   1.667  17.228  0.4376  1.2102 -1.0415
 8671SOL     OW37471   4.042   0.805  12.872  0.2424 -0.1892 -0.0728
 8671SOL    HW137472   4.009   0.726  12.914  3.0026 -0.8158  0.9436
 8671SOL    HW237473   4.132   0.797  12.904  0.4859 -1.6384 -1.1231
 8672SOL     OW37474   4.559   1.807   4.213 -0.3382  0.7430  0.3768
 8672SOL    HW137475   4.632   1.866   4.197  0.3666 -0.4922 -0.8846
 8672SOL    HW237476   4.489   1.850   4.164  0.2118  1.3133  0.0998
 8673SOL     OW37477   0.656   0.759  16.376 -0.0857  0.7392 -0.3214
 8673SOL    HW137478   0.608   0.746  16.295 -2.3284  1.5730  0.8759
 8673SOL    HW237479   0.598   0.809  16.434  0.1615 -1.2689  1.6798
 8674SOL     OW37480   3.619   2.674   0.460  0.1924  0.0880 -1.1535
 8674SOL    HW137481   3.585   2.744   0.404  0.2423  1.2579  0.2672
 8674SOL    HW237482   3.538   2.626   0.474  0.8630 -1.4273 -2.5496
 8675SOL     OW37483   4.087   4.686  11.001 -0.6244 -0.3586  0.7245
 8675SOL    HW137484   4.012   0.016  10.971 -0.3362 -0.6218 -0.4510
 8675SOL    HW237485   4.096   4.718  11.090  0.0656  2.0485 -0.2086
 8676SOL     OW37486   2.228   1.176  14.131  0.4860  0.5760  0.2677
 8676SOL    HW137487   2.273   1.194  14.049  0.4419 -1.1816 -0.1410
 8676SOL    HW237488   2.200   1.265  14.153  0.4875  0.9662 -1.2812
 8677SOL     OW37489   0.116   3.740   7.948 -0.6116 -0.4499 -0.2190
 8677SOL    HW137490   0.111   3.645   7.939  1.0376 -0.6857  1.2691
 8677SOL    HW237491   0.171   3.774   7.877 -1.8424 -0.8005 -1.3322
 8678SOL     OW37492   1.324   3.017   3.279  0.4523 -0.0942 -0.2412
 8678SOL    HW137493   1.410   2.993   3.243 -0.5506 -0.5832 -2.2960
 8678SOL    HW237494   1.268   2.973   3.215 -0.4881  1.4006 -0.4182
 8679SOL     OW37495   0.003   4.003   2.215  0.4486 -0.4234  0.8558
 8679SOL    HW137496   0.006   4.021   2.121 -0.6546 -0.5331  0.8042
 8679SOL    HW237497   4.709   3.909   2.219 -1.6385 -0.0826  0.2215
 8680SOL     OW37498   4.335   0.610   6.953  0.2420 -0.1253  0.3462
 8680SOL    HW137499   4.351   0.597   6.860  1.1855 -0.3576  0.5426
 8680SOL    HW237500   4.423   0.604   6.990  0.6083  2.1001 -0.1719
 8681SOL     OW37501   4.266   2.733  13.855 -0.4483  0.4403  0.1065
 8681SOL    HW137502   4.251   2.794  13.783  0.4914  0.1523 -0.3258
 8681SOL    HW237503   4.310   2.661  13.810 -0.3392 -0.3781  1.5342
 8682SOL     OW37504   2.567   2.255   9.141  0.0100  0.1805  0.2542
 8682SOL    HW137505   2.584   2.337   9.094  3.0725 -0.6408 -0.0969
 8682SOL    HW237506   2.643   2.199   9.125  0.0231  1.2205 -3.4558
 8683SOL     OW37507   0.758   1.111  11.627  0.2292 -0.0693  0.2529
 8683SOL    HW137508   0.815   1.177  11.588 -0.8484  1.5923  1.4653
 8683SOL    HW237509   0.784   1.034  11.577  1.4057  0.5466 -0.0948
 8684SOL     OW37510   3.114   3.388   7.111 -0.0296  0.7341 -0.1593
 8684SOL    HW137511   3.065   3.309   7.088  1.2860 -0.8905  2.6615
 8684SOL    HW237512   3.102   3.378   7.205 -1.2855 -1.1090 -0.5160
 8685SOL     OW37513   1.706   0.564   2.505 -0.3305  0.6174 -0.4730
 8685SOL    HW137514   1.683   0.485   2.554 -0.5465 -0.5141 -2.4335
 8685SOL    HW237515   1.662   0.631   2.558  2.6418  2.3368 -0.1748
 8686SOL     OW37516   0.117   4.077  15.568  0.0641  0.4736  0.2288
 8686SOL    HW137517   0.206   4.101  15.544 -0.2570  0.7117 -0.7344
 8686SOL    HW237518   0.066   4.070  15.487 -2.1965  0.6623  1.6297
 8687SOL     OW37519   3.422   0.738   3.957  0.1977  0.3748 -0.6081
 8687SOL    HW137520   3.391   0.731   4.047  3.6388  3.8013  0.8514
 8687SOL    HW237521   3.474   0.658   3.948 -0.0854  0.0075  1.0198
 8688SOL     OW37522   1.712   4.212  15.725  0.4720  0.1348  0.1494
 8688SOL    HW137523   1.751   4.270  15.660  0.9497  1.9059  2.0024
 8688SOL    HW237524   1.786   4.157  15.750  2.0593  2.6016  0.8672
 8689SOL     OW37525   2.334   0.738   5.848  0.8653 -0.4051 -0.0917
 8689SOL    HW137526   2.269   0.807   5.834  2.8498  0.9784 -2.6051
 8689SOL    HW237527   2.411   0.787   5.879 -1.2489  2.8291  0.0873
 8690SOL     OW37528   2.175   2.707   4.116 -0.0084  0.2389  0.2772
 8690SOL    HW137529   2.145   2.681   4.029  0.2676  0.1904  0.1943
 8690SOL    HW237530   2.099   2.681   4.167 -0.9053 -0.1931 -1.2868
 8691SOL     OW37531   2.234   0.336   6.906  0.3050 -0.5518 -0.0634
 8691SOL    HW137532   2.295   0.325   6.833  0.5603 -0.9996  0.2209
 8691SOL    HW237533   2.152   0.318   6.860  0.2826 -0.0208 -0.2319
 8692SOL     OW37534   0.118   1.228   4.999  0.3030  0.3906 -0.5580
 8692SOL    HW137535   0.057   1.301   4.991  1.4464  1.4176  0.1613
 8692SOL    HW237536   0.100   1.212   5.092  0.3031 -2.7593 -1.0960
 8693SOL     OW37537   3.707   0.374   6.479 -0.5362 -0.1255  0.5966
 8693SOL    HW137538   3.764   0.443   6.513 -0.8212  0.0166  0.7899
 8693SOL    HW237539   3.718   0.382   6.384 -2.1983  2.6805  0.6438
 8694SOL     OW37540   2.384   2.670  14.877 -0.0770 -0.0458 -0.2409
 8694SOL    HW137541   2.311   2.625  14.919  0.5942 -0.4965  0.4502
 8694SOL    HW237542   2.358   2.646  14.788 -0.5060  1.3174 -0.4934
 8695SOL     OW37543   3.413   3.890   8.448 -0.3060 -0.2098 -0.1482
 8695SOL    HW137544   3.393   3.925   8.534  0.8581 -0.8979  0.4038
 8695SOL    HW237545   3.419   3.795   8.457 -0.8799 -0.3300 -1.0477
 8696SOL     OW37546   0.673   1.629   2.286  0.1038  0.0330  0.0150
 8696SOL    HW137547   0.585   1.624   2.249 -0.0517  0.9809  0.2613
 8696SOL    HW237548   0.683   1.543   2.326  0.8814  0.9216  1.7131
 8697SOL     OW37549   3.149   0.248   5.041 -0.1725  0.2215  0.0436
 8697SOL    HW137550   3.138   0.231   5.134  0.9128 -0.5693  0.0336
 8697SOL    HW237551   3.131   0.162   5.002  3.6383 -0.7318  0.3564
 8698SOL     OW37552   1.147   2.164  14.239 -0.2279  0.0818 -0.0598
 8698SOL    HW137553   1.106   2.118  14.312 -1.4136  3.1003  1.1713
 8698SOL    HW237554   1.129   2.104  14.166 -0.8393 -0.0996  0.2318
 8699SOL     OW37555   3.987   0.887   2.318 -0.8164  0.2387 -0.7279
 8699SOL    HW137556   3.994   0.982   2.319 -1.0517  0.2775 -3.2474
 8699SOL    HW237557   3.912   0.869   2.375  0.6413  1.1286  1.4427
 8700SOL     OW37558   4.093   0.952  12.640 -0.2456 -0.2957 -0.7569
 8700SOL    HW137559   4.015   0.906  12.673  0.5088 -1.9059 -1.2180
 8700SOL    HW237560   4.160   0.931  12.706 -1.9450 -0.5507  0.8983
 8701SOL     OW37561   0.625   2.783   0.343  0.5692  0.2264  0.0006
 8701SOL    HW137562   0.595   2.869   0.372  0.0585  0.4461 -1.1895
 8701SOL    HW237563   0.689   2.763   0.411  0.5944 -1.1254 -0.4202
 8702SOL     OW37564   2.022   0.342   0.623  0.1717 -0.1435 -0.0911
 8702SOL    HW137565   2.024   0.358   0.717 -2.1886  0.0227 -0.0833
 8702SOL    HW237566   2.067   0.258   0.609 -0.2648 -0.4342  0.2377
 8703SOL     OW37567   3.885   3.148  13.334 -0.3638 -0.1788 -0.0029
 8703SOL    HW137568   3.835   3.187  13.262 -1.6505 -0.6302  0.6367
 8703SOL    HW237569   3.946   3.092  13.287 -0.8807  0.5686 -1.5498
 8704SOL     OW37570   0.709   4.266   2.959 -0.8346  0.4987  0.2969
 8704SOL    HW137571   0.615   4.265   2.978 -1.0223  0.6509 -0.5795
 8704SOL    HW237572   0.709   4.278   2.864  1.0546  2.7560  0.5896
 8705SOL     OW37573   0.113   1.059   4.785 -0.2509  0.5707 -0.3870
 8705SOL    HW137574   0.111   1.114   4.864 -0.2407  1.6567 -1.1438
 8705SOL    HW237575   0.099   1.127   4.720 -1.5498  3.4869  2.9651
 8706SOL     OW37576   2.677   4.447   9.487 -0.7526 -0.2002 -0.5250
 8706SOL    HW137577   2.765   4.447   9.449 -1.1303  1.4380 -1.4468
 8706SOL    HW237578   2.667   4.541   9.503  0.3800 -0.5376  2.1120
 8707SOL     OW37579   0.933   4.522  15.273  0.0073 -0.3616  0.2102
 8707SOL    HW137580   0.953   4.588  15.339  1.7949  0.6873 -1.3703
 8707SOL    HW237581   0.914   4.446  15.329 -0.7724  0.4878  1.0982
 8708SOL     OW37582   3.114   1.008   5.892  0.0069 -0.3386  0.1630
 8708SOL    HW137583   3.067   1.039   5.814 -0.1916  1.8448  1.1709
 8708SOL    HW237584   3.200   1.044   5.872 -0.4170  0.7776  0.3445
 8709SOL     OW37585   0.712   1.753   9.903  0.3561  0.2344  0.8656
 8709SOL    HW137586   0.761   1.739   9.823  2.3812 -1.8102  2.4629
 8709SOL    HW237587   0.783   1.782   9.961  0.7976 -2.1408  1.5099
 8710SOL     OW37588   1.492   0.595  17.567 -0.4304  0.3292  0.6279
 8710SOL    HW137589   1.499   0.690  17.558  0.2240  0.2051 -0.2109
 8710SOL    HW237590   1.421   0.594  17.503  0.9543 -0.2621 -0.9038
 8711SOL     OW37591   4.342   4.168   3.906 -0.7008 -0.1273  0.3054
 8711SOL    HW137592   4.289   4.088   3.904  0.5454 -0.9374 -0.4272
 8711SOL    HW237593   4.385   4.173   3.991 -0.7636  1.2908  0.2442
 8712SOL     OW37594   1.948   4.318  13.433  0.4377  0.3046 -0.0663
 8712SOL    HW137595   2.043   4.327  13.444  0.4084  0.4608  0.0684
 8712SOL    HW237596   1.941   4.340  13.340  1.8178 -0.6090 -0.3908
 8713SOL     OW37597   2.642   1.113   3.277 -0.2527  0.3955  0.2414
 8713SOL    HW137598   2.732   1.084   3.263 -0.6723 -1.6752  1.8298
 8713SOL    HW237599   2.626   1.090   3.368  3.9251  0.4914  0.9717
 8714SOL     OW37600   0.201   4.616   6.341 -0.2445 -0.4266  0.1754
 8714SOL    HW137601   0.296   4.610   6.327 -0.2410  0.4066 -0.1328
 8714SOL    HW237602   0.188   4.707   6.317 -1.1045 -0.0796  1.9573
 8715SOL     OW37603   1.237   2.118   5.258  0.1747 -0.5781  0.0822
 8715SOL    HW137604   1.294   2.093   5.185 -2.5465 -1.1766 -1.8090
 8715SOL    HW237605   1.292   2.129   5.336 -1.6981 -2.7906  1.7452
 8716SOL     OW37606   1.404   2.255  12.698 -0.3967 -0.0210  0.3578
 8716SOL    HW137607   1.352   2.193  12.647 -0.7520 -0.2898  1.0470
 8716SOL    HW237608   1.330   2.302  12.737 -0.8043  0.8599 -1.4710
 8717SOL     OW37609   0.069   2.037   5.001  0.0224 -0.3382 -0.0718
 8717SOL    HW137610   0.130   2.031   4.928  0.9630  0.6713  0.6480
 8717SOL    HW237611   4.707   2.049   4.956 -0.8376 -2.8892  0.8334
 8718SOL     OW37612   0.574   0.344   7.908  0.1345 -0.1799 -0.5462
 8718SOL    HW137613   0.533   0.419   7.865  0.7651 -0.5681 -1.8417
 8718SOL    HW237614   0.664   0.376   7.899  0.2429 -0.4607 -0.4615
 8719SOL     OW37615   1.455   4.093   1.987  0.1266  0.2872  0.3340
 8719SOL    HW137616   1.374   4.142   1.973 -0.4759 -0.2297  2.0053
 8719SOL    HW237617   1.448   4.058   1.899 -0.5813  0.5014  0.3042
 8720SOL     OW37618   0.823   0.065   8.213  0.2373 -0.0770  0.0119
 8720SOL    HW137619   0.887   0.057   8.284 -0.4591 -0.3268  0.6080
 8720SOL    HW237620   0.773   4.711   8.243  1.0892 -0.7133 -0.1590
 8721SOL     OW37621   1.559   1.343  17.013  0.1752  0.3447 -0.1912
 8721SOL    HW137622   1.594   1.283  16.947 -0.5557 -1.2071  0.8096
 8721SOL    HW237623   1.614   1.421  17.007  0.3221  0.0816 -2.2893
 8722SOL     OW37624   3.144   0.569  13.841 -0.3623 -0.4680  0.5694
 8722SOL    HW137625   3.158   0.577  13.935  0.1018 -0.0754  0.4714
 8722SOL    HW237626   3.049   0.576  13.841 -0.0963  3.0251  0.7001
 8723SOL     OW37627   1.893   1.267  14.772  0.0100  0.0827  0.1475
 8723SOL    HW137628   1.903   1.255  14.678 -1.1345  0.9009 -0.0822
 8723SOL    HW237629   1.798   1.268  14.784 -0.0283  0.5183 -0.1936
 8724SOL     OW37630   0.304   0.226  13.016 -0.2612 -0.2120  0.8534
 8724SOL    HW137631   0.318   0.161  13.084  2.0958  1.6246  2.1136
 8724SOL    HW237632   0.323   0.173  12.939  1.3071 -0.1154  1.1683
 8725SOL     OW37633   2.346   1.746   3.943  0.5765  0.4329 -0.1133
 8725SOL    HW137634   2.367   1.657   3.974 -0.4119  1.0902  2.4413
 8725SOL    HW237635   2.434   1.781   3.930  0.8998  0.3270  1.7840
 8726SOL     OW37636   0.479   1.566   7.004 -0.2326 -0.0790  0.4941
 8726SOL    HW137637   0.550   1.591   7.063  0.4622  0.4576 -0.5673
 8726SOL    HW237638   0.469   1.648   6.956 -0.4183 -0.2487  0.2405
 8727SOL     OW37639   2.914   1.996   0.519 -0.0177  0.0752  0.0115
 8727SOL    HW137640   2.887   1.927   0.458 -1.1658  2.8785 -2.6066
 8727SOL    HW237641   2.842   2.058   0.508 -0.5126 -0.4650  0.1558
 8728SOL     OW37642   2.261   3.423   3.496 -0.0714  0.2978 -0.0789
 8728SOL    HW137643   2.308   3.466   3.567 -1.6359 -1.4403  2.0107
 8728SOL    HW237644   2.196   3.489   3.470 -2.3005 -1.5363  0.8298
 8729SOL     OW37645   2.388   1.323   3.524  0.2326  0.2460  0.2434
 8729SOL    HW137646   2.441   1.342   3.447 -1.2467  1.5963 -0.4150
 8729SOL    HW237647   2.447   1.323   3.600  0.3907  0.0394  0.1206
 8730SOL     OW37648   1.140   0.571  13.519 -0.2268  0.6408  0.1465
 8730SOL    HW137649   1.123   0.665  13.534 -0.3474  0.6304  0.0757
 8730SOL    HW237650   1.095   0.558  13.435 -0.5603 -1.6280  0.6840
 8731SOL     OW37651   2.239   2.722  10.633 -0.2649 -0.0555  0.0882
 8731SOL    HW137652   2.194   2.639  10.651 -1.3689  0.4426 -0.3483
 8731SOL    HW237653   2.319   2.677  10.605 -0.5884 -0.1695 -0.6689
 8732SOL     OW37654   3.089   4.265  13.690  0.0838 -0.5831  0.2425
 8732SOL    HW137655   2.995   4.248  13.699  0.3380 -1.0475  2.0534
 8732SOL    HW237656   3.091   4.357  13.664  2.4001 -0.7043  0.0557
 8733SOL     OW37657   3.845   0.269   6.726 -0.1689  0.1060 -0.2056
 8733SOL    HW137658   3.802   0.295   6.645  0.0798 -0.9576 -0.6771
 8733SOL    HW237659   3.822   0.336   6.790 -1.9683  0.3401 -1.1220
 8734SOL     OW37660   2.596   2.342   8.699 -0.4760  0.1718 -0.0794
 8734SOL    HW137661   2.580   2.267   8.756 -0.4960 -0.4552 -0.8949
 8734SOL    HW237662   2.626   2.407   8.762  1.1337  0.1618 -0.8447
 8735SOL     OW37663   1.752   4.187   1.246  0.1861 -0.5839 -0.8629
 8735SOL    HW137664   1.785   4.268   1.283 -0.9007 -0.9203  0.8963
 8735SOL    HW237665   1.666   4.227   1.258  1.1126  1.6564 -1.8884
 8736SOL     OW37666   2.747   0.316  11.699 -0.0621  0.5197  0.3482
 8736SOL    HW137667   2.690   0.248  11.662  0.5099  1.3561 -2.0777
 8736SOL    HW237668   2.682   0.384  11.682  0.3183  0.8802  0.3418
 8737SOL     OW37669   1.618   3.170   2.671  0.1153 -0.3334 -0.3252
 8737SOL    HW137670   1.605   3.081   2.639 -1.1110 -1.0658  2.2525
 8737SOL    HW237671   1.674   3.199   2.599 -1.4374  0.6240 -1.1419
 8738SOL     OW37672   2.901   4.065   2.073 -0.2556  0.0007 -0.5615
 8738SOL    HW137673   2.915   4.128   2.143 -0.9403  0.2279 -0.6347
 8738SOL    HW237674   2.921   4.115   1.994  0.6839 -0.8030 -0.8473
 8739SOL     OW37675   3.602   1.617   9.019  0.1952  0.2162  0.2513
 8739SOL    HW137676   3.542   1.691   9.012  1.6147  1.3857  0.2922
 8739SOL    HW237677   3.556   1.548   8.972  1.0771  0.6497 -1.2633
 8740SOL     OW37678   0.797   2.646  16.846  0.1313  0.2616  0.0053
 8740SOL    HW137679   0.870   2.650  16.907 -0.5680 -1.4457  0.9566
 8740SOL    HW237680   0.843   2.616  16.767  1.5016  1.2448  0.4401
 8741SOL     OW37681   3.623   2.312   4.453 -0.3555  0.2835 -0.2618
 8741SOL    HW137682   3.546   2.353   4.415 -0.0007  1.1673 -0.0329
 8741SOL    HW237683   3.608   2.218   4.443 -0.4046  0.3525 -0.8284
 8742SOL     OW37684   0.210   2.971  16.404 -0.2503  0.3041  0.1167
 8742SOL    HW137685   0.132   2.919  16.420  1.1644 -1.9281 -0.1854
 8742SOL    HW237686   0.252   2.951  16.488 -0.1116  0.0706 -0.0068
 8743SOL     OW37687   1.767   1.930  15.264  0.0845 -0.1538 -0.3976
 8743SOL    HW137688   1.733   1.841  15.257 -0.7494  0.2269 -1.3462
 8743SOL    HW237689   1.835   1.905  15.326 -0.5933  0.5580  0.6437
 8744SOL     OW37690   0.495   0.731   0.971  0.2848 -0.1026 -0.0476
 8744SOL    HW137691   0.440   0.680   1.030 -2.2684  0.9015 -1.5298
 8744SOL    HW237692   0.456   0.817   0.985 -1.6512 -0.0671 -5.4028
 8745SOL     OW37693   2.371   4.722  12.336  0.1115 -0.0270  0.0678
 8745SOL    HW137694   2.382   0.044  12.252  0.1965 -0.2846 -0.0584
 8745SOL    HW237695   2.458   0.023  12.368 -0.3433  1.7285  0.0375
 8746SOL     OW37696   1.226   2.684  17.407  0.3156  0.4303  0.0157
 8746SOL    HW137697   1.182   2.603  17.381 -0.4182  0.1667  2.0492
 8746SOL    HW237698   1.158   2.752  17.411 -0.3461 -0.1397 -1.7270
 8747SOL     OW37699   4.168   2.000  12.254 -0.2891  0.0875  0.0887
 8747SOL    HW137700   4.160   2.081  12.304  0.0906  0.9876 -1.3008
 8747SOL    HW237701   4.077   1.973  12.247 -0.5867  1.7911 -2.5604
 8748SOL     OW37702   1.982   0.230   4.394 -0.7753  0.2081 -0.4887
 8748SOL    HW137703   1.962   0.147   4.351  0.3972 -1.4809  2.2036
 8748SOL    HW237704   1.977   0.298   4.327  0.9403  0.7414 -0.0992
 8749SOL     OW37705   1.767   4.090   9.853  0.0466  0.3418 -0.3909
 8749SOL    HW137706   1.841   4.040   9.821 -1.1175 -0.5555 -1.6805
 8749SOL    HW237707   1.779   4.089   9.948  1.3057 -0.6033 -0.5639
 8750SOL     OW37708   3.974   4.589   6.739  0.2964  0.3843  0.3097
 8750SOL    HW137709   4.052   4.553   6.697  1.2225  0.3947  2.0599
 8750SOL    HW237710   3.994   4.586   6.832  0.2906 -0.0947  0.2983
 8751SOL     OW37711   2.756   1.007   8.530 -0.0727 -0.3194 -0.1057
 8751SOL    HW137712   2.693   0.953   8.482  0.6251 -1.0191 -0.2472
 8751SOL    HW237713   2.738   1.093   8.494  0.2143  1.1935  3.3801
 8752SOL     OW37714   0.095   3.842   6.165  0.0160 -0.5453  0.2900
 8752SOL    HW137715   0.012   3.865   6.123 -0.2944 -1.8791  0.1680
 8752SOL    HW237716   0.117   3.925   6.205  0.2600  0.8696 -2.7627
 8753SOL     OW37717   2.650   0.735  10.942 -0.3857  0.0509 -0.4494
 8753SOL    HW137718   2.718   0.787  10.898 -1.3333  0.7917 -1.0607
 8753SOL    HW237719   2.674   0.762  11.030  0.2406 -1.3413 -0.1981
 8754SOL     OW37720   0.652   3.672  10.883  0.4111  0.5655  0.2020
 8754SOL    HW137721   0.697   3.693  10.965  1.5071 -0.2662 -0.1930
 8754SOL    HW237722   0.617   3.756  10.853  0.6739  0.0747 -1.5184
 8755SOL     OW37723   0.706   3.980   3.973 -0.5525 -0.0396 -0.4910
 8755SOL    HW137724   0.669   3.894   3.991 -0.6316 -0.5588 -3.0700
 8755SOL    HW237725   0.768   3.961   3.902  2.5021  2.3557  1.5494
 8756SOL     OW37726   1.634   0.367  15.471  0.1332  0.0467 -0.0520
 8756SOL    HW137727   1.685   0.405  15.543 -1.1215  0.4399  0.6232
 8756SOL    HW237728   1.674   0.416  15.400  0.2881  1.2225  0.8414
 8757SOL     OW37729   1.780   2.486   2.250 -0.4651  0.1167 -0.7946
 8757SOL    HW137730   1.811   2.559   2.198 -0.2114  0.5226 -0.0755
 8757SOL    HW237731   1.780   2.421   2.180  0.7663 -1.1545  0.3748
 8758SOL     OW37732   2.357   1.937   5.639 -0.4607  0.4418  0.5141
 8758SOL    HW137733   2.265   1.939   5.610 -0.7173 -0.8810  1.2881
 8758SOL    HW237734   2.399   1.942   5.553  0.8092 -0.2656  1.0983
 8759SOL     OW37735   3.519   1.688  15.650  0.2240  0.8758  0.4523
 8759SOL    HW137736   3.524   1.593  15.657  1.1996  0.8970  0.0616
 8759SOL    HW237737   3.467   1.697  15.571 -0.8571 -1.3220  0.9067
 8760SOL     OW37738   0.179   3.007  12.438  0.0871 -0.0940 -0.1993
 8760SOL    HW137739   0.146   2.918  12.425 -2.0484  0.4659  1.3694
 8760SOL    HW237740   0.248   2.991  12.503  1.9272  0.0694 -2.0939
 8761SOL     OW37741   3.978   4.116   0.828 -0.0649 -0.1223  0.4216
 8761SOL    HW137742   4.069   4.091   0.845  0.0395  0.8947  1.3393
 8761SOL    HW237743   3.931   4.037   0.853 -1.9544  0.1267 -2.3645
 8762SOL     OW37744   4.211   1.188   0.795  0.2313 -0.0918  0.0680
 8762SOL    HW137745   4.129   1.165   0.839 -0.9459 -0.4706 -2.3145
 8762SOL    HW237746   4.204   1.282   0.782 -2.5098  0.0513  2.5117
 8763SOL     OW37747   3.408   0.864   5.938 -0.0588 -0.1200 -0.0144
 8763SOL    HW137748   3.326   0.845   5.984 -1.1969  0.6091 -1.7221
 8763SOL    HW237749   3.405   0.958   5.919  0.0794 -0.4474 -1.6578
 8764SOL     OW37750   3.313   2.384   4.360 -0.6321 -0.0551 -0.4771
 8764SOL    HW137751   3.299   2.312   4.298 -0.3123  0.0128 -0.6302
 8764SOL    HW237752   3.260   2.453   4.321 -1.1028  0.1046  0.4422
 8765SOL     OW37753   3.554   2.450   2.887 -0.7742 -0.4430  0.0662
 8765SOL    HW137754   3.603   2.462   2.805 -0.5500  1.8359  0.5542
 8765SOL    HW237755   3.511   2.535   2.889  0.6108  0.2644  0.0128
 8766SOL     OW37756   3.961   3.870  12.889  0.4811 -0.4790  0.0678
 8766SOL    HW137757   3.915   3.937  12.939  1.2205 -0.6807  1.0197
 8766SOL    HW237758   3.888   3.810  12.876  1.7564 -2.4616  2.0671
 8767SOL     OW37759   2.744   1.245   8.389  0.2031  0.2887  0.2269
 8767SOL    HW137760   2.801   1.321   8.398 -0.6783  1.2245 -2.1792
 8767SOL    HW237761   2.697   1.267   8.309 -1.6414 -1.3285  0.8768
 8768SOL     OW37762   2.641   0.809  17.404  0.3641 -0.2476 -0.2847
 8768SOL    HW137763   2.609   0.749  17.472  0.5006 -0.3211 -0.2846
 8768SOL    HW237764   2.694   0.743  17.358 -0.4630 -2.1184  1.4445
 8769SOL     OW37765   2.590   3.619   2.073 -0.4284  0.1828 -0.3042
 8769SOL    HW137766   2.498   3.606   2.053 -0.4427 -0.0068 -0.1208
 8769SOL    HW237767   2.612   3.650   1.985  1.8480  1.8625  0.8591
 8770SOL     OW37768   0.908   1.209   7.284  0.2140 -0.3289 -0.5310
 8770SOL    HW137769   0.969   1.279   7.259  1.6233 -0.8663  1.3781
 8770SOL    HW237770   0.903   1.233   7.377 -0.6963  2.1777 -1.2136
 8771SOL     OW37771   4.548   2.699   4.150 -0.1800 -0.1207  0.4684
 8771SOL    HW137772   4.547   2.746   4.067  2.9707 -0.9001 -0.0314
 8771SOL    HW237773   4.519   2.610   4.129  0.0003 -0.5800  2.1719
 8772SOL     OW37774   1.852   4.191   6.403  0.3579  0.9095  0.8155
 8772SOL    HW137775   1.756   4.199   6.407  0.1418 -1.1360 -0.3079
 8772SOL    HW237776   1.866   4.221   6.313  1.4508 -0.2451  0.6021
 8773SOL     OW37777   0.875   3.173   8.683 -0.4587  0.1664  0.1007
 8773SOL    HW137778   0.817   3.249   8.683  2.1101  2.0925 -0.6557
 8773SOL    HW237779   0.956   3.210   8.717 -1.0606 -0.5621  2.3531
 8774SOL     OW37780   2.130   0.928   5.803 -0.4762  0.0141 -0.8655
 8774SOL    HW137781   2.088   0.901   5.722  0.7224 -0.4589 -1.3313
 8774SOL    HW237782   2.192   0.996   5.775 -1.0774  1.2901  0.8754
 8775SOL     OW37783   0.217   3.646   0.169 -0.0016  0.0461  0.2024
 8775SOL    HW137784   0.236   3.566   0.120 -0.2622  0.5024 -0.6547
 8775SOL    HW237785   0.150   3.677   0.107  0.1981 -0.2259 -0.1516
 8776SOL     OW37786   2.444   4.326   8.965 -0.4870  0.0556 -0.0064
 8776SOL    HW137787   2.491   4.398   8.923 -1.6774  0.7061 -0.1977
 8776SOL    HW237788   2.393   4.292   8.891 -0.2021  1.7330 -0.9831
 8777SOL     OW37789   0.082   4.616   2.463 -0.5918 -0.6256 -0.1690
 8777SOL    HW137790   4.715   4.649   2.470 -0.1287  0.2123  1.7380
 8777SOL    HW237791   0.084   4.554   2.536  0.2479  1.0616  1.2389
 8778SOL     OW37792   3.711   4.658   0.902 -0.2846  0.6469  0.8932
 8778SOL    HW137793   3.698   4.630   0.993 -2.5622 -1.0524  0.0571
 8778SOL    HW237794   3.639   4.721   0.902  0.2847  1.2948 -4.0761
 8779SOL     OW37795   2.546   1.372   3.761  0.0547  0.0128  0.4346
 8779SOL    HW137796   2.580   1.453   3.799 -0.4070 -0.0484  0.9616
 8779SOL    HW237797   2.481   1.355   3.829  2.1766 -0.1090  2.4123
 8780SOL     OW37798   0.549   2.118   7.130  0.2290  0.0887  0.6304
 8780SOL    HW137799   0.563   2.212   7.147 -2.4686 -0.0733  3.7622
 8780SOL    HW237800   0.557   2.116   7.035 -0.8338  0.4507  0.5255
 8781SOL     OW37801   4.074   2.979  14.004 -0.3435  0.5036 -0.1938
 8781SOL    HW137802   4.145   3.023  14.049 -1.9672  0.9481  1.9213
 8781SOL    HW237803   4.002   3.009  14.059 -0.2936  0.2529  0.0076
 8782SOL     OW37804   3.937   4.504  13.398 -0.2493  0.1111  0.4222
 8782SOL    HW137805   3.881   4.494  13.321 -0.2032  0.6427  0.3215
 8782SOL    HW237806   3.998   4.575  13.379  0.1768  0.0864  1.7099
 8783SOL     OW37807   1.437   4.110   7.629 -1.0230  0.2592 -0.1109
 8783SOL    HW137808   1.387   4.192   7.621 -0.3045  0.7704  0.5833
 8783SOL    HW237809   1.513   4.141   7.580 -1.8035 -1.8806 -2.6512
 8784SOL     OW37810   3.143   2.032  11.431  0.5576  0.0364 -0.0683
 8784SOL    HW137811   3.217   1.974  11.449 -0.8871 -1.3746  1.4254
 8784SOL    HW237812   3.188   2.112  11.407  3.3061 -1.8654 -1.2253
 8785SOL     OW37813   2.858   3.805  13.127 -0.2948 -0.7537  0.0777
 8785SOL    HW137814   2.951   3.830  13.126 -0.0066 -1.8383  0.2027
 8785SOL    HW237815   2.814   3.890  13.118  0.1696 -0.6317 -1.1670
 8786SOL     OW37816   4.278   1.674   4.464  0.0361  0.1293 -0.4767
 8786SOL    HW137817   4.268   1.632   4.549  0.8098 -0.9150 -0.9018
 8786SOL    HW237818   4.199   1.636   4.426  0.1295 -0.4573 -0.0884
 8787SOL     OW37819   2.332   3.389  11.448  0.0490 -0.0018  0.7338
 8787SOL    HW137820   2.371   3.302  11.441 -0.8589 -0.4770  1.5751
 8787SOL    HW237821   2.244   3.376  11.485 -0.8900 -0.4570 -1.6665
 8788SOL     OW37822   1.551   2.648   4.387  0.5025  0.3838  0.2238
 8788SOL    HW137823   1.573   2.714   4.453  0.3006  1.0716 -0.3947
 8788SOL    HW237824   1.490   2.689   4.326 -1.3536 -1.9711  0.5268
 8789SOL     OW37825   2.076   4.016   5.838  0.6771  0.1856 -0.1349
 8789SOL    HW137826   2.058   4.098   5.792 -1.8606 -0.9671 -1.2325
 8789SOL    HW237827   2.080   3.952   5.767  0.1866 -0.5866  0.5285
 8790SOL     OW37828   3.412   1.051   1.959 -0.4939 -0.1999  0.2544
 8790SOL    HW137829   3.377   0.963   1.967  0.0334 -0.2822  1.8136
 8790SOL    HW237830   3.351   1.101   1.905  0.3760  1.5521  0.8677
 8791SOL     OW37831   1.640   0.133   1.390  0.3175  0.2837 -0.1647
 8791SOL    HW137832   1.612   0.214   1.432 -1.3916 -1.0044  1.1937
 8791SOL    HW237833   1.650   0.076   1.466 -1.4109  0.7004  0.3835
 8792SOL     OW37834   0.777   4.322   8.355 -0.3319 -0.0917  0.2570
 8792SOL    HW137835   0.771   4.266   8.277 -1.6129 -0.8217  0.8768
 8792SOL    HW237836   0.732   4.271   8.423 -2.7913  0.6590 -0.8100
 8793SOL     OW37837   1.636   4.179  17.242 -0.0831  0.2535 -0.1051
 8793SOL    HW137838   1.680   4.098  17.269 -1.6472 -0.8247 -0.7865
 8793SOL    HW237839   1.656   4.229  17.322 -0.3421  2.4197 -1.3923
 8794SOL     OW37840   3.495   3.434   3.077 -0.2064 -0.4077 -0.3603
 8794SOL    HW137841   3.428   3.424   3.010  1.1731  0.4816 -1.8620
 8794SOL    HW237842   3.439   3.462   3.150 -1.5759  2.4559 -2.5240
 8795SOL     OW37843   4.393   2.134  11.901 -0.1561 -0.1565  0.8077
 8795SOL    HW137844   4.395   2.119  11.807 -1.6397  0.0357  0.7534
 8795SOL    HW237845   4.464   2.197  11.916  0.2490 -0.5433  0.5115
 8796SOL     OW37846   1.494   3.698   7.392  0.2814 -0.2991 -0.1659
 8796SOL    HW137847   1.446   3.630   7.440  1.4333 -0.9059  0.1396
 8796SOL    HW237848   1.465   3.773   7.444  1.3883 -1.1148  1.6374
 8797SOL     OW37849   3.596   3.239  11.677  0.1631 -0.0356  0.1426
 8797SOL    HW137850   3.617   3.221  11.585 -0.4590  1.5273 -0.3018
 8797SOL    HW237851   3.685   3.267  11.700  0.2342 -0.0560 -0.1016
 8798SOL     OW37852   1.028   3.306   1.465 -0.2037 -0.6119 -0.2296
 8798SOL    HW137853   0.967   3.349   1.525  1.3675 -1.0359  1.6836
 8798SOL    HW237854   1.105   3.290   1.519 -1.1772 -2.0524  0.7610
 8799SOL     OW37855   0.654   4.142   8.816  0.3176  0.0763  0.1986
 8799SOL    HW137856   0.623   4.053   8.832  1.9164 -0.5031  0.0821
 8799SOL    HW237857   0.579   4.197   8.792  1.5071  1.8874  0.7002
 8800SOL     OW37858   0.556   4.352   7.829 -0.0830  0.4228 -0.6229
 8800SOL    HW137859   0.481   4.314   7.875  0.5432  0.4883  0.4411
 8800SOL    HW237860   0.518   4.351   7.741 -0.6716 -0.1043 -0.3552
 8801SOL     OW37861   2.274   2.768   6.722  0.6113  0.1311  0.2246
 8801SOL    HW137862   2.238   2.680   6.712 -0.1111  0.3146  1.1765
 8801SOL    HW237863   2.213   2.815   6.665  0.7894  1.9357  1.4882
 8802SOL     OW37864   0.758   0.913  15.647  0.2062  0.1972 -0.8256
 8802SOL    HW137865   0.800   0.993  15.615  1.4119  0.5602  1.5755
 8802SOL    HW237866   0.667   0.940  15.659  0.6827  0.5929  1.9918
 8803SOL     OW37867   3.660   3.712   5.381 -0.5257 -0.0576 -0.2736
 8803SOL    HW137868   3.694   3.799   5.364 -1.6154  0.3489 -0.3618
 8803SOL    HW237869   3.619   3.728   5.466 -3.1864  0.5132 -1.6579
 8804SOL     OW37870   3.484   3.244  13.974  0.5535  0.0867  0.3327
 8804SOL    HW137871   3.404   3.290  13.948  0.2964  0.6086  2.0313
 8804SOL    HW237872   3.534   3.312  14.018 -0.3662  0.6987  0.4194
 8805SOL     OW37873   0.633   2.496   3.754 -0.2546 -0.3849  0.3225
 8805SOL    HW137874   0.614   2.497   3.660  2.6235 -1.4402 -0.2673
 8805SOL    HW237875   0.668   2.582   3.776 -0.1675 -0.4321  0.3650
 8806SOL     OW37876   3.540   2.921   0.014  0.2350  0.3177  0.0602
 8806SOL    HW137877   3.456   2.965   0.032 -0.8126 -1.5035 -0.3511
 8806SOL    HW237878   3.564   2.885   0.100 -0.4742  0.0707  0.1614
 8807SOL     OW37879   2.149   2.529   0.267  0.0173  0.8147  0.5208
 8807SOL    HW137880   2.089   2.532   0.193  0.7076  2.2269  0.0207
 8807SOL    HW237881   2.157   2.618   0.302 -2.3765  1.9358 -1.7560
 8808SOL     OW37882   2.118   0.453   4.549  0.5749 -0.0582  0.1478
 8808SOL    HW137883   2.127   0.405   4.466 -0.9132 -0.5118  0.2530
 8808SOL    HW237884   2.025   0.474   4.545  0.7252  0.7009  0.7892
 8809SOL     OW37885   2.423   1.999   2.697 -0.0145 -0.6166  0.1648
 8809SOL    HW137886   2.331   1.982   2.716 -0.6570 -0.2973 -2.5986
 8809SOL    HW237887   2.407   2.048   2.616  0.0684 -0.5459  0.1909
 8810SOL     OW37888   3.791   4.499  11.181  0.0902 -0.1580  0.0917
 8810SOL    HW137889   3.799   4.588  11.215  1.8296  0.0142 -0.7687
 8810SOL    HW237890   3.810   4.450  11.261  0.9801 -1.1346 -0.7202
 8811SOL     OW37891   2.060   3.665  14.264 -0.7389  0.2789  0.1764
 8811SOL    HW137892   2.071   3.572  14.286 -3.0940 -0.5082 -1.9464
 8811SOL    HW237893   1.979   3.688  14.310  0.2563 -0.0774  2.1095
 8812SOL     OW37894   0.936   1.298   2.432 -0.1339 -0.2364  0.3311
 8812SOL    HW137895   0.941   1.382   2.386 -0.8849 -1.5712 -2.1762
 8812SOL    HW237896   0.844   1.286   2.458 -1.0106 -0.8094 -2.9920
 8813SOL     OW37897   0.046   1.327   7.960  0.1089  0.0350 -0.0676
 8813SOL    HW137898   0.004   1.339   8.045  0.5362 -2.3156  0.4884
 8813SOL    HW237899   4.698   1.311   7.897  0.6654  0.1566 -0.7191
 8814SOL     OW37900   1.573   4.674  13.566  0.2682  0.3701 -0.1370
 8814SOL    HW137901   1.562   4.585  13.600  0.4278  0.0842 -0.8265
 8814SOL    HW237902   1.523   4.668  13.485  0.3097  0.0122 -0.1374
 8815SOL     OW37903   1.214   1.129   7.435  0.2832  0.3022  0.5392
 8815SOL    HW137904   1.267   1.100   7.509 -0.4009  0.9219  1.2780
 8815SOL    HW237905   1.257   1.209   7.407  2.2230 -0.6110  0.8788
 8816SOL     OW37906   3.894   2.810  10.146  0.4406 -0.4964 -0.3020
 8816SOL    HW137907   3.950   2.887  10.133  0.2708 -0.2695  0.3005
 8816SOL    HW237908   3.910   2.788  10.238  2.5381  0.0154 -0.5498
 8817SOL     OW37909   2.236   0.742   5.206  0.2923 -0.2540 -0.0997
 8817SOL    HW137910   2.161   0.797   5.228  1.3856  0.8554  0.8337
 8817SOL    HW237911   2.200   0.700   5.128  1.3051 -1.8263  0.2884
 8818SOL     OW37912   2.021   1.174   3.417  0.3787 -0.0598  0.6432
 8818SOL    HW137913   2.094   1.148   3.361  0.5737 -1.0490  1.3523
 8818SOL    HW237914   2.013   1.250   3.359  2.1327  0.1328  0.6370
 8819SOL     OW37915   2.740   1.196  14.938 -0.1206 -0.4971 -0.0885
 8819SOL    HW137916   2.713   1.199  15.030 -0.8341  1.6596 -0.3679
 8819SOL    HW237917   2.705   1.113  14.907 -0.2078 -0.2925 -0.5371
 8820SOL     OW37918   2.512   1.059  17.046  0.4623 -0.5385  0.0597
 8820SOL    HW137919   2.460   1.137  17.066  0.8817 -0.4430  0.7724
 8820SOL    HW237920   2.582   1.069  17.110  0.6415 -1.2252 -0.0306
 8821SOL     OW37921   1.612   3.899   4.104 -0.4824 -0.2372  0.2367
 8821SOL    HW137922   1.691   3.872   4.151  0.5026  1.7487 -0.2706
 8821SOL    HW237923   1.622   3.837   4.031 -1.7170  1.3379 -1.2665
 8822SOL     OW37924   1.918   1.928   6.025 -0.8755 -0.6155  0.3013
 8822SOL    HW137925   1.956   1.929   6.113 -0.9530  1.2925  0.3023
 8822SOL    HW237926   1.998   1.960   5.983 -0.3719  0.6497  2.2191
 8823SOL     OW37927   3.225   4.451   7.127 -0.0336  0.1186 -0.4292
 8823SOL    HW137928   3.221   4.523   7.190  1.9215 -0.7560  0.6975
 8823SOL    HW237929   3.148   4.472   7.075 -0.9494 -0.1954  0.8021
 8824SOL     OW37930   3.434   0.465  16.239  0.1988 -0.3272 -0.0713
 8824SOL    HW137931   3.525   0.464  16.209 -0.4737  1.6620 -2.2018
 8824SOL    HW237932   3.387   0.427  16.165  1.5205 -0.6627 -0.7511
 8825SOL     OW37933   0.397   1.222   4.441 -0.7069  0.3169  0.0349
 8825SOL    HW137934   0.327   1.253   4.383 -0.5956 -0.2716 -0.4177
 8825SOL    HW237935   0.387   1.283   4.514  1.3850  0.5501  0.1307
 8826SOL     OW37936   3.642   0.507   9.319  0.4025 -0.3378  0.5379
 8826SOL    HW137937   3.731   0.471   9.318  0.5260 -0.0265 -1.4665
 8826SOL    HW237938   3.666   0.596   9.295 -0.7676 -0.2568 -0.3473
 8827SOL     OW37939   3.997   3.581   5.865  0.1550 -0.3629  0.5231
 8827SOL    HW137940   3.938   3.622   5.802  1.3524  0.6676  0.0694
 8827SOL    HW237941   3.934   3.585   5.937  0.4839 -0.7610  0.8373
 8828SOL     OW37942   1.248   3.727  11.161 -0.6548  0.1209  0.1117
 8828SOL    HW137943   1.320   3.737  11.223  0.4950 -1.9130 -0.8986
 8828SOL    HW237944   1.238   3.633  11.178 -0.4764  0.2915  1.1451
 8829SOL     OW37945   3.502   1.563   9.909 -0.3601  0.6256  0.3544
 8829SOL    HW137946   3.538   1.613   9.983 -0.9398  1.5961 -0.0216
 8829SOL    HW237947   3.512   1.472   9.937 -0.3670  0.3662 -0.5010
 8830SOL     OW37948   0.114   0.820   4.172 -0.2327 -0.3918 -0.4894
 8830SOL    HW137949   0.076   0.868   4.246  2.2439  2.8767 -1.3136
 8830SOL    HW237950   0.175   0.769   4.226  2.0273  4.3421  1.4349
 8831SOL     OW37951   3.194   4.618   4.038 -0.1358 -0.8025 -0.3049
 8831SOL    HW137952   3.213   4.642   3.948 -1.0876 -1.5455 -0.7051
 8831SOL    HW237953   3.268   4.653   4.087  0.8658 -1.5294 -1.3107
 8832SOL     OW37954   0.050   0.043   6.625 -0.5629 -0.0155  0.0030
 8832SOL    HW137955   0.090   4.679   6.637  0.1340  0.1319 -1.2318
 8832SOL    HW237956   0.119   0.095   6.583 -0.0692  1.1921  2.2703
 8833SOL     OW37957   2.293   3.294   8.372  0.4457  0.6579  0.5829
 8833SOL    HW137958   2.347   3.226   8.333 -2.2649  0.0813 -2.2288
 8833SOL    HW237959   2.229   3.249   8.427  0.1312  2.9479  2.1165
 8834SOL     OW37960   2.896   3.318   4.303  0.1714 -0.5829 -0.2061
 8834SOL    HW137961   2.821   3.261   4.284 -1.6216  1.2460  1.2756
 8834SOL    HW237962   2.910   3.308   4.397  0.3702 -2.5498 -0.4501
 8835SOL     OW37963   3.736   1.176   8.558  0.1704  0.1598  0.0236
 8835SOL    HW137964   3.728   1.267   8.528 -0.9226 -0.1176 -0.4987
 8835SOL    HW237965   3.703   1.130   8.481 -0.4633  0.1538  0.2960
 8836SOL     OW37966   3.616   0.945  13.699  0.4086  0.1792 -0.4699
 8836SOL    HW137967   3.638   1.007  13.629  2.3276  0.0916  0.0709
 8836SOL    HW237968   3.647   0.995  13.775 -2.1028  4.0342 -1.9401
 8837SOL     OW37969   4.110   1.309   8.539  0.5135 -0.6264  0.8530
 8837SOL    HW137970   4.064   1.253   8.477  2.0605 -0.4427 -0.4586
 8837SOL    HW237971   4.199   1.287   8.512  0.1127  1.5979 -2.2848
 8838SOL     OW37972   3.978   1.021   8.581 -0.5136  0.1754  0.3556
 8838SOL    HW137973   3.893   1.052   8.553 -0.3733  1.4966  1.4177
 8838SOL    HW237974   3.948   0.939   8.622 -0.7309 -0.7857 -1.7201
 8839SOL     OW37975   1.933   0.640   9.345  0.3895 -0.5169  0.2116
 8839SOL    HW137976   1.895   0.712   9.294  0.0022 -0.8962 -0.0423
 8839SOL    HW237977   2.007   0.613   9.291  1.8611  1.4755  1.2623
 8840SOL     OW37978   2.119   4.184  16.884  0.7041 -0.4441 -0.1608
 8840SOL    HW137979   2.131   4.144  16.798 -0.3179  2.4306 -1.6601
 8840SOL    HW237980   2.037   4.146  16.915  1.3188 -0.4420  1.4359
 8841SOL     OW37981   1.027   1.767  15.348 -0.1926  0.6388  0.2029
 8841SOL    HW137982   0.988   1.835  15.294 -0.3958 -0.4693 -1.0461
 8841SOL    HW237983   1.004   1.799  15.435  2.0634 -1.9766  1.7673
 8842SOL     OW37984   4.127   3.323  14.702 -0.1019 -0.3425  0.4570
 8842SOL    HW137985   4.110   3.409  14.742  2.3370 -0.2490  1.2817
 8842SOL    HW237986   4.199   3.357  14.649  0.3429 -2.7602 -0.4664
 8843SOL     OW37987   4.034   2.754   2.326 -0.0999 -0.5272  0.4987
 8843SOL    HW137988   3.994   2.840   2.342  0.0882 -0.8508  2.7344
 8843SOL    HW237989   4.117   2.771   2.369 -0.7034  1.2764  0.9627
 8844SOL     OW37990   4.450   1.150   6.814 -0.1799  0.4087  0.2205
 8844SOL    HW137991   4.459   1.058   6.837 -2.7290 -0.2533 -1.3947
 8844SOL    HW237992   4.535   1.182   6.844  0.3806 -1.3683  0.5033
 8845SOL     OW37993   0.349   3.669   3.294 -0.0756 -0.1075  0.3900
 8845SOL    HW137994   0.307   3.730   3.234  1.7065  1.0349  0.3055
 8845SOL    HW237995   0.438   3.704   3.294 -1.0273  2.2960  1.0303
 8846SOL     OW37996   1.376   3.170   6.919 -0.3767  0.2326  0.7011
 8846SOL    HW137997   1.420   3.099   6.967  1.5182 -0.2041 -1.6565
 8846SOL    HW237998   1.408   3.239   6.977  1.7442 -0.6275  0.5800
 8847SOL     OW37999   0.217   3.432  17.690 -0.3696 -0.5036  0.9054
 8847SOL    HW138000   0.143   3.402  17.636  0.6179 -1.9157  0.3292
 8847SOL    HW238001   0.230   3.348   0.042  2.0500 -1.6036 -1.9705
 8848SOL     OW38002   3.242   4.413  14.417  0.4521 -0.2561  0.2721
 8848SOL    HW138003   3.159   4.385  14.379 -0.1935  1.3496  0.5102
 8848SOL    HW238004   3.241   4.490  14.359 -4.0722  1.1315  2.2071
 8849SOL     OW38005   1.094   3.522   5.694 -0.3811  0.0921  0.0057
 8849SOL    HW138006   1.015   3.571   5.669 -0.0127  0.6776  0.0041
 8849SOL    HW238007   1.121   3.565   5.775  2.0939  0.4662 -1.0188
 8850SOL     OW38008   2.051   2.521   6.186  0.6845  0.7744  0.2186
 8850SOL    HW138009   1.981   2.539   6.124  2.1491 -1.0919 -1.9520
 8850SOL    HW238010   2.108   2.455   6.147  0.3302  1.3717 -1.2856
 8851SOL     OW38011   1.289   2.075   7.513 -0.1315 -0.0600 -0.3625
 8851SOL    HW138012   1.273   2.152   7.568 -2.0019 -0.6232 -0.1056
 8851SOL    HW238013   1.297   2.003   7.575 -2.5079 -0.2511 -0.2843
 8852SOL     OW38014   0.976   2.776   1.999 -0.6299 -0.0043  0.2000
 8852SOL    HW138015   1.026   2.715   1.945  0.8386 -1.0064  2.6454
 8852SOL    HW238016   1.029   2.751   2.075 -0.5334 -0.9143 -0.1557
 8853SOL     OW38017   0.468   2.696  16.625 -0.2082  0.6846 -0.1921
 8853SOL    HW138018   0.386   2.741  16.644 -1.3778 -2.0526  1.2975
 8853SOL    HW238019   0.489   2.735  16.541  3.1185 -3.6673 -1.3856
 8854SOL     OW38020   4.477   1.137  11.845 -0.0673 -0.2862  0.1735
 8854SOL    HW138021   4.534   1.136  11.767 -1.1987 -0.2874 -0.6474
 8854SOL    HW238022   4.530   1.157  11.922  0.9917  1.5626 -1.0016
 8855SOL     OW38023   0.898   1.157  12.596  0.1329 -0.1424 -0.0458
 8855SOL    HW138024   0.905   1.061  12.596  0.2115 -0.1361 -1.3479
 8855SOL    HW238025   0.809   1.160  12.563  0.6810 -0.7296 -1.5814
 8856SOL     OW38026   1.244   4.325   1.309  0.1089 -0.4756  0.4459
 8856SOL    HW138027   1.267   4.268   1.382 -1.3219 -2.8137 -0.9407
 8856SOL    HW238028   1.196   4.265   1.252 -0.3920 -1.9654  2.4749
 8857SOL     OW38029   0.352   3.781  15.016  0.1012  0.1028  0.6612
 8857SOL    HW138030   0.366   3.745  14.929 -2.4026  1.2240 -0.1940
 8857SOL    HW238031   0.424   3.844  15.017  0.8983 -0.7973  0.1236
 8858SOL     OW38032   0.656   1.226   3.042  0.3480  0.4296  0.0324
 8858SOL    HW138033   0.664   1.214   3.137 -0.2480  1.8426  0.2672
 8858SOL    HW238034   0.740   1.191   3.013 -0.5704 -2.2246  0.6054
 8859SOL     OW38035   1.286   0.535   4.507 -0.2862  0.3187  0.1416
 8859SOL    HW138036   1.242   0.619   4.498 -1.1982  0.0588  2.2148
 8859SOL    HW238037   1.377   0.561   4.521 -0.2615 -0.0638  0.7084
 8860SOL     OW38038   3.539   2.835   4.019 -0.4311  0.2832 -0.2566
 8860SOL    HW138039   3.519   2.838   3.925  0.3560 -1.5557 -0.4604
 8860SOL    HW238040   3.511   2.744   4.023  2.7478 -0.6615 -0.2626
 8861SOL     OW38041   3.111   4.131   5.800  0.2236 -0.4554  0.4151
 8861SOL    HW138042   3.196   4.174   5.790  0.1168 -0.6585 -1.2384
 8861SOL    HW238043   3.131   4.038   5.808 -0.4206 -0.5808  0.6376
 8862SOL     OW38044   3.543   3.850   3.457 -0.1774  0.4568 -0.5739
 8862SOL    HW138045   3.622   3.860   3.404  0.1078 -0.6120 -0.3606
 8862SOL    HW238046   3.576   3.859   3.546  0.1057  2.4559 -0.8923
 8863SOL     OW38047   0.517   3.552   8.463  0.0373 -0.1513 -0.3130
 8863SOL    HW138048   0.478   3.470   8.494  1.8928 -1.4096 -1.3519
 8863SOL    HW238049   0.502   3.615   8.534 -1.1552 -0.2054 -0.5104
 8864SOL     OW38050   1.318   0.847   6.960  0.2749 -0.4755 -0.7425
 8864SOL    HW138051   1.241   0.875   6.909 -0.1266 -0.4423 -0.1268
 8864SOL    HW238052   1.297   0.871   7.050 -0.1006 -1.8272 -0.4676
 8865SOL     OW38053   2.507   3.599   8.536  0.1209 -0.5121  0.0123
 8865SOL    HW138054   2.419   3.631   8.518  0.7513  0.3396 -1.6210
 8865SOL    HW238055   2.492   3.517   8.584  0.9752 -0.6172  0.1086
 8866SOL     OW38056   3.353   1.996  10.463 -0.7186 -0.2709 -0.7716
 8866SOL    HW138057   3.435   2.003  10.511  0.9943 -0.8855 -3.5497
 8866SOL    HW238058   3.300   2.071  10.488  0.0656 -0.5291  1.6074
 8867SOL     OW38059   1.791   1.711  14.132  0.2592  0.0026  0.0561
 8867SOL    HW138060   1.881   1.708  14.164  0.0841  2.5218  0.7547
 8867SOL    HW238061   1.762   1.627  14.168 -0.4870  0.2619  0.0582
 8868SOL     OW38062   4.213   4.536   1.071 -0.2400  0.3374  0.2329
 8868SOL    HW138063   4.176   4.450   1.053  1.4189 -0.1462 -0.8116
 8868SOL    HW238064   4.140   4.591   1.042 -0.3240  1.3000  2.2635
 8869SOL     OW38065   2.580   2.200   7.954  0.1704  0.0452  0.1850
 8869SOL    HW138066   2.521   2.194   8.030 -0.8464 -0.5431 -0.6573
 8869SOL    HW238067   2.533   2.267   7.905  0.0463  0.1934  0.5021
 8870SOL     OW38068   1.891   3.902   6.408  0.4651  0.4818 -0.6077
 8870SOL    HW138069   1.892   3.997   6.417 -1.6127  0.3885  0.7293
 8870SOL    HW238070   1.881   3.910   6.313 -1.6388  3.6545 -0.1464
 8871SOL     OW38071   2.687   1.948   5.360  0.3349  0.5781  0.0861
 8871SOL    HW138072   2.605   1.898   5.359  1.7982 -1.7339 -4.0393
 8871SOL    HW238073   2.656   2.037   5.373  0.5787  0.4009  1.8512
 8872SOL     OW38074   0.729   0.244   3.839 -0.1937 -0.1296  0.7184
 8872SOL    HW138075   0.767   0.321   3.881 -0.0637  0.4405 -0.4420
 8872SOL    HW238076   0.710   0.184   3.912  2.6521 -0.2518  1.3488
 8873SOL     OW38077   0.955   0.866   2.270  0.2593 -0.3058 -0.4718
 8873SOL    HW138078   0.894   0.876   2.197 -0.4856  2.5792  0.5633
 8873SOL    HW238079   0.999   0.951   2.270 -0.1280 -0.1073  1.1579
 8874SOL     OW38080   2.432   1.474   4.424  0.1295  0.3789 -0.2776
 8874SOL    HW138081   2.486   1.551   4.445 -1.5214  1.3330  0.4303
 8874SOL    HW238082   2.356   1.521   4.388 -0.5829  0.2846  1.1163
 8875SOL     OW38083   2.050   2.382  13.556 -0.7286 -0.5682  0.3093
 8875SOL    HW138084   2.112   2.419  13.619  0.4741 -1.5761 -0.2917
 8875SOL    HW238085   2.073   2.291  13.571  1.1490  0.2154  2.1646
 8876SOL     OW38086   4.083   4.645   4.031 -0.4230 -0.0713 -0.5842
 8876SOL    HW138087   4.135   4.594   3.968  1.9268  0.3534  1.0051
 8876SOL    HW238088   4.098   0.013   4.004 -1.2050  0.5376  1.0525
 8877SOL     OW38089   2.762   4.473  16.529 -0.7174  0.2623 -0.5562
 8877SOL    HW138090   2.846   4.426  16.526 -0.6355  0.3660  0.3599
 8877SOL    HW238091   2.729   4.431  16.608  0.4000  0.9560  0.2679
 8878SOL     OW38092   2.543   0.320  12.171  0.4670  0.1660 -0.1170
 8878SOL    HW138093   2.535   0.415  12.181  0.4762  0.0084  1.3203
 8878SOL    HW238094   2.632   0.307  12.202  0.1453 -2.0804 -0.1606
 8879SOL     OW38095   0.321   3.132   4.894  0.4030 -0.2671 -0.0465
 8879SOL    HW138096   0.358   3.197   4.953 -0.2613  1.3394 -1.3670
 8879SOL    HW238097   0.380   3.062   4.920 -0.4019 -0.6301  0.8073
 8880SOL     OW38098   4.230   0.061   5.820 -0.4738  0.4103 -0.4154
 8880SOL    HW138099   4.195   0.024   5.739 -1.2976  2.0011 -0.7845
 8880SOL    HW238100   4.153   0.051   5.877  0.8289  0.4037  1.3518
 8881SOL     OW38101   0.642   1.894   3.675  0.5702  0.3409 -0.2375
 8881SOL    HW138102   0.702   1.951   3.627  2.5380 -1.2432  0.3479
 8881SOL    HW238103   0.687   1.812   3.657 -0.8491 -0.8671  1.7659
 8882SOL     OW38104   0.791   0.957   2.991 -0.7061 -0.0663  0.0267
 8882SOL    HW138105   0.835   0.872   2.991  0.2728  0.4419  1.1468
 8882SOL    HW238106   0.761   0.966   2.901  1.9240 -2.0310 -1.0313
 8883SOL     OW38107   0.974   1.979   5.123  0.1128 -0.0938  0.3702
 8883SOL    HW138108   1.049   2.008   5.175  0.3307  2.3466 -1.2962
 8883SOL    HW238109   0.894   2.015   5.161  0.7153  0.1875  1.3741
 8884SOL     OW38110   0.394   1.769  11.915  0.0186  0.0053  0.2957
 8884SOL    HW138111   0.351   1.845  11.953 -1.5756 -0.2610 -0.9920
 8884SOL    HW238112   0.433   1.794  11.831 -3.3091 -1.8055 -1.7965
 8885SOL     OW38113   1.465   1.415  12.445 -0.0698  0.4546  0.1802
 8885SOL    HW138114   1.490   1.323  12.450  1.3521  0.8783  0.8274
 8885SOL    HW238115   1.547   1.459  12.466  1.0624 -0.2819 -2.6636
 8886SOL     OW38116   2.323   1.028   4.319 -0.4341  0.3331 -0.1536
 8886SOL    HW138117   2.272   1.071   4.251 -1.6025  0.9193  1.0750
 8886SOL    HW238118   2.293   0.937   4.318  2.0444 -0.4944  0.3840
 8887SOL     OW38119   3.442   4.561  11.999  0.2876  0.3272  0.7220
 8887SOL    HW138120   3.350   4.586  11.991  0.3110  0.6249  1.4542
 8887SOL    HW238121   3.481   4.635  12.046 -1.3093  1.8693 -0.4017
 8888SOL     OW38122   1.432   3.881   0.501 -0.0518  0.0456  0.1771
 8888SOL    HW138123   1.518   3.902   0.539 -0.0158  0.5652 -0.1801
 8888SOL    HW238124   1.443   3.807   0.442 -1.1888  0.7556 -0.9201
 8889SOL     OW38125   2.316   4.563   4.041  0.7793  0.0858 -0.8751
 8889SOL    HW138126   2.269   4.636   4.082  0.7382 -1.3963  1.7188
 8889SOL    HW238127   2.327   4.507   4.119 -1.4133  1.0312  0.1084
 8890SOL     OW38128   1.710   2.671   3.444  0.2640  0.0650  0.0582
 8890SOL    HW138129   1.757   2.599   3.486 -0.0119 -1.2901 -1.9251
 8890SOL    HW238130   1.713   2.740   3.510 -0.3361 -1.6342  1.8700
 8891SOL     OW38131   4.129   0.034  16.805 -0.6319 -0.4945 -0.4143
 8891SOL    HW138132   4.203   0.095  16.804 -0.4859 -0.7072 -2.8852
 8891SOL    HW238133   4.192   4.685  16.818  1.2180  1.2062  0.0019
 8892SOL     OW38134   2.905   4.282   2.233 -0.0132  0.0668  0.1734
 8892SOL    HW138135   2.850   4.302   2.308 -1.5439 -0.6929 -0.7392
 8892SOL    HW238136   2.957   4.361   2.218 -2.0025  1.2648 -0.4396
 8893SOL     OW38137   1.419   3.906   3.240 -0.1518  0.2570  0.6097
 8893SOL    HW138138   1.359   3.932   3.309 -0.7816  1.9711 -0.5701
 8893SOL    HW238139   1.500   3.942   3.276  1.0940 -0.0002 -1.9189
 8894SOL     OW38140   1.083   3.308   3.928  0.0891  0.3724 -0.4213
 8894SOL    HW138141   0.995   3.273   3.911 -0.5363  1.1230  1.2182
 8894SOL    HW238142   1.123   3.238   3.877 -0.5518  0.0570 -0.4985
 8895SOL     OW38143   1.993   0.926   4.521 -0.3133  0.3961 -0.1264
 8895SOL    HW138144   2.004   1.015   4.489  2.2103  0.5914  1.3029
 8895SOL    HW238145   1.954   0.945   4.607  1.2466 -1.0899  0.9160
 8896SOL     OW38146   3.123   3.992   6.612  0.1852 -0.5760 -0.6588
 8896SOL    HW138147   3.156   4.039   6.688 -0.4471  2.0158 -1.9858
 8896SOL    HW238148   3.028   4.003   6.620  0.2672 -2.4617  2.6352
 8897SOL     OW38149   0.350   2.111   8.097 -0.1960  0.2753 -0.7097
 8897SOL    HW138150   0.387   2.049   8.035 -0.3382  0.1238 -0.6439
 8897SOL    HW238151   0.340   2.041   8.162 -1.2992  1.6220  0.5964
 8898SOL     OW38152   1.107   2.227   2.725  0.4859  0.1923 -0.3139
 8898SOL    HW138153   1.132   2.159   2.662  2.5303  1.8502 -1.2872
 8898SOL    HW238154   1.191   2.243   2.767 -0.1747  2.2373  0.2174
 8899SOL     OW38155   3.493   1.484   5.599 -0.1700 -0.1296  0.5836
 8899SOL    HW138156   3.558   1.554   5.594 -0.9757  0.6371  0.6376
 8899SOL    HW238157   3.425   1.517   5.540  0.9073 -0.8548 -1.0647
 8900SOL     OW38158   1.148   0.585   7.212 -0.4180  0.1826  0.3643
 8900SOL    HW138159   1.077   0.540   7.257  0.4176 -0.2411  1.2612
 8900SOL    HW238160   1.101   0.642   7.152 -0.5862 -0.5545 -0.1968
 8901SOL     OW38161   2.312   2.879   8.501 -0.2576 -0.1946 -0.1685
 8901SOL    HW138162   2.308   2.873   8.406  0.1735 -0.6933 -0.1543
 8901SOL    HW238163   2.337   2.790   8.526  2.2341  0.0752 -1.7491
 8902SOL     OW38164   2.383   1.323   5.394  0.0441 -0.5530  0.1496
 8902SOL    HW138165   2.413   1.232   5.386  2.7116  0.4237 -1.1830
 8902SOL    HW238166   2.429   1.361   5.319 -2.8875  2.4812 -0.1093
 8903SOL     OW38167   0.414   1.858  11.564  0.0841 -0.1006 -0.2648
 8903SOL    HW138168   0.426   1.952  11.552  0.9813 -0.1005  0.5925
 8903SOL    HW238169   0.473   1.843  11.490 -0.7643  3.1839 -1.6310
 8904SOL     OW38170   3.737   4.630   2.625  0.0187  0.5137  0.0389
 8904SOL    HW138171   3.687   4.636   2.706 -1.3858 -0.1433 -0.7692
 8904SOL    HW238172   3.686   4.557   2.588  0.4466 -0.0939  0.6495
 8905SOL     OW38173   2.464   0.073   6.931 -0.2749  0.2006 -0.4437
 8905SOL    HW138174   2.437   0.095   6.842 -1.3989  2.9216  0.5558
 8905SOL    HW238175   2.515   0.151   6.952 -0.1691  0.1692 -0.5877
 8906SOL     OW38176   4.207   3.401   5.883 -0.4606  0.4850  0.1003
 8906SOL    HW138177   4.142   3.343   5.923  0.9899  0.2094  2.0912
 8906SOL    HW238178   4.149   3.468   5.847 -0.3465  1.0318  0.9327
 8907SOL     OW38179   1.556   1.676  14.854  0.6859  0.1217  0.1392
 8907SOL    HW138180   1.543   1.701  14.945 -0.9742  0.0841 -0.0702
 8907SOL    HW238181   1.643   1.636  14.853  0.0333 -1.3763  3.6123
 8908SOL     OW38182   3.188   2.579   2.559 -0.3093 -0.7516  0.4677
 8908SOL    HW138183   3.276   2.610   2.536 -1.2394  1.7413  0.3867
 8908SOL    HW238184   3.188   2.592   2.654  0.2150  0.3254  0.3241
 8909SOL     OW38185   2.154   3.000   3.493 -0.1833  0.5103  0.4119
 8909SOL    HW138186   2.061   3.016   3.474 -0.0323  2.3389  1.2026
 8909SOL    HW238187   2.170   3.070   3.556 -0.5078  0.5628  0.4380
 8910SOL     OW38188   2.376   4.526   8.389  0.3333 -0.2300  0.7772
 8910SOL    HW138189   2.334   4.455   8.341 -0.0701 -0.8185  1.9919
 8910SOL    HW238190   2.458   4.483   8.416 -1.2282 -3.3259  0.5888
 8911SOL     OW38191   0.286   4.538   9.357 -0.3883  0.1767  0.3249
 8911SOL    HW138192   0.285   4.586   9.440  1.1577  1.2152 -0.2584
 8911SOL    HW238193   0.192   4.523   9.351  0.1703 -2.0776 -2.7254
 8912SOL     OW38194   4.113   0.924  16.670  0.1979  0.1063  0.1063
 8912SOL    HW138195   4.103   0.880  16.755  0.7474  2.8910  1.6070
 8912SOL    HW238196   4.208   0.933  16.662  0.1461  0.7922  0.2764
 8913SOL     OW38197   3.600   0.127   9.625  0.2350 -0.4822 -0.2177
 8913SOL    HW138198   3.576   0.186   9.696 -0.1534 -0.7016 -0.1707
 8913SOL    HW238199   3.659   0.189   9.582  0.7113  0.6435  2.0407
 8914SOL     OW38200   0.371   4.109  17.027  0.0087  0.3926  0.3511
 8914SOL    HW138201   0.332   4.059  16.955 -0.9090  0.4373  0.8171
 8914SOL    HW238202   0.297   4.123  17.086 -0.3617 -0.8186  0.1838
 8915SOL     OW38203   4.131   2.739  14.106  0.0673  0.1729 -0.1465
 8915SOL    HW138204   4.183   2.727  14.026 -0.8318 -3.2204 -0.2194
 8915SOL    HW238205   4.053   2.779  14.069  1.1440  1.0635 -1.4831
 8916SOL     OW38206   2.197   3.526   5.353 -0.0438 -0.0236  0.3713
 8916SOL    HW138207   2.262   3.585   5.391  1.6370 -0.3119 -2.0517
 8916SOL    HW238208   2.118   3.556   5.397 -0.4401  1.1349 -1.1158
 8917SOL     OW38209   1.726   2.494   6.415 -0.1539  0.3495  0.0094
 8917SOL    HW138210   1.642   2.447   6.420  1.0064 -1.7487  0.1371
 8917SOL    HW238211   1.797   2.430   6.419 -0.8729 -0.3606  1.5521
 8918SOL     OW38212   0.502   4.324  17.150 -0.1930 -0.3593 -0.2910
 8918SOL    HW138213   0.484   4.291  17.238  1.1826 -1.8080 -0.5598
 8918SOL    HW238214   0.479   4.243  17.104 -2.9919 -0.3575  1.0749
 8919SOL     OW38215   2.363   0.632  12.555 -0.7665  0.6218 -0.1481
 8919SOL    HW138216   2.351   0.679  12.473  0.0322  2.3008  0.6815
 8919SOL    HW238217   2.412   0.558  12.521  0.8256  1.0363  1.2423
 8920SOL     OW38218   3.385   4.291  15.014 -0.4829 -0.0722 -0.3190
 8920SOL    HW138219   3.363   4.383  15.033 -0.7592 -0.3640  0.7657
 8920SOL    HW238220   3.448   4.294  14.942 -0.7351  0.5018 -0.5182
 8921SOL     OW38221   3.258   0.988  15.656 -0.2274 -1.0065  0.1773
 8921SOL    HW138222   3.231   0.930  15.727 -0.2169  0.9145  1.7565
 8921SOL    HW238223   3.205   0.957  15.583  0.3260  2.7219 -1.7871
 8922SOL     OW38224   1.600   0.613   9.181 -0.0718  0.3501  0.0614
 8922SOL    HW138225   1.575   0.692   9.228 -1.1109 -0.9394  1.6901
 8922SOL    HW238226   1.681   0.643   9.138 -0.8285  2.5604  0.1823
 8923SOL     OW38227   2.400   2.632   4.223  0.8919  0.1040  0.1482
 8923SOL    HW138228   2.316   2.649   4.180  1.6018 -1.7260 -2.0049
 8923SOL    HW238229   2.404   2.536   4.225 -1.4628 -0.0089  0.3644
 8924SOL     OW38230   0.004   4.041   1.120 -0.2191 -0.6638 -0.1566
 8924SOL    HW138231   0.095   4.024   1.097 -0.9399 -1.6456 -2.2978
 8924SOL    HW238232   0.012   4.089   1.203  0.6584  1.0076 -1.2211
 8925SOL     OW38233   2.393   0.156  12.024 -0.3271  0.0371 -0.2403
 8925SOL    HW138234   2.450   0.204  12.084 -1.4879 -0.1951  1.0533
 8925SOL    HW238235   2.400   0.213  11.947  1.8409  0.6683  0.4186
 8926SOL     OW38236   1.158   1.314   4.274 -0.5615  0.7866  0.3435
 8926SOL    HW138237   1.069   1.293   4.301 -1.0200 -0.0552 -1.8513
 8926SOL    HW238238   1.187   1.224   4.263 -0.9780  0.5895  0.8614
 8927SOL     OW38239   2.713   2.096  17.104  0.3089 -0.0603  0.2027
 8927SOL    HW138240   2.721   2.180  17.059  0.8785 -0.5199 -0.5508
 8927SOL    HW238241   2.619   2.079  17.101  0.3266  0.2922 -2.0006
 8928SOL     OW38242   0.172   4.405   4.472  0.3557  0.0981  0.0768
 8928SOL    HW138243   0.089   4.452   4.476  0.8681  0.9520  0.7616
 8928SOL    HW238244   0.174   4.361   4.387 -0.7456  0.4347 -0.1202
 8929SOL     OW38245   0.439   1.454   3.256 -0.1235 -0.1126 -0.1553
 8929SOL    HW138246   0.446   1.454   3.160 -0.8845  1.7114 -0.2124
 8929SOL    HW238247   0.363   1.399   3.270  0.1655 -0.8912 -1.6697
 8930SOL     OW38248   1.995   3.131  10.227 -0.5200  0.1743  0.0700
 8930SOL    HW138249   2.078   3.161  10.189 -1.2820  0.7411 -1.1308
 8930SOL    HW238250   2.014   3.039  10.245  0.2881  0.3630  0.1998
 8931SOL     OW38251   1.626   3.641   2.651 -0.1468 -0.5089  0.2204
 8931SOL    HW138252   1.690   3.700   2.692  0.7206 -1.7937  0.7260
 8931SOL    HW238253   1.663   3.646   2.563  0.1556 -1.5019  0.2878
 8932SOL     OW38254   0.679   3.742   9.269  0.2942 -0.1473  0.3522
 8932SOL    HW138255   0.733   3.681   9.318 -0.0190 -1.1967 -0.6162
 8932SOL    HW238256   0.605   3.684   9.249  1.5681 -1.2092 -1.2810
 8933SOL     OW38257   2.996   0.968   9.175 -0.1191  0.2747 -0.0570
 8933SOL    HW138258   2.931   1.032   9.202  2.0816  2.8552 -0.8992
 8933SOL    HW238259   3.080   1.013   9.181  0.6256 -0.7165 -3.1419
 8934SOL     OW38260   2.381   0.217  11.032 -0.4371 -0.6001  0.7466
 8934SOL    HW138261   2.401   0.167  11.111 -4.2205 -0.6949  1.6156
 8934SOL    HW238262   2.334   0.292  11.067  2.1210  0.9465  0.8483
 8935SOL     OW38263   0.197   2.860   7.021 -0.0360 -0.6362  0.1005
 8935SOL    HW138264   0.242   2.944   7.006  0.3637 -1.1035 -1.3034
 8935SOL    HW238265   0.206   2.850   7.115  1.1887  3.0802  0.3834
 8936SOL     OW38266   4.094   4.329   9.234  0.2565 -0.2352  0.1809
 8936SOL    HW138267   4.124   4.379   9.159  3.1198  0.2582  1.6552
 8936SOL    HW238268   4.149   4.364   9.304  1.0103  0.6417 -0.8658
 8937SOL     OW38269   1.720   2.505   5.570  0.2570  0.5864 -0.8333
 8937SOL    HW138270   1.724   2.415   5.538 -2.6860  0.2878 -0.3924
 8937SOL    HW238271   1.795   2.500   5.628 -0.1205  1.5475 -0.2725
 8938SOL     OW38272   3.741   1.451   8.519  0.0645  0.1799  0.3778
 8938SOL    HW138273   3.726   1.544   8.509 -1.3994 -0.1715 -0.6650
 8938SOL    HW238274   3.832   1.448   8.491 -0.7691 -0.1977 -2.3074
 8939SOL     OW38275   2.622   0.928   4.740  0.4273 -0.2531  0.1085
 8939SOL    HW138276   2.608   0.853   4.682  1.7872 -1.0244  0.7788
 8939SOL    HW238277   2.677   0.983   4.683 -2.7935  0.1855 -2.6049
 8940SOL     OW38278   3.430   1.552   1.999  0.0382 -0.2224  0.2781
 8940SOL    HW138279   3.351   1.499   2.003 -1.6542  1.9604 -3.9960
 8940SOL    HW238280   3.403   1.643   1.986  1.4142  0.4762  2.3121
 8941SOL     OW38281   3.313   3.470  12.190  1.2865 -0.0390  0.0044
 8941SOL    HW138282   3.245   3.525  12.153  2.3834  0.5815 -1.0930
 8941SOL    HW238283   3.267   3.410  12.249  1.5453  1.7198  2.0110
 8942SOL     OW38284   3.339   0.276   1.471  0.2803 -0.1596  0.0307
 8942SOL    HW138285   3.297   0.356   1.441  1.2495  0.3030 -0.1174
 8942SOL    HW238286   3.426   0.294   1.434 -0.2164  1.0307 -0.5469
 8943SOL     OW38287   3.760   1.172   7.690  0.0924  0.5950  0.1688
 8943SOL    HW138288   3.724   1.115   7.758  1.7874 -1.0753 -0.3286
 8943SOL    HW238289   3.682   1.178   7.636 -1.5037  0.4742  2.4685
 8944SOL     OW38290   0.946   1.581  14.843  0.6862 -0.7625 -0.4353
 8944SOL    HW138291   0.951   1.526  14.922 -0.1773  1.0973  0.9087
 8944SOL    HW238292   1.037   1.611  14.853  0.1758  1.7845 -3.8297
 8945SOL     OW38293   2.296   0.105   4.381 -0.1905  0.7846 -0.0648
 8945SOL    HW138294   2.375   0.107   4.327  1.1203  2.7049  1.9271
 8945SOL    HW238295   2.337   0.088   4.466  1.0170  0.1711 -0.7638
 8946SOL     OW38296   4.272   0.637   4.756  0.2601 -0.3010 -0.1521
 8946SOL    HW138297   4.307   0.639   4.667 -1.0055 -1.7124 -0.6673
 8946SOL    HW238298   4.324   0.713   4.784 -0.8204 -0.1126  1.3670
 8947SOL     OW38299   2.670   1.350   8.953 -0.6036  0.4924  0.6094
 8947SOL    HW138300   2.643   1.434   8.991 -1.4667 -0.2359  1.5781
 8947SOL    HW238301   2.636   1.289   9.018  1.2582 -0.7775  0.3837
 8948SOL     OW38302   4.263   1.567   0.210 -0.0469  0.2210  0.2928
 8948SOL    HW138303   4.340   1.562   0.154 -0.7803 -0.1295 -0.6834
 8948SOL    HW238304   4.293   1.488   0.256 -0.8846 -1.2898 -1.7125
 8949SOL     OW38305   2.219   4.128   4.305  0.9039  0.0301  0.2182
 8949SOL    HW138306   2.229   4.044   4.349 -0.5396  0.5935  1.6031
 8949SOL    HW238307   2.228   4.108   4.211  0.0420 -1.2490  0.4062
 8950SOL     OW38308   2.395   2.839  14.380 -0.7467  0.3082  0.5926
 8950SOL    HW138309   2.465   2.902  14.391  1.1433 -1.7139  0.0948
 8950SOL    HW238310   2.444   2.760  14.360  0.6692  0.9006  1.7788
 8951SOL     OW38311   4.170   1.108   7.924  0.1736  0.8779 -0.1293
 8951SOL    HW138312   4.166   1.203   7.935  0.1472  0.7797  0.6854
 8951SOL    HW238313   4.251   1.098   7.974  0.3376  0.4921 -0.4730
 8952SOL     OW38314   0.535   1.050   5.710  0.1575 -0.3631 -0.1907
 8952SOL    HW138315   0.586   1.016   5.637  1.3714 -1.0638  0.9857
 8952SOL    HW238316   0.467   1.097   5.661 -0.1504  1.4831  1.9869
 8953SOL     OW38317   3.941   3.090   6.726  0.2047  0.7356  0.0352
 8953SOL    HW138318   3.882   3.025   6.764 -0.4650  0.4279 -1.5237
 8953SOL    HW238319   3.938   3.159   6.792 -0.7263  0.4488  0.2880
 8954SOL     OW38320   1.865   1.526  10.728 -0.3766  0.2404 -0.0569
 8954SOL    HW138321   1.944   1.492  10.686 -0.1430  2.0356 -1.0769
 8954SOL    HW238322   1.875   1.621  10.725 -0.7479  0.2794  0.0153
 8955SOL     OW38323   4.629   0.087   6.911 -0.8233 -0.0142  0.1504
 8955SOL    HW138324   4.684   0.117   6.839  0.3436 -0.0513  1.0258
 8955SOL    HW238325   4.548   0.138   6.908  1.6498  3.8461 -0.6090
 8956SOL     OW38326   2.514   0.467   7.753  0.5455 -0.4467 -0.0274
 8956SOL    HW138327   2.435   0.516   7.728  1.0310  0.9144  1.0793
 8956SOL    HW238328   2.490   0.375   7.741 -2.1011  0.3137 -0.5593
 8957SOL     OW38329   4.581   0.025   4.413  0.5766  0.0255 -0.0674
 8957SOL    HW138330   4.486   0.025   4.401  0.5785  0.6485 -0.0680
 8957SOL    HW238331   4.597   0.032   4.319  0.6081 -1.2007 -0.1509
 8958SOL     OW38332   4.293   0.390   7.157 -0.4301  0.5000  0.2837
 8958SOL    HW138333   4.205   0.372   7.189 -0.8327 -1.4526 -1.9070
 8958SOL    HW238334   4.287   0.426   7.068  1.6632  1.4015  0.4964
 8959SOL     OW38335   1.164   1.346  14.885  0.0898 -0.2967 -0.0014
 8959SOL    HW138336   1.232   1.399  14.843  0.1609  0.2944  0.8519
 8959SOL    HW238337   1.220   1.299  14.946  1.1890 -0.3685 -1.0654
 8960SOL     OW38338   1.440   4.532   4.528  0.2837  0.2200  0.2283
 8960SOL    HW138339   1.346   4.550   4.532  0.5590  1.4118  1.3621
 8960SOL    HW238340   1.450   4.535   4.433  0.3556  1.6156  0.2810
 8961SOL     OW38341   3.246   4.593   1.439  0.6827 -0.7038 -0.2467
 8961SOL    HW138342   3.184   4.529   1.403 -0.7317  0.0067  0.9456
 8961SOL    HW238343   3.197   4.674   1.425  0.3366 -0.9430 -0.4222
 8962SOL     OW38344   2.474   4.473   2.293 -0.1588 -0.1084  0.3159
 8962SOL    HW138345   2.431   4.539   2.239 -1.8003 -0.7096  0.8857
 8962SOL    HW238346   2.447   4.392   2.251  0.3479  0.8110 -1.7991
 8963SOL     OW38347   2.597   4.046   3.704 -0.2378 -0.1205 -0.2567
 8963SOL    HW138348   2.659   4.052   3.631 -0.6757 -0.2857 -0.6468
 8963SOL    HW238349   2.656   4.029   3.777 -0.0347 -0.4265 -0.4915
 8964SOL     OW38350   3.203   4.183   3.463  0.5136 -0.6122 -0.1457
 8964SOL    HW138351   3.292   4.210   3.484  0.8378 -1.7644 -0.0896
 8964SOL    HW238352   3.185   4.135   3.543 -0.3108  0.0708  0.0897
 8965SOL     OW38353   3.628   2.423   2.348  0.0327 -0.8792  0.6180
 8965SOL    HW138354   3.575   2.474   2.287  0.6966 -0.5369  0.3297
 8965SOL    HW238355   3.658   2.357   2.287 -0.3445  0.3173 -0.8513
 8966SOL     OW38356   1.569   0.671   5.517 -0.6625 -0.0215  0.6907
 8966SOL    HW138357   1.548   0.694   5.607 -2.4392 -0.7376  0.4630
 8966SOL    HW238358   1.655   0.710   5.502 -0.5534  0.4907  2.6506
 8967SOL     OW38359   3.852   0.924   7.244  0.2641  0.4660  0.0556
 8967SOL    HW138360   3.887   0.940   7.332 -0.1893 -2.1082  0.7081
 8967SOL    HW238361   3.924   0.868   7.216  0.3790  0.4901  0.2979
 8968SOL     OW38362   2.572   0.850   6.497 -0.5971  0.3242 -0.0477
 8968SOL    HW138363   2.550   0.928   6.547 -1.0578  0.0602  0.1675
 8968SOL    HW238364   2.648   0.876   6.446 -1.5566  2.1850 -0.4971
 8969SOL     OW38365   1.448   1.957  15.706 -0.0099  0.0760  0.3583
 8969SOL    HW138366   1.511   2.019  15.743 -0.2250  0.6196 -0.1797
 8969SOL    HW238367   1.366   2.006  15.719 -0.7641 -0.8825 -0.7997
 8970SOL     OW38368   3.050   2.839   6.111 -0.0204 -0.3029  0.1620
 8970SOL    HW138369   2.960   2.866   6.090  0.3294 -0.8612 -2.0528
 8970SOL    HW238370   3.047   2.791   6.193  0.8618  1.3309  1.1450
 8971SOL     OW38371   3.660   1.930   7.655  0.4258 -0.5160  0.6041
 8971SOL    HW138372   3.676   1.856   7.714 -0.5366  0.1544  1.7102
 8971SOL    HW238373   3.564   1.933   7.646  0.4103 -2.6316  0.0101
 8972SOL     OW38374   0.249   1.651   6.742 -0.1444 -0.2459 -0.1229
 8972SOL    HW138375   0.199   1.707   6.682  0.1962  0.6723  0.4397
 8972SOL    HW238376   0.266   1.573   6.690  1.5808 -0.5880  0.9840
 8973SOL     OW38377   2.046   0.758   8.398 -0.6345  0.5094 -0.0391
 8973SOL    HW138378   2.049   0.674   8.443  0.0497  0.0809 -0.8883
 8973SOL    HW238379   1.958   0.784   8.425 -1.8400 -0.4251 -3.1631
 8974SOL     OW38380   1.002   3.983   8.830  0.0812  0.5922  0.4887
 8974SOL    HW138381   0.958   3.904   8.862  1.1574 -1.5213 -3.2251
 8974SOL    HW238382   1.040   4.019   8.909  0.0422  0.8858  0.3739
 8975SOL     OW38383   4.449   3.618   4.428  0.4491  0.3195 -0.3150
 8975SOL    HW138384   4.483   3.645   4.343 -0.6138  1.0746 -0.4999
 8975SOL    HW238385   4.400   3.694   4.457  3.7313  1.7731  1.3935
 8976SOL     OW38386   1.352   1.432   4.830 -0.4629  0.3713 -0.0587
 8976SOL    HW138387   1.424   1.374   4.804 -0.7614 -0.6309  1.3126
 8976SOL    HW238388   1.358   1.426   4.925 -0.6439  1.0939 -0.0050
 8977SOL     OW38389   1.441   1.560   5.270  0.3785  0.4276  0.5039
 8977SOL    HW138390   1.499   1.636   5.275  1.4458 -0.3695  0.1113
 8977SOL    HW238391   1.368   1.579   5.329 -1.3216 -1.2315 -1.0985
 8978SOL     OW38392   2.773   2.376   2.576 -0.1069  0.5224  0.2614
 8978SOL    HW138393   2.800   2.421   2.495  0.6030 -0.1160  0.1393
 8978SOL    HW238394   2.738   2.454   2.620 -2.2546  0.3438 -1.1341
 8979SOL     OW38395   4.188   3.411   3.836 -0.5189  0.2954 -0.3052
 8979SOL    HW138396   4.131   3.369   3.773  0.4428  0.7198 -1.4662
 8979SOL    HW238397   4.130   3.384   3.907  1.8606 -1.0644  1.1362
 8980SOL     OW38398   1.924   0.956   7.582 -0.2601 -0.0656  0.3056
 8980SOL    HW138399   1.967   1.033   7.544  0.8387  0.1612  1.9923
 8980SOL    HW238400   1.988   0.957   7.654  0.1801  0.0677 -0.0907
 8981SOL     OW38401   0.373   0.179   6.927 -0.7129  0.6815 -0.1223
 8981SOL    HW138402   0.453   0.223   6.898  1.7987 -4.4340 -0.9964
 8981SOL    HW238403   0.395   0.190   7.019 -2.7657 -1.7635  0.6503
 8982SOL     OW38404   1.862   4.117  12.807 -0.4342  0.2368 -0.3589
 8982SOL    HW138405   1.779   4.070  12.804  1.3166 -2.6202 -2.9928
 8982SOL    HW238406   1.895   4.094  12.720  1.7244 -1.1500  0.8471
 8983SOL     OW38407   2.121   4.404   8.805  0.0245  0.9103 -0.0513
 8983SOL    HW138408   2.189   4.358   8.756 -2.2248  0.0529 -2.3572
 8983SOL    HW238409   2.133   4.371   8.894 -1.6451 -1.9682 -0.9093
 8984SOL     OW38410   0.178   4.370  15.908 -0.3151  0.1579  0.3651
 8984SOL    HW138411   0.124   4.338  15.836  1.4960 -1.7878 -0.1538
 8984SOL    HW238412   0.192   4.462  15.886 -1.0232 -0.1705 -1.4912
 8985SOL     OW38413   3.238   4.640   6.171 -0.1503  0.3880 -0.3311
 8985SOL    HW138414   3.260   4.603   6.086  2.3752  0.2074  0.3946
 8985SOL    HW238415   3.306   4.705   6.190  0.1298 -0.0709  0.2535
 8986SOL     OW38416   1.624   4.045   7.236  0.1329  0.0466 -0.4295
 8986SOL    HW138417   1.649   4.005   7.153  0.9676 -1.3632  0.5199
 8986SOL    HW238418   1.663   3.982   7.296 -0.0134  0.6564  0.3104
 8987SOL     OW38419   3.680   0.901   8.120 -0.2807 -0.1447 -0.1792
 8987SOL    HW138420   3.740   0.830   8.098  0.1434 -0.5111  2.2060
 8987SOL    HW238421   3.658   0.936   8.033  0.1913  0.7262  0.0479
 8988SOL     OW38422   2.029   4.511   7.053  0.2211 -0.0168  0.6089
 8988SOL    HW138423   1.994   4.529   7.140 -1.6713  1.4705 -0.4628
 8988SOL    HW238424   1.988   4.426   7.034 -1.1775 -0.0364  3.7633
 8989SOL     OW38425   1.310   1.853   2.424 -0.5268  0.3217  0.2014
 8989SOL    HW138426   1.286   1.762   2.445  0.4280 -0.7053 -3.0801
 8989SOL    HW238427   1.406   1.851   2.430 -0.5528  0.1890  0.6093
 8990SOL     OW38428   4.322   2.619  12.821  0.3288  0.3967 -0.3716
 8990SOL    HW138429   4.318   2.553  12.752  0.1488 -0.0785  0.0827
 8990SOL    HW238430   4.404   2.589  12.860  0.5317  0.5196 -0.7050
 8991SOL     OW38431   4.219   4.189  16.525  0.5564 -0.3414 -0.0331
 8991SOL    HW138432   4.301   4.213  16.568  1.2611 -1.1618 -0.8955
 8991SOL    HW238433   4.153   4.224  16.584 -2.6088 -1.9589 -2.6261
 8992SOL     OW38434   3.221   2.634  15.162  0.0985  0.2442  0.5959
 8992SOL    HW138435   3.181   2.548  15.172 -1.8271  1.0087 -0.5129
 8992SOL    HW238436   3.147   2.691  15.182 -0.8715 -0.9882  0.5054
 8993SOL     OW38437   2.819   1.460  10.691  0.1909  0.5293 -0.1633
 8993SOL    HW138438   2.868   1.528  10.736  0.4027  1.5347 -1.9409
 8993SOL    HW238439   2.742   1.458  10.748  1.2854 -0.6812  1.2636
 8994SOL     OW38440   0.585   3.716  12.063  0.1088 -0.3892 -0.1525
 8994SOL    HW138441   0.555   3.625  12.063  2.7564 -1.2717  1.5135
 8994SOL    HW238442   0.577   3.745  11.972  0.7392 -1.0399 -0.4152
 8995SOL     OW38443   0.134   2.825  12.784  0.1337  0.2368  0.1767
 8995SOL    HW138444   0.195   2.757  12.815 -0.6858 -0.4343  0.3192
 8995SOL    HW238445   0.193   2.886  12.741  0.4507  0.0498  0.3475
 8996SOL     OW38446   3.345   4.282   5.767  0.1805 -0.2089 -0.0889
 8996SOL    HW138447   3.357   4.221   5.694  1.4895  0.8737 -0.7754
 8996SOL    HW238448   3.438   4.284   5.790  0.9819  2.2892 -3.4244
 8997SOL     OW38449   2.889   3.915   2.587  0.6213 -0.3700  0.0012
 8997SOL    HW138450   2.957   3.886   2.648  0.0316 -0.5296  0.5821
 8997SOL    HW238451   2.942   3.936   2.510 -2.0586  1.0427 -1.4523
 8998SOL     OW38452   1.927   0.255   4.719  0.1367  0.1109 -0.1944
 8998SOL    HW138453   2.000   0.240   4.659 -0.7076 -0.5338 -1.0687
 8998SOL    HW238454   1.861   0.200   4.676 -1.3212 -0.2116  2.4157
 8999SOL     OW38455   1.762   0.515  10.431 -0.1695 -0.4457 -0.7056
 8999SOL    HW138456   1.680   0.472  10.407 -0.5736 -0.8201  1.3168
 8999SOL    HW238457   1.725   0.593  10.473  2.6858 -0.3982  1.7641
 9000SOL     OW38458   0.653   0.544   7.646  0.3466 -0.2214  0.3769
 9000SOL    HW138459   0.609   0.607   7.703  2.0020  2.1074 -0.9182
 9000SOL    HW238460   0.584   0.489   7.608  1.9141 -0.9383 -1.3980
 9001SOL     OW38461   0.840   0.202   4.719 -0.0407  0.4895 -0.2272
 9001SOL    HW138462   0.796   0.213   4.803 -0.4008  0.1615 -0.3734
 9001SOL    HW238463   0.870   0.291   4.699  1.2708  0.2401  0.6248
 9002SOL     OW38464   1.950   2.472   4.404 -0.6558 -0.3214  0.0821
 9002SOL    HW138465   2.040   2.440   4.406 -1.6166 -3.2866 -2.7116
 9002SOL    HW238466   1.960   2.562   4.433  3.2973 -0.2192 -1.5527
 9003SOL     OW38467   1.888   3.842   7.631 -0.0908  0.5613  0.6629
 9003SOL    HW138468   1.869   3.817   7.722 -0.0254  1.4792  0.9319
 9003SOL    HW238469   1.960   3.781   7.614  1.3449  1.7552  2.3082
 9004SOL     OW38470   0.275   0.639  13.279 -0.0928  0.3304 -0.3507
 9004SOL    HW138471   0.183   0.623  13.300  0.1134  2.7961  2.4655
 9004SOL    HW238472   0.287   0.583  13.202  0.9403  0.6508 -0.4175
 9005SOL     OW38473   3.636   2.867   1.521  0.2674 -0.0316  0.2780
 9005SOL    HW138474   3.732   2.864   1.523  0.2824  0.6633  0.7659
 9005SOL    HW238475   3.609   2.791   1.469  2.2458  0.8578 -2.0260
 9006SOL     OW38476   3.274   3.663   6.214  0.6154 -0.5544 -0.1437
 9006SOL    HW138477   3.256   3.637   6.304  0.8846 -1.2231 -0.2790
 9006SOL    HW238478   3.186   3.696   6.197  0.8849  1.1057  1.7402
 9007SOL     OW38479   4.556   1.355  13.330  0.0011  0.1417  0.0523
 9007SOL    HW138480   4.609   1.369  13.251 -0.4688 -2.3150 -0.7024
 9007SOL    HW238481   4.488   1.421  13.316  0.0891  0.3168  0.4486
 9008SOL     OW38482   0.401   4.445   7.285 -0.4675 -0.9160 -0.0954
 9008SOL    HW138483   0.367   4.360   7.313  2.0708 -2.1173 -0.5995
 9008SOL    HW238484   0.320   4.484   7.253  1.3281  1.2921 -1.9163
 9009SOL     OW38485   4.148   1.264   7.636  0.2721 -0.3714  0.3311
 9009SOL    HW138486   4.129   1.212   7.558 -0.9353  0.0134  0.3572
 9009SOL    HW238487   4.225   1.309   7.603 -0.4739  1.1249  0.6515
 9010SOL     OW38488   3.997   2.600   3.265  0.4347  0.3495  0.1393
 9010SOL    HW138489   4.045   2.549   3.330  0.5501  0.3510  0.0531
 9010SOL    HW238490   4.069   2.653   3.231  0.1904 -0.0086 -0.9133
 9011SOL     OW38491   4.683   4.216   9.247  0.3807  0.1354  0.5381
 9011SOL    HW138492   4.624   4.172   9.308  0.5895 -0.6835  0.1468
 9011SOL    HW238493   4.675   4.151   9.177  1.7860 -1.9978  2.3862
 9012SOL     OW38494   2.424   3.583  15.876  0.7595 -0.2040  0.3941
 9012SOL    HW138495   2.348   3.607  15.823  2.2262 -0.7077 -1.9244
 9012SOL    HW238496   2.449   3.671  15.904 -0.4186  1.0037 -2.3359
 9013SOL     OW38497   1.879   2.283   4.657  0.1617 -0.3319  0.2440
 9013SOL    HW138498   1.877   2.339   4.579  0.8610 -1.0568 -0.2964
 9013SOL    HW238499   1.816   2.324   4.716 -0.3112  0.1309 -0.5882
 9014SOL     OW38500   0.710   3.059   3.290  0.2552  0.4014 -0.8677
 9014SOL    HW138501   0.806   3.054   3.293  0.2207 -0.3696 -1.0681
 9014SOL    HW238502   0.687   3.065   3.383  2.7130  1.8000 -0.3171
 9015SOL     OW38503   2.941   0.573  14.990 -0.4501 -0.6648 -0.5574
 9015SOL    HW138504   2.965   0.634  15.060 -2.7839  0.3378 -0.6536
 9015SOL    HW238505   2.881   0.630  14.942 -0.5436 -1.9232 -1.9248
 9016SOL     OW38506   2.939   4.404   8.542  0.6152  0.3430  0.1495
 9016SOL    HW138507   2.864   4.462   8.526  1.6149  1.1103 -1.8184
 9016SOL    HW238508   2.934   4.355   8.624  0.5402 -0.7528 -0.5051
 9017SOL     OW38509   1.410   3.523   0.191  0.1676 -0.3457 -0.0976
 9017SOL    HW138510   1.367   3.604   0.165  1.5202  0.6222  0.6491
 9017SOL    HW238511   1.470   3.522   0.116  0.6580  1.5828  0.2685
 9018SOL     OW38512   2.784   2.828   2.177 -0.1208  0.4049  0.2636
 9018SOL    HW138513   2.828   2.744   2.164  1.7196  1.3829  0.1351
 9018SOL    HW238514   2.852   2.881   2.135 -0.8317  0.0260 -1.3824
 9019SOL     OW38515   0.034   4.492   9.285  0.4006 -0.0766 -0.1061
 9019SOL    HW138516   0.052   4.513   9.193  1.6024 -0.6132 -0.0022
 9019SOL    HW238517   0.023   4.399   9.265 -3.4099  0.4001 -0.1052
 9020SOL     OW38518   3.173   2.140   2.865  0.2024  0.4569  0.3121
 9020SOL    HW138519   3.213   2.158   2.780 -0.3790  2.0884  0.3741
 9020SOL    HW238520   3.159   2.228   2.900  0.5842  0.2407  1.0207
 9021SOL     OW38521   3.781   3.982   8.732 -0.1586  0.0382 -0.2425
 9021SOL    HW138522   3.795   3.931   8.811 -0.0696  1.4128  0.6234
 9021SOL    HW238523   3.776   3.907   8.672  1.0595 -0.7392  0.6425
 9022SOL     OW38524   3.933   2.465   5.572 -0.2561 -0.1445  0.4854
 9022SOL    HW138525   3.976   2.526   5.633  0.5253 -0.0145 -0.1969
 9022SOL    HW238526   3.867   2.517   5.528 -1.2979 -0.3745  1.7617
 9023SOL     OW38527   3.939   4.027   3.481  0.0649  0.3856 -0.7770
 9023SOL    HW138528   3.927   4.112   3.523  0.2627  1.2953 -2.5654
 9023SOL    HW238529   3.956   4.051   3.390  0.7331 -0.2254 -0.8148
 9024SOL     OW38530   4.509   0.725   0.513  0.4355  0.7544 -1.0055
 9024SOL    HW138531   4.514   0.640   0.556 -0.6836  2.1624  1.9322
 9024SOL    HW238532   4.421   0.720   0.476 -0.8379  0.5843  2.0192
 9025SOL     OW38533   2.121   2.204   4.789  0.0417  0.0050 -0.5597
 9025SOL    HW138534   2.138   2.110   4.779 -3.5533 -0.6131 -0.8797
 9025SOL    HW238535   2.037   2.212   4.744  0.1846  1.8055 -0.5079
 9026SOL     OW38536   2.003   0.142   9.191 -0.2399 -0.2976  0.3247
 9026SOL    HW138537   1.968   0.220   9.147  2.6267  1.0240  0.4157
 9026SOL    HW238538   2.065   0.112   9.125  0.5783  1.6729  0.2150
 9027SOL     OW38539   0.499   0.279  15.929 -0.1476 -0.0005  0.2896
 9027SOL    HW138540   0.409   0.303  15.951  0.0220  0.7618  0.1535
 9027SOL    HW238541   0.496   0.293  15.834  2.0485 -1.5238 -0.0070
 9028SOL     OW38542   2.906   3.791   2.111 -0.7019 -0.3784 -0.3259
 9028SOL    HW138543   2.913   3.884   2.092 -0.0899 -0.4248 -0.3187
 9028SOL    HW238544   2.891   3.767   2.020 -1.3816 -1.4633  0.0655
 9029SOL     OW38545   1.768   3.452   8.239 -0.0264  0.3851 -0.7992
 9029SOL    HW138546   1.715   3.409   8.171 -0.0752  3.0995 -2.5054
 9029SOL    HW238547   1.704   3.494   8.296 -0.0875 -0.1852 -0.4511
 9030SOL     OW38548   4.194   2.798   1.346 -0.6004  0.1248 -0.1790
 9030SOL    HW138549   4.119   2.744   1.322 -1.2108  1.2893 -0.8506
 9030SOL    HW238550   4.151   2.865   1.399 -1.7067 -1.3550  0.7778
 9031SOL     OW38551   4.703   3.651   7.560 -0.2245  0.3678  0.1728
 9031SOL    HW138552   4.686   3.740   7.591 -1.2218 -0.4523  1.9880
 9031SOL    HW238553   0.016   3.663   7.472  1.5612  1.8555  1.0783
 9032SOL     OW38554   3.211   3.628   7.630  0.1599 -0.2855 -0.5287
 9032SOL    HW138555   3.286   3.581   7.666  0.8803  0.7644 -0.6569
 9032SOL    HW238556   3.143   3.569   7.661  0.3877 -0.9155 -1.2377
 9033SOL     OW38557   3.134   2.875   4.169 -0.4814 -0.2483  0.3222
 9033SOL    HW138558   3.173   2.796   4.207 -0.7314 -0.0255  1.0403
 9033SOL    HW238559   3.101   2.837   4.087 -0.4621 -0.2998  0.3382
 9034SOL     OW38560   3.167   3.280  14.589 -0.4618  0.0684 -0.1694
 9034SOL    HW138561   3.142   3.198  14.547  2.1338 -0.9364  0.2437
 9034SOL    HW238562   3.163   3.338  14.514  0.5205 -0.7357 -0.8454
 9035SOL     OW38563   1.076   2.413   5.372 -0.2991  0.4374 -0.0509
 9035SOL    HW138564   1.027   2.399   5.291  0.3729 -0.7569 -0.2524
 9035SOL    HW238565   1.008   2.400   5.438  1.0513  1.4107  1.4981
 9036SOL     OW38566   1.078   4.444   4.870  0.0045 -0.2267 -0.3686
 9036SOL    HW138567   1.060   4.378   4.803 -1.8525 -0.1396  0.0561
 9036SOL    HW238568   1.066   4.393   4.950 -2.1200  2.1417  0.8117
 9037SOL     OW38569   1.229   1.971   2.196 -0.1990 -0.1066  0.7737
 9037SOL    HW138570   1.295   1.934   2.254 -1.2543 -2.3894  0.4846
 9037SOL    HW238571   1.150   1.996   2.244 -1.0845  1.8146 -1.6475
 9038SOL     OW38572   3.971   0.329   3.513  0.3545  0.0167  0.0832
 9038SOL    HW138573   4.010   0.285   3.437 -0.6074 -1.0902  0.2415
 9038SOL    HW238574   4.032   0.403   3.521 -0.6700  0.4677  3.9189
 9039SOL     OW38575   1.324   0.112   2.769  0.4810 -0.6619  0.0383
 9039SOL    HW138576   1.230   0.120   2.756  0.9476  0.4281 -2.5396
 9039SOL    HW238577   1.352   0.203   2.757  0.8000 -0.5512  1.5319
 9040SOL     OW38578   0.783   3.779  10.226  0.6762  0.0743 -0.0454
 9040SOL    HW138579   0.876   3.783  10.202  0.4083 -0.4358 -1.1450
 9040SOL    HW238580   0.757   3.854  10.173 -0.3252 -0.5503 -0.4263
 9041SOL     OW38581   1.190   3.754   8.965 -0.9259 -0.5186  0.3136
 9041SOL    HW138582   1.214   3.782   8.877 -2.8551  1.5777  0.4433
 9041SOL    HW238583   1.274   3.713   8.988 -0.6359 -0.5244 -0.7486
 9042SOL     OW38584   1.236   2.378   6.053 -0.7158  0.3094 -0.7458
 9042SOL    HW138585   1.162   2.412   6.002 -0.5286  0.0952 -1.1672
 9042SOL    HW238586   1.264   2.295   6.013 -0.4970  1.2357 -2.5295
 9043SOL     OW38587   0.437   1.173  11.472 -0.4425 -0.0417  0.5441
 9043SOL    HW138588   0.383   1.235  11.520  0.8404  1.9841 -0.6359
 9043SOL    HW238589   0.371   1.117  11.431 -0.4007  1.0246 -0.9939
 9044SOL     OW38590   1.645   1.970   0.150  0.6836 -0.8561 -0.1139
 9044SOL    HW138591   1.589   1.974   0.072 -0.2986  0.0234  0.6260
 9044SOL    HW238592   1.730   1.993   0.113  0.2199  0.4294 -0.3902
 9045SOL     OW38593   4.546   3.610   6.472  0.0200 -0.7550 -0.1841
 9045SOL    HW138594   4.621   3.592   6.414 -0.3977 -0.5962 -0.7715
 9045SOL    HW238595   4.479   3.625   6.405 -2.0373 -2.8072  1.3996
 9046SOL     OW38596   3.075   2.331   2.548 -0.1092 -0.0669 -0.1521
 9046SOL    HW138597   3.104   2.422   2.538 -0.9931 -0.0028 -2.1154
 9046SOL    HW238598   2.983   2.344   2.570  0.2781 -0.9538  1.9588
 9047SOL     OW38599   4.599   2.990   8.050  0.0825  0.1616 -0.7052
 9047SOL    HW138600   4.644   3.053   8.106  0.1039  1.3618 -2.0694
 9047SOL    HW238601   4.608   3.043   7.971 -1.5982 -1.7159 -2.1658
 9048SOL     OW38602   3.159   3.283   8.190 -0.0662 -0.1069  0.0695
 9048SOL    HW138603   3.223   3.234   8.241  2.0454 -1.7632 -4.1685
 9048SOL    HW238604   3.180   3.370   8.222 -1.1988 -0.5405  1.9481
 9049SOL     OW38605   0.395   2.654  14.566  0.2348  0.3979  0.2719
 9049SOL    HW138606   0.304   2.643  14.593  0.2119  0.3163  0.1650
 9049SOL    HW238607   0.423   2.713  14.636  1.1901  0.3472 -0.0615
 9050SOL     OW38608   1.162   0.074   1.028 -0.2557  0.2245  0.4940
 9050SOL    HW138609   1.213   0.075   1.109 -1.3978  1.1368  1.2173
 9050SOL    HW238610   1.200   0.149   0.982 -1.0351  0.9839  1.0807
 9051SOL     OW38611   0.442   0.639   4.725 -0.8412 -0.9985  0.0148
 9051SOL    HW138612   0.354   0.655   4.761 -0.8729 -0.0157 -0.5175
 9051SOL    HW238613   0.427   0.553   4.684 -1.3111 -0.9474  0.0764
 9052SOL     OW38614   2.226   4.148   6.846  0.2926 -0.5846  0.6988
 9052SOL    HW138615   2.238   4.243   6.843  0.5509 -0.6575 -0.5335
 9052SOL    HW238616   2.301   4.124   6.900  0.4583 -0.1192  0.6782
 9053SOL     OW38617   3.750   0.432   6.931 -0.3766  0.1715  0.1330
 9053SOL    HW138618   3.786   0.520   6.928  0.5066 -0.1477  1.2500
 9053SOL    HW238619   3.774   0.413   7.022  0.4287 -0.0050 -0.1101
 9054SOL     OW38620   4.408   2.269  15.598  0.1843  0.5042 -0.0936
 9054SOL    HW138621   4.396   2.310  15.683 -0.3991 -2.2037  1.1295
 9054SOL    HW238622   4.335   2.297  15.543 -2.1929 -2.2954  1.6736
 9055SOL     OW38623   1.415   2.011  14.122  0.2682 -0.4992 -0.2507
 9055SOL    HW138624   1.389   1.976  14.207 -1.5729  1.5297  0.0348
 9055SOL    HW238625   1.473   2.085  14.141  0.4273 -0.1188 -2.1847
 9056SOL     OW38626   3.826   1.687   8.401  0.3111 -0.0133  0.6116
 9056SOL    HW138627   3.831   1.730   8.486  0.8412 -0.1474  0.6461
 9056SOL    HW238628   3.886   1.743   8.351 -2.4551  1.6308 -0.9231
 9057SOL     OW38629   2.525   4.217   5.423  0.5850 -0.5006 -0.5308
 9057SOL    HW138630   2.457   4.153   5.446  0.2450 -0.1735 -0.6148
 9057SOL    HW238631   2.537   4.273   5.499 -1.6875  1.3502 -1.5423
 9058SOL     OW38632   1.594   1.585   3.576 -0.4488 -0.6110 -0.1099
 9058SOL    HW138633   1.687   1.562   3.575 -0.2657  0.1108  0.6986
 9058SOL    HW238634   1.564   1.538   3.498 -0.4155 -2.6604  1.1257
 9059SOL     OW38635   0.462   0.839   4.168 -0.7647  0.0225  0.0927
 9059SOL    HW138636   0.487   0.881   4.250  0.0135  0.1025 -0.1805
 9059SOL    HW238637   0.394   0.904   4.151 -0.4899  0.1589 -0.5001
 9060SOL     OW38638   2.400   1.763   3.303  0.0166  0.0079  0.4727
 9060SOL    HW138639   2.335   1.811   3.253  0.7158  0.8222  0.3345
 9060SOL    HW238640   2.363   1.676   3.309  1.5839 -0.6277  1.0062
 9061SOL     OW38641   0.874   3.584   4.903 -0.1954  0.2572  0.2967
 9061SOL    HW138642   0.878   3.559   4.995 -0.0445  1.0995  0.5228
 9061SOL    HW238643   0.967   3.582   4.881  0.2224 -0.1143  2.1323
 9062SOL     OW38644   1.535   4.325   9.487 -0.0124  1.3837 -0.6996
 9062SOL    HW138645   1.589   4.270   9.542  1.3749  0.5438 -2.8975
 9062SOL    HW238646   1.608   4.381   9.461  0.4148 -0.2508 -3.0074
 9063SOL     OW38647   2.983   3.936   7.016  0.1909  0.0984  0.5942
 9063SOL    HW138648   2.995   3.967   7.106 -0.1787 -2.2406  1.4325
 9063SOL    HW238649   2.996   3.844   7.037 -1.8100 -0.2548  0.2989
 9064SOL     OW38650   0.616   4.580   2.856 -0.1391  0.1152  0.1001
 9064SOL    HW138651   0.554   4.510   2.833 -1.6599  1.8080 -0.9399
 9064SOL    HW238652   0.670   4.577   2.777  1.3456  0.9752  1.0797
 9065SOL     OW38653   3.330   1.280   4.082  0.6857 -0.3660  0.8371
 9065SOL    HW138654   3.392   1.270   4.010 -0.6277 -0.5638 -0.2654
 9065SOL    HW238655   3.247   1.251   4.043  1.4862 -1.4241 -0.0988
 9066SOL     OW38656   1.500   3.605   6.227 -0.1047  0.3015  0.3219
 9066SOL    HW138657   1.591   3.618   6.200 -0.3552  1.8847  0.1800
 9066SOL    HW238658   1.478   3.698   6.237  1.2241  0.4108  2.2310
 9067SOL     OW38659   0.448   4.242   3.053 -0.4185  0.2617 -0.2817
 9067SOL    HW138660   0.436   4.173   3.119 -0.4365  0.9554  0.4404
 9067SOL    HW238661   0.372   4.222   2.998 -0.8113 -0.9395  0.7007
 9068SOL     OW38662   2.528   1.109   8.041  0.1894 -0.1024  0.1911
 9068SOL    HW138663   2.616   1.099   8.076  0.3499 -0.6302 -0.3514
 9068SOL    HW238664   2.552   1.109   7.948 -1.4714  0.9053 -0.2540
 9069SOL     OW38665   0.835   2.813   6.264  0.1066  0.3339 -0.4381
 9069SOL    HW138666   0.885   2.738   6.235 -1.9109 -0.4219 -1.9371
 9069SOL    HW238667   0.904   2.876   6.240  0.4055  0.0543 -0.3086
 9070SOL     OW38668   4.148   1.905   2.418  0.6292  0.2295  0.1216
 9070SOL    HW138669   4.161   1.991   2.379 -0.8276 -0.0899 -1.0555
 9070SOL    HW238670   4.224   1.864   2.376  0.5775 -0.8427  1.0719
 9071SOL     OW38671   2.240   1.830  17.585 -0.4433 -0.3991 -0.6603
 9071SOL    HW138672   2.329   1.852  17.557 -1.3529  2.0515 -1.6368
 9071SOL    HW238673   2.244   1.900  17.650  0.2045 -1.5009  0.4713
 9072SOL     OW38674   3.954   2.281   2.489  0.0534  0.6509 -0.2028
 9072SOL    HW138675   3.986   2.226   2.418  2.6421 -2.4614  3.3580
 9072SOL    HW238676   3.939   2.361   2.438 -2.2199 -0.8378 -1.8491
 9073SOL     OW38677   2.284   2.903   4.575 -0.2411 -0.1225  0.4415
 9073SOL    HW138678   2.318   2.819   4.606 -0.7332 -0.3456  0.3690
 9073SOL    HW238679   2.229   2.917   4.652 -0.9486  1.1934 -0.3277
 9074SOL     OW38680   3.376   2.906   6.253 -0.8697  0.5415 -0.2340
 9074SOL    HW138681   3.307   2.971   6.264 -0.3497  0.6190  2.5318
 9074SOL    HW238682   3.380   2.878   6.344  1.8052  0.2471 -0.4380
 9075SOL     OW38683   3.855   1.554   8.955 -0.4575 -0.1980  0.4187
 9075SOL    HW138684   3.772   1.577   8.997 -0.9668 -0.1741 -0.6023
 9075SOL    HW238685   3.893   1.504   9.027  1.5964 -0.0254 -0.5627
 9076SOL     OW38686   2.092   2.942  10.569  0.2878 -0.1636 -0.3270
 9076SOL    HW138687   2.150   2.996  10.515 -0.1415  0.0544 -0.5796
 9076SOL    HW238688   2.142   2.862  10.584  2.7506  1.6054  0.7548
 9077SOL     OW38689   1.664   2.376   9.516 -0.3225  0.0268  0.4854
 9077SOL    HW138690   1.719   2.428   9.458  0.5510 -0.3830  0.9393
 9077SOL    HW238691   1.700   2.388   9.603 -0.7186  2.3660  0.3247
 9078SOL     OW38692   1.770   3.866  12.084  0.0226 -0.0997 -0.1183
 9078SOL    HW138693   1.848   3.823  12.051  1.1046  0.3242  1.9483
 9078SOL    HW238694   1.743   3.923  12.011 -0.6322  0.1560  0.3234
 9079SOL     OW38695   4.275   1.751  17.341 -0.0023 -0.2542 -0.0811
 9079SOL    HW138696   4.315   1.698  17.410 -1.2410 -0.3556  0.5662
 9079SOL    HW238697   4.219   1.809  17.392 -0.8415  1.6985 -3.2199
 9080SOL     OW38698   2.622   0.164   2.708  0.5691  0.1039 -0.0534
 9080SOL    HW138699   2.670   0.234   2.664 -0.1454 -1.3881 -3.1755
 9080SOL    HW238700   2.565   0.216   2.765  0.7595  1.3271 -0.9707
 9081SOL     OW38701   3.268   4.702   2.226  0.0238 -0.1468  0.0588
 9081SOL    HW138702   3.245   4.635   2.290  1.5616 -0.8340 -0.0827
 9081SOL    HW238703   3.263   4.655   2.142  0.2273  1.5139 -0.8705
 9082SOL     OW38704   3.081   0.509   4.964  0.0997 -0.5313  0.4561
 9082SOL    HW138705   3.105   0.419   4.987  0.4767 -0.7936 -0.9430
 9082SOL    HW238706   3.058   0.540   5.051  0.5467 -1.0687  0.7627
 9083SOL     OW38707   2.958   4.398   4.576  0.2034  0.0954  0.2283
 9083SOL    HW138708   2.894   4.467   4.558  0.3869  0.0744 -0.4846
 9083SOL    HW238709   2.926   4.329   4.518  0.7577  0.5810 -0.6509
 9084SOL     OW38710   1.406   1.611  11.187 -0.1606 -0.0776  0.7829
 9084SOL    HW138711   1.433   1.665  11.112  0.9027  1.5778  2.3766
 9084SOL    HW238712   1.489   1.596  11.233  1.2688 -0.4141 -1.8989
 9085SOL     OW38713   0.667   1.311   2.555  0.4958  0.1041  0.4659
 9085SOL    HW138714   0.592   1.357   2.593 -0.7083  0.8273 -2.7119
 9085SOL    HW238715   0.647   1.347   2.468 -0.8041 -2.1563 -0.1839
 9086SOL     OW38716   3.730   2.092  13.734 -0.2545 -0.2620 -0.0784
 9086SOL    HW138717   3.656   2.130  13.781 -1.1530 -1.7883 -0.2235
 9086SOL    HW238718   3.696   2.004  13.717  0.5392 -0.7567  0.9055
 9087SOL     OW38719   1.044   0.542  13.255  0.1407 -0.4835  0.0872
 9087SOL    HW138720   0.952   0.571  13.259  0.6390  0.9859  0.7888
 9087SOL    HW238721   1.077   0.618  13.208 -0.3515 -0.7995 -0.7702
 9088SOL     OW38722   3.635   2.836   4.512  0.7807  0.3466  0.1968
 9088SOL    HW138723   3.650   2.741   4.505 -0.9295  0.1088 -0.3107
 9088SOL    HW238724   3.588   2.852   4.430 -0.4323  0.4690  0.9219
 9089SOL     OW38725   0.518   3.977   9.183  0.0250 -0.1378 -0.0228
 9089SOL    HW138726   0.597   3.927   9.204  0.9729  1.5660  0.4419
 9089SOL    HW238727   0.489   3.989   9.273  1.4790 -0.0597  0.4206
 9090SOL     OW38728   3.283   1.181   7.116 -0.1037 -0.0124 -0.1215
 9090SOL    HW138729   3.264   1.187   7.022 -0.7434 -0.5283 -0.0233
 9090SOL    HW238730   3.375   1.158   7.107  0.2534  0.7518  1.6552
 9091SOL     OW38731   3.656   1.115   2.431  0.6050 -0.1373 -0.4445
 9091SOL    HW138732   3.652   1.203   2.393 -0.2931  0.3798  0.8744
 9091SOL    HW238733   3.630   1.126   2.522  1.2780 -1.1404 -0.1244
 9092SOL     OW38734   4.070   0.884   2.671  0.4007  0.2267  0.4827
 9092SOL    HW138735   3.998   0.855   2.726  0.4218 -2.1398 -0.7256
 9092SOL    HW238736   4.042   0.974   2.657  1.1504  0.3567 -0.2348
 9093SOL     OW38737   1.166   3.808   7.962 -0.9217  0.7858 -0.5647
 9093SOL    HW138738   1.087   3.838   8.007 -0.0563  1.6553  0.3746
 9093SOL    HW238739   1.179   3.865   7.885  1.6412  2.7126  1.2706
 9094SOL     OW38740   0.112   1.208  14.650  0.1229 -0.0897  0.1717
 9094SOL    HW138741   0.110   1.267  14.725  0.2941 -0.4969  0.4985
 9094SOL    HW238742   0.084   1.266  14.579 -2.9702  2.1464  3.1978
 9095SOL     OW38743   0.780   3.513   5.942  0.2679  0.2234  0.1025
 9095SOL    HW138744   0.712   3.461   5.986  2.8108 -3.4270 -0.2997
 9095SOL    HW238745   0.800   3.582   6.006 -0.4663  0.2038  0.3607
 9096SOL     OW38746   1.674   1.891   4.819 -0.1800 -0.1012  0.3920
 9096SOL    HW138747   1.648   1.802   4.844  1.2210 -0.1566  1.6948
 9096SOL    HW238748   1.592   1.932   4.793 -0.2812 -0.3832  0.2761
 9097SOL     OW38749   3.991   2.192   8.430  0.0088 -0.0856  0.2260
 9097SOL    HW138750   3.997   2.276   8.474 -0.1381  0.5379 -0.9289
 9097SOL    HW238751   4.012   2.205   8.337  0.7852  0.2602  0.4459
 9098SOL     OW38752   2.743   4.013   5.544 -0.1076 -0.1314  0.4654
 9098SOL    HW138753   2.791   4.090   5.575  2.4277 -1.2921 -0.5216
 9098SOL    HW238754   2.684   4.050   5.478 -0.4101  0.4740  1.0712
 9099SOL     OW38755   4.496   0.654   3.266  0.2876 -0.3828  0.1461
 9099SOL    HW138756   4.536   0.568   3.258  0.8507 -0.0468 -0.5952
 9099SOL    HW238757   4.556   0.721   3.236  1.4128 -0.4355  2.2957
 9100SOL     OW38758   2.463   2.906  16.086  0.0745 -0.2703  0.1465
 9100SOL    HW138759   2.487   2.854  16.163  0.3450 -2.2574 -1.2870
 9100SOL    HW238760   2.500   2.986  16.122  2.6050 -1.3230 -0.1713
 9101SOL     OW38761   0.746   2.200   1.559 -0.0206 -0.1206  0.0415
 9101SOL    HW138762   0.763   2.211   1.653 -0.6157 -1.3646  0.2990
 9101SOL    HW238763   0.707   2.113   1.565 -0.0445 -0.1919 -1.3617
 9102SOL     OW38764   0.945   3.229  14.687 -0.6756 -0.2903  0.1185
 9102SOL    HW138765   0.856   3.197  14.678  0.0222 -1.8431 -1.1572
 9102SOL    HW238766   0.992   3.180  14.620 -0.4206  0.0691  0.0343
 9103SOL     OW38767   0.021   0.996   3.462 -0.3969 -0.3482  0.7553
 9103SOL    HW138768   0.039   0.903   3.475  0.7294 -0.0792  1.1116
 9103SOL    HW238769   4.652   1.004   3.492 -0.6498 -2.9142  0.7301
 9104SOL     OW38770   1.716   3.203   6.658 -0.2912  0.2249  0.0873
 9104SOL    HW138771   1.766   3.132   6.699 -3.6025 -1.8248  0.5804
 9104SOL    HW238772   1.732   3.172   6.569  2.1969  2.2994 -0.1681
 9105SOL     OW38773   3.132   2.504   3.509  0.2659  0.3103 -0.1067
 9105SOL    HW138774   3.176   2.542   3.433  0.7203 -0.5054 -0.2533
 9105SOL    HW238775   3.131   2.414   3.479 -0.2975  1.0578 -2.3112
 9106SOL     OW38776   0.729   1.125   8.895  0.1178  0.7516  0.0524
 9106SOL    HW138777   0.736   1.083   8.981 -0.6794  0.3911 -0.0542
 9106SOL    HW238778   0.740   1.054   8.832 -2.8866 -1.0063  1.4696
 9107SOL     OW38779   2.240   2.112   4.448  0.4226 -0.5890  0.3896
 9107SOL    HW138780   2.196   2.057   4.514 -0.0139 -2.2600 -1.2764
 9107SOL    HW238781   2.181   2.187   4.441 -0.6683 -1.7949 -3.3276
 9108SOL     OW38782   4.588   3.052   8.583 -0.0447 -0.0233  0.2341
 9108SOL    HW138783   4.577   3.124   8.522  0.6407 -0.4178 -0.3484
 9108SOL    HW238784   4.503   3.053   8.628 -0.5920  0.1071 -0.8107
 9109SOL     OW38785   2.899   3.037   5.168 -0.1717  0.6102  0.2862
 9109SOL    HW138786   2.979   3.089   5.163  1.2212 -1.5607 -0.0586
 9109SOL    HW238787   2.857   3.087   5.238  0.1580  1.2657  0.0155
 9110SOL     OW38788   1.268   4.069  16.397  0.0198 -0.2945 -0.1007
 9110SOL    HW138789   1.333   4.049  16.329 -2.0785 -0.1306 -2.1367
 9110SOL    HW238790   1.300   4.153  16.429  1.3836 -0.8454 -0.0197
 9111SOL     OW38791   4.691   2.652  13.901 -0.0769  0.5287  0.1624
 9111SOL    HW138792   4.656   2.729  13.946 -1.0974  1.0102 -1.4430
 9111SOL    HW238793   0.019   2.700  13.835  0.9263 -0.5865  0.1163
 9112SOL     OW38794   1.412   3.342   0.396  0.1427 -0.2299  0.4473
 9112SOL    HW138795   1.408   3.419   0.339  2.9526  0.0660  0.6360
 9112SOL    HW238796   1.360   3.371   0.471 -1.0980  0.4183 -0.6786
 9113SOL     OW38797   0.639   0.988   3.303 -0.0621  0.4355 -0.3471
 9113SOL    HW138798   0.666   1.066   3.351  0.7390 -1.4309  2.2518
 9113SOL    HW238799   0.721   0.950   3.274  1.0058  0.5860  2.4304
 9114SOL     OW38800   0.108   2.841   4.514 -0.4980 -0.1311 -0.1975
 9114SOL    HW138801   0.141   2.914   4.566  0.2218 -1.4138  1.1476
 9114SOL    HW238802   0.044   2.794   4.568  0.8637 -1.9545 -0.1917
 9115SOL     OW38803   4.386   2.934  13.693 -0.0999  0.5431  1.1082
 9115SOL    HW138804   4.408   3.026  13.705 -0.9878  0.8919  0.0839
 9115SOL    HW238805   4.370   2.934  13.598 -0.4281  3.2490  1.1759
 9116SOL     OW38806   1.761   0.895  10.664 -0.2798 -0.1489 -0.1271
 9116SOL    HW138807   1.713   0.859  10.590  0.8791 -0.1492 -0.8831
 9116SOL    HW238808   1.773   0.988  10.645  0.8272 -0.4180 -0.7290
 9117SOL     OW38809   2.725   4.589   8.124  0.0589  0.5246 -0.6550
 9117SOL    HW138810   2.813   4.625   8.125 -0.4513  1.7688  0.2312
 9117SOL    HW238811   2.677   4.658   8.170  1.8291  0.4231  1.3180
 9118SOL     OW38812   3.384   2.759  10.833  0.2283 -0.4914  0.9227
 9118SOL    HW138813   3.397   2.681  10.888 -1.2608  0.0406  2.0202
 9118SOL    HW238814   3.293   2.739  10.812 -0.9768  2.0590  3.6874
 9119SOL     OW38815   0.387   1.973   5.493 -0.3298  0.6697 -0.1111
 9119SOL    HW138816   0.325   1.947   5.426  1.8994 -1.2194 -1.4281
 9119SOL    HW238817   0.356   1.932   5.574 -0.3130 -0.3789 -0.6346
 9120SOL     OW38818   2.086   2.738  12.165  0.7596 -0.1503 -0.1666
 9120SOL    HW138819   2.100   2.812  12.105 -2.9573  0.1663 -0.6948
 9120SOL    HW238820   1.991   2.734  12.152  0.5894 -1.1840  1.4783
 9121SOL     OW38821   2.958   0.594   4.408  0.2214 -0.0610 -0.5543
 9121SOL    HW138822   2.914   0.620   4.327 -0.6489  1.1701  0.3146
 9121SOL    HW238823   2.885   0.565   4.462  0.9503 -1.2244 -0.2033
 9122SOL     OW38824   0.867   1.294   2.853 -0.8297  0.0762 -0.0529
 9122SOL    HW138825   0.888   1.377   2.809  0.1608  0.4267  1.0835
 9122SOL    HW238826   0.812   1.241   2.795 -1.4058  0.7445 -0.1061
 9123SOL     OW38827   2.395   0.323  12.579  0.1283  0.0374 -0.1713
 9123SOL    HW138828   2.366   0.343  12.489 -2.5332 -0.8056  0.5043
 9123SOL    HW238829   2.472   0.379  12.581  0.1306  0.0837 -1.4107
 9124SOL     OW38830   2.220   3.516  13.340 -0.1297  0.1978 -0.1311
 9124SOL    HW138831   2.190   3.588  13.284 -2.2816  0.1642  1.0019
 9124SOL    HW238832   2.275   3.468  13.278 -0.5104 -0.0381 -0.2853
 9125SOL     OW38833   3.026   4.721   7.531 -0.2022  0.1567 -0.0688
 9125SOL    HW138834   2.946   4.707   7.479 -1.0702  0.4427  1.1844
 9125SOL    HW238835   2.994   0.045   7.608 -1.6522 -0.9784  0.0272
 9126SOL     OW38836   3.924   3.525   5.396  0.1120 -0.7724  0.2220
 9126SOL    HW138837   3.844   3.576   5.392  1.0679  0.6041 -1.1237
 9126SOL    HW238838   3.899   3.437   5.426  1.7856 -2.1342 -2.3616
 9127SOL     OW38839   1.400   4.190   7.109  0.2419  0.1928  0.2186
 9127SOL    HW138840   1.377   4.156   7.023 -0.2518  2.2409 -0.4458
 9127SOL    HW238841   1.480   4.143   7.136 -0.9969 -0.9178  1.9782
 9128SOL     OW38842   1.396   4.554   9.418  0.0980 -0.4583  0.1222
 9128SOL    HW138843   1.407   4.461   9.440 -0.5142 -0.8509 -1.2282
 9128SOL    HW238844   1.490   4.570   9.420 -0.0599  0.3023  1.2516
 9129SOL     OW38845   4.330   0.718  11.986  0.9354 -0.2693  0.1878
 9129SOL    HW138846   4.292   0.798  11.950  0.7607 -0.8225 -0.8471
 9129SOL    HW238847   4.348   0.668  11.907  3.7640 -0.8396  1.2079
 9130SOL     OW38848   3.806   4.434  16.299 -0.8886  0.0489  0.3053
 9130SOL    HW138849   3.898   4.449  16.320 -0.1077 -3.0798 -0.8315
 9130SOL    HW238850   3.756   4.496  16.352  0.3479  0.0369  1.4640
 9131SOL     OW38851   0.737   3.377  15.598  0.5353  0.4628  0.5709
 9131SOL    HW138852   0.646   3.349  15.583  0.7655  0.4968 -0.9052
 9131SOL    HW238853   0.779   3.322  15.532 -0.3636 -1.2294  1.4127
 9132SOL     OW38854   2.152   0.515   2.108  0.1189  0.2045 -0.4746
 9132SOL    HW138855   2.230   0.462   2.125  0.2351 -0.0577 -1.8182
 9132SOL    HW238856   2.188   0.603   2.092 -0.8056  0.6267 -0.2630
 9133SOL     OW38857   2.285   4.363   0.601 -0.5015  0.2041 -0.2533
 9133SOL    HW138858   2.275   4.424   0.528 -1.1508 -1.6307 -1.7012
 9133SOL    HW238859   2.330   4.291   0.557  1.6904 -0.5700  3.2413
 9134SOL     OW38860   2.215   4.082   9.993  0.3705  0.2546 -0.3232
 9134SOL    HW138861   2.302   4.082   9.954 -0.2460 -0.6053 -1.6953
 9134SOL    HW238862   2.177   4.160   9.953 -0.3871  0.5695  1.0019
 9135SOL     OW38863   1.964   4.596   5.314 -0.4467 -0.1928 -0.5788
 9135SOL    HW138864   1.953   4.571   5.222 -2.2325 -2.1495  0.1640
 9135SOL    HW238865   1.872   4.622   5.328  0.6583  3.0431  0.7763
 9136SOL     OW38866   3.747   1.381  12.325  0.1781  0.4051 -0.1355
 9136SOL    HW138867   3.783   1.311  12.379  0.4201 -0.4616 -1.4054
 9136SOL    HW238868   3.738   1.335  12.242  1.4652  1.1104 -0.6721
 9137SOL     OW38869   0.434   3.366   3.502 -0.0668 -0.4472  0.2403
 9137SOL    HW138870   0.476   3.349   3.418 -2.2840  1.6729 -1.2844
 9137SOL    HW238871   0.491   3.431   3.544 -0.6057  1.3635 -1.8291
 9138SOL     OW38872   1.541   1.737   7.238  0.3520  0.8583  0.1520
 9138SOL    HW138873   1.560   1.667   7.301 -1.7230  0.6487  0.5293
 9138SOL    HW238874   1.574   1.686   7.164  1.0071  0.3081  0.8169
 9139SOL     OW38875   1.863   4.429  15.576  0.1938 -0.2963  0.4152
 9139SOL    HW138876   1.940   4.486  15.566  0.4268 -0.8101 -0.7748
 9139SOL    HW238877   1.896   4.353  15.528 -1.3672 -2.2221  2.4168
 9140SOL     OW38878   4.067   4.318  10.709 -0.3817 -0.2452 -0.0695
 9140SOL    HW138879   4.063   4.228  10.741 -0.1861  0.4256  1.8547
 9140SOL    HW238880   4.045   4.367  10.788 -1.6387 -1.4166  0.3188
 9141SOL     OW38881   3.519   0.284   5.168  0.2158  0.2891 -0.1210
 9141SOL    HW138882   3.472   0.217   5.118 -0.2204 -0.8135  1.7914
 9141SOL    HW238883   3.471   0.287   5.250 -1.1855 -0.4710 -0.9091
 9142SOL     OW38884   3.818   2.583   8.039 -0.2231 -0.4930  0.1043
 9142SOL    HW138885   3.767   2.525   7.982 -0.6475 -1.1464  1.1583
 9142SOL    HW238886   3.756   2.583   8.112 -0.9126 -1.8891 -0.4871
 9143SOL     OW38887   2.150   0.537   2.961 -0.0828 -0.0626 -0.0566
 9143SOL    HW138888   2.204   0.594   2.905  0.5567 -0.5016  0.1018
 9143SOL    HW238889   2.141   0.596   3.035  0.1874 -0.6897  0.4778
 9144SOL     OW38890   2.593   1.466   4.025 -0.6485 -0.1251 -0.2312
 9144SOL    HW138891   2.686   1.447   4.039 -0.3215  1.2976 -0.5072
 9144SOL    HW238892   2.554   1.423   4.101 -0.2696  1.5748  0.9069
 9145SOL     OW38893   0.586   0.015   9.758 -0.3832 -0.1704  0.1755
 9145SOL    HW138894   0.668   4.699   9.727 -0.7551 -1.4741  0.7943
 9145SOL    HW238895   0.534   0.016   9.677 -1.0378  0.6405  0.6089
 9146SOL     OW38896   2.295   0.413   3.247  0.2977 -0.2200 -0.0856
 9146SOL    HW138897   2.297   0.339   3.309 -0.6910  0.8074  1.1781
 9146SOL    HW238898   2.299   0.487   3.307 -1.1609  0.6788 -1.1264
 9147SOL     OW38899   2.302   3.820  12.183  0.4900  0.2649  0.4736
 9147SOL    HW138900   2.383   3.784  12.149  0.4376  0.4202  0.1830
 9147SOL    HW238901   2.303   3.818  12.279 -1.0062 -0.3755  0.4871
 9148SOL     OW38902   1.146   3.290   5.818  0.3577  0.0821 -0.7346
 9148SOL    HW138903   1.108   3.350   5.754  0.2030 -0.6049 -1.2935
 9148SOL    HW238904   1.144   3.350   5.892  0.8610 -2.3483  1.2247
 9149SOL     OW38905   2.520   0.512   5.173 -0.2459  0.2474 -0.3977
 9149SOL    HW138906   2.614   0.524   5.168  0.2500 -2.7056  1.9187
 9149SOL    HW238907   2.486   0.570   5.104 -1.0190  0.6426  0.3174
 9150SOL     OW38908   2.067   3.688   7.454  0.4335  0.1423  0.4494
 9150SOL    HW138909   2.034   3.600   7.435  0.8029 -0.2223  1.5182
 9150SOL    HW238910   2.124   3.673   7.529 -1.7848  0.9490  2.2781
 9151SOL     OW38911   0.473   2.450   3.183  0.1366  0.0525  0.8561
 9151SOL    HW138912   0.396   2.427   3.234  0.7956 -1.5092  1.1233
 9151SOL    HW238913   0.433   2.517   3.127 -1.2276  1.5960  3.7010
 9152SOL     OW38914   3.592   2.657   5.038 -0.4442  0.0730  0.5621
 9152SOL    HW138915   3.581   2.739   5.087  1.5059  0.8856 -0.3215
 9152SOL    HW238916   3.688   2.662   5.041 -0.4060  0.4188 -0.9034
 9153SOL     OW38917   2.217   1.838  17.144 -0.3715 -0.1331  0.0902
 9153SOL    HW138918   2.216   1.743  17.139  2.1825 -0.1557 -0.0067
 9153SOL    HW238919   2.202   1.849  17.238 -0.0236 -0.7389  0.2161
 9154SOL     OW38920   4.008   3.844   6.620  0.6200  0.7914 -0.0216
 9154SOL    HW138921   4.018   3.901   6.697  1.1189 -1.9538  1.9638
 9154SOL    HW238922   4.025   3.914   6.556 -0.6726  0.9151 -0.2139
 9155SOL     OW38923   1.630   2.104   3.407  0.0456  0.0521 -0.2786
 9155SOL    HW138924   1.617   2.010   3.398 -1.1787  0.2381 -0.4022
 9155SOL    HW238925   1.683   2.133   3.332  0.3923  0.7516  0.2395
 9156SOL     OW38926   4.289   2.660   4.424 -0.3880  0.6687 -0.7256
 9156SOL    HW138927   4.206   2.699   4.451 -0.7460  1.9296 -3.6105
 9156SOL    HW238928   4.260   2.572   4.401  1.7092  0.2435 -1.8034
 9157SOL     OW38929   2.394   0.310   5.024 -0.2434  0.0170 -0.3824
 9157SOL    HW138930   2.416   0.379   5.086 -0.4521  2.3242 -2.8886
 9157SOL    HW238931   2.352   0.361   4.954  0.5813  0.2491 -0.7050
 9158SOL     OW38932   1.038   1.292   5.684 -0.4937 -0.3541 -0.0822
 9158SOL    HW138933   1.115   1.268   5.631 -0.9347 -0.7545 -0.5339
 9158SOL    HW238934   1.057   1.249   5.767  0.0321  0.3912  0.1899
 9159SOL     OW38935   2.184   1.401  17.388 -0.0093  0.5002 -0.4020
 9159SOL    HW138936   2.120   1.450  17.335 -1.8052 -1.4425 -0.0094
 9159SOL    HW238937   2.131   1.386  17.466 -1.0376  0.8207 -1.0455
 9160SOL     OW38938   3.799   0.181   5.233 -0.3399  0.1057  0.6343
 9160SOL    HW138939   3.834   0.208   5.149 -1.5052  0.7097  0.3465
 9160SOL    HW238940   3.713   0.221   5.223 -0.4848 -0.6178 -1.0135
 9161SOL     OW38941   4.154   3.595  10.644  0.1215 -0.4180  0.2434
 9161SOL    HW138942   4.063   3.590  10.674  0.4996 -2.2348  1.0779
 9161SOL    HW238943   4.143   3.620  10.552 -4.9214 -0.7361  0.7359
 9162SOL     OW38944   0.913   2.215   4.290  0.6269 -0.7578  0.7110
 9162SOL    HW138945   0.936   2.130   4.252 -0.3599 -0.7997  0.2101
 9162SOL    HW238946   0.894   2.267   4.213  0.3922 -0.2281  1.1282
 9163SOL     OW38947   3.602   3.955   2.660  0.2629  0.4636  0.0584
 9163SOL    HW138948   3.532   3.898   2.692  0.8323 -0.0457  0.3967
 9163SOL    HW238949   3.575   3.977   2.571  0.1191  1.0107  0.2365
 9164SOL     OW38950   4.321   4.356   2.380 -0.2126  0.3514  0.0693
 9164SOL    HW138951   4.363   4.310   2.307  0.0542 -0.2258  0.5845
 9164SOL    HW238952   4.294   4.286   2.439 -0.6334  1.1918  0.8690
 9165SOL     OW38953   1.598   1.004   2.692 -0.6297 -0.6064 -0.5170
 9165SOL    HW138954   1.517   1.047   2.720 -0.8007  0.7943 -3.2245
 9165SOL    HW238955   1.638   0.974   2.774  1.7828  0.6010 -1.2410
 9166SOL     OW38956   3.340   3.191   5.459 -0.4835 -0.2415 -0.1858
 9166SOL    HW138957   3.361   3.222   5.371  0.0976  0.9599  0.3743
 9166SOL    HW238958   3.406   3.225   5.519  0.9288 -0.5040 -1.6035
 9167SOL     OW38959   1.515   2.664   5.720  0.0575 -0.8779 -0.2193
 9167SOL    HW138960   1.553   2.752   5.716  0.8208 -1.2041 -0.2507
 9167SOL    HW238961   1.564   2.619   5.651 -1.4028 -1.8056 -0.6561
 9168SOL     OW38962   3.602   1.050   5.118  0.0429 -0.0460 -0.3368
 9168SOL    HW138963   3.625   1.143   5.129 -1.0028  0.1051  0.6086
 9168SOL    HW238964   3.551   1.058   5.037 -0.8291  0.8269  0.2902
 9169SOL     OW38965   3.182   0.598  13.504  0.3120  0.1311 -0.6138
 9169SOL    HW138966   3.105   0.633  13.549  0.4364  1.5575 -1.5180
 9169SOL    HW238967   3.160   0.505  13.507 -1.1774  0.4292 -1.9731
 9170SOL     OW38968   0.092   0.759   6.275 -0.5524  0.6224  0.4545
 9170SOL    HW138969   0.024   0.823   6.256 -0.6013 -0.2052 -2.1980
 9170SOL    HW238970   0.081   0.693   6.207  0.5772  0.0267  0.8485
 9171SOL     OW38971   2.315   2.971  11.173 -0.6169 -0.0879 -0.8731
 9171SOL    HW138972   2.390   3.018  11.138 -0.4501 -0.0078 -0.4153
 9171SOL    HW238973   2.361   2.931  11.247  0.6997  0.2193 -1.5254
 9172SOL     OW38974   2.151   3.282   5.458  0.6374 -0.6620  0.7668
 9172SOL    HW138975   2.160   3.207   5.399  2.1485  0.1970 -0.0938
 9172SOL    HW238976   2.151   3.357   5.399 -2.6611 -0.1062  1.4793
 9173SOL     OW38977   2.471   4.078  11.514  0.3220  0.0789 -0.3526
 9173SOL    HW138978   2.532   4.148  11.489 -0.2340  0.3353 -1.0156
 9173SOL    HW238979   2.464   4.026  11.434 -0.3095 -1.9904  1.0559
 9174SOL     OW38980   4.576   4.623  13.537  0.3113  0.3105 -0.2189
 9174SOL    HW138981   4.515   4.604  13.608 -0.3489 -1.6277 -1.2932
 9174SOL    HW238982   4.601   4.542  13.492 -1.6288 -1.1577  1.3346
 9175SOL     OW38983   4.453   2.153  16.339  0.2860  0.1742 -0.1069
 9175SOL    HW138984   4.437   2.239  16.301 -0.3198  0.6109  1.1321
 9175SOL    HW238985   4.363   2.132  16.363  0.0323  1.0835 -0.2695
 9176SOL     OW38986   4.177   1.450   6.321  0.5793 -0.1215 -0.5080
 9176SOL    HW138987   4.085   1.422   6.316 -0.4584  3.0865  0.2681
 9176SOL    HW238988   4.164   1.537   6.283 -0.6750 -0.5473 -1.0889
 9177SOL     OW38989   0.881   2.857   9.599 -0.3429  0.2120  0.0055
 9177SOL    HW138990   0.829   2.934   9.577  1.2805  0.7264 -2.0910
 9177SOL    HW238991   0.968   2.896   9.604  0.7855 -2.3198  0.4898
 9178SOL     OW38992   3.267   1.232   2.884  0.0850 -0.3329 -0.2116
 9178SOL    HW138993   3.329   1.253   2.814 -0.8560  2.6151 -0.1463
 9178SOL    HW238994   3.282   1.140   2.905 -1.0994 -0.3537  0.5755
 9179SOL     OW38995   2.053   3.460  10.746  0.0373  0.1667 -0.6449
 9179SOL    HW138996   2.037   3.367  10.728 -2.8491  0.6877 -0.7673
 9179SOL    HW238997   2.106   3.498  10.676  1.0538 -3.5254 -1.8534
 9180SOL     OW38998   2.667   1.648  17.520 -0.0004 -0.1301  0.0895
 9180SOL    HW138999   2.636   1.585  17.586 -2.4719  1.7901  0.7492
 9180SOL    HW239000   2.743   1.680  17.568  0.2447  0.0537 -0.4270
 9181SOL     OW39001   3.564   2.259   7.122 -0.2771  0.2145 -0.1023
 9181SOL    HW139002   3.567   2.271   7.217  0.0553 -2.3975  0.2263
 9181SOL    HW239003   3.493   2.319   7.103  0.2585  1.2653  1.2518
 9182SOL     OW39004   0.332   2.408  15.675 -0.0250 -0.1881  0.3654
 9182SOL    HW139005   0.249   2.445  15.703 -0.8943 -1.5260 -0.4867
 9182SOL    HW239006   0.309   2.315  15.674  1.3056 -0.5106 -0.7581
 9183SOL     OW39007   4.701   2.463  17.293  0.0226 -0.5694  0.1670
 9183SOL    HW139008   4.613   2.424  17.291  0.0865 -0.7199  0.3200
 9183SOL    HW239009   0.026   2.388  17.328  0.5310 -0.5387 -0.4526
 9184SOL     OW39010   1.134   0.682  13.889  0.1103  0.5808  0.2689
 9184SOL    HW139011   1.213   0.674  13.943 -0.0199  1.2861  0.5762
 9184SOL    HW239012   1.168   0.651  13.805 -1.4064 -0.7629  0.1508
 9185SOL     OW39013   0.142   0.615   2.092 -0.3852 -0.0901 -0.2907
 9185SOL    HW139014   0.187   0.563   2.159 -0.2972 -1.8097 -1.6706
 9185SOL    HW239015   0.085   0.552   2.048 -0.8204 -1.0363  1.6347
 9186SOL     OW39016   2.341   0.592   9.474  0.2809  1.1786 -0.0061
 9186SOL    HW139017   2.382   0.669   9.436  2.1698 -0.3019 -0.9717
 9186SOL    HW239018   2.411   0.531   9.452  0.0394 -0.2731  3.2548
 9187SOL     OW39019   1.203   3.890   4.690 -0.5485  0.0061  0.2628
 9187SOL    HW139020   1.253   3.965   4.723  0.0770 -0.6481  0.7835
 9187SOL    HW239021   1.159   3.917   4.609  0.5973  2.5887  0.4984
 9188SOL     OW39022   4.217   0.589   3.703  0.0828 -0.4468  0.3355
 9188SOL    HW139023   4.311   0.609   3.697  0.1041 -1.2332 -1.7932
 9188SOL    HW239024   4.218   0.543   3.787 -0.4825  0.3978  0.8037
 9189SOL     OW39025   2.959   1.757  11.898  0.3306  0.1007 -0.0720
 9189SOL    HW139026   3.008   1.814  11.838  1.0602 -3.1054 -2.5394
 9189SOL    HW239027   2.874   1.756  11.855 -0.9743 -2.6955  2.5603
 9190SOL     OW39028   1.536   0.111   7.155  0.3928  0.0279  0.2251
 9190SOL    HW139029   1.535   0.023   7.193  1.1620 -0.0844 -0.0219
 9190SOL    HW239030   1.552   0.095   7.062  0.0368  0.0143  0.1650
 9191SOL     OW39031   3.437   1.459   9.401  0.1841 -0.0300 -0.0199
 9191SOL    HW139032   3.374   1.390   9.380  0.8227 -1.0917  1.5397
 9191SOL    HW239033   3.466   1.417   9.482 -1.3407 -0.9208  0.0634
 9192SOL     OW39034   0.573   0.812   7.192  0.0104  0.1543 -0.2527
 9192SOL    HW139035   0.634   0.884   7.178  0.2119  0.0503  0.0687
 9192SOL    HW239036   0.537   0.839   7.277  0.5668  1.4295 -0.4283
 9193SOL     OW39037   2.910   3.407   2.589  0.5061  0.0145 -0.5528
 9193SOL    HW139038   2.861   3.482   2.555  0.7696 -0.6339 -2.3446
 9193SOL    HW239039   2.959   3.381   2.512 -0.3842 -2.6440 -0.2309
 9194SOL     OW39040   1.469   4.571   4.247  0.2383 -0.0978 -0.5803
 9194SOL    HW139041   1.500   4.638   4.186 -2.9994  0.3381 -1.7254
 9194SOL    HW239042   1.457   4.503   4.180  0.2228  0.1036 -0.7814
 9195SOL     OW39043   3.110   1.670   0.461 -0.1896  0.2730  0.1542
 9195SOL    HW139044   3.161   1.589   0.459 -0.1145  0.2835  1.7131
 9195SOL    HW239045   3.180   1.735   0.451  1.3145 -1.0782  1.8865
 9196SOL     OW39046   4.100   3.948   3.695  0.1707 -0.1168 -0.3058
 9196SOL    HW139047   4.048   3.985   3.623  0.7166 -0.3874 -0.8403
 9196SOL    HW239048   4.117   3.861   3.659  1.0365  0.2080 -0.6882
 9197SOL     OW39049   2.620   2.378   1.385 -0.2539  0.4798  0.0466
 9197SOL    HW139050   2.564   2.312   1.344  1.5128 -0.6682 -0.5288
 9197SOL    HW239051   2.704   2.375   1.340 -0.9302  0.8815 -1.2507
 9198SOL     OW39052   2.279   1.339  11.136  0.4595  0.2508 -0.2529
 9198SOL    HW139053   2.195   1.310  11.099  0.8247  0.4490 -1.2383
 9198SOL    HW239054   2.314   1.381  11.058 -0.8443 -1.4003 -1.7391
 9199SOL     OW39055   1.249   0.229   9.681 -0.5619  0.2005  0.0371
 9199SOL    HW139056   1.322   0.268   9.633 -0.2756  0.2445  0.5114
 9199SOL    HW239057   1.270   0.136   9.666  0.4291  0.0582  2.3182
 9200SOL     OW39058   0.794   4.133   7.657 -0.5877  0.4129 -0.3032
 9200SOL    HW139059   0.880   4.134   7.617 -0.5518 -1.0187 -0.2587
 9200SOL    HW239060   0.823   4.198   7.721 -1.3521 -2.6180  3.1643
 9201SOL     OW39061   2.350   3.264   4.898  0.1997  0.3219  0.1775
 9201SOL    HW139062   2.416   3.322   4.938  2.1922 -1.0723 -1.0647
 9201SOL    HW239063   2.408   3.234   4.827  1.2132 -0.8001  1.4880
 9202SOL     OW39064   2.474   2.637   1.705  0.5761  0.1278 -0.1372
 9202SOL    HW139065   2.466   2.697   1.778  1.4126 -0.9307  0.8105
 9202SOL    HW239066   2.530   2.688   1.646  1.6179  0.2862  0.9974
 9203SOL     OW39067   1.922   0.118   5.628  0.0583 -0.3795 -0.6876
 9203SOL    HW139068   1.929   0.192   5.689 -3.7328 -0.0330 -0.6512
 9203SOL    HW239069   1.850   0.155   5.576  0.6569 -0.6969 -1.7377
 9204SOL     OW39070   0.309   0.521   6.197 -0.0616  0.0873  0.5974
 9204SOL    HW139071   0.369   0.596   6.192  0.9672 -0.7901 -0.2683
 9204SOL    HW239072   0.237   0.565   6.152  1.5869  0.9192 -1.2375
 9205SOL     OW39073   2.491   4.081  13.763 -0.1580  0.1174  0.6240
 9205SOL    HW139074   2.485   4.107  13.671  1.0036 -0.1042  0.4937
 9205SOL    HW239075   2.401   4.085  13.797 -0.1236  0.5884  0.6653
 9206SOL     OW39076   0.011   1.766   3.626 -0.0980  0.5188  0.1033
 9206SOL    HW139077   0.028   1.749   3.534  3.6663 -1.3870  1.1549
 9206SOL    HW239078   4.657   1.713   3.646  0.6460 -0.7475 -0.4373
 9207SOL     OW39079   3.407   1.457   2.291 -0.2851 -0.5325  0.1804
 9207SOL    HW139080   3.380   1.377   2.247 -1.7047  1.4977 -2.5939
 9207SOL    HW239081   3.487   1.420   2.329  0.0747 -0.4587 -0.5158
 9208SOL     OW39082   3.661   0.692   6.308  0.1766 -0.1789 -0.1235
 9208SOL    HW139083   3.701   0.751   6.245 -0.8090 -0.0820 -0.6472
 9208SOL    HW239084   3.657   0.748   6.385 -2.1294  1.2428 -1.2840
 9209SOL     OW39085   3.221   0.463   3.684 -0.0811  0.3899  0.2829
 9209SOL    HW139086   3.130   0.436   3.690 -0.5585  1.5051 -1.7292
 9209SOL    HW239087   3.249   0.450   3.775 -1.4464  1.7066  0.8963
 9210SOL     OW39088   1.296   0.056   5.493 -0.7490 -0.0296  0.5099
 9210SOL    HW139089   1.247   0.072   5.413 -2.0458 -0.3914  1.2341
 9210SOL    HW239090   1.359   0.128   5.496  0.2291 -0.8333 -0.6228
 9211SOL     OW39091   1.093   1.985  11.829  0.1817  0.0088 -0.0842
 9211SOL    HW139092   1.156   1.920  11.800 -1.5834 -1.1989 -1.2233
 9211SOL    HW239093   1.075   2.040  11.753 -0.7385 -1.2361 -0.7719
 9212SOL     OW39094   2.391   4.565  16.542 -0.1291  0.2546  0.5956
 9212SOL    HW139095   2.485   4.573  16.532  0.0246 -2.1481  0.2577
 9212SOL    HW239096   2.369   4.615  16.463  1.6157  0.2643  0.1310
 9213SOL     OW39097   4.402   2.525  13.736  0.1700 -0.1544 -0.1282
 9213SOL    HW139098   4.349   2.455  13.699  0.2153  1.0186 -2.4312
 9213SOL    HW239099   4.492   2.512  13.705  0.4055 -0.2924  0.6217
 9214SOL     OW39100   2.605   3.264   1.853 -0.3797  0.0084 -0.1875
 9214SOL    HW139101   2.621   3.206   1.778 -3.5784 -2.1627  0.8219
 9214SOL    HW239102   2.651   3.339   1.816 -2.3243  1.3865  0.1995
 9215SOL     OW39103   3.932   0.296   2.827 -0.3373  0.4088  0.0910
 9215SOL    HW139104   4.014   0.327   2.865 -0.0841  0.9246 -0.8768
 9215SOL    HW239105   3.966   0.287   2.738  0.5265 -0.9934  0.5572
 9216SOL     OW39106   3.429   3.609   2.154  0.0609 -0.1934  0.2414
 9216SOL    HW139107   3.471   3.682   2.108 -0.7720 -0.1173 -0.4110
 9216SOL    HW239108   3.486   3.533   2.144 -1.5493 -0.9521 -3.1768
 9217SOL     OW39109   3.427   1.161   2.216  0.1205 -0.3210 -0.0610
 9217SOL    HW139110   3.332   1.161   2.232  0.1092  0.1557 -0.1047
 9217SOL    HW239111   3.429   1.127   2.127  0.1805 -0.1678 -0.1191
 9218SOL     OW39112   4.709   4.122   5.109  0.3618  0.2925 -0.3060
 9218SOL    HW139113   4.656   4.044   5.090 -0.6901  1.2190 -1.2314
 9218SOL    HW239114   0.061   4.083   5.063  0.1461  0.8160 -1.0886
 9219SOL     OW39115   3.834   3.313  13.083 -0.6038  0.0783 -0.2896
 9219SOL    HW139116   3.858   3.249  13.017 -0.2316 -0.6164  0.5305
 9219SOL    HW239117   3.920   3.330  13.121  0.2418 -0.8964 -1.8155
 9220SOL     OW39118   2.034   1.827   0.215 -0.0385  0.2800  0.2144
 9220SOL    HW139119   2.103   1.848   0.279  1.8222 -1.7544 -1.1232
 9220SOL    HW239120   2.079   1.759   0.165 -0.3025  0.7391 -0.6406
 9221SOL     OW39121   4.025   4.328   4.815  0.0993 -0.1859 -0.2184
 9221SOL    HW139122   3.967   4.389   4.859  0.2548  1.0482 -1.7273
 9221SOL    HW239123   3.960   4.276   4.768  0.0406 -1.0929  0.8791
 9222SOL     OW39124   1.495   2.600  16.745 -0.2510 -0.0743  0.3124
 9222SOL    HW139125   1.542   2.602  16.828  3.4014  1.2875 -1.8157
 9222SOL    HW239126   1.512   2.688  16.711 -2.4158  0.1228 -0.2868
 9223SOL     OW39127   1.016   3.384   9.881 -0.0089 -0.5030  0.0087
 9223SOL    HW139128   1.102   3.343   9.879  0.3589  0.2834 -0.3400
 9223SOL    HW239129   0.964   3.307   9.862  0.0956 -0.0440 -2.1736
 9224SOL     OW39130   1.059   0.225   4.055  0.2316 -0.4549 -0.1901
 9224SOL    HW139131   1.020   0.142   4.030 -1.0737 -0.0236  0.4346
 9224SOL    HW239132   0.988   0.289   4.048 -0.0592 -0.7798 -0.1730
 9225SOL     OW39133   0.293   1.407   0.798  0.0259  0.0885  0.3402
 9225SOL    HW139134   0.234   1.450   0.861  0.2053 -0.4894  0.8936
 9225SOL    HW239135   0.244   1.407   0.716  0.1915  0.9382  0.2389
 9226SOL     OW39136   0.632   3.624   4.796  0.6062  0.1217  0.6811
 9226SOL    HW139137   0.716   3.599   4.834  1.5800 -0.4428 -1.7877
 9226SOL    HW239138   0.651   3.636   4.703  1.5248 -0.4058  0.8021
 9227SOL     OW39139   0.145   1.089   2.800 -0.5126  0.3938 -0.5531
 9227SOL    HW139140   0.136   1.012   2.745  2.0263 -0.2812  0.0008
 9227SOL    HW239141   0.184   1.147   2.735  0.7276 -2.1689 -2.0779
 9228SOL     OW39142   0.177   1.288   5.465 -0.4834 -0.7927  0.4673
 9228SOL    HW139143   0.209   1.375   5.488  1.0480 -1.1619 -0.3069
 9228SOL    HW239144   0.087   1.315   5.446 -0.0918  0.0837 -0.1058
 9229SOL     OW39145   0.191   3.203   9.324 -0.8140  0.1565 -0.1317
 9229SOL    HW139146   0.113   3.240   9.281  0.1293  0.2047 -1.7639
 9229SOL    HW239147   0.151   3.197   9.411 -2.3604 -1.6349 -0.9695
 9230SOL     OW39148   4.070   2.171   7.878 -0.2812  0.0428 -0.4141
 9230SOL    HW139149   4.097   2.246   7.826  1.8525  1.4425  2.7441
 9230SOL    HW239150   4.110   2.106   7.820 -1.0169  1.0462 -2.0341
 9231SOL     OW39151   1.248   4.221   5.103 -0.5423  0.1846  0.2823
 9231SOL    HW139152   1.163   4.265   5.108 -0.8835 -0.2829 -1.6876
 9231SOL    HW239153   1.303   4.284   5.057  0.9958 -0.0334  1.8149
 9232SOL     OW39154   2.541   2.973   6.385 -0.2313 -0.4770  0.3347
 9232SOL    HW139155   2.634   2.953   6.394  0.1394  1.7148  1.3145
 9232SOL    HW239156   2.535   3.059   6.425 -1.5349  0.1061 -1.1226
 9233SOL     OW39157   1.752   3.079  13.635  0.3635 -0.7697 -0.0830
 9233SOL    HW139158   1.776   3.160  13.590 -0.6793  0.5945  1.8181
 9233SOL    HW239159   1.778   3.103  13.724  0.7261  0.0403 -0.4126
 9234SOL     OW39160   3.453   1.726   1.310 -0.0037  0.0894 -0.7678
 9234SOL    HW139161   3.474   1.802   1.366 -0.6204  0.1949 -0.6793
 9234SOL    HW239162   3.361   1.723   1.334  0.1414 -2.0035 -0.4913
 9235SOL     OW39163   0.993   3.101   5.584  0.0771  0.2714 -0.4492
 9235SOL    HW139164   0.958   3.160   5.650  1.3544  2.0479 -1.3755
 9235SOL    HW239165   1.019   3.165   5.517  2.8758 -0.2842  0.1145
 9236SOL     OW39166   1.395   2.045   5.490  0.1293 -0.1140 -0.6793
 9236SOL    HW139167   1.484   2.010   5.497  0.5461  1.2252  0.6119
 9236SOL    HW239168   1.352   1.989   5.555  0.8517 -0.9595 -0.9366
 9237SOL     OW39169   4.180   0.697   7.436 -0.3093 -0.6551 -0.1369
 9237SOL    HW139170   4.237   0.769   7.462  1.0241 -0.6142 -3.2750
 9237SOL    HW239171   4.227   0.619   7.463 -0.4461 -0.6477  0.1234
 9238SOL     OW39172   1.634   1.723  11.889 -0.2869 -0.1994  0.2684
 9238SOL    HW139173   1.593   1.651  11.936  0.3090 -1.0380 -0.5047
 9238SOL    HW239174   1.698   1.672  11.839 -0.4741 -0.7969  0.6473
 9239SOL     OW39175   0.698   2.805   2.854 -0.2699  0.3409  0.1553
 9239SOL    HW139176   0.677   2.791   2.762  1.5741 -0.6990 -0.0936
 9239SOL    HW239177   0.693   2.900   2.863  0.7579  0.4111 -0.0649
 9240SOL     OW39178   3.504   4.677   1.356 -0.2196  0.3645  0.1453
 9240SOL    HW139179   3.424   4.629   1.379 -0.1907 -0.6751 -1.9578
 9240SOL    HW239180   3.469   0.036   1.321 -0.4157  0.7629  1.2522
 9241SOL     OW39181   0.274   4.122  13.872  0.2522  0.0945  0.1715
 9241SOL    HW139182   0.308   4.165  13.950 -1.5139  0.0192  0.9909
 9241SOL    HW239183   0.185   4.097  13.899 -0.7669  2.4342 -1.0642
 9242SOL     OW39184   1.321   4.175   9.973  0.0811  0.2284 -0.0519
 9242SOL    HW139185   1.364   4.146   9.893  1.5255 -0.8727  1.1231
 9242SOL    HW239186   1.268   4.250   9.946  0.8996  1.6663  2.2495
 9243SOL     OW39187   3.030   0.417   6.068  0.1173  0.4267 -0.3667
 9243SOL    HW139188   3.063   0.391   6.154 -1.4768 -1.6626 -0.3815
 9243SOL    HW239189   3.105   0.471   6.044 -0.4136  0.4741 -1.8824
 9244SOL     OW39190   2.476   0.808   5.091 -0.1639  0.4040 -0.4752
 9244SOL    HW139191   2.393   0.774   5.124 -0.3610 -0.4341 -1.8054
 9244SOL    HW239192   2.451   0.900   5.084 -1.9171 -0.0861 -0.4750
 9245SOL     OW39193   1.554   3.066   6.169 -0.2674  0.0749 -0.3051
 9245SOL    HW139194   1.562   3.092   6.260 -0.5537 -0.9107  0.0024
 9245SOL    HW239195   1.485   3.122   6.131 -0.6777 -0.0476  0.2671
 9246SOL     OW39196   3.354   0.096   8.571  0.0365 -0.4774 -0.4758
 9246SOL    HW139197   3.359   0.098   8.666 -1.5022 -2.3097 -0.3550
 9246SOL    HW239198   3.318   0.011   8.544  0.7809 -0.7898 -0.4764
 9247SOL     OW39199   3.957   2.905  13.458  0.1102  0.3951 -0.5130
 9247SOL    HW139200   3.869   2.882  13.487 -0.2264  2.0474 -0.1757
 9247SOL    HW239201   3.949   2.869  13.370  2.6694 -0.6214 -0.3218
 9248SOL     OW39202   2.775   4.676   3.850  0.2249  0.2030  0.2462
 9248SOL    HW139203   2.822   0.015   3.907  0.8328 -0.3047  0.2903
 9248SOL    HW239204   2.800   4.716   3.767 -1.5369  0.7039 -0.0587
 9249SOL     OW39205   2.655   0.394   4.813  0.5252 -0.2847 -0.2102
 9249SOL    HW139206   2.593   0.439   4.871  1.0734 -0.4438  0.4988
 9249SOL    HW239207   2.656   0.308   4.854 -1.7986  0.1033  0.6649
 9250SOL     OW39208   1.530   1.519  15.724  0.4045  0.3622  0.2274
 9250SOL    HW139209   1.524   1.606  15.685  0.7854  0.6815  0.8830
 9250SOL    HW239210   1.625   1.521  15.736  0.3437  0.6806  0.6261
 9251SOL     OW39211   0.065   1.828   6.189 -0.1244  0.3690 -0.0467
 9251SOL    HW139212   0.130   1.895   6.210 -0.9822  1.1598  0.1199
 9251SOL    HW239213   0.116   1.774   6.129  0.0321 -0.9725  1.2758
 9252SOL     OW39214   0.086   3.282   6.830  0.0794  0.1490 -0.2199
 9252SOL    HW139215   4.718   3.271   6.799 -0.4354  0.5332  1.1652
 9252SOL    HW239216   0.120   3.316   6.747 -3.2886  1.4430 -1.0917
 9253SOL     OW39217   1.684   1.116   0.915  0.0993  0.0755  0.3364
 9253SOL    HW139218   1.719   1.202   0.891 -0.0552  0.3070  0.9478
 9253SOL    HW239219   1.662   1.075   0.831 -2.6947  0.7706  0.7121
 9254SOL     OW39220   0.222   1.250   4.181  0.1170 -0.4295 -0.1133
 9254SOL    HW139221   0.233   1.341   4.154  1.4520 -0.1171  1.4920
 9254SOL    HW239222   0.223   1.199   4.100  0.0095 -1.3475  0.4648
 9255SOL     OW39223   0.122   0.873   7.662 -0.0227  0.1609 -0.1689
 9255SOL    HW139224   0.181   0.869   7.737  0.4437  0.1223 -0.5371
 9255SOL    HW239225   0.092   0.964   7.662  1.9902  0.8360  1.5885
 9256SOL     OW39226   1.693   1.313  17.565 -0.5460 -0.0206 -0.3143
 9256SOL    HW139227   1.676   1.370  17.640 -1.6236 -0.0038 -0.5678
 9256SOL    HW239228   1.673   1.370  17.490  1.9349  0.9987 -0.1771
 9257SOL     OW39229   1.419   4.664   5.961 -0.3532 -0.1840 -0.6713
 9257SOL    HW139230   1.485   4.608   5.920  0.7657 -1.1774  2.4570
 9257SOL    HW239231   1.414   4.613   6.042 -0.6244  3.3526  1.5242
 9258SOL     OW39232   0.047   2.733   6.087 -0.5243  0.9891  0.1591
 9258SOL    HW139233   0.124   2.676   6.093  1.7085  4.0343  0.3904
 9258SOL    HW239234   4.703   2.679   6.043 -0.8553  0.1683  1.6529
 9259SOL     OW39235   1.403   2.428  10.716 -0.5226 -0.1584  0.9285
 9259SOL    HW139236   1.342   2.499  10.696  0.0823 -0.3298 -1.5051
 9259SOL    HW239237   1.481   2.483  10.717 -1.2642  0.9117  0.4577
 9260SOL     OW39238   2.716   1.660   6.678  0.4869  0.0500 -0.0581
 9260SOL    HW139239   2.765   1.739   6.703 -2.7483  2.4497 -1.3537
 9260SOL    HW239240   2.781   1.617   6.622 -1.7075 -0.2306 -2.4003
 9261SOL     OW39241   2.066   4.393   4.686 -0.3122  0.5577  0.2670
 9261SOL    HW139242   2.142   4.417   4.633  0.0982 -0.3531  0.4427
 9261SOL    HW239243   1.996   4.446   4.649  0.2501  0.3854 -1.0549
 9262SOL     OW39244   3.313   0.572  11.806  0.1370 -0.9092 -0.3695
 9262SOL    HW139245   3.333   0.665  11.818 -4.8898  0.5845 -3.4524
 9262SOL    HW239246   3.346   0.531  11.886 -0.1100  0.2876  0.3459
 9263SOL     OW39247   2.422   1.140   3.136  0.1737  0.4582  0.3846
 9263SOL    HW139248   2.507   1.135   3.178  0.3023 -1.8120 -0.1963
 9263SOL    HW239249   2.450   1.120   3.047  0.7056 -0.3368  0.7417
 9264SOL     OW39250   2.857   3.113   5.914  0.7309  0.6219 -0.6202
 9264SOL    HW139251   2.782   3.173   5.909  2.0165  2.4296  1.3768
 9264SOL    HW239252   2.858   3.073   5.827  0.3718 -1.2887  0.2693
 9265SOL     OW39253   2.652   2.816   4.177  0.2550 -0.1442 -0.5722
 9265SOL    HW139254   2.573   2.766   4.195 -0.1631  0.2137 -1.4245
 9265SOL    HW239255   2.720   2.780   4.234  0.7058 -2.8062 -2.8077
 9266SOL     OW39256   0.692   1.710   2.598  0.0926  0.0397  0.3415
 9266SOL    HW139257   0.726   1.721   2.509 -2.2665 -1.3982 -0.7302
 9266SOL    HW239258   0.621   1.649   2.581  1.4812 -1.8185  1.1258
 9267SOL     OW39259   1.706   1.558   6.002  0.2473 -0.0280  0.5779
 9267SOL    HW139260   1.785   1.574   6.053 -1.3985 -0.3985  3.3002
 9267SOL    HW239261   1.704   1.641   5.955 -1.1684 -0.3620  0.0334
 9268SOL     OW39262   0.177   2.782  13.595 -0.2630  0.0609  0.1677
 9268SOL    HW139263   0.086   2.808  13.605 -0.7152 -1.2894 -0.5241
 9268SOL    HW239264   0.192   2.694  13.630 -0.4098 -0.7916 -1.9626
 9269SOL     OW39265   3.537   3.071   6.119 -0.5540  0.1156 -0.1733
 9269SOL    HW139266   3.489   3.014   6.179 -2.2839 -0.7858 -2.3993
 9269SOL    HW239267   3.554   3.138   6.185 -0.6296 -1.7691  1.7927
 9270SOL     OW39268   4.682   0.677   1.754 -0.1610  0.0038  0.2052
 9270SOL    HW139269   4.653   0.765   1.731 -3.7773 -1.0703  0.6503
 9270SOL    HW239270   4.594   0.642   1.768  0.2170 -1.4822 -1.1660
 9271SOL     OW39271   2.621   2.488  16.991  0.9976 -0.2363  0.6115
 9271SOL    HW139272   2.609   2.401  16.952 -0.3650 -0.4952  1.5847
 9271SOL    HW239273   2.704   2.469  17.034  1.7816  0.1172 -0.7627
 9272SOL     OW39274   2.246   3.109   7.860 -0.1456  0.4777 -0.4114
 9272SOL    HW139275   2.203   3.039   7.909  0.2035 -1.4569 -2.8575
 9272SOL    HW239276   2.260   3.072   7.773 -0.9566  0.0245 -0.3535
 9273SOL     OW39277   2.571   1.178   9.130  0.0627  0.0139 -0.0582
 9273SOL    HW139278   2.586   1.106   9.068  0.1361  0.7452 -0.8813
 9273SOL    HW239279   2.504   1.142   9.189  2.3956  0.4741  2.8474
 9274SOL     OW39280   1.913   2.124   9.276 -0.2946 -0.1460  0.1186
 9274SOL    HW139281   1.949   2.139   9.363  2.2681 -0.9026 -0.8088
 9274SOL    HW239282   1.822   2.135   9.302 -0.7036  0.1587 -1.4077
 9275SOL     OW39283   3.353   0.954   8.881  0.6955  0.1577 -0.4296
 9275SOL    HW139284   3.328   0.945   8.789  1.6179 -1.1593 -0.5506
 9275SOL    HW239285   3.266   0.947   8.920  1.5431  0.3828  1.5118
 9276SOL     OW39286   4.572   2.301   6.067 -0.8687  0.3202 -0.4204
 9276SOL    HW139287   4.564   2.373   6.130  1.0673  0.4560 -0.3315
 9276SOL    HW239288   4.485   2.261   6.069  0.0312 -1.7619 -2.9385
 9277SOL     OW39289   1.788   4.668  13.347 -0.1899 -0.6086  0.3682
 9277SOL    HW139290   1.740   4.636  13.424 -0.2101  1.9776  1.4344
 9277SOL    HW239291   1.760   4.600  13.285 -1.2352 -1.7230  2.0384
 9278SOL     OW39292   3.818   0.460   1.744 -0.5039  0.4715  0.3355
 9278SOL    HW139293   3.771   0.377   1.732 -1.7672  1.6207 -2.7843
 9278SOL    HW239294   3.907   0.427   1.753 -1.5913 -2.1391  1.5807
 9279SOL     OW39295   2.476   2.857   1.862  0.4855 -0.3378 -0.5333
 9279SOL    HW139296   2.534   2.931   1.844 -0.9749  1.1829  1.1104
 9279SOL    HW239297   2.389   2.895   1.866  0.0978 -1.3126  0.3504
 9280SOL     OW39298   1.446   1.587   9.613  0.2708 -0.5373 -0.1896
 9280SOL    HW139299   1.370   1.611   9.561 -0.6939 -1.0777  0.9557
 9280SOL    HW239300   1.511   1.651   9.585 -1.0499 -0.3239 -2.7101
 9281SOL     OW39301   0.492   4.470   1.505 -0.3678 -0.0349  0.1062
 9281SOL    HW139302   0.397   4.487   1.505 -0.5087 -0.8229 -1.4789
 9281SOL    HW239303   0.523   4.561   1.501 -0.8728  0.1428  0.2148
 9282SOL     OW39304   1.560   0.701  15.526  0.1571 -0.2895  0.3365
 9282SOL    HW139305   1.497   0.646  15.479  2.1299 -1.9404 -0.3702
 9282SOL    HW239306   1.599   0.756  15.458  0.1296 -0.0520  0.5130
 9283SOL     OW39307   3.008   2.737   2.425 -0.0452 -0.4052  0.1213
 9283SOL    HW139308   2.977   2.786   2.501  1.2240 -0.0556  0.4104
 9283SOL    HW239309   3.069   2.676   2.467  0.6114  0.0832 -0.1218
 9284SOL     OW39310   1.348   0.530   4.169  0.2852  0.1521 -0.0055
 9284SOL    HW139311   1.389   0.473   4.234 -0.5810 -0.6562 -0.1877
 9284SOL    HW239312   1.276   0.564   4.222 -1.3050 -1.1118 -1.3687
 9285SOL     OW39313   2.274   4.485  14.619  0.1752  0.1828  0.1106
 9285SOL    HW139314   2.266   4.511  14.527 -1.3944  0.5186  0.3499
 9285SOL    HW239315   2.351   4.532  14.652 -0.5250 -0.5325  2.7963
 9286SOL     OW39316   1.455   0.251   3.598  0.2917 -0.6505 -0.0690
 9286SOL    HW139317   1.532   0.267   3.543  1.2292 -1.1369  1.1004
 9286SOL    HW239318   1.408   0.190   3.542 -2.1359  0.1567  1.1160
 9287SOL     OW39319   4.165   4.638   0.495  0.1969 -0.0360  0.5859
 9287SOL    HW139320   4.152   4.672   0.406 -1.5033  2.0564  1.6620
 9287SOL    HW239321   4.206   4.552   0.490  1.6854  0.7704 -1.3321
 9288SOL     OW39322   4.083   3.006  13.167 -0.2954 -0.3437 -0.0205
 9288SOL    HW139323   4.037   2.922  13.163  1.7344 -1.3531 -2.0549
 9288SOL    HW239324   4.168   2.966  13.151  0.2452  1.0406 -0.6122
 9289SOL     OW39325   3.667   1.279   8.877 -0.3816 -0.0854  0.1761
 9289SOL    HW139326   3.739   1.332   8.845  0.5324 -1.4051  0.0678
 9289SOL    HW239327   3.683   1.268   8.971  0.4735  0.5886  0.0967
 9290SOL     OW39328   1.029   1.098  11.529 -0.2178 -0.7897 -0.5350
 9290SOL    HW139329   1.049   1.051  11.448 -0.0294 -0.2416 -0.8052
 9290SOL    HW239330   1.084   1.175  11.519 -1.5971  0.3449  0.5850
 9291SOL     OW39331   4.524   1.012   6.473  0.0843 -0.1444  0.1353
 9291SOL    HW139332   4.492   1.030   6.384  0.1222 -0.0637  0.1379
 9291SOL    HW239333   4.448   0.974   6.516  0.0153  0.9138  0.9376
 9292SOL     OW39334   3.474   4.476  10.862 -0.3375 -0.1587  0.7115
 9292SOL    HW139335   3.462   4.472  10.957  1.5955 -2.6115  0.8449
 9292SOL    HW239336   3.425   4.399  10.835 -1.0099  0.6020 -0.2408
 9293SOL     OW39337   1.384   0.843   4.136  0.6084 -0.0307  0.3438
 9293SOL    HW139338   1.456   0.857   4.074  1.3989 -0.6683  1.1121
 9293SOL    HW239339   1.312   0.835   4.074  0.3227  2.5833  0.3272
 9294SOL     OW39340   2.708   0.461  11.448  0.1199  0.9241 -0.0085
 9294SOL    HW139341   2.676   0.401  11.381  3.1204 -1.2737  0.5047
 9294SOL    HW239342   2.803   0.451  11.447  0.1407  1.1631 -0.2117
 9295SOL     OW39343   3.024   1.965   7.324  0.3603  0.1496 -0.0761
 9295SOL    HW139344   2.940   1.933   7.291  0.9911  0.3344 -1.8657
 9295SOL    HW239345   3.047   1.888   7.376 -0.1351  0.3363  0.4135
 9296SOL     OW39346   3.416   2.561   4.048 -0.0989 -0.3450 -0.2218
 9296SOL    HW139347   3.352   2.497   4.018 -0.1180 -0.6606  0.4816
 9296SOL    HW239348   3.496   2.510   4.036 -0.2605 -0.6327 -0.0855
 9297SOL     OW39349   2.530   3.182   7.833 -0.3898 -0.3981  0.1447
 9297SOL    HW139350   2.450   3.130   7.845  0.8437 -1.3471  4.1133
 9297SOL    HW239351   2.511   3.249   7.766 -3.2095 -0.9542  0.3618
 9298SOL     OW39352   1.403   1.339  16.342  0.4526  0.4852 -0.2865
 9298SOL    HW139353   1.425   1.246  16.340 -0.8390  0.1641  0.3771
 9298SOL    HW239354   1.308   1.343  16.350  0.5178 -0.5929  0.9197
 9299SOL     OW39355   2.934   2.956   7.392  0.1029  0.4558 -0.3334
 9299SOL    HW139356   2.944   2.862   7.407 -1.1712  0.5846  1.3248
 9299SOL    HW239357   2.909   2.965   7.300  1.2949  0.4612 -0.6568
 9300SOL     OW39358   0.135   1.836  16.268 -0.0115  0.0038  0.1783
 9300SOL    HW139359   0.064   1.861  16.209  0.7085  0.0291 -0.6616
 9300SOL    HW239360   0.211   1.823  16.211  0.4851  1.1675  0.5814
 9301SOL     OW39361   2.859   2.418   3.395  0.8184  0.8534 -0.0077
 9301SOL    HW139362   2.851   2.387   3.485 -4.4472 -1.2179 -1.1594
 9301SOL    HW239363   2.875   2.512   3.406 -2.1736  1.3787 -0.0418
 9302SOL     OW39364   4.174   0.384  12.720 -0.2558  0.4572 -0.1376
 9302SOL    HW139365   4.264   0.417  12.724 -0.8298  2.0617 -0.6868
 9302SOL    HW239366   4.181   0.290  12.738 -2.4610  0.6698  1.8458
 9303SOL     OW39367   0.327   1.662   3.445  0.2496 -0.5702  0.4505
 9303SOL    HW139368   0.391   1.628   3.383  0.8047  2.0792 -0.4423
 9303SOL    HW239369   0.358   1.746   3.478 -2.3300  0.4420  0.3773
 9304SOL     OW39370   0.073   1.114   6.747  0.1936 -0.6142 -0.1647
 9304SOL    HW139371   0.046   1.165   6.823  0.4255 -0.5434 -0.1304
 9304SOL    HW239372   0.135   1.057   6.793 -1.7464 -1.0099  1.9830
 9305SOL     OW39373   2.597   3.509   6.550 -0.1950  0.5076 -0.1893
 9305SOL    HW139374   2.555   3.593   6.571 -2.4616 -1.1195  1.6982
 9305SOL    HW239375   2.662   3.509   6.620  0.5193  1.0686 -0.8378
 9306SOL     OW39376   1.832   0.037   2.266 -0.3290 -0.4027 -0.4286
 9306SOL    HW139377   1.899   0.034   2.334 -1.3253 -0.3543  0.5622
 9306SOL    HW239378   1.828   0.125   2.228 -1.0400  0.6443  2.0392
 9307SOL     OW39379   3.125   2.767   2.135 -0.7889 -0.6832  0.2373
 9307SOL    HW139380   3.086   2.768   2.222  0.9947 -0.5847  1.0182
 9307SOL    HW239381   3.114   2.674   2.116 -0.5080 -0.6206 -0.2413
 9308SOL     OW39382   0.173   0.868  12.985 -0.2037 -0.7548  0.6570
 9308SOL    HW139383   0.079   0.862  13.002 -0.4286  0.5835 -0.0712
 9308SOL    HW239384   0.192   0.798  12.923  1.6397  0.8344 -0.5483
 9309SOL     OW39385   1.373   0.993  17.381  0.0032 -0.3172 -0.6433
 9309SOL    HW139386   1.392   1.057  17.313  0.5848  0.8925  0.6535
 9309SOL    HW239387   1.278   0.982  17.372  0.1605  0.2559 -3.1020
 9310SOL     OW39388   4.138   1.904   8.474  0.1088  0.3545 -0.1932
 9310SOL    HW139389   4.220   1.896   8.521  0.0579  0.6038 -0.0646
 9310SOL    HW239390   4.127   1.809   8.475 -4.5475  0.8431 -1.1650
 9311SOL     OW39391   1.622   1.269   6.987  0.4130 -0.2364  0.7532
 9311SOL    HW139392   1.544   1.277   6.931  0.8913 -1.2665 -0.0672
 9311SOL    HW239393   1.656   1.183   6.963 -3.8532 -2.3021  2.0232
 9312SOL     OW39394   3.699   1.176  10.344  1.0466 -0.0327  0.0017
 9312SOL    HW139395   3.663   1.093  10.313 -2.4031  1.3593  0.2792
 9312SOL    HW239396   3.623   1.209  10.391  1.5868  0.0438  0.8255
 9313SOL     OW39397   1.141   3.273   2.500  0.0361 -0.0246 -0.4012
 9313SOL    HW139398   1.149   3.209   2.430  0.6008  1.4055 -1.6277
 9313SOL    HW239399   1.188   3.350   2.468  1.7098 -1.0111 -0.2776
 9314SOL     OW39400   2.534   1.236   4.256  0.2510 -0.2487 -0.1655
 9314SOL    HW139401   2.486   1.157   4.279 -1.1432  0.5929 -0.1633
 9314SOL    HW239402   2.520   1.287   4.336  0.0495 -1.3743  0.5137
 9315SOL     OW39403   2.484   2.633  15.647 -0.3398  0.4788  0.1759
 9315SOL    HW139404   2.448   2.640  15.736 -0.2672  1.2857  0.1336
 9315SOL    HW239405   2.406   2.604  15.599  0.8026 -2.0397 -0.1569
 9316SOL     OW39406   2.153   1.263   3.181 -0.3059  0.2449  0.0134
 9316SOL    HW139407   2.232   1.217   3.153 -0.7476 -1.6730  2.0000
 9316SOL    HW239408   2.173   1.343   3.132 -0.7921  0.0749 -0.4706
 9317SOL     OW39409   2.072   2.892   7.928  0.5881 -0.2177  0.3705
 9317SOL    HW139410   1.981   2.866   7.920  0.6969 -0.8202  1.0423
 9317SOL    HW239411   2.076   2.867   8.020 -0.3954  0.0478  0.4864
 9318SOL     OW39412   2.450   0.579   4.907  0.6019 -0.1786  0.6763
 9318SOL    HW139413   2.437   0.673   4.897 -2.7775 -0.6939  0.0228
 9318SOL    HW239414   2.385   0.537   4.849  2.7476 -2.1122 -0.3672
 9319SOL     OW39415   1.238   2.890   1.661 -0.1766 -0.2990  0.7859
 9319SOL    HW139416   1.291   2.903   1.582  2.7402  0.5503  2.8888
 9319SOL    HW239417   1.202   2.979   1.668  0.4174  0.0639 -0.7330
 9320SOL     OW39418   2.359   1.773   6.155 -0.0942  0.2357  0.3210
 9320SOL    HW139419   2.303   1.700   6.128 -0.6004  0.9402 -0.5230
 9320SOL    HW239420   2.368   1.752   6.248 -1.5336  3.1907  1.0878
 9321SOL     OW39421   3.304   1.717   9.312 -0.1571 -0.3373 -0.1640
 9321SOL    HW139422   3.268   1.688   9.228 -2.0386 -0.3132  0.6301
 9321SOL    HW239423   3.356   1.644   9.344  0.6445  0.8872  1.3142
 9322SOL     OW39424   0.607   0.966   5.449  0.6758 -0.6172  0.0712
 9322SOL    HW139425   0.626   0.967   5.355 -2.1627 -0.4249 -0.4863
 9322SOL    HW239426   0.575   0.878   5.466  1.0262 -0.9007 -0.7362
 9323SOL     OW39427   2.583   2.087   8.857 -0.2434 -0.5162  0.1804
 9323SOL    HW139428   2.633   2.101   8.937  0.6366  1.1017 -0.6529
 9323SOL    HW239429   2.583   1.991   8.856  1.6522 -0.5449  2.2465
 9324SOL     OW39430   4.267   3.617  16.226 -0.1716 -0.0973 -0.3385
 9324SOL    HW139431   4.262   3.708  16.252  1.8637 -0.3272  0.8725
 9324SOL    HW239432   4.346   3.615  16.172  0.5478 -0.6565  0.7361
 9325SOL     OW39433   1.236   0.482  12.737 -0.5571  0.1105 -0.0290
 9325SOL    HW139434   1.205   0.572  12.753 -0.9460 -0.0482  0.1117
 9325SOL    HW239435   1.207   0.476  12.646 -0.4326  2.9007 -0.2630
 9326SOL     OW39436   1.863   3.024   5.434  0.1572  0.0889 -0.4467
 9326SOL    HW139437   1.863   2.996   5.526 -0.2999  0.0144 -0.4724
 9326SOL    HW239438   1.947   3.068   5.423  0.6397 -0.8034 -0.3623
 9327SOL     OW39439   4.340   4.194   8.406 -0.1327  0.4644 -0.0124
 9327SOL    HW139440   4.321   4.275   8.360  1.5701  0.6388 -0.3750
 9327SOL    HW239441   4.411   4.223   8.463 -1.5571  2.1557  0.8912
 9328SOL     OW39442   3.268   2.450   5.362  0.0607 -0.1207 -0.3860
 9328SOL    HW139443   3.344   2.446   5.420  1.4715 -3.7622 -2.5155
 9328SOL    HW239444   3.274   2.543   5.340 -1.8671  0.0231 -0.3269
 9329SOL     OW39445   0.659   1.348   6.082 -0.4946  0.2337  0.1133
 9329SOL    HW139446   0.727   1.401   6.042 -0.5669  0.5784  0.4449
 9329SOL    HW239447   0.642   1.294   6.005 -0.6201  2.6452 -1.5495
 9330SOL     OW39448   4.132   2.935   8.553  0.0527 -0.0591 -0.1570
 9330SOL    HW139449   4.051   2.918   8.504  1.2120  1.9907 -2.7644
 9330SOL    HW239450   4.199   2.898   8.496  0.4894  1.5267 -0.6688
 9331SOL     OW39451   3.915   4.281   3.625  0.2397  1.0381  0.3818
 9331SOL    HW139452   3.958   4.313   3.704  0.2920 -0.9075  1.1597
 9331SOL    HW239453   3.845   4.342   3.603 -0.8800  0.0121  1.0397
 9332SOL     OW39454   4.054   3.967   2.219 -0.1323 -0.6192  0.1264
 9332SOL    HW139455   4.132   3.988   2.270  0.9290 -0.3375 -1.5969
 9332SOL    HW239456   4.060   4.037   2.154 -2.1582  0.4395  1.0824
 9333SOL     OW39457   1.982   1.458   8.998 -0.3293 -0.5648  0.2566
 9333SOL    HW139458   1.902   1.454   8.946  0.2936 -1.6264 -0.6258
 9333SOL    HW239459   2.012   1.367   8.992  3.7025  0.7377  0.7399
 9334SOL     OW39460   3.143   3.341   7.427  0.1494 -0.0904  0.2682
 9334SOL    HW139461   3.190   3.261   7.403  1.1257  0.7946 -0.7538
 9334SOL    HW239462   3.108   3.319   7.513  0.1898 -1.1200  0.0284
 9335SOL     OW39463   3.571   3.902  16.249 -0.4242  0.4013 -0.2745
 9335SOL    HW139464   3.586   3.982  16.199 -0.2665 -0.0419 -0.9379
 9335SOL    HW239465   3.476   3.893  16.235 -0.2475 -0.7617 -0.7781
 9336SOL     OW39466   0.794   2.817   5.017  0.0554 -0.1194 -0.2774
 9336SOL    HW139467   0.800   2.746   4.953  0.3203  1.1654 -1.6822
 9336SOL    HW239468   0.742   2.781   5.088 -0.6738  0.8848 -0.2953
 9337SOL     OW39469   1.053   3.570   5.345  0.8500 -0.6610  0.1877
 9337SOL    HW139470   1.132   3.530   5.382  0.9361 -0.5607  0.1150
 9337SOL    HW239471   1.067   3.656   5.384 -0.1841 -0.9099  1.0949
 9338SOL     OW39472   0.500   2.554   7.611 -0.2230 -0.3086 -0.1626
 9338SOL    HW139473   0.594   2.543   7.626 -0.0233  0.7343 -0.6431
 9338SOL    HW239474   0.461   2.466   7.613  1.7371 -1.1314  2.4039
 9339SOL     OW39475   3.691   4.105  10.932 -0.3318 -0.1303 -0.0161
 9339SOL    HW139476   3.650   4.186  10.964 -0.9928 -0.7726  0.7675
 9339SOL    HW239477   3.685   4.057  11.015  1.9157 -1.0075 -0.3684
 9340SOL     OW39478   1.819   0.493  14.127  0.3222 -0.0150  0.1571
 9340SOL    HW139479   1.856   0.579  14.107 -0.2708 -0.0285 -0.9818
 9340SOL    HW239480   1.743   0.499  14.069  0.2872  1.1276  0.3181
 9341SOL     OW39481   2.414   3.667   6.716  0.4289  0.5407 -0.1248
 9341SOL    HW139482   2.343   3.710   6.764  1.1625 -0.8205  2.1903
 9341SOL    HW239483   2.389   3.576   6.732  0.2628  0.8039  1.0906
 9342SOL     OW39484   1.455   0.055   4.081 -0.1840 -0.3200  0.1071
 9342SOL    HW139485   1.445   0.144   4.115 -1.7227 -2.1389  4.4653
 9342SOL    HW239486   1.445   0.069   3.987  0.7380  1.9193  0.3399
 9343SOL     OW39487   2.965   1.809  13.079 -0.0945  0.7341  0.2049
 9343SOL    HW139488   3.017   1.728  13.077 -1.1735 -0.0036  1.8554
 9343SOL    HW239489   2.936   1.808  12.988  0.2292 -0.3248  0.1051
 9344SOL     OW39490   0.345   1.831   2.977 -0.1372 -0.1825  0.2193
 9344SOL    HW139491   0.281   1.854   3.044 -1.5369 -1.0808 -0.8102
 9344SOL    HW239492   0.410   1.782   3.027 -0.6122 -1.5512 -0.4989
 9345SOL     OW39493   3.889   3.972   2.624 -0.3498 -0.4517 -0.7034
 9345SOL    HW139494   3.937   4.037   2.572  1.0079  0.5386  1.8243
 9345SOL    HW239495   3.804   4.011   2.647 -1.8535 -2.9758 -1.9219
 9346SOL     OW39496   3.120   0.854   2.183  0.2108  0.0525 -1.2557
 9346SOL    HW139497   3.118   0.907   2.263  2.1910 -0.8386 -0.6087
 9346SOL    HW239498   3.048   0.898   2.138  0.5971  0.5146 -1.4282
 9347SOL     OW39499   3.715   1.680   7.763  0.1636  0.4548  0.0116
 9347SOL    HW139500   3.747   1.645   7.680 -1.0384 -0.6864  0.0215
 9347SOL    HW239501   3.679   1.602   7.805  0.7051  0.4221  0.4108
 9348SOL     OW39502   3.737   0.469   8.555 -0.2399 -0.1154  0.2474
 9348SOL    HW139503   3.665   0.529   8.537  0.0851 -0.2808 -1.6146
 9348SOL    HW239504   3.805   0.501   8.496  1.1029 -1.2331  1.1794
 9349SOL     OW39505   2.241   3.056   7.618  0.2196  0.6897 -0.6663
 9349SOL    HW139506   2.298   3.039   7.543 -1.3811 -1.9389 -1.3109
 9349SOL    HW239507   2.160   3.006   7.606 -0.1057  1.4574 -1.6437
 9350SOL     OW39508   1.692   0.330   2.210 -0.2427  0.0516 -0.3587
 9350SOL    HW139509   1.745   0.354   2.135 -0.2980  1.0896 -0.0623
 9350SOL    HW239510   1.753   0.346   2.282 -1.1202  0.1788  0.3556
 9351SOL     OW39511   0.466   4.578   3.977 -0.1087  0.3593 -0.6202
 9351SOL    HW139512   0.436   4.639   4.045  2.4193  0.4134  0.4436
 9351SOL    HW239513   0.479   4.645   3.909 -0.3574 -0.9809 -1.9892
 9352SOL     OW39514   2.319   4.102   6.178  0.0661 -0.8173  0.0129
 9352SOL    HW139515   2.333   4.131   6.268 -1.9833 -0.5425  0.2280
 9352SOL    HW239516   2.263   4.025   6.184 -1.1118  0.0232 -0.3104
 9353SOL     OW39517   2.073   1.088   8.699 -0.0581 -0.1054  0.3959
 9353SOL    HW139518   2.077   1.184   8.699  0.4932 -0.1386 -2.5622
 9353SOL    HW239519   2.165   1.067   8.683 -0.1035 -0.3561  0.4594
 9354SOL     OW39520   1.396   4.346   8.645  0.2947  0.1773 -0.6088
 9354SOL    HW139521   1.350   4.325   8.564  2.8064  1.3753 -2.3380
 9354SOL    HW239522   1.356   4.286   8.709 -1.6629 -0.6702 -2.6274
 9355SOL     OW39523   2.077   1.738   1.918  0.5372  0.0739 -0.1156
 9355SOL    HW139524   2.069   1.684   1.839 -2.7951  0.0011  0.2671
 9355SOL    HW239525   1.998   1.787   1.895 -0.0409 -0.7426  0.1293
 9356SOL     OW39526   2.599   1.381   1.555 -0.0537  0.5501  0.5907
 9356SOL    HW139527   2.571   1.307   1.609 -1.7785 -0.1983 -1.3164
 9356SOL    HW239528   2.651   1.435   1.614 -0.1945  0.0878  1.1418
 9357SOL     OW39529   4.043   3.586   8.020  0.1756 -0.8259 -0.7396
 9357SOL    HW139530   4.059   3.672   7.981  1.2601 -1.0545 -0.7882
 9357SOL    HW239531   4.063   3.612   8.110 -0.7525 -0.7348 -0.5561
 9358SOL     OW39532   4.412   2.116   4.290 -0.6090 -0.0679 -0.5002
 9358SOL    HW139533   4.352   2.064   4.343 -0.3383  1.4748  1.3399
 9358SOL    HW239534   4.473   2.153   4.354 -0.2002  0.6441 -1.3001
 9359SOL     OW39535   2.239   1.859  14.421 -0.2593  0.0258  0.4624
 9359SOL    HW139536   2.331   1.833  14.425 -0.3841 -0.4961 -0.1641
 9359SOL    HW239537   2.210   1.853  14.512  1.1490 -0.0432  0.9171
 9360SOL     OW39538   2.882   4.243   7.251 -0.1778  0.4364  0.4651
 9360SOL    HW139539   2.977   4.233   7.257 -0.5544 -2.5119  1.6855
 9360SOL    HW239540   2.865   4.333   7.224  1.5364  0.4810 -0.4607
 9361SOL     OW39541   3.086   0.370   2.071  0.0105  0.1612  0.1481
 9361SOL    HW139542   3.055   0.456   2.098  1.6628  0.3497  1.4204
 9361SOL    HW239543   3.112   0.389   1.980 -0.8572  1.5964  0.2028
 9362SOL     OW39544   2.745   1.363   7.151 -0.1799  0.5663  0.2560
 9362SOL    HW139545   2.717   1.418   7.224 -2.7774 -1.8210  1.0455
 9362SOL    HW239546   2.778   1.285   7.194  0.1795  0.4241 -0.2818
 9363SOL     OW39547   2.331   3.997   5.843 -0.3870  0.0548 -0.6258
 9363SOL    HW139548   2.340   4.092   5.845 -2.3775  0.2427 -0.7131
 9363SOL    HW239549   2.237   3.993   5.861 -0.5553  1.8280 -1.1626
 9364SOL     OW39550   4.172   3.386   0.711  0.6710  0.0021  0.0235
 9364SOL    HW139551   4.149   3.304   0.666 -1.2823  0.0251  0.9899
 9364SOL    HW239552   4.267   3.379   0.719  0.7137  0.8754  0.2775
 9365SOL     OW39553   2.777   3.606  15.279 -0.5904  0.1878 -0.1828
 9365SOL    HW139554   2.847   3.613  15.344 -0.7616 -4.0005  0.4353
 9365SOL    HW239555   2.705   3.563  15.326  0.2949 -1.9660 -0.8353
 9366SOL     OW39556   3.601   0.364   0.771  0.1442  0.4336  0.0945
 9366SOL    HW139557   3.531   0.399   0.827  0.3581  3.2385 -1.4521
 9366SOL    HW239558   3.540   0.317   0.714  0.5820 -0.3314  0.2465
 9367SOL     OW39559   1.782   4.291   3.150 -0.6037  0.1746  0.0139
 9367SOL    HW139560   1.806   4.232   3.221 -4.6832 -1.1901  0.2239
 9367SOL    HW239561   1.826   4.371   3.179 -0.5889  0.3442 -0.4682
 9368SOL     OW39562   4.534   3.679   6.903  0.3565  0.4638  0.0949
 9368SOL    HW139563   4.470   3.742   6.935 -0.9427 -0.6057 -0.3803
 9368SOL    HW239564   4.491   3.593   6.903  2.0681 -0.3828  2.0336
 9369SOL     OW39565   0.488   4.510   9.997  0.4160  0.0462  0.4095
 9369SOL    HW139566   0.570   4.559   9.989 -0.0976  0.6736 -1.1172
 9369SOL    HW239567   0.473   4.502  10.091  1.3965  1.1070  0.6556
 9370SOL     OW39568   2.683   1.814   6.359  0.1481  0.1405 -0.1048
 9370SOL    HW139569   2.771   1.851   6.367  0.4574 -0.7111  0.3904
 9370SOL    HW239570   2.618   1.881   6.335  0.2262  1.1932  2.6849
 9371SOL     OW39571   3.246   0.933   8.556 -1.2191 -0.3847  0.3230
 9371SOL    HW139572   3.234   0.984   8.475  1.2738 -1.3470 -0.6841
 9371SOL    HW239573   3.324   0.881   8.535 -0.8678 -0.7956  2.6922
 9372SOL     OW39574   4.356   2.780  10.790 -0.7414 -0.0758 -0.4819
 9372SOL    HW139575   4.266   2.796  10.816 -0.2243  3.1429 -0.7321
 9372SOL    HW239576   4.365   2.684  10.789 -0.2672 -0.0456  2.3517
 9373SOL     OW39577   3.489   4.175   0.604  0.3585 -0.1004 -0.1222
 9373SOL    HW139578   3.466   4.087   0.572  0.3577  0.9487 -2.9840
 9373SOL    HW239579   3.409   4.220   0.576  1.2325  1.7904  0.4693
 9374SOL     OW39580   2.352   3.690   4.993  0.3277 -0.4361  0.1719
 9374SOL    HW139581   2.355   3.783   4.969 -0.6761 -0.2375  0.7872
 9374SOL    HW239582   2.423   3.691   5.057 -0.9480  1.1598  1.5641
 9375SOL     OW39583   3.741   4.460  13.185  0.0160  0.3780  0.2582
 9375SOL    HW139584   3.784   4.412  13.114 -1.1701 -2.2502  1.2976
 9375SOL    HW239585   3.652   4.429  13.167  1.1942 -2.7061 -0.1799
 9376SOL     OW39586   3.540   3.740   5.032 -0.1407 -0.0336 -0.2318
 9376SOL    HW139587   3.499   3.777   5.110  0.6633 -0.7203  0.5103
 9376SOL    HW239588   3.509   3.786   4.954 -0.8103  0.7791  0.5165
 9377SOL     OW39589   1.972   4.099   1.829  0.1811 -0.1248  1.0874
 9377SOL    HW139590   1.919   4.021   1.846 -0.5911  0.2996  0.6372
 9377SOL    HW239591   2.007   4.119   1.915  0.0111  0.6084  0.9830
 9378SOL     OW39592   1.070   2.447   4.335 -0.6849  0.1354  0.4800
 9378SOL    HW139593   1.081   2.508   4.262 -1.7205  0.5001  0.6362
 9378SOL    HW239594   1.004   2.392   4.294  0.7678 -1.1900 -0.0813
 9379SOL     OW39595   3.089   3.070   3.259 -0.3798  0.0841  0.0220
 9379SOL    HW139596   3.088   3.009   3.185  0.2734  0.9376 -0.6836
 9379SOL    HW239597   3.010   3.054   3.311 -2.1233 -3.0412 -3.5400
 9380SOL     OW39598   2.999   3.494   6.449  0.6125 -0.1179  0.9755
 9380SOL    HW139599   2.934   3.424   6.451  1.9359 -1.4358 -1.6027
 9380SOL    HW239600   2.945   3.572   6.440  0.3081 -0.3907  0.3920
 9381SOL     OW39601   1.232   4.476  16.286  0.5279 -0.3199 -0.1641
 9381SOL    HW139602   1.144   4.507  16.306  1.1493  0.5669  1.1407
 9381SOL    HW239603   1.271   4.456  16.371 -0.9377 -3.8141 -0.3065
 9382SOL     OW39604   3.781   2.339   3.715 -0.8924  0.2870 -0.6003
 9382SOL    HW139605   3.838   2.274   3.674 -1.5854 -0.0250 -1.0759
 9382SOL    HW239606   3.763   2.400   3.643  0.6180 -0.4986 -1.6582
 9383SOL     OW39607   1.714   2.284  13.463  0.6673 -0.0587  0.6930
 9383SOL    HW139608   1.674   2.248  13.542  0.6038  0.0721  0.7211
 9383SOL    HW239609   1.756   2.214  13.413 -0.0481  0.1367 -0.1893
 9384SOL     OW39610   1.760   2.870   5.907  0.3565 -0.1550 -0.5835
 9384SOL    HW139611   1.801   2.945   5.864  0.3424 -1.6091 -3.1561
 9384SOL    HW239612   1.679   2.864   5.856 -0.9027 -0.1821  1.4489
 9385SOL     OW39613   2.109   2.421   2.859 -0.2735  0.6289 -0.1805
 9385SOL    HW139614   2.094   2.516   2.855 -1.6596  0.5347  2.2870
 9385SOL    HW239615   2.112   2.392   2.768 -0.4381  1.0459 -0.3225
 9386SOL     OW39616   4.314   2.152   2.668 -0.0977 -0.0478 -0.6571
 9386SOL    HW139617   4.263   2.181   2.743  1.3878  2.5790 -0.6927
 9386SOL    HW239618   4.362   2.232   2.646  0.0743  0.2159  0.7089
 9387SOL     OW39619   2.881   0.859   6.931 -0.6351  0.6688  0.2739
 9387SOL    HW139620   2.967   0.823   6.909 -1.0848  1.8071 -3.3330
 9387SOL    HW239621   2.917   0.888   7.015  1.1064 -0.1677 -0.1805
 9388SOL     OW39622   2.951   3.852   5.650 -0.5486 -0.4950  0.3754
 9388SOL    HW139623   2.891   3.900   5.593 -0.6384 -0.4870  0.4761
 9388SOL    HW239624   2.904   3.772   5.672 -0.8692 -0.5818 -0.6341
 9389SOL     OW39625   0.767   1.896  14.104 -0.4818 -0.0168 -0.0107
 9389SOL    HW139626   0.799   1.977  14.145 -0.9643  0.0661  0.1955
 9389SOL    HW239627   0.805   1.907  14.016 -1.7262 -0.0111 -0.5380
 9390SOL     OW39628   2.225   4.237   6.445 -0.1729  0.8099  0.2791
 9390SOL    HW139629   2.308   4.283   6.436  0.1836  0.6529  2.6355
 9390SOL    HW239630   2.169   4.299   6.398 -0.8883  0.1571  0.2588
 9391SOL     OW39631   1.758   4.025   7.853  0.3237 -0.1048 -0.3959
 9391SOL    HW139632   1.733   4.118   7.859 -0.7491 -0.2841 -2.0217
 9391SOL    HW239633   1.853   4.033   7.844  0.2268  1.2873 -0.2128
 9392SOL     OW39634   1.266   1.211   3.398  0.3807 -0.3996 -0.5046
 9392SOL    HW139635   1.340   1.252   3.443  0.6333  1.0164 -2.2136
 9392SOL    HW239636   1.261   1.268   3.321 -1.5145 -0.9017 -0.7401
 9393SOL     OW39637   1.362   3.096  14.650  0.3428  0.8630  0.1271
 9393SOL    HW139638   1.334   3.113  14.740 -0.0671 -1.0052  0.3644
 9393SOL    HW239639   1.388   3.181  14.616  3.7992 -0.1381  0.3345
 9394SOL     OW39640   1.811   1.416   5.037  0.2883  0.8081  0.5847
 9394SOL    HW139641   1.763   1.333   5.041  1.7980 -0.1199 -0.4185
 9394SOL    HW239642   1.894   1.394   5.081  0.0766  1.3687  1.2735
 9395SOL     OW39643   2.240   2.944   1.973  0.0395  0.4462 -0.4092
 9395SOL    HW139644   2.238   2.926   2.067 -0.4376 -1.7093 -0.8328
 9395SOL    HW239645   2.182   3.020   1.964  0.3356  0.5103 -1.7647
 9396SOL     OW39646   1.463   3.506  13.556 -1.0693 -0.5199  0.1398
 9396SOL    HW139647   1.486   3.417  13.529 -0.6799 -0.3086 -0.2254
 9396SOL    HW239648   1.418   3.546  13.482 -1.1562  0.1670  0.5655
 9397SOL     OW39649   0.290   3.783   8.998 -0.6416  0.6310 -0.5311
 9397SOL    HW139650   0.242   3.843   9.055  0.6190  1.3307 -0.2227
 9397SOL    HW239651   0.228   3.709   9.004  0.6628 -0.2914  1.6991
 9398SOL     OW39652   1.544   3.935   5.499  0.6997  0.1831 -0.6484
 9398SOL    HW139653   1.488   3.968   5.429 -0.5209 -1.2356 -0.3467
 9398SOL    HW239654   1.621   3.907   5.449 -0.1076 -1.9963 -0.6921
 9399SOL     OW39655   4.258   2.598   6.594  0.0220  0.3706 -0.1255
 9399SOL    HW139656   4.251   2.505   6.573 -0.2792  0.4767 -0.4973
 9399SOL    HW239657   4.260   2.595   6.690 -1.7805  2.6462 -0.0113
 9400SOL     OW39658   1.100   4.351   3.506  0.0049 -0.5790 -0.6297
 9400SOL    HW139659   1.173   4.402   3.543 -1.1844  1.7419 -1.5057
 9400SOL    HW239660   1.094   4.380   3.415 -1.4158  0.5379 -0.1834
 9401SOL     OW39661   0.810   4.534   5.083 -0.5757 -0.0285  0.0378
 9401SOL    HW139662   0.742   4.596   5.109  1.6684  2.8752 -1.0354
 9401SOL    HW239663   0.840   4.580   5.005 -0.8231 -0.1396 -0.1242
 9402SOL     OW39664   3.197   3.033   7.093  0.1411  0.0758 -0.0607
 9402SOL    HW139665   3.284   3.030   7.053  0.3342  0.0065  0.3720
 9402SOL    HW239666   3.195   2.952   7.144  0.4580  1.2782  1.8659
 9403SOL     OW39667   1.057   3.253  14.956 -0.7670  0.2386  0.4193
 9403SOL    HW139668   1.008   3.243  15.037  2.6460  0.7000  2.5596
 9403SOL    HW239669   0.985   3.265  14.894 -2.7022 -1.9403  2.2543
 9404SOL     OW39670   2.923   3.794   4.072 -0.3205 -0.6380  0.3748
 9404SOL    HW139671   2.964   3.740   4.140 -0.4146 -1.0687  0.0928
 9404SOL    HW239672   2.934   3.726   4.005  0.9476 -0.1991  0.1354
 9405SOL     OW39673   4.390   1.558   5.445 -0.4220 -0.5750  0.6770
 9405SOL    HW139674   4.383   1.560   5.541  0.0289  2.2889  0.6556
 9405SOL    HW239675   4.334   1.629   5.413 -1.8086 -2.1047 -0.2660
 9406SOL     OW39676   0.670   0.063  15.226 -0.1405  0.2554  0.0215
 9406SOL    HW139677   0.742   0.068  15.289 -0.3924 -1.5146  0.4529
 9406SOL    HW239678   0.650   4.692  15.227  2.1634 -0.2415  1.7018
 9407SOL     OW39679   4.555   4.465   8.169  0.0102  0.0195 -0.3064
 9407SOL    HW139680   4.515   4.485   8.085  1.7334  2.0707 -0.6459
 9407SOL    HW239681   4.481   4.424   8.213  0.4247 -1.5319 -1.0286
 9408SOL     OW39682   2.590   2.743   7.440  0.0635 -0.1238  0.8633
 9408SOL    HW139683   2.632   2.693   7.370  0.3541  1.4334 -0.0839
 9408SOL    HW239684   2.511   2.693   7.459  0.6843 -1.5242 -0.2569
 9409SOL     OW39685   3.413   0.774   5.357  0.0661  0.4185 -0.0629
 9409SOL    HW139686   3.332   0.795   5.404  0.9941  4.9848 -0.5421
 9409SOL    HW239687   3.379   0.761   5.269 -1.0384  0.3426  0.3655
 9410SOL     OW39688   2.566   3.291   3.237  0.3762 -0.0633 -0.0658
 9410SOL    HW139689   2.495   3.326   3.182 -1.8976 -3.6765  0.5321
 9410SOL    HW239690   2.533   3.201   3.241 -0.4604  0.2182 -0.7610
 9411SOL     OW39691   0.375   2.692   5.323  0.2268 -0.1164  0.1435
 9411SOL    HW139692   0.435   2.623   5.351  1.8010  1.7136  1.3040
 9411SOL    HW239693   0.306   2.638   5.285  2.5040 -1.1594 -2.5554
 9412SOL     OW39694   1.083   2.585   2.652  0.1559 -0.3070 -0.2129
 9412SOL    HW139695   1.040   2.500   2.650 -0.5908  0.0455  1.3952
 9412SOL    HW239696   1.114   2.605   2.563  2.2587 -2.9489 -0.0952
 9413SOL     OW39697   2.316   3.006   6.856 -1.0187 -0.0042  0.2077
 9413SOL    HW139698   2.310   2.938   6.789 -1.3828 -0.5598  0.8017
 9413SOL    HW239699   2.403   3.046   6.851 -0.9509 -0.2437 -0.4882
 9414SOL     OW39700   2.287   3.642  14.979 -0.0729  0.0805  0.5307
 9414SOL    HW139701   2.317   3.575  15.041  0.2915 -0.5563 -0.3420
 9414SOL    HW239702   2.195   3.646  15.007 -0.5704 -0.1996 -1.0833
 9415SOL     OW39703   1.773   2.062   5.218  0.1452  0.6446 -0.2165
 9415SOL    HW139704   1.695   2.074   5.163  0.0869  1.7254  0.1045
 9415SOL    HW239705   1.835   2.122   5.177 -0.8678  1.0201 -1.2189
 9416SOL     OW39706   4.095   3.882   7.364 -0.3638  0.0475  0.2153
 9416SOL    HW139707   4.119   3.791   7.382 -1.2009  0.5784  4.0466
 9416SOL    HW239708   4.002   3.874   7.385 -0.4258  0.6031  0.1640
 9417SOL     OW39709   3.304   3.022   5.695  0.0033 -0.4695  0.2144
 9417SOL    HW139710   3.365   3.067   5.637  0.2379 -0.7033  0.2810
 9417SOL    HW239711   3.322   3.071   5.775  0.6343  0.1999 -0.3394
 9418SOL     OW39712   2.099   1.427   7.553  0.2761  0.1053  0.0943
 9418SOL    HW139713   2.055   1.464   7.630 -2.1170 -1.8908 -0.3215
 9418SOL    HW239714   2.079   1.487   7.482 -1.2166 -0.9032 -0.3347
 9419SOL     OW39715   4.446   1.906  16.160  0.0840 -0.5887 -0.3444
 9419SOL    HW139716   4.391   1.852  16.104 -1.9230  0.1218  0.9074
 9419SOL    HW239717   4.380   1.968  16.192 -1.8981 -2.2496 -1.2697
 9420SOL     OW39718   3.304   0.141   1.157 -0.3048 -0.6135  0.6886
 9420SOL    HW139719   3.286   0.114   1.067  1.5931  1.7621 -0.3908
 9420SOL    HW239720   3.235   0.207   1.164  0.5350  0.4106 -0.6130
 9421SOL     OW39721   4.310   1.491   4.700 -0.5841  0.4104 -0.1230
 9421SOL    HW139722   4.397   1.527   4.680 -0.0725  0.2440  1.8186
 9421SOL    HW239723   4.313   1.419   4.636 -1.4573  1.1882 -1.0355
 9422SOL     OW39724   3.908   2.341  11.950 -0.1831 -0.5950  0.7135
 9422SOL    HW139725   3.899   2.352  11.856  0.7578  1.5131  0.8501
 9422SOL    HW239726   3.967   2.410  11.984  0.0135  0.4861 -1.8556
 9423SOL     OW39727   2.413   0.844   1.784 -0.1865  0.2018 -0.8868
 9423SOL    HW139728   2.474   0.772   1.799 -0.5129  0.3890  1.2370
 9423SOL    HW239729   2.412   0.835   1.688 -3.0131  0.5671 -0.8898
 9424SOL     OW39730   0.498   4.663   3.237  0.6774  0.2136  0.0496
 9424SOL    HW139731   0.514   4.570   3.249  1.1768  0.1673 -1.0253
 9424SOL    HW239732   0.408   4.672   3.268 -0.0531  1.7275 -2.5196
 9425SOL     OW39733   2.527   1.157  10.696 -0.4140 -0.1084  0.0329
 9425SOL    HW139734   2.584   1.083  10.676 -0.6956 -0.4540  0.5123
 9425SOL    HW239735   2.495   1.194  10.614  1.2268 -0.8647 -0.9415
 9426SOL     OW39736   4.389   3.027  16.184 -0.0602 -0.7753 -0.7698
 9426SOL    HW139737   4.425   2.980  16.259  0.7369  1.3658  0.2126
 9426SOL    HW239738   4.306   3.055  16.224  1.2450 -1.1241  2.1891
 9427SOL     OW39739   0.222   4.019   4.938  0.2566  0.4150 -0.0846
 9427SOL    HW139740   0.245   3.937   4.982 -0.2421 -0.6800 -1.8445
 9427SOL    HW239741   0.299   4.019   4.882  0.7339 -0.1795  0.5697
 9428SOL     OW39742   2.171   1.108   5.511  0.3560 -0.2117  0.4505
 9428SOL    HW139743   2.212   1.120   5.596  1.0348 -0.9941  0.2297
 9428SOL    HW239744   2.235   1.046   5.475 -0.6137 -1.1811  0.3756
 9429SOL     OW39745   1.148   0.385  13.778  0.2223  0.6058 -0.4047
 9429SOL    HW139746   1.198   0.448  13.727  3.1662  0.2003  1.9589
 9429SOL    HW239747   1.221   0.330  13.805  0.2828  0.7179 -0.3399
 9430SOL     OW39748   4.676   1.621   5.941  0.2109 -0.3548 -0.2925
 9430SOL    HW139749   4.610   1.689   5.934  1.9381  1.5108  1.6639
 9430SOL    HW239750   4.617   1.549   5.918 -1.6191  0.7304  1.0136
 9431SOL     OW39751   3.401   1.691   6.155 -0.0114  0.1083 -0.2268
 9431SOL    HW139752   3.313   1.699   6.190  0.4570  2.2206  0.4555
 9431SOL    HW239753   3.421   1.601   6.180 -2.0413  0.3192  2.1451
 9432SOL     OW39754   0.286   0.258   4.053  0.0444 -0.2338 -0.3339
 9432SOL    HW139755   0.223   0.329   4.067  2.1153  1.2584  1.4032
 9432SOL    HW239756   0.218   0.191   4.042  1.0253 -0.8091 -2.7808
 9433SOL     OW39757   2.374   2.368  14.245 -0.8224  0.1415 -0.0678
 9433SOL    HW139758   2.358   2.433  14.313 -1.5872  0.2780 -0.3763
 9433SOL    HW239759   2.363   2.283  14.287 -0.4091 -0.8202 -1.8995
 9434SOL     OW39760   1.689   2.101   6.085 -0.3250  0.4606  0.1847
 9434SOL    HW139761   1.737   2.039   6.029  0.2194  1.1487 -0.1192
 9434SOL    HW239762   1.709   2.175   6.028 -0.4732  0.6333  0.3587
 9435SOL     OW39763   1.172   0.697   5.008  0.0304 -0.1342  0.1536
 9435SOL    HW139764   1.113   0.624   4.990  2.1835 -1.4072 -1.8148
 9435SOL    HW239765   1.181   0.731   4.918 -1.3160 -0.9841 -0.3029
 9436SOL     OW39766   3.689   3.002   8.199  0.2940 -0.7452  0.0619
 9436SOL    HW139767   3.759   2.942   8.174 -1.8122 -2.3767 -1.8850
 9436SOL    HW239768   3.719   3.075   8.145 -1.3743 -1.2854 -1.5605
 9437SOL     OW39769   4.591   2.641  12.263  0.4035  0.5675 -0.9827
 9437SOL    HW139770   4.528   2.606  12.326 -0.2572  0.5440 -1.6438
 9437SOL    HW239771   4.556   2.626  12.175  1.2740 -0.3672 -1.1619
 9438SOL     OW39772   3.051   2.652   8.911  0.3144 -0.5685 -1.1263
 9438SOL    HW139773   3.038   2.619   8.823 -0.3759  0.0047 -1.2355
 9438SOL    HW239774   2.976   2.627   8.965  0.6649  1.6537  0.3907
 9439SOL     OW39775   4.102   3.806  13.112 -0.0194 -0.3991 -0.2389
 9439SOL    HW139776   4.170   3.860  13.072 -1.1679 -0.6288 -2.4634
 9439SOL    HW239777   4.034   3.825  13.048 -1.3462  0.9288  1.5586
 9440SOL     OW39778   4.214   0.643   3.270  0.7928 -0.5286 -0.0444
 9440SOL    HW139779   4.309   0.650   3.272  0.7998  0.2986 -3.3482
 9440SOL    HW239780   4.185   0.724   3.227 -2.2927 -2.0902 -0.8584
 9441SOL     OW39781   1.506   0.344  13.727  0.3379  0.2233  0.2819
 9441SOL    HW139782   1.461   0.374  13.648  4.0168  2.4128 -0.9958
 9441SOL    HW239783   1.545   0.264  13.692  1.4578  0.1277  1.7736
 9442SOL     OW39784   3.059   4.336  13.283  0.2561 -0.0485 -0.1110
 9442SOL    HW139785   2.996   4.351  13.352  1.8210 -1.4994  1.6482
 9442SOL    HW239786   3.042   4.406  13.221  2.1710 -0.8059 -1.5178
 9443SOL     OW39787   2.370   1.131   7.399 -0.0255  0.5446 -0.4819
 9443SOL    HW139788   2.372   1.168   7.488 -0.9464  1.4490 -0.8420
 9443SOL    HW239789   2.446   1.073   7.409 -0.1347  0.0614 -2.5263
 9444SOL     OW39790   0.088   0.342   2.268  0.0213 -0.1194 -0.1670
 9444SOL    HW139791   0.008   0.395   2.272  0.7116  1.2155 -3.7091
 9444SOL    HW239792   0.129   0.397   2.335  3.4841 -1.2014 -1.4057
 9445SOL     OW39793   0.448   2.773   6.166  0.1713  0.0436  0.2577
 9445SOL    HW139794   0.369   2.778   6.220  0.6924  1.7288  0.8742
 9445SOL    HW239795   0.429   2.707   6.099 -0.7536  1.6379 -1.0493
 9446SOL     OW39796   3.242   0.521   2.739  0.0098 -0.0885 -0.2905
 9446SOL    HW139797   3.224   0.498   2.830  0.3582  1.2390  0.1080
 9446SOL    HW239798   3.300   0.449   2.713 -0.5287 -0.8289  0.5836
 9447SOL     OW39799   2.917   0.110   6.547  0.2000 -0.0725 -0.6397
 9447SOL    HW139800   2.829   0.091   6.580 -0.6455  0.4217 -2.6325
 9447SOL    HW239801   2.900   0.179   6.482 -1.7605  0.9587  0.9872
 9448SOL     OW39802   4.221   1.387   8.056 -0.1337 -0.3919 -0.1789
 9448SOL    HW139803   4.173   1.417   8.133  0.2064  0.1655 -0.1790
 9448SOL    HW239804   4.250   1.472   8.020  1.2624 -0.3212  1.1401
 9449SOL     OW39805   1.560   4.230   3.049 -0.4571 -0.0897 -0.4166
 9449SOL    HW139806   1.637   4.276   3.083 -0.6465 -0.4541  0.5113
 9449SOL    HW239807   1.505   4.218   3.126  0.9919 -1.2512  0.4371
 9450SOL     OW39808   4.326   2.273  11.645  0.0877 -0.3229  0.3439
 9450SOL    HW139809   4.339   2.237  11.557 -0.0335  0.8663 -0.1696
 9450SOL    HW239810   4.296   2.196  11.692  0.6215 -0.4587  0.4657
 9451SOL     OW39811   2.786   1.191  15.321 -0.1907  0.0646  0.2706
 9451SOL    HW139812   2.839   1.270  15.325 -2.2466  1.4112  1.0859
 9451SOL    HW239813   2.709   1.217  15.269 -0.4414  1.1735  1.1889
 9452SOL     OW39814   1.262   2.469   4.496 -0.0706 -0.7501  0.0760
 9452SOL    HW139815   1.251   2.556   4.536  1.9721 -1.3130  1.8592
 9452SOL    HW239816   1.194   2.476   4.429 -0.1448  2.6276  0.5002
 9453SOL     OW39817   2.085   0.520   9.555 -0.2455  0.4738  0.0821
 9453SOL    HW139818   2.029   0.549   9.483  1.3840  1.1042 -0.9329
 9453SOL    HW239819   2.175   0.546   9.535  0.2200 -1.4835 -0.2998
 9454SOL     OW39820   0.794   4.050  15.385  0.2964  0.1566 -0.0539
 9454SOL    HW139821   0.854   4.125  15.384  1.4577 -0.7859 -1.9953
 9454SOL    HW239822   0.735   4.049  15.460  1.9313  1.2602  1.2285
 9455SOL     OW39823   3.222   2.145   4.215  0.2622  0.4262 -0.5627
 9455SOL    HW139824   3.207   2.109   4.128 -0.9732 -1.8182  0.5486
 9455SOL    HW239825   3.132   2.173   4.234 -0.7724 -1.5995 -2.3503
 9456SOL     OW39826   1.138   1.561   3.170  0.6321 -0.2690  0.3855
 9456SOL    HW139827   1.222   1.591   3.204  0.5517  1.6933 -1.1266
 9456SOL    HW239828   1.089   1.643   3.165  2.0844  0.8160  4.2375
 9457SOL     OW39829   0.582   1.413  14.577  0.0077 -0.1488  0.5777
 9457SOL    HW139830   0.541   1.452  14.499  2.1242  1.2867  0.1583
 9457SOL    HW239831   0.670   1.449  14.565  0.1741 -0.6964  0.1608
 9458SOL     OW39832   1.954   2.330   6.392  0.3290  0.8863  0.0997
 9458SOL    HW139833   2.036   2.280   6.395  0.5971  1.2998 -0.3147
 9458SOL    HW239834   1.977   2.395   6.325 -0.2994  1.5005  0.4828
 9459SOL     OW39835   2.633   3.131   2.893  0.9542 -0.1816 -0.8743
 9459SOL    HW139836   2.630   3.050   2.842  0.6388 -0.6553 -0.1078
 9459SOL    HW239837   2.722   3.120   2.927  1.1482  1.3406 -0.9030
 9460SOL     OW39838   3.085   3.623  17.301  0.1668  0.1276 -0.5118
 9460SOL    HW139839   3.151   3.691  17.288 -0.8231  1.3129  0.7267
 9460SOL    HW239840   3.086   3.573  17.219 -4.1809  1.5775 -1.4632
 9461SOL     OW39841   3.770   1.335   6.521  0.0956 -0.1685 -0.0735
 9461SOL    HW139842   3.744   1.365   6.608  2.1343  0.5768  0.2905
 9461SOL    HW239843   3.694   1.286   6.491  0.3592 -0.2776 -0.5774
 9462SOL     OW39844   2.483   3.642   2.915  0.1460  0.4736  0.6118
 9462SOL    HW139845   2.567   3.597   2.903 -0.6636 -0.6379 -0.9880
 9462SOL    HW239846   2.513   3.726   2.882 -0.1890 -0.0866 -1.1315
 9463SOL     OW39847   3.523   3.226   1.538 -0.5769 -0.4222  0.3804
 9463SOL    HW139848   3.561   3.234   1.450 -0.1823 -1.0144  0.4946
 9463SOL    HW239849   3.568   3.299   1.580 -0.6302  0.6110 -1.3554
 9464SOL     OW39850   3.334   0.237   5.362 -0.4031  0.8125  0.3637
 9464SOL    HW139851   3.327   0.222   5.457 -1.2986  0.1906  0.2047
 9464SOL    HW239852   3.239   0.241   5.347 -0.2722 -0.0305 -0.6903
 9465SOL     OW39853   2.670   0.601   8.590 -0.3648 -0.2499 -0.0196
 9465SOL    HW139854   2.680   0.518   8.638 -1.3161 -0.8775 -0.9279
 9465SOL    HW239855   2.744   0.646   8.632 -0.3512 -1.3633  1.1685
 9466SOL     OW39856   1.497   3.088   8.786 -0.0990  0.0336  0.6770
 9466SOL    HW139857   1.491   3.139   8.705  1.7475 -0.6296  0.1110
 9466SOL    HW239858   1.581   3.122   8.818 -0.0385  1.7828 -1.3028
 9467SOL     OW39859   4.587   2.226   2.762  0.0282  0.4357 -0.6881
 9467SOL    HW139860   4.540   2.280   2.699  0.8370  1.1317 -0.6807
 9467SOL    HW239861   4.561   2.269   2.844 -0.1712 -3.7133  1.4267
 9468SOL     OW39862   3.868   0.656   1.912  0.6599 -0.3728  0.1347
 9468SOL    HW139863   3.786   0.693   1.944  0.1671  0.8856 -2.6180
 9468SOL    HW239864   3.840   0.588   1.850  0.3229  1.0057 -1.2399
 9469SOL     OW39865   3.378   1.697   1.568 -0.2151  0.9302  0.6309
 9469SOL    HW139866   3.418   1.615   1.540 -3.7867 -0.9750  0.9866
 9469SOL    HW239867   3.287   1.689   1.538 -0.0846  1.0083  0.2237
 9470SOL     OW39868   0.176   4.039  13.637 -0.1240  0.6886  0.1924
 9470SOL    HW139869   0.260   4.043  13.592  0.8305 -3.4923  1.5696
 9470SOL    HW239870   0.195   4.087  13.718 -0.4889 -1.8468  1.8029
 9471SOL     OW39871   0.604   3.484   5.354 -0.2742  1.2028  0.2650
 9471SOL    HW139872   0.513   3.501   5.377 -0.1587  0.7142  1.0777
 9471SOL    HW239873   0.645   3.467   5.439 -0.1822  0.5080  0.0821
 9472SOL     OW39874   3.215   4.056   3.705  0.2364  0.1668 -0.1911
 9472SOL    HW139875   3.289   3.996   3.705 -0.4258 -0.6387 -0.0938
 9472SOL    HW239876   3.153   4.030   3.772  0.6427 -0.1205  0.0703
 9473SOL     OW39877   0.083   0.327   9.594 -0.6185  0.1849 -0.2491
 9473SOL    HW139878   0.159   0.347   9.648  0.1764 -0.5535 -1.0869
 9473SOL    HW239879   0.017   0.350   9.659  0.4959 -0.7215  1.2106
 9474SOL     OW39880   3.746   0.542   9.039  0.1325  0.2549 -0.1524
 9474SOL    HW139881   3.821   0.596   9.064  0.9551  0.0955 -2.2788
 9474SOL    HW239882   3.688   0.615   9.019 -0.4292 -0.6071 -1.6572
 9475SOL     OW39883   3.321   2.046   6.515  0.2739 -0.2065 -0.1515
 9475SOL    HW139884   3.305   1.956   6.544  0.7615 -0.8551 -1.8842
 9475SOL    HW239885   3.367   2.076   6.593 -0.7522  1.2937 -0.1103
 9476SOL     OW39886   2.343   3.954   1.733 -0.4554 -0.1774 -0.3375
 9476SOL    HW139887   2.359   4.027   1.793  1.3877  0.1682 -1.2782
 9476SOL    HW239888   2.278   3.990   1.672 -0.8660 -1.1858 -0.4983
 9477SOL     OW39889   4.243   0.053  15.066  0.4105  0.2214  0.6062
 9477SOL    HW139890   4.264   0.046  15.159  1.5878  0.0489  0.3280
 9477SOL    HW239891   4.323   0.017  15.027  0.8342  1.5358  0.2534
 9478SOL     OW39892   4.187   2.656   9.047 -0.1261  0.2539  0.1826
 9478SOL    HW139893   4.098   2.688   9.033 -0.0329 -0.0152 -0.9755
 9478SOL    HW239894   4.190   2.601   8.969  0.0976  0.1582  0.2566
 9479SOL     OW39895   3.972   3.444   2.679 -0.1342 -0.0748 -0.3999
 9479SOL    HW139896   3.956   3.537   2.664 -1.6281 -0.3663 -0.6315
 9479SOL    HW239897   3.974   3.437   2.774  3.2496  1.1575 -0.4043
 9480SOL     OW39898   4.573   0.962   2.038  0.6101 -0.4372  0.0328
 9480SOL    HW139899   4.490   0.919   2.060  0.7838 -1.0078 -0.4135
 9480SOL    HW239900   4.567   1.041   2.091 -1.3264 -0.1692 -0.5673
 9481SOL     OW39901   1.811   3.262   3.789  0.1771 -0.2390 -0.0961
 9481SOL    HW139902   1.877   3.301   3.846  0.0170  0.5808 -0.4752
 9481SOL    HW239903   1.745   3.257   3.858 -0.2270 -1.2218 -0.5507
 9482SOL     OW39904   3.479   2.537   3.292  0.0884  0.8651 -0.0450
 9482SOL    HW139905   3.540   2.479   3.245 -1.8417 -0.7852 -0.5061
 9482SOL    HW239906   3.452   2.474   3.358 -1.5535 -0.7036 -2.2351
 9483SOL     OW39907   0.076   4.371   2.338 -0.4589  0.1475 -0.1550
 9483SOL    HW139908   0.170   4.365   2.327 -0.4556 -1.2340  0.5908
 9483SOL    HW239909   0.061   4.464   2.358 -0.2409  0.2359 -0.4124
 9484SOL     OW39910   4.713   1.208   8.376 -0.0479  0.2899  0.0144
 9484SOL    HW139911   4.673   1.258   8.305 -1.2400 -1.3325 -0.4654
 9484SOL    HW239912   0.038   1.273   8.427  1.4509 -1.5764  0.9929
 9485SOL     OW39913   1.682   3.765  10.058 -0.2326 -0.3444  0.0745
 9485SOL    HW139914   1.630   3.704  10.006 -0.8710  0.7190 -0.5438
 9485SOL    HW239915   1.617   3.830  10.087 -0.5000 -0.1225 -1.0501
 9486SOL     OW39916   2.517   0.784   7.615  0.1914 -0.5142  0.0748
 9486SOL    HW139917   2.429   0.746   7.619 -0.1335  0.2498  0.1029
 9486SOL    HW239918   2.527   0.814   7.705  0.4629 -1.1666  0.2620
 9487SOL     OW39919   0.610   2.375   9.170 -0.5778  0.4226 -0.0779
 9487SOL    HW139920   0.528   2.374   9.220 -1.0424  0.5246 -0.8239
 9487SOL    HW239921   0.660   2.311   9.221 -0.6184 -0.9969 -1.8161
 9488SOL     OW39922   4.405   2.291   1.586  0.1581 -0.4716 -0.2259
 9488SOL    HW139923   4.493   2.254   1.592 -0.7660 -2.9655 -2.0564
 9488SOL    HW239924   4.435   2.379   1.609 -0.6731 -0.3340  0.3311
 9489SOL     OW39925   2.567   1.189   2.094  0.3837  0.4381 -0.0668
 9489SOL    HW139926   2.548   1.272   2.049 -2.4703 -0.1680 -0.0061
 9489SOL    HW239927   2.662   1.195   2.095  0.3463  0.7228  1.7664
 9490SOL     OW39928   1.702   1.678   3.945  0.2156  0.3166 -0.0603
 9490SOL    HW139929   1.708   1.771   3.963 -0.3989  0.0559  1.4588
 9490SOL    HW239930   1.619   1.665   3.990 -0.4255 -3.4848 -2.2922
 9491SOL     OW39931   1.113   4.006   7.740  0.2800  0.0115 -0.7014
 9491SOL    HW139932   1.110   4.052   7.656 -2.0255  1.0268 -0.0925
 9491SOL    HW239933   1.074   4.072   7.798 -2.0683 -1.3545 -0.7282
 9492SOL     OW39934   1.308   2.263  12.395  0.1541  0.1769 -0.5515
 9492SOL    HW139935   1.352   2.226  12.318  0.4077  0.6116 -0.6220
 9492SOL    HW239936   1.263   2.193  12.441  2.4644 -0.7926  0.2407
 9493SOL     OW39937   3.021   4.425   4.114 -0.0318 -0.5525 -0.0240
 9493SOL    HW139938   3.070   4.357   4.160  0.5509  0.6521  1.1342
 9493SOL    HW239939   3.088   4.478   4.071 -1.1014 -1.9725 -3.5015
 9494SOL     OW39940   1.366   0.074   8.878 -0.1868 -0.2246 -0.2130
 9494SOL    HW139941   1.442   0.110   8.832 -0.4065 -0.5585 -0.8439
 9494SOL    HW239942   1.384   4.704   8.863 -3.3088 -1.2749  2.4375
 9495SOL     OW39943   2.318   0.583  13.650  0.1994 -0.4262  0.3103
 9495SOL    HW139944   2.245   0.640  13.675 -0.1119 -0.0865 -1.4019
 9495SOL    HW239945   2.391   0.642  13.672  1.2852 -1.0370 -1.6886
 9496SOL     OW39946   3.847   3.345   3.457 -0.4534  0.4597 -0.1578
 9496SOL    HW139947   3.817   3.435   3.446  1.3107  0.9295 -1.0273
 9496SOL    HW239948   3.763   3.300   3.461 -0.4493  0.5007  0.4868
 9497SOL     OW39949   4.667   1.782  16.780 -0.0854 -0.1529 -0.4392
 9497SOL    HW139950   4.577   1.801  16.753  0.0293  1.0049 -0.0062
 9497SOL    HW239951   4.719   1.770  16.700  0.2926  1.5694 -0.4608
 9498SOL     OW39952   2.818   1.858   5.583 -0.1332  0.2630  0.0412
 9498SOL    HW139953   2.765   1.858   5.504 -0.7628  0.3887  0.4665
 9498SOL    HW239954   2.844   1.950   5.572  0.8882 -0.1430 -1.0332
 9499SOL     OW39955   1.367   4.410   5.487  0.1099 -0.5112 -0.6469
 9499SOL    HW139956   1.282   4.450   5.508 -0.5980 -0.5623 -3.4253
 9499SOL    HW239957   1.399   4.471   5.420 -1.2561 -0.4377 -1.2332
 9500SOL     OW39958   1.928   0.879  16.068  0.0888  0.0106  0.2514
 9500SOL    HW139959   1.892   0.947  16.011  0.0830  1.4654  2.0194
 9500SOL    HW239960   1.923   0.932  16.147 -1.1159 -1.0266  0.8640
 9501SOL     OW39961   4.427   3.939   0.339  0.2195 -0.0509 -0.0019
 9501SOL    HW139962   4.439   4.032   0.321 -0.6041  0.1967  0.6960
 9501SOL    HW239963   4.392   3.960   0.426  0.2164 -0.0907  0.0065
 9502SOL     OW39964   3.856   4.246   8.716  0.1239 -0.2749 -0.1082
 9502SOL    HW139965   3.885   4.238   8.625 -0.0749  0.4897 -0.2347
 9502SOL    HW239966   3.829   4.156   8.735  2.0873 -0.6071  1.0691
 9503SOL     OW39967   3.733   3.211   5.891 -0.5305 -0.5260 -0.1422
 9503SOL    HW139968   3.784   3.256   5.824  1.0406 -2.7932 -0.4512
 9503SOL    HW239969   3.701   3.282   5.947  1.8565 -0.6166  1.3135
 9504SOL     OW39970   3.709   3.174  11.435 -0.3403  0.6716 -0.1622
 9504SOL    HW139971   3.742   3.105  11.378  2.5302  0.7122  1.4485
 9504SOL    HW239972   3.642   3.209  11.376  1.8501  3.5855 -0.9114
 9505SOL     OW39973   3.565   4.212  14.831 -0.1362  0.4473  0.0656
 9505SOL    HW139974   3.624   4.223  14.757 -2.2016 -1.1577 -1.8286
 9505SOL    HW239975   3.625   4.194  14.903  0.2900 -2.4223 -1.0200
 9506SOL     OW39976   0.730   2.635   1.969 -1.2495 -0.0490  0.5151
 9506SOL    HW139977   0.653   2.684   1.939 -0.1978  1.4086  0.2385
 9506SOL    HW239978   0.799   2.700   1.965 -1.9398  0.8402  2.7755
 9507SOL     OW39979   2.322   4.709   6.103 -0.1450 -0.2422  0.0358
 9507SOL    HW139980   2.228   4.696   6.094 -0.4587  2.3685 -0.5618
 9507SOL    HW239981   2.346   0.073   6.068  2.8518 -0.0816  2.5168
 9508SOL     OW39982   3.201   1.856   6.277 -0.1363  0.5872 -0.8048
 9508SOL    HW139983   3.203   1.830   6.369 -0.0867  0.2774 -0.8920
 9508SOL    HW239984   3.147   1.935   6.283 -1.6945 -0.7531  2.8091
 9509SOL     OW39985   1.766   3.789  15.550 -0.6588  0.1307  0.0434
 9509SOL    HW139986   1.706   3.859  15.577 -4.2942 -1.4082 -3.9858
 9509SOL    HW239987   1.849   3.835  15.545 -0.1346 -0.6850  1.2734
 9510SOL     OW39988   2.408   3.555   4.098  0.3200  0.2188  0.4276
 9510SOL    HW139989   2.351   3.578   4.025 -1.0352 -0.4107  1.3019
 9510SOL    HW239990   2.466   3.631   4.111  2.1498 -1.3242  1.2014
 9511SOL     OW39991   3.493   4.335  13.131  0.3900  0.1318 -0.3301
 9511SOL    HW139992   3.446   4.289  13.201  1.0511  0.1393  0.1194
 9511SOL    HW239993   3.417   4.376  13.090 -1.4776 -2.1713  0.8092
 9512SOL     OW39994   0.755   2.604   5.303 -0.3961  0.4031 -0.4904
 9512SOL    HW139995   0.843   2.642   5.302 -0.6697  1.0372 -0.2655
 9512SOL    HW239996   0.780   2.513   5.283  0.3392  0.6718 -0.7888
 9513SOL     OW39997   3.488   4.351  14.495  0.5897  0.0200  0.0024
 9513SOL    HW139998   3.534   4.430  14.467 -0.6986  1.5267  2.1663
 9513SOL    HW239999   3.403   4.370  14.457  1.3612  3.1638 -0.1235
 9514SOL     OW40000   1.182   3.410   9.554 -0.5283  0.4556 -0.2560
 9514SOL    HW140001   1.222   3.363   9.627  1.6872  1.3160 -0.9208
 9514SOL    HW240002   1.165   3.491   9.602 -0.3416  1.9533 -2.7417
 9515SOL     OW40003   4.538   4.522   4.178 -0.4229 -0.0922 -0.2356
 9515SOL    HW140004   4.521   4.578   4.102  1.5315  1.2194  0.2807
 9515SOL    HW240005   4.455   4.498   4.219 -1.5726  2.4157 -1.0851
 9516SOL     OW40006   1.896   0.242   1.741  0.2701  0.2563 -0.0316
 9516SOL    HW140007   1.957   0.278   1.677 -0.3310 -1.6033 -1.6650
 9516SOL    HW240008   1.846   0.184   1.683 -0.1417  0.5437  0.0335
 9517SOL     OW40009   2.366   0.390   2.174  0.2174  0.1020 -0.0057
 9517SOL    HW140010   2.416   0.436   2.242 -1.1223  1.4024  0.1008
 9517SOL    HW240011   2.435   0.335   2.136  0.8035  1.8240 -1.4533
 9518SOL     OW40012   4.212   4.085  13.337  0.1711  0.3893 -0.2016
 9518SOL    HW140013   4.188   4.147  13.406  1.7415  0.1266  0.5839
 9518SOL    HW240014   4.246   4.149  13.275  1.1514 -0.0815 -0.1595
 9519SOL     OW40015   2.569   3.424   5.087  0.1841  0.0497 -0.5407
 9519SOL    HW140016   2.604   3.505   5.125  1.9212 -1.3384  0.8003
 9519SOL    HW240017   2.647   3.375   5.065  0.6530  0.8801 -0.7424
 9520SOL     OW40018   3.965   3.371   7.517 -0.5748  0.0701  0.2292
 9520SOL    HW140019   3.913   3.291   7.524 -0.5025 -0.3396 -3.8197
 9520SOL    HW240020   4.007   3.367   7.431 -0.3289 -0.8695  0.4011
 9521SOL     OW40021   0.197   0.299   5.237 -0.0960 -0.0985  0.2823
 9521SOL    HW140022   0.191   0.226   5.177 -1.9754  0.5178 -0.2634
 9521SOL    HW240023   0.214   0.256   5.321 -0.2868 -2.6002 -0.9880
 9522SOL     OW40024   0.237   3.872   3.142  0.0326 -0.1604 -0.6086
 9522SOL    HW140025   0.206   3.909   3.059  0.4164  0.5302 -0.4399
 9522SOL    HW240026   0.282   3.946   3.182  0.9323 -1.8248  1.4535
 9523SOL     OW40027   0.555   1.989   1.563  0.0127 -0.4546 -0.3279
 9523SOL    HW140028   0.593   1.969   1.478  0.8857 -0.0049 -0.0441
 9523SOL    HW240029   0.465   2.009   1.540  0.3609 -0.0659 -1.3625
 9524SOL     OW40030   4.197   2.399   4.297  0.4321 -0.2842 -0.0968
 9524SOL    HW140031   4.129   2.401   4.365  0.6243 -0.2956  0.0939
 9524SOL    HW240032   4.177   2.315   4.256  0.0878 -0.4311  0.3660
 9525SOL     OW40033   3.695   3.225   4.151  0.6575  0.1239 -0.2315
 9525SOL    HW140034   3.743   3.223   4.233 -0.8637  1.5404  0.6914
 9525SOL    HW240035   3.658   3.313   4.160  1.8039  0.5531  0.2867
 9526SOL     OW40036   1.741   3.717   8.783  0.2962  0.1914  0.5128
 9526SOL    HW140037   1.812   3.747   8.841 -0.9122  1.8737  1.1002
 9526SOL    HW240038   1.769   3.732   8.692 -2.1097  0.1517 -0.2137
 9527SOL     OW40039   0.485   3.528  14.001  0.1273 -0.1346  0.5666
 9527SOL    HW140040   0.533   3.569  13.929  1.7968  0.0331  1.7946
 9527SOL    HW240041   0.449   3.606  14.044 -1.2895 -0.2391 -0.4279
 9528SOL     OW40042   1.577   2.054   8.978 -0.1795  0.6767 -0.2373
 9528SOL    HW140043   1.500   2.092   8.936 -0.8663 -2.2091 -1.5288
 9528SOL    HW240044   1.645   2.084   8.918  0.0134  0.2493 -0.2299
 9529SOL     OW40045   0.511   3.742  13.573  0.1110 -0.0678  0.0420
 9529SOL    HW140046   0.602   3.769  13.590 -0.0421  1.7385 -2.1348
 9529SOL    HW240047   0.506   3.690  13.654  0.5605  1.1754  0.8643
 9530SOL     OW40048   1.320   0.682   2.133 -0.1079 -0.6938 -0.0468
 9530SOL    HW140049   1.363   0.603   2.100 -0.2110  0.4521 -2.9372
 9530SOL    HW240050   1.377   0.691   2.209  0.1580 -1.3794 -0.1571
 9531SOL     OW40051   2.644   2.463   0.042  0.4122 -0.0208 -0.0103
 9531SOL    HW140052   2.632   2.447  17.639  0.3826  0.1824 -0.0417
 9531SOL    HW240053   2.554   2.474   0.072  0.8000 -1.7918  1.7987
 9532SOL     OW40054   2.010   2.477   7.110  0.3638 -0.0245 -0.4770
 9532SOL    HW140055   1.935   2.428   7.076 -0.0444  0.0894  0.2454
 9532SOL    HW240056   2.030   2.537   7.038 -0.2039 -0.3102 -0.8747
 9533SOL     OW40057   2.855   0.969  16.141  1.0494  0.0362  0.2282
 9533SOL    HW140058   2.911   1.044  16.161  2.7879 -0.6022 -2.1132
 9533SOL    HW240059   2.895   0.943  16.057 -1.0520  1.4017 -1.1883
 9534SOL     OW40060   1.230   2.349   7.383  0.9106  0.1466 -0.1028
 9534SOL    HW140061   1.150   2.327   7.334  0.1648  1.7255  0.4036
 9534SOL    HW240062   1.206   2.308   7.467 -0.8313 -1.2705 -1.2690
 9535SOL     OW40063   0.180   1.669   8.902 -0.6650 -0.4272 -0.2217
 9535SOL    HW140064   0.214   1.581   8.917 -1.3326 -0.8626 -1.1936
 9535SOL    HW240065   0.107   1.671   8.964 -0.5970 -0.7693 -0.1331
 9536SOL     OW40066   1.398   1.980  16.092 -0.2193 -0.6398  0.2289
 9536SOL    HW140067   1.317   2.028  16.078  1.3431  1.2938 -2.3650
 9536SOL    HW240068   1.364   1.891  16.094  0.3106 -0.8661 -0.7062
 9537SOL     OW40069   3.902   2.216  16.061 -0.0953  0.0466  0.1254
 9537SOL    HW140070   3.856   2.294  16.093  0.7651 -1.2725  4.5255
 9537SOL    HW240071   3.825   2.167  16.032  0.0831  0.3584 -0.8975
 9538SOL     OW40072   0.374   3.231   5.478  0.0052  0.1825  0.3829
 9538SOL    HW140073   0.385   3.324   5.456 -0.9099 -0.1207 -1.3700
 9538SOL    HW240074   0.414   3.218   5.564 -1.4008  1.1777  1.2090
 9539SOL     OW40075   0.907   0.638   6.990  0.5718 -0.3083  0.0170
 9539SOL    HW140076   0.875   0.639   7.081 -0.5065  0.1641 -0.3685
 9539SOL    HW240077   0.831   0.677   6.948  1.3103  0.6951 -0.3749
 9540SOL     OW40078   1.570   3.181   7.425  0.1908  0.2883 -0.1018
 9540SOL    HW140079   1.578   3.237   7.503  0.3578 -0.1547  0.1984
 9540SOL    HW240080   1.497   3.227   7.383 -0.1058  0.6108  0.7483
 9541SOL     OW40081   1.659   3.563   4.033  0.7487 -0.4130  0.4904
 9541SOL    HW140082   1.624   3.492   3.979 -0.8181  1.0199 -0.3768
 9541SOL    HW240083   1.640   3.536   4.123 -0.7923 -0.7822  0.0575
 9542SOL     OW40084   0.269   2.080   6.793 -0.7031 -0.2545 -0.4006
 9542SOL    HW140085   0.224   2.149   6.841  2.7286  0.7892  1.3033
 9542SOL    HW240086   0.359   2.111   6.794 -2.1326  3.8796 -2.2846
 9543SOL     OW40087   1.031   3.947   5.838  0.6073  0.3487 -0.0347
 9543SOL    HW140088   1.051   3.961   5.745 -0.8276  0.1697 -0.3714
 9543SOL    HW240089   1.073   4.026   5.873 -2.2704 -0.0094  4.1783
 9544SOL     OW40090   2.025   1.635   7.886  0.1120 -0.3128 -0.0473
 9544SOL    HW140091   1.953   1.663   7.830  2.2496  1.1865 -2.0297
 9544SOL    HW240092   2.069   1.719   7.903 -0.7504 -0.2201  1.7292
 9545SOL     OW40093   3.647   3.135   7.745 -0.1297 -0.2513  0.7820
 9545SOL    HW140094   3.666   3.161   7.835  0.7092  1.0933  0.2109
 9545SOL    HW240095   3.635   3.222   7.706  1.7427 -0.4661 -0.3083
 9546SOL     OW40096   2.788   4.619   2.031 -0.2434  1.0792  0.2338
 9546SOL    HW140097   2.741   4.670   1.966  1.2423  3.6957  1.1848
 9546SOL    HW240098   2.731   4.544   2.045  1.3464  0.0435  1.1870
 9547SOL     OW40099   4.172   0.122   7.667  0.4435  0.5526  0.2724
 9547SOL    HW140100   4.223   0.151   7.742 -2.9622  0.0820  2.7840
 9547SOL    HW240101   4.242   0.117   7.602 -1.3499  0.1401 -1.6318
 9548SOL     OW40102   2.163   4.023   2.171 -0.1226  0.4074 -0.1996
 9548SOL    HW140103   2.209   3.983   2.245  1.5354  0.7243 -1.0836
 9548SOL    HW240104   2.202   3.979   2.096  0.1528 -0.1817  0.2928
 9549SOL     OW40105   3.404   0.883   7.611  0.6817  0.1941 -0.0392
 9549SOL    HW140106   3.408   0.831   7.692 -2.6860 -1.9069 -1.2361
 9549SOL    HW240107   3.396   0.819   7.540 -0.1152 -1.8594  1.8823
 9550SOL     OW40108   2.736   0.682  10.611 -0.1723 -0.1429  0.5752
 9550SOL    HW140109   2.777   0.749  10.667 -1.4844 -0.4978  1.9610
 9550SOL    HW240110   2.816   0.646  10.573  0.4294  0.9918  0.7611
 9551SOL     OW40111   1.335   1.879   0.562  0.3837 -0.1442  0.6061
 9551SOL    HW140112   1.400   1.899   0.495 -1.4396 -3.2201 -2.0584
 9551SOL    HW240113   1.325   1.783   0.558 -1.8557  0.1483 -0.7361
 9552SOL     OW40114   2.436   1.984   7.869 -0.2751  1.1918 -1.1778
 9552SOL    HW140115   2.511   2.044   7.873  0.3352  0.2898  0.7039
 9552SOL    HW240116   2.397   2.004   7.784 -0.7902  2.0976 -0.7270
 9553SOL     OW40117   3.724   0.185   7.385  0.2664  0.1899 -0.1869
 9553SOL    HW140118   3.717   0.114   7.449  3.0093  1.6898  1.7593
 9553SOL    HW240119   3.693   0.257   7.439  0.4776 -0.8500  1.3291
 9554SOL     OW40120   4.474   1.112   8.038 -0.0218  0.2272  0.0736
 9554SOL    HW140121   4.486   1.177   7.968 -0.3952  1.1134  0.8217
 9554SOL    HW240122   4.562   1.075   8.047  0.6869  1.7957 -0.3534
 9555SOL     OW40123   4.546   3.166   4.560  0.2928  0.0928  0.2021
 9555SOL    HW140124   4.488   3.090   4.549  1.1490 -0.9456  2.7582
 9555SOL    HW240125   4.493   3.238   4.525 -0.4519 -1.0571 -1.0544
 9556SOL     OW40126   2.256   1.051  14.387 -0.0141 -0.0571 -0.2676
 9556SOL    HW140127   2.300   0.973  14.353 -1.3595 -1.5355  1.3893
 9556SOL    HW240128   2.284   1.118  14.325  0.5958 -1.5373 -1.5859
 9557SOL     OW40129   1.030   3.864  10.087  0.0338 -0.0368  0.5088
 9557SOL    HW140130   1.023   3.943  10.034 -1.6636 -1.5742 -1.5774
 9557SOL    HW240131   0.993   3.800  10.026  2.3542 -0.8975  0.0081
 9558SOL     OW40132   2.145   2.397   3.908  0.2439 -0.5380  0.3590
 9558SOL    HW140133   2.116   2.489   3.904  0.1954 -0.4814  1.9737
 9558SOL    HW240134   2.096   2.351   3.840  0.2303 -1.3223  0.8995
 9559SOL     OW40135   3.281   0.760   5.133 -0.7108  0.5699 -0.1673
 9559SOL    HW140136   3.195   0.721   5.118 -0.8546 -0.2141  2.6417
 9559SOL    HW240137   3.336   0.698   5.086 -1.0364  1.3755 -1.5953
 9560SOL     OW40138   2.652   3.181   1.391 -0.3290  0.1882  0.5629
 9560SOL    HW140139   2.638   3.228   1.309  1.6635 -0.0921  0.0474
 9560SOL    HW240140   2.598   3.104   1.373  0.0479 -0.2242  1.1885
 9561SOL     OW40141   1.507   4.512   8.345  0.3652 -0.0492 -0.0485
 9561SOL    HW140142   1.543   4.599   8.330  0.5630  0.0304  0.9072
 9561SOL    HW240143   1.438   4.537   8.406 -0.3349 -0.1359 -0.7991
 9562SOL     OW40144   3.168   1.249   2.218 -0.0079  0.1920 -0.0270
 9562SOL    HW140145   3.130   1.334   2.194  0.0743 -0.1613 -1.3726
 9562SOL    HW240146   3.105   1.184   2.188 -1.3382  0.3083  2.4877
 9563SOL     OW40147   1.483   0.362   1.831 -0.1104 -0.3111 -0.0509
 9563SOL    HW140148   1.493   0.267   1.841  0.8007 -0.2770 -0.6548
 9563SOL    HW240149   1.486   0.399   1.919 -0.3721  1.7486 -0.9255
 9564SOL     OW40150   0.220   0.396   4.380 -0.2997  0.2730  0.2811
 9564SOL    HW140151   0.164   0.319   4.390 -1.9195  1.2753 -0.9437
 9564SOL    HW240152   0.178   0.424   4.298 -0.6486  0.1276  0.4094
 9565SOL     OW40153   3.861   3.989  13.331  0.2333  0.3998 -0.0225
 9565SOL    HW140154   3.777   4.030  13.312  0.0794  0.1367  0.1004
 9565SOL    HW240155   3.914   4.026  13.260  0.5704  0.8608  0.4663
   4.72202   4.72202  17.69024
